   3   3   0   0
  0.1429167E+02  0.3500000E-09  0.3500000E-09  0.3500000E-09  0.1000000E-16
  1.000000000000000E-004
  CAR 
 unknown system                          
     18.28456859     -2.84249080  301     10.45978887      1.00000000
     -2.842  0.0000E+00  0.0000E+00
     -2.772  0.0000E+00  0.0000E+00
     -2.702  0.0000E+00  0.0000E+00
     -2.631  0.0000E+00  0.0000E+00
     -2.561  0.0000E+00  0.0000E+00
     -2.490 -0.2169E-27 -0.1527E-28
     -2.420 -0.6052E-25 -0.4277E-26
     -2.350 -0.1318E-22 -0.9327E-24
     -2.279 -0.2236E-20 -0.1584E-21
     -2.209 -0.2951E-18 -0.2094E-19
     -2.138 -0.3030E-16 -0.2154E-17
     -2.068 -0.2419E-14 -0.1725E-15
     -1.997 -0.1453E-12 -0.1041E-13
     -1.927 -0.6988E-11 -0.5025E-12
     -1.857 -0.2600E-09 -0.1882E-10
     -1.786 -0.7492E-08 -0.5464E-09
     -1.716 -0.1668E-06 -0.1230E-07
     -1.645 -0.2865E-05 -0.2141E-06
     -1.575 -0.3782E-04 -0.2878E-05
     -1.504 -0.3820E-03 -0.2978E-04
     -1.434 -0.2932E-02 -0.2362E-03
     -1.364 -0.1691E-01 -0.1427E-02
     -1.293 -0.7184E-01 -0.6486E-02
     -1.223 -0.2161E+00 -0.2171E-01
     -1.152 -0.4136E+00 -0.5083E-01
     -1.082 -0.2817E+00 -0.7067E-01
     -1.011  0.9845E+00 -0.1336E-02
     -0.941  0.3821E+01  0.2677E+00
     -0.871  0.7053E+01  0.7644E+00
     -0.800  0.8302E+01  0.1349E+01
     -0.730  0.6487E+01  0.1806E+01
     -0.659  0.3153E+01  0.2028E+01
     -0.589  0.6014E+00  0.2070E+01
     -0.519 -0.3703E+00  0.2044E+01
     -0.448 -0.3807E+00  0.2017E+01
     -0.378 -0.1787E+00  0.2005E+01
     -0.307 -0.5514E-01  0.2001E+01
     -0.237 -0.1218E-01  0.2000E+01
     -0.166 -0.1991E-02  0.2000E+01
     -0.096 -0.2454E-03  0.2000E+01
     -0.026 -0.2301E-04  0.2000E+01
      0.045 -0.1653E-05  0.2000E+01
      0.115 -0.9135E-07  0.2000E+01
      0.186 -0.3894E-08  0.2000E+01
      0.256 -0.1284E-09  0.2000E+01
      0.327 -0.3273E-11  0.2000E+01
      0.397 -0.6937E-13  0.2000E+01
      0.467  0.0000E+00  0.2000E+01
      0.538  0.0000E+00  0.2000E+01
      0.608  0.0000E+00  0.2000E+01
      0.679  0.0000E+00  0.2000E+01
      0.749  0.0000E+00  0.2000E+01
      0.820  0.0000E+00  0.2000E+01
      0.890  0.0000E+00  0.2000E+01
      0.960  0.0000E+00  0.2000E+01
      1.031  0.0000E+00  0.2000E+01
      1.101  0.0000E+00  0.2000E+01
      1.172  0.0000E+00  0.2000E+01
      1.242  0.0000E+00  0.2000E+01
      1.312  0.0000E+00  0.2000E+01
      1.383  0.0000E+00  0.2000E+01
      1.453  0.0000E+00  0.2000E+01
      1.524  0.0000E+00  0.2000E+01
      1.594  0.0000E+00  0.2000E+01
      1.665  0.0000E+00  0.2000E+01
      1.735  0.0000E+00  0.2000E+01
      1.805  0.0000E+00  0.2000E+01
      1.876  0.0000E+00  0.2000E+01
      1.946  0.0000E+00  0.2000E+01
      2.017  0.0000E+00  0.2000E+01
      2.087  0.0000E+00  0.2000E+01
      2.158  0.0000E+00  0.2000E+01
      2.228  0.0000E+00  0.2000E+01
      2.298  0.0000E+00  0.2000E+01
      2.369  0.0000E+00  0.2000E+01
      2.439  0.0000E+00  0.2000E+01
      2.510  0.0000E+00  0.2000E+01
      2.580  0.0000E+00  0.2000E+01
      2.651  0.0000E+00  0.2000E+01
      2.721  0.0000E+00  0.2000E+01
      2.791  0.0000E+00  0.2000E+01
      2.862  0.0000E+00  0.2000E+01
      2.932  0.0000E+00  0.2000E+01
      3.003  0.0000E+00  0.2000E+01
      3.073  0.0000E+00  0.2000E+01
      3.144  0.0000E+00  0.2000E+01
      3.214  0.0000E+00  0.2000E+01
      3.284 -0.9230E-27  0.2000E+01
      3.355 -0.2417E-24  0.2000E+01
      3.425 -0.4943E-22  0.2000E+01
      3.496 -0.7867E-20  0.2000E+01
      3.566 -0.9745E-18  0.2000E+01
      3.636 -0.9389E-16  0.2000E+01
      3.707 -0.7033E-14  0.2000E+01
      3.777 -0.3968E-12  0.2000E+01
      3.848 -0.1786E-10  0.2000E+01
      3.918 -0.6231E-09  0.2000E+01
      3.989 -0.1682E-07  0.2000E+01
      4.059 -0.3509E-06  0.2000E+01
      4.129 -0.5641E-05  0.2000E+01
      4.200 -0.6963E-04  0.2000E+01
      4.270 -0.6567E-03  0.2000E+01
      4.341 -0.4697E-02  0.2000E+01
      4.411 -0.2517E-01  0.1998E+01
      4.482 -0.9889E-01  0.1991E+01
      4.552 -0.2725E+00  0.1972E+01
      4.622 -0.4665E+00  0.1939E+01
      4.693 -0.2282E+00  0.1923E+01
      4.763  0.1173E+01  0.2005E+01
      4.834  0.3894E+01  0.2280E+01
      4.904  0.6976E+01  0.2771E+01
      4.975  0.9660E+01  0.3451E+01
      5.045  0.1262E+02  0.4340E+01
      5.115  0.1590E+02  0.5459E+01
      5.186  0.1685E+02  0.6646E+01
      5.256  0.1316E+02  0.7573E+01
      5.327  0.6672E+01  0.8043E+01
      5.397  0.1451E+01  0.8145E+01
      5.467 -0.6967E+00  0.8096E+01
      5.538 -0.8062E+00  0.8039E+01
      5.608 -0.3971E+00  0.8011E+01
      5.679 -0.1271E+00  0.8002E+01
      5.749 -0.2900E-01  0.8000E+01
      5.820 -0.4890E-02  0.8000E+01
      5.890 -0.6205E-03  0.8000E+01
      5.960 -0.5987E-04  0.8000E+01
      6.031 -0.4423E-05  0.8000E+01
      6.101 -0.2512E-06  0.8000E+01
      6.172 -0.1101E-07  0.8000E+01
      6.242 -0.3728E-09  0.8000E+01
      6.313 -0.9781E-11  0.8000E+01
      6.383 -0.2018E-12  0.8000E+01
      6.453  0.0000E+00  0.8000E+01
      6.524  0.0000E+00  0.8000E+01
      6.594  0.0000E+00  0.8000E+01
      6.665  0.0000E+00  0.8000E+01
      6.735  0.0000E+00  0.8000E+01
      6.806  0.0000E+00  0.8000E+01
      6.876  0.0000E+00  0.8000E+01
      6.946  0.0000E+00  0.8000E+01
      7.017  0.0000E+00  0.8000E+01
      7.087  0.0000E+00  0.8000E+01
      7.158  0.0000E+00  0.8000E+01
      7.228  0.0000E+00  0.8000E+01
      7.298  0.0000E+00  0.8000E+01
      7.369  0.0000E+00  0.8000E+01
      7.439  0.0000E+00  0.8000E+01
      7.510  0.0000E+00  0.8000E+01
      7.580  0.0000E+00  0.8000E+01
      7.651  0.0000E+00  0.8000E+01
      7.721  0.0000E+00  0.8000E+01
      7.791  0.0000E+00  0.8000E+01
      7.862  0.0000E+00  0.8000E+01
      7.932  0.0000E+00  0.8000E+01
      8.003  0.0000E+00  0.8000E+01
      8.073  0.0000E+00  0.8000E+01
      8.144  0.0000E+00  0.8000E+01
      8.214  0.0000E+00  0.8000E+01
      8.284  0.0000E+00  0.8000E+01
      8.355  0.0000E+00  0.8000E+01
      8.425  0.0000E+00  0.8000E+01
      8.496  0.0000E+00  0.8000E+01
      8.566  0.0000E+00  0.8000E+01
      8.637  0.0000E+00  0.8000E+01
      8.707  0.0000E+00  0.8000E+01
      8.777  0.0000E+00  0.8000E+01
      8.848  0.0000E+00  0.8000E+01
      8.918 -0.1539E-25  0.8000E+01
      8.989 -0.3666E-23  0.8000E+01
      9.059 -0.6819E-21  0.8000E+01
      9.130 -0.9873E-19  0.8000E+01
      9.200 -0.1112E-16  0.8000E+01
      9.270 -0.9745E-15  0.8000E+01
      9.341 -0.6323E-13  0.8000E+01
      9.411 -0.3402E-11  0.8000E+01
      9.482 -0.1391E-09  0.8000E+01
      9.552 -0.4406E-08  0.8000E+01
      9.622 -0.1080E-06  0.8000E+01
      9.693 -0.2043E-05  0.8000E+01
      9.763 -0.2976E-04  0.8000E+01
      9.834 -0.3322E-03  0.8000E+01
      9.904 -0.2827E-02  0.8000E+01
      9.975 -0.1817E-01  0.7998E+01
     10.045 -0.8680E-01  0.7992E+01
     10.115 -0.2992E+00  0.7971E+01
     10.186 -0.6931E+00  0.7923E+01
     10.256 -0.8303E+00  0.7864E+01
     10.327  0.6513E+00  0.7910E+01
     10.397  0.5210E+01  0.8277E+01
     10.468  0.1189E+02  0.9114E+01
     10.538  0.1638E+02  0.1027E+02
     10.608  0.1495E+02  0.1132E+02
     10.679  0.8836E+01  0.1194E+02
     10.749  0.2748E+01  0.1214E+02
     10.820 -0.3352E+00  0.1211E+02
     10.890 -0.8789E+00  0.1205E+02
     10.961 -0.5620E+00  0.1201E+02
     11.031 -0.3673E+00  0.1199E+02
     11.101 -0.4350E+00  0.1195E+02
     11.172 -0.3587E+00  0.1193E+02
     11.242  0.6966E+00  0.1198E+02
     11.313  0.3330E+01  0.1221E+02
     11.383  0.6647E+01  0.1268E+02
     11.453  0.8315E+01  0.1327E+02
     11.524  0.6908E+01  0.1375E+02
     11.594  0.3638E+01  0.1401E+02
     11.665  0.8744E+00  0.1407E+02
     11.735 -0.3098E+00  0.1405E+02
     11.806 -0.4057E+00  0.1402E+02
     11.876 -0.2057E+00  0.1401E+02
     11.946 -0.6699E-01  0.1400E+02
     12.017 -0.1549E-01  0.1400E+02
     12.087 -0.2644E-02  0.1400E+02
     12.158 -0.3394E-03  0.1400E+02
     12.228 -0.3312E-04  0.1400E+02
     12.299 -0.2473E-05  0.1400E+02
     12.369 -0.1420E-06  0.1400E+02
     12.439 -0.6287E-08  0.1400E+02
     12.510 -0.2152E-09  0.1400E+02
     12.580 -0.5701E-11  0.1400E+02
     12.651 -0.1198E-12  0.1400E+02
     12.721  0.0000E+00  0.1400E+02
     12.792  0.0000E+00  0.1400E+02
     12.862  0.0000E+00  0.1400E+02
     12.932  0.0000E+00  0.1400E+02
     13.003  0.0000E+00  0.1400E+02
     13.073  0.0000E+00  0.1400E+02
     13.144  0.0000E+00  0.1400E+02
     13.214  0.0000E+00  0.1400E+02
     13.284  0.0000E+00  0.1400E+02
     13.355  0.0000E+00  0.1400E+02
     13.425  0.0000E+00  0.1400E+02
     13.496  0.0000E+00  0.1400E+02
     13.566  0.0000E+00  0.1400E+02
     13.637  0.0000E+00  0.1400E+02
     13.707  0.0000E+00  0.1400E+02
     13.777  0.0000E+00  0.1400E+02
     13.848  0.0000E+00  0.1400E+02
     13.918  0.0000E+00  0.1400E+02
     13.989  0.0000E+00  0.1400E+02
     14.059  0.0000E+00  0.1400E+02
     14.130  0.0000E+00  0.1400E+02
     14.200  0.0000E+00  0.1400E+02
     14.270  0.0000E+00  0.1400E+02
     14.341  0.0000E+00  0.1400E+02
     14.411  0.0000E+00  0.1400E+02
     14.482  0.0000E+00  0.1400E+02
     14.552  0.0000E+00  0.1400E+02
     14.623 -0.6789E-28  0.1400E+02
     14.693 -0.1992E-25  0.1400E+02
     14.763 -0.4563E-23  0.1400E+02
     14.834 -0.8138E-21  0.1400E+02
     14.904 -0.1130E-18  0.1400E+02
     14.975 -0.1220E-16  0.1400E+02
     15.045 -0.1024E-14  0.1400E+02
     15.116 -0.6527E-13  0.1400E+02
     15.186 -0.3277E-11  0.1400E+02
     15.256 -0.1284E-09  0.1400E+02
     15.327 -0.3894E-08  0.1400E+02
     15.397 -0.9135E-07  0.1400E+02
     15.468 -0.1653E-05  0.1400E+02
     15.538 -0.2301E-04  0.1400E+02
     15.608 -0.2454E-03  0.1400E+02
     15.679 -0.1991E-02  0.1400E+02
     15.749 -0.1218E-01  0.1400E+02
     15.820 -0.5514E-01  0.1400E+02
     15.890 -0.1787E+00  0.1398E+02
     15.961 -0.3807E+00  0.1396E+02
     16.031 -0.3703E+00  0.1393E+02
     16.101  0.6014E+00  0.1397E+02
     16.172  0.3153E+01  0.1419E+02
     16.242  0.6487E+01  0.1465E+02
     16.313  0.8302E+01  0.1524E+02
     16.383  0.7053E+01  0.1573E+02
     16.454  0.3821E+01  0.1600E+02
     16.524  0.9845E+00  0.1607E+02
     16.594 -0.2817E+00  0.1605E+02
     16.665 -0.4136E+00  0.1602E+02
     16.735 -0.2161E+00  0.1601E+02
     16.806 -0.7184E-01  0.1600E+02
     16.876 -0.1691E-01  0.1600E+02
     16.947 -0.2932E-02  0.1600E+02
     17.017 -0.3820E-03  0.1600E+02
     17.087 -0.3782E-04  0.1600E+02
     17.158 -0.2865E-05  0.1600E+02
     17.228 -0.1668E-06  0.1600E+02
     17.299 -0.7492E-08  0.1600E+02
     17.369 -0.2600E-09  0.1600E+02
     17.439 -0.6993E-11  0.1600E+02
     17.510 -0.1450E-12  0.1600E+02
     17.580  0.0000E+00  0.1600E+02
     17.651  0.0000E+00  0.1600E+02
     17.721  0.0000E+00  0.1600E+02
     17.792  0.0000E+00  0.1600E+02
     17.862  0.0000E+00  0.1600E+02
     17.932  0.0000E+00  0.1600E+02
     18.003  0.0000E+00  0.1600E+02
     18.073  0.0000E+00  0.1600E+02
     18.144  0.0000E+00  0.1600E+02
     18.214  0.0000E+00  0.1600E+02
     18.285  0.0000E+00  0.1600E+02
