       N       E                     dE             d eps       ncg     rms          rms(c)
DAV:   1    -0.892545809717E+01   -0.89255E+01   -0.76406E-01    16   0.482E+00    0.211E+00
DAV:   2    -0.875632257540E+01    0.16914E+00   -0.23466E-01    16   0.274E+00    0.118E+00
DAV:   3    -0.870593368638E+01    0.50389E-01   -0.19021E-01    16   0.240E+00    0.286E-01
DAV:   4    -0.870561582312E+01    0.31786E-03   -0.61468E-03    16   0.637E-01    0.254E-02
DAV:   5    -0.870558916106E+01    0.26662E-04   -0.38189E-04    32   0.135E-01    0.128E-02
DAV:   6    -0.870557715113E+01    0.12010E-04   -0.11387E-05    16   0.311E-02    0.132E-03
DAV:   7    -0.870557713192E+01    0.19206E-07   -0.29169E-07    32   0.423E-03
   1 F= -.87055771E+01 E0= -.86780695E+01  d E =-.825229E-01
       N       E                     dE             d eps       ncg     rms          rms(c)
DAV:   1    -0.870530006366E+01    0.27709E-03   -0.14762E-02    16   0.934E-01    0.556E-02
DAV:   2    -0.870521306238E+01    0.87001E-04   -0.43747E-04    32   0.161E-01    0.183E-02
DAV:   3    -0.870520271256E+01    0.10350E-04   -0.58333E-05    16   0.411E-02    0.451E-03
DAV:   4    -0.870520333013E+01   -0.61757E-06   -0.30765E-06    32   0.153E-02
   2 F= -.87052033E+01 E0= -.86777101E+01  d E =-.824797E-01
       N       E                     dE             d eps       ncg     rms          rms(c)
DAV:   1    -0.870559164322E+01   -0.38893E-03   -0.63231E-02    16   0.187E+00    0.111E-01
DAV:   2    -0.870524208566E+01    0.34956E-03   -0.17463E-03    32   0.322E-01    0.366E-02
DAV:   3    -0.870520048607E+01    0.41600E-04   -0.23292E-04    16   0.821E-02    0.898E-03
DAV:   4    -0.870520294376E+01   -0.24577E-05   -0.12413E-05    32   0.307E-02    0.457E-03
DAV:   5    -0.870520346294E+01   -0.51917E-06   -0.35743E-07    32   0.586E-03
   3 F= -.87052035E+01 E0= -.86777102E+01  d E =-.824798E-01
