       N       E                     dE             d eps       ncg     rms          rms(c)
DAV:   1     0.827404011003E+03    0.82740E+03   -0.31580E+04   174   0.293E+03
DAV:   2     0.512825627183E+02   -0.77612E+03   -0.74770E+03   164   0.835E+02
DAV:   3    -0.475443661901E+02   -0.98827E+02   -0.97946E+02   168   0.217E+02
DAV:   4    -0.512872678129E+02   -0.37429E+01   -0.37315E+01   200   0.448E+01
DAV:   5    -0.513386923110E+02   -0.51424E-01   -0.51420E-01   174   0.553E+00    0.250E+01
DAV:   6    -0.477015806413E+02    0.36371E+01   -0.23417E+01   187   0.297E+01    0.887E+00
DAV:   7    -0.479948906569E+02   -0.29331E+00   -0.79235E-01   169   0.743E+00    0.358E+00
DAV:   8    -0.479895368592E+02    0.53538E-02   -0.70539E-02   176   0.263E+00    0.184E+00
DAV:   9    -0.479819839885E+02    0.75529E-02   -0.54021E-02   180   0.219E+00    0.370E-01
DAV:  10    -0.479834343204E+02   -0.14503E-02   -0.20406E-03   184   0.321E-01    0.126E-01
DAV:  11    -0.479836327754E+02   -0.19845E-03   -0.34439E-04   145   0.113E-01    0.627E-02
DAV:  12    -0.479837810916E+02   -0.14832E-03   -0.13238E-04   118   0.871E-02    0.191E-02
DAV:  13    -0.479837914845E+02   -0.10393E-04   -0.15893E-05    74   0.384E-02
   1 F= -.47983791E+02 E0= -.47983791E+02  d E =-.479838E+02  mag=     0.0000
       N       E                     dE             d eps       ncg     rms          rms(c)
DAV:   1    -0.487554138907E+02   -0.77163E+00   -0.13625E+01   190   0.400E+01    0.663E+00
DAV:   2    -0.481372944578E+02    0.61812E+00   -0.16784E+00   168   0.802E+00    0.268E+00
DAV:   3    -0.480533753570E+02    0.83919E-01   -0.86500E-02   174   0.315E+00    0.133E+00
DAV:   4    -0.480243866662E+02    0.28989E-01   -0.26501E-02   222   0.249E+00    0.837E-02
DAV:   5    -0.480240257400E+02    0.36093E-03   -0.38479E-03   169   0.579E-01    0.281E-02
DAV:   6    -0.480239128017E+02    0.11294E-03   -0.15474E-04    89   0.168E-01    0.560E-03
DAV:   7    -0.480239160497E+02   -0.32480E-05   -0.41057E-05    74   0.590E-02
   2 F= -.48023916E+02 E0= -.48023916E+02  d E =-.401246E-01  mag=     0.0000
       N       E                     dE             d eps       ncg     rms          rms(c)
DAV:   1    -0.480673294601E+02   -0.43417E-01   -0.75424E-01   190   0.982E+00    0.154E+00
DAV:   2    -0.480340354179E+02    0.33294E-01   -0.92101E-02   158   0.190E+00    0.616E-01
DAV:   3    -0.480294946511E+02    0.45408E-02   -0.42258E-03   184   0.712E-01    0.307E-01
DAV:   4    -0.480278802048E+02    0.16144E-02   -0.13397E-03   116   0.564E-01    0.160E-02
DAV:   5    -0.480278695028E+02    0.10702E-04   -0.33084E-04   132   0.175E-01
   3 F= -.48027870E+02 E0= -.48027870E+02  d E =-.440780E-01  mag=     0.0000
