 107 107   0   0
  0.1212439E+02  0.1090639E-08  0.1090639E-08  0.1090639E-08  0.5000000E-15
  1.000000000000000E-004
  CAR 
 unknown system                          
     26.93925647     -7.53427508  301      3.68303795      1.00000000
     -7.534  0.0000E+00  0.0000E+00  0.0000E+00  0.0000E+00
     -7.419  0.0000E+00  0.0000E+00  0.0000E+00  0.0000E+00
     -7.304  0.0000E+00  0.0000E+00  0.0000E+00  0.0000E+00
     -7.190  0.0000E+00  0.0000E+00  0.0000E+00  0.0000E+00
     -7.075  0.0000E+00  0.0000E+00  0.0000E+00  0.0000E+00
     -6.960  0.0000E+00  0.0000E+00  0.0000E+00  0.0000E+00
     -6.845  0.0000E+00  0.0000E+00  0.0000E+00  0.0000E+00
     -6.730  0.0000E+00  0.0000E+00  0.0000E+00  0.0000E+00
     -6.615  0.0000E+00  0.0000E+00  0.0000E+00  0.0000E+00
     -6.500  0.0000E+00  0.0000E+00  0.0000E+00  0.0000E+00
     -6.385  0.0000E+00  0.0000E+00  0.0000E+00  0.0000E+00
     -6.270  0.0000E+00  0.0000E+00  0.0000E+00  0.0000E+00
     -6.155  0.0000E+00  0.0000E+00  0.0000E+00  0.0000E+00
     -6.040  0.0000E+00  0.0000E+00  0.0000E+00  0.0000E+00
     -5.926  0.0000E+00  0.0000E+00  0.0000E+00  0.0000E+00
     -5.811  0.0000E+00  0.0000E+00  0.0000E+00  0.0000E+00
     -5.696  0.0000E+00  0.0000E+00  0.0000E+00  0.0000E+00
     -5.581  0.0000E+00  0.0000E+00  0.0000E+00  0.0000E+00
     -5.466  0.1200E+01  0.1196E+01  0.7593E-01  0.7547E-01
     -5.351  0.3025E+01  0.3023E+01  0.3505E+00  0.3494E+00
     -5.236  0.2976E+01  0.2977E+01  0.7048E+00  0.7036E+00
     -5.121  0.1010E+01  0.1014E+01  0.9550E+00  0.9545E+00
     -5.006  0.4046E+01  0.4036E+01  0.1165E+01  0.1164E+01
     -4.891  0.3354E+01  0.3362E+01  0.1734E+01  0.1732E+01
     -4.776  0.3042E+01  0.3043E+01  0.2108E+01  0.2107E+01
     -4.661  0.2189E+01  0.2182E+01  0.2464E+01  0.2463E+01
     -4.547  0.4650E+01  0.4645E+01  0.2969E+01  0.2967E+01
     -4.432  0.4322E+01  0.4323E+01  0.3707E+01  0.3706E+01
     -4.317  0.2870E+01  0.2914E+01  0.4177E+01  0.4176E+01
     -4.202  0.5196E+01  0.5193E+01  0.4622E+01  0.4620E+01
     -4.087  0.3827E+01  0.3832E+01  0.5241E+01  0.5240E+01
     -3.972  0.3776E+01  0.3785E+01  0.6137E+01  0.6136E+01
     -3.857  0.1018E+02  0.1033E+02  0.6760E+01  0.6756E+01
     -3.742  0.3146E+01  0.2941E+01  0.7250E+01  0.7249E+01
     -3.627  0.0000E+00  0.0000E+00  0.8000E+01  0.8000E+01
     -3.512  0.3182E+01  0.3172E+01  0.8863E+01  0.8862E+01
     -3.397  0.8715E+01  0.8722E+01  0.9605E+01  0.9602E+01
     -3.283  0.3811E+01  0.3819E+01  0.1039E+02  0.1039E+02
     -3.168  0.1018E+02  0.1022E+02  0.1108E+02  0.1107E+02
     -3.053  0.9738E+01  0.9792E+01  0.1231E+02  0.1230E+02
     -2.938  0.1069E+02  0.1066E+02  0.1358E+02  0.1358E+02
     -2.823  0.9740E+01  0.9719E+01  0.1453E+02  0.1452E+02
     -2.708  0.6608E+01  0.6621E+01  0.1584E+02  0.1584E+02
     -2.593  0.3378E+01  0.3368E+01  0.1643E+02  0.1643E+02
     -2.478  0.8375E+01  0.1097E+02  0.1704E+02  0.1704E+02
     -2.363  0.1876E+02  0.1876E+02  0.1887E+02  0.1886E+02
     -2.248  0.1136E+02  0.1182E+02  0.2076E+02  0.2076E+02
     -2.133  0.9108E+01  0.9105E+01  0.2196E+02  0.2196E+02
     -2.019  0.1435E+02  0.1436E+02  0.2300E+02  0.2300E+02
     -1.904  0.1926E+02  0.1917E+02  0.2468E+02  0.2467E+02
     -1.789  0.1432E+02  0.1427E+02  0.2646E+02  0.2646E+02
     -1.674  0.2156E+02  0.2158E+02  0.2908E+02  0.2908E+02
     -1.559  0.4485E+01  0.4467E+01  0.3103E+02  0.3103E+02
     -1.444  0.1627E+02  0.1572E+02  0.3273E+02  0.3273E+02
     -1.329  0.4210E+02  0.4171E+02  0.3707E+02  0.3706E+02
     -1.214  0.4275E+02  0.4344E+02  0.4174E+02  0.4173E+02
     -1.099  0.6630E+02  0.6618E+02  0.4715E+02  0.4714E+02
     -0.984  0.7726E+02  0.7540E+02  0.5470E+02  0.5470E+02
     -0.869  0.5095E+02  0.5082E+02  0.6156E+02  0.6156E+02
     -0.754  0.8533E+02  0.8547E+02  0.6949E+02  0.6948E+02
     -0.640  0.9078E+02  0.9058E+02  0.7874E+02  0.7873E+02
     -0.525  0.9944E+02  0.9945E+02  0.8995E+02  0.8995E+02
     -0.410  0.1565E+03  0.1567E+03  0.1036E+03  0.1036E+03
     -0.295  0.1370E+03  0.1371E+03  0.1186E+03  0.1186E+03
     -0.180  0.1511E+03  0.1510E+03  0.1328E+03  0.1328E+03
     -0.065  0.1159E+03  0.1158E+03  0.1462E+03  0.1462E+03
      0.050  0.1113E+03  0.1115E+03  0.1598E+03  0.1598E+03
      0.165  0.1505E+03  0.1483E+03  0.1738E+03  0.1738E+03
      0.280  0.2120E+03  0.2059E+03  0.1900E+03  0.1900E+03
      0.395  0.2011E+03  0.2028E+03  0.2102E+03  0.2102E+03
      0.510  0.1815E+03  0.1817E+03  0.2288E+03  0.2288E+03
      0.624  0.2182E+03  0.2172E+03  0.2524E+03  0.2524E+03
      0.739  0.2140E+03  0.2126E+03  0.2764E+03  0.2765E+03
      0.854  0.2297E+03  0.2328E+03  0.3034E+03  0.3034E+03
      0.969  0.1764E+03  0.1775E+03  0.3255E+03  0.3255E+03
      1.084  0.1400E+03  0.1394E+03  0.3432E+03  0.3432E+03
      1.199  0.1474E+03  0.1465E+03  0.3604E+03  0.3604E+03
      1.314  0.1801E+03  0.1797E+03  0.3799E+03  0.3800E+03
      1.429  0.2044E+03  0.2075E+03  0.4039E+03  0.4039E+03
      1.544  0.2137E+03  0.2129E+03  0.4268E+03  0.4268E+03
      1.659  0.2044E+03  0.2004E+03  0.4473E+03  0.4474E+03
      1.774  0.1683E+03  0.1655E+03  0.4687E+03  0.4687E+03
      1.888  0.2661E+03  0.2604E+03  0.4924E+03  0.4924E+03
      2.003  0.2727E+03  0.2619E+03  0.5249E+03  0.5250E+03
      2.118  0.1472E+03  0.1497E+03  0.5511E+03  0.5511E+03
      2.233  0.2432E+02  0.2417E+02  0.5573E+03  0.5573E+03
      2.348  0.1766E+02  0.1767E+02  0.5596E+03  0.5596E+03
      2.463  0.2630E+02  0.2633E+02  0.5629E+03  0.5629E+03
      2.578  0.2018E+02  0.2017E+02  0.5647E+03  0.5647E+03
      2.693  0.5614E+01  0.5614E+01  0.5664E+03  0.5664E+03
      2.808  0.2864E+02  0.2868E+02  0.5691E+03  0.5691E+03
      2.923  0.1636E+02  0.1637E+02  0.5719E+03  0.5719E+03
      3.038  0.8649E+01  0.8553E+01  0.5731E+03  0.5731E+03
      3.153  0.2300E+02  0.2274E+02  0.5755E+03  0.5755E+03
      3.267  0.1574E+02  0.1594E+02  0.5780E+03  0.5780E+03
      3.382  0.1775E+02  0.1773E+02  0.5803E+03  0.5803E+03
      3.497  0.1329E+02  0.1329E+02  0.5821E+03  0.5821E+03
      3.612  0.1385E+02  0.1386E+02  0.5836E+03  0.5836E+03
      3.727  0.1427E+02  0.1427E+02  0.5851E+03  0.5851E+03
      3.842  0.1619E+02  0.1620E+02  0.5871E+03  0.5871E+03
      3.957  0.2580E+02  0.2580E+02  0.5888E+03  0.5888E+03
      4.072  0.2269E+02  0.2292E+02  0.5918E+03  0.5917E+03
      4.187  0.1089E+02  0.1087E+02  0.5934E+03  0.5934E+03
      4.302  0.9031E+01  0.8688E+01  0.5943E+03  0.5943E+03
      4.417  0.1497E+02  0.1500E+02  0.5955E+03  0.5955E+03
      4.531  0.1689E+02  0.1691E+02  0.5972E+03  0.5972E+03
      4.646  0.1222E+02  0.1222E+02  0.5990E+03  0.5990E+03
      4.761  0.2223E+02  0.2220E+02  0.6010E+03  0.6010E+03
      4.876  0.1834E+02  0.1822E+02  0.6032E+03  0.6032E+03
      4.991  0.2153E+02  0.2161E+02  0.6048E+03  0.6048E+03
      5.106  0.1473E+02  0.1473E+02  0.6066E+03  0.6066E+03
      5.221  0.9507E+01  0.1059E+02  0.6079E+03  0.6079E+03
      5.336  0.1275E+02  0.1275E+02  0.6092E+03  0.6092E+03
      5.451  0.1006E+02  0.9907E+01  0.6105E+03  0.6105E+03
      5.566  0.1721E+02  0.1734E+02  0.6119E+03  0.6119E+03
      5.681  0.6423E+01  0.6414E+01  0.6132E+03  0.6132E+03
      5.795  0.1957E+02  0.1960E+02  0.6147E+03  0.6147E+03
      5.910  0.1688E+02  0.1781E+02  0.6168E+03  0.6168E+03
      6.025  0.7816E+01  0.7815E+01  0.6181E+03  0.6181E+03
      6.140  0.9861E+01  0.9891E+01  0.6193E+03  0.6193E+03
      6.255  0.1245E+02  0.1244E+02  0.6207E+03  0.6207E+03
      6.370  0.2998E+01  0.3000E+01  0.6221E+03  0.6221E+03
      6.485  0.7774E+01  0.7753E+01  0.6229E+03  0.6229E+03
      6.600  0.1240E+02  0.1229E+02  0.6241E+03  0.6241E+03
      6.715  0.9452E+01  0.9486E+01  0.6254E+03  0.6254E+03
      6.830  0.7108E+01  0.7150E+01  0.6263E+03  0.6263E+03
      6.945  0.1417E+02  0.1413E+02  0.6275E+03  0.6275E+03
      7.060  0.8118E+01  0.8129E+01  0.6287E+03  0.6287E+03
      7.174  0.1780E+02  0.1777E+02  0.6301E+03  0.6301E+03
      7.289  0.1142E+02  0.1146E+02  0.6317E+03  0.6317E+03
      7.404  0.9078E+01  0.9080E+01  0.6331E+03  0.6331E+03
      7.519  0.5645E+01  0.5648E+01  0.6339E+03  0.6339E+03
      7.634  0.1638E+02  0.1637E+02  0.6351E+03  0.6351E+03
      7.749  0.1562E+02  0.1573E+02  0.6369E+03  0.6369E+03
      7.864  0.1765E+02  0.1765E+02  0.6394E+03  0.6394E+03
      7.979  0.2035E+02  0.2039E+02  0.6415E+03  0.6415E+03
      8.094  0.1595E+02  0.1600E+02  0.6426E+03  0.6426E+03
      8.209  0.1840E+02  0.1927E+02  0.6441E+03  0.6441E+03
      8.324  0.1989E+02  0.1990E+02  0.6463E+03  0.6463E+03
      8.438  0.1368E+02  0.1373E+02  0.6481E+03  0.6481E+03
      8.553  0.1924E+02  0.1925E+02  0.6499E+03  0.6499E+03
      8.668  0.1083E+02  0.1081E+02  0.6518E+03  0.6518E+03
      8.783  0.2747E+01  0.2739E+01  0.6532E+03  0.6532E+03
      8.898  0.1254E+02  0.1253E+02  0.6551E+03  0.6551E+03
      9.013  0.3781E+01  0.3772E+01  0.6572E+03  0.6572E+03
      9.128  0.8683E+01  0.8676E+01  0.6581E+03  0.6581E+03
      9.243  0.1480E+02  0.1472E+02  0.6594E+03  0.6594E+03
      9.358  0.1513E+02  0.1510E+02  0.6613E+03  0.6613E+03
      9.473  0.1245E+02  0.1239E+02  0.6628E+03  0.6628E+03
      9.588  0.2430E+02  0.2418E+02  0.6651E+03  0.6651E+03
      9.702  0.8610E+01  0.8584E+01  0.6669E+03  0.6669E+03
      9.817  0.9279E+01  0.9277E+01  0.6679E+03  0.6679E+03
      9.932  0.1658E+02  0.1715E+02  0.6692E+03  0.6692E+03
     10.047  0.1652E+02  0.1637E+02  0.6711E+03  0.6711E+03
     10.162  0.1023E+02  0.1022E+02  0.6728E+03  0.6728E+03
     10.277  0.5879E+01  0.5862E+01  0.6737E+03  0.6737E+03
     10.392  0.1488E+02  0.1491E+02  0.6753E+03  0.6753E+03
     10.507  0.1402E+02  0.1411E+02  0.6770E+03  0.6770E+03
     10.622  0.1379E+02  0.1368E+02  0.6787E+03  0.6787E+03
     10.737  0.1268E+02  0.1263E+02  0.6802E+03  0.6802E+03
     10.852  0.1358E+02  0.1358E+02  0.6819E+03  0.6819E+03
     10.967  0.2462E+02  0.2437E+02  0.6840E+03  0.6840E+03
     11.081  0.1347E+02  0.1346E+02  0.6860E+03  0.6860E+03
     11.196  0.2048E+02  0.2046E+02  0.6882E+03  0.6882E+03
     11.311  0.1463E+02  0.1512E+02  0.6900E+03  0.6900E+03
     11.426  0.2061E+02  0.2084E+02  0.6918E+03  0.6918E+03
     11.541  0.1157E+02  0.1159E+02  0.6937E+03  0.6937E+03
     11.656  0.1609E+02  0.1609E+02  0.6954E+03  0.6954E+03
     11.771  0.2118E+02  0.2130E+02  0.6974E+03  0.6974E+03
     11.886  0.1689E+02  0.1699E+02  0.6995E+03  0.6995E+03
     12.001  0.1894E+02  0.1895E+02  0.7015E+03  0.7015E+03
     12.116  0.2698E+02  0.2708E+02  0.7041E+03  0.7041E+03
     12.231  0.2454E+02  0.2455E+02  0.7071E+03  0.7071E+03
     12.345  0.1594E+02  0.1590E+02  0.7097E+03  0.7097E+03
     12.460  0.1181E+02  0.1181E+02  0.7116E+03  0.7116E+03
     12.575  0.1892E+02  0.1893E+02  0.7133E+03  0.7133E+03
     12.690  0.1820E+02  0.1802E+02  0.7152E+03  0.7151E+03
     12.805  0.2720E+02  0.2705E+02  0.7179E+03  0.7179E+03
     12.920  0.1922E+02  0.1933E+02  0.7207E+03  0.7207E+03
     13.035  0.1448E+02  0.1447E+02  0.7229E+03  0.7229E+03
     13.150  0.1585E+02  0.1577E+02  0.7248E+03  0.7248E+03
     13.265  0.1237E+02  0.1244E+02  0.7267E+03  0.7267E+03
     13.380  0.1997E+02  0.1993E+02  0.7283E+03  0.7283E+03
     13.495  0.1283E+02  0.1284E+02  0.7301E+03  0.7301E+03
     13.609  0.2362E+02  0.2355E+02  0.7325E+03  0.7325E+03
     13.724  0.1378E+02  0.1381E+02  0.7349E+03  0.7349E+03
     13.839  0.2024E+02  0.1982E+02  0.7377E+03  0.7377E+03
     13.954  0.1733E+02  0.1727E+02  0.7400E+03  0.7400E+03
     14.069  0.1401E+02  0.1403E+02  0.7426E+03  0.7426E+03
     14.184  0.2213E+02  0.2223E+02  0.7451E+03  0.7451E+03
     14.299  0.1188E+02  0.1179E+02  0.7472E+03  0.7472E+03
     14.414  0.4590E+01  0.4573E+01  0.7492E+03  0.7492E+03
     14.529  0.2190E+02  0.2193E+02  0.7515E+03  0.7515E+03
     14.644  0.2391E+02  0.2394E+02  0.7542E+03  0.7542E+03
     14.759  0.2063E+02  0.2057E+02  0.7567E+03  0.7566E+03
     14.874  0.1632E+02  0.1691E+02  0.7590E+03  0.7590E+03
     14.988  0.2103E+02  0.2104E+02  0.7612E+03  0.7612E+03
     15.103  0.1379E+02  0.1373E+02  0.7636E+03  0.7636E+03
     15.218  0.2070E+02  0.2082E+02  0.7667E+03  0.7667E+03
     15.333  0.2206E+02  0.2199E+02  0.7691E+03  0.7690E+03
     15.448  0.1530E+02  0.1528E+02  0.7709E+03  0.7709E+03
     15.563  0.2165E+02  0.2135E+02  0.7730E+03  0.7730E+03
     15.678  0.1282E+02  0.1372E+02  0.7760E+03  0.7760E+03
     15.793  0.1896E+02  0.1884E+02  0.7775E+03  0.7775E+03
     15.908  0.2843E+02  0.2834E+02  0.7802E+03  0.7802E+03
     16.023  0.2531E+02  0.2420E+02  0.7833E+03  0.7833E+03
     16.138  0.1682E+02  0.1682E+02  0.7857E+03  0.7857E+03
     16.252  0.2706E+02  0.2733E+02  0.7883E+03  0.7883E+03
     16.367  0.1843E+02  0.1881E+02  0.7905E+03  0.7905E+03
     16.482  0.2503E+02  0.2424E+02  0.7933E+03  0.7932E+03
     16.597  0.1534E+02  0.1543E+02  0.7958E+03  0.7958E+03
     16.712  0.2697E+02  0.2692E+02  0.7983E+03  0.7983E+03
     16.827  0.2609E+02  0.2600E+02  0.8017E+03  0.8017E+03
     16.942  0.2437E+02  0.2438E+02  0.8050E+03  0.8049E+03
     17.057  0.3570E+02  0.3589E+02  0.8079E+03  0.8079E+03
     17.172  0.1641E+02  0.1628E+02  0.8106E+03  0.8106E+03
     17.287  0.1974E+02  0.1969E+02  0.8132E+03  0.8132E+03
     17.402  0.2370E+02  0.2365E+02  0.8158E+03  0.8158E+03
     17.516  0.1524E+02  0.1517E+02  0.8187E+03  0.8187E+03
     17.631  0.1433E+02  0.1435E+02  0.8210E+03  0.8210E+03
     17.746  0.2010E+02  0.2010E+02  0.8229E+03  0.8229E+03
     17.861  0.1888E+02  0.1894E+02  0.8257E+03  0.8257E+03
     17.976  0.1526E+02  0.1518E+02  0.8278E+03  0.8278E+03
     18.091  0.2674E+02  0.2682E+02  0.8310E+03  0.8310E+03
     18.206  0.2881E+02  0.2867E+02  0.8341E+03  0.8341E+03
     18.321  0.2258E+02  0.2254E+02  0.8365E+03  0.8365E+03
     18.436  0.1939E+02  0.1932E+02  0.8392E+03  0.8392E+03
     18.551  0.1467E+02  0.1468E+02  0.8413E+03  0.8413E+03
     18.666  0.1753E+02  0.1745E+02  0.8432E+03  0.8432E+03
     18.781  0.2597E+02  0.2635E+02  0.8459E+03  0.8459E+03
     18.895  0.2896E+02  0.2859E+02  0.8488E+03  0.8488E+03
     19.010  0.2854E+02  0.2878E+02  0.8515E+03  0.8515E+03
     19.125  0.1428E+02  0.1439E+02  0.8534E+03  0.8534E+03
     19.240  0.2858E+02  0.2886E+02  0.8555E+03  0.8555E+03
     19.355  0.1964E+02  0.1970E+02  0.8581E+03  0.8581E+03
     19.470  0.2503E+02  0.2519E+02  0.8607E+03  0.8607E+03
     19.585  0.2292E+02  0.2287E+02  0.8633E+03  0.8633E+03
     19.700  0.2002E+02  0.2005E+02  0.8659E+03  0.8659E+03
     19.815  0.1643E+02  0.1632E+02  0.8681E+03  0.8680E+03
     19.930  0.1987E+02  0.1985E+02  0.8703E+03  0.8703E+03
     20.045  0.1049E+02  0.1044E+02  0.8722E+03  0.8722E+03
     20.159  0.1008E+02  0.1008E+02  0.8738E+03  0.8738E+03
     20.274  0.1727E+02  0.1720E+02  0.8756E+03  0.8755E+03
     20.389  0.2016E+02  0.2011E+02  0.8775E+03  0.8775E+03
     20.504  0.2199E+02  0.2201E+02  0.8799E+03  0.8799E+03
     20.619  0.1588E+02  0.1591E+02  0.8820E+03  0.8820E+03
     20.734  0.1714E+02  0.1714E+02  0.8838E+03  0.8838E+03
     20.849  0.1401E+02  0.1413E+02  0.8857E+03  0.8857E+03
     20.964  0.1849E+02  0.1855E+02  0.8877E+03  0.8877E+03
     21.079  0.1842E+02  0.1856E+02  0.8899E+03  0.8899E+03
     21.194  0.1927E+02  0.1930E+02  0.8919E+03  0.8919E+03
     21.309  0.1804E+02  0.1801E+02  0.8942E+03  0.8942E+03
     21.423  0.1820E+02  0.1821E+02  0.8963E+03  0.8963E+03
     21.538  0.2145E+02  0.2070E+02  0.8983E+03  0.8983E+03
     21.653  0.2040E+02  0.2041E+02  0.9006E+03  0.9006E+03
     21.768  0.1754E+02  0.1755E+02  0.9031E+03  0.9031E+03
     21.883  0.1840E+02  0.1847E+02  0.9053E+03  0.9053E+03
     21.998  0.1708E+02  0.1688E+02  0.9073E+03  0.9073E+03
     22.113  0.1680E+02  0.1681E+02  0.9093E+03  0.9093E+03
     22.228  0.1845E+02  0.1846E+02  0.9113E+03  0.9113E+03
     22.343  0.1864E+02  0.1861E+02  0.9134E+03  0.9134E+03
     22.458  0.1824E+02  0.1820E+02  0.9158E+03  0.9158E+03
     22.573  0.1661E+02  0.1659E+02  0.9179E+03  0.9179E+03
     22.688  0.1963E+02  0.1985E+02  0.9201E+03  0.9201E+03
     22.802  0.2051E+02  0.2064E+02  0.9225E+03  0.9225E+03
     22.917  0.2239E+02  0.2241E+02  0.9252E+03  0.9252E+03
     23.032  0.2721E+02  0.2717E+02  0.9284E+03  0.9284E+03
     23.147  0.1860E+02  0.1844E+02  0.9314E+03  0.9314E+03
     23.262  0.1698E+02  0.1689E+02  0.9332E+03  0.9332E+03
     23.377  0.2893E+02  0.2895E+02  0.9359E+03  0.9359E+03
     23.492  0.2968E+02  0.3009E+02  0.9393E+03  0.9392E+03
     23.607  0.2276E+02  0.2277E+02  0.9420E+03  0.9420E+03
     23.722  0.2155E+02  0.2158E+02  0.9445E+03  0.9445E+03
     23.837  0.3825E+02  0.3748E+02  0.9469E+03  0.9469E+03
     23.952  0.3566E+02  0.3529E+02  0.9502E+03  0.9502E+03
     24.066  0.2272E+02  0.2255E+02  0.9535E+03  0.9535E+03
     24.181  0.2682E+02  0.2684E+02  0.9568E+03  0.9567E+03
     24.296  0.2591E+02  0.2563E+02  0.9592E+03  0.9592E+03
     24.411  0.3609E+02  0.3604E+02  0.9630E+03  0.9630E+03
     24.526  0.1897E+02  0.1904E+02  0.9666E+03  0.9666E+03
     24.641  0.1927E+02  0.1958E+02  0.9685E+03  0.9684E+03
     24.756  0.1845E+02  0.1812E+02  0.9708E+03  0.9707E+03
     24.871  0.1965E+01  0.4658E+01  0.9720E+03  0.9719E+03
     24.986  0.0000E+00  0.0000E+00  0.9720E+03  0.9720E+03
     25.101  0.0000E+00  0.0000E+00  0.9720E+03  0.9720E+03
     25.216  0.0000E+00  0.0000E+00  0.9720E+03  0.9720E+03
     25.330  0.0000E+00  0.0000E+00  0.9720E+03  0.9720E+03
     25.445  0.0000E+00  0.0000E+00  0.9720E+03  0.9720E+03
     25.560  0.0000E+00  0.0000E+00  0.9720E+03  0.9720E+03
     25.675  0.0000E+00  0.0000E+00  0.9720E+03  0.9720E+03
     25.790  0.0000E+00  0.0000E+00  0.9720E+03  0.9720E+03
     25.905  0.0000E+00  0.0000E+00  0.9720E+03  0.9720E+03
     26.020  0.0000E+00  0.0000E+00  0.9720E+03  0.9720E+03
     26.135  0.0000E+00  0.0000E+00  0.9720E+03  0.9720E+03
     26.250  0.0000E+00  0.0000E+00  0.9720E+03  0.9720E+03
     26.365  0.0000E+00  0.0000E+00  0.9720E+03  0.9720E+03
     26.480  0.0000E+00  0.0000E+00  0.9720E+03  0.9720E+03
     26.595  0.0000E+00  0.0000E+00  0.9720E+03  0.9720E+03
     26.709  0.0000E+00  0.0000E+00  0.9720E+03  0.9720E+03
     26.824  0.0000E+00  0.0000E+00  0.9720E+03  0.9720E+03
     26.939  0.0000E+00  0.0000E+00  0.9720E+03  0.9720E+03
