unknown system                          
           1
    10.906394    0.000000    0.000000
     0.000000   10.906394    0.000000
     0.000000    0.000000   10.906394
   Al   Mg
   1 106
Direct configuration=     1
   0.99747489  0.99909752  0.98649285
   0.99644390  0.99804594  0.34888926
   0.99836293  0.99989870  0.66643462
   0.99988203  0.33090711  0.00105265
   0.00017728  0.33018878  0.33223610
   0.99826528  0.33724632  0.66622112
   0.99976828  0.66873886  0.00194190
   0.99982732  0.66912830  0.33164306
   0.99861590  0.66444589  0.66643879
   0.32933771  0.00140930  0.00098168
   0.32866149  0.00172778  0.33227153
   0.33570209  0.99980107  0.66623089
   0.33220370  0.33376157  0.00013227
   0.33238494  0.33395963  0.33351996
   0.33493124  0.33650250  0.66642821
   0.33201099  0.66761202  0.00172902
   0.33143547  0.66820452  0.33174093
   0.33350562  0.66734705  0.66622219
   0.66724069  0.00128152  0.00193184
   0.66757348  0.00137248  0.33165103
   0.66287368  0.00020929  0.66641941
   0.66600837  0.33360377  0.00177729
   0.66659336  0.33302970  0.33168427
   0.66577320  0.33512742  0.66624717
   0.66555369  0.66712143  0.00172028
   0.66589145  0.66753197  0.33199912
   0.66499519  0.66656782  0.66618705
   0.08350486  0.08524179  0.16902375
   0.99785338  0.16913547  0.50438635
   0.99758313  0.17010922  0.82832198
   0.00019206  0.49865245  0.16689288
   0.99902679  0.50107110  0.49771482
   0.99903890  0.50106329  0.83509413
   0.00387587  0.84287750  0.16728975
   0.99864853  0.83055178  0.50369368
   0.99889907  0.83037730  0.82994495
   0.32380679  0.16345644  0.16686661
   0.33636236  0.16812852  0.50364714
   0.33591499  0.16825059  0.82981965
   0.33088294  0.49927676  0.16689736
   0.33326217  0.50189290  0.49860234
   0.33341060  0.50168676  0.83437549
   0.32951922  0.83682154  0.16683371
   0.33279932  0.83391236  0.49840250
   0.33339736  0.83339744  0.83416603
   0.66755725  0.16663889  0.16702103
   0.66533603  0.16771674  0.49790960
   0.66487049  0.16804939  0.83452742
   0.66615571  0.50031142  0.16706696
   0.66588795  0.50066832  0.49819480
   0.66558034  0.50075571  0.83466930
   0.66722851  0.83564595  0.16701422
   0.66468288  0.83342610  0.49866012
   0.66432391  0.83307379  0.83409879
   0.16760811  0.99936479  0.50438423
   0.16851091  0.99910880  0.82831908
   0.16202036  0.32532675  0.16690508
   0.16660305  0.33792751  0.50364872
   0.16674289  0.33751309  0.82980635
   0.16513546  0.66907621  0.16699885
   0.16609174  0.66687238  0.49787515
   0.16647355  0.66640849  0.83459114
   0.49715303  0.00167571  0.16687089
   0.49955044  0.00063456  0.49772668
   0.49953212  0.00060421  0.83508386
   0.49767433  0.33241074  0.16690382
   0.50031724  0.33486996  0.49857897
   0.50010055  0.33497732  0.83438750
   0.49864219  0.66784464  0.16702072
   0.49907962  0.66746635  0.49824518
   0.49916433  0.66714344  0.83463791
   0.84136904  0.00539359  0.16731131
   0.82896941  0.00016976  0.50370468
   0.82880327  0.00037961  0.82992690
   0.83522015  0.33110251  0.16685002
   0.83233682  0.33436776  0.49838119
   0.83184120  0.33498406  0.83415842
   0.83410932  0.66880596  0.16703313
   0.83185363  0.66625223  0.49862193
   0.83152992  0.66591319  0.83412241
   0.16876783  0.17036720  0.98608895
   0.16950940  0.17107256  0.34928947
   0.16714645  0.16866586  0.66646127
   0.16551228  0.49895979  0.00186947
   0.16534759  0.49879256  0.33153061
   0.16658130  0.50338113  0.66636676
   0.16640990  0.83571518  0.00025609
   0.16512239  0.83758450  0.33266131
   0.16725046  0.83110464  0.66626643
   0.49744471  0.16700330  0.00184434
   0.49723381  0.16688319  0.33154335
   0.50179534  0.16819895  0.66636827
   0.49883999  0.50042619  0.00183355
   0.49894559  0.50059322  0.33180425
   0.49986635  0.50146368  0.66631780
   0.49841673  0.83498751  0.00184348
   0.49825621  0.83531252  0.33165701
   0.49901260  0.83321021  0.66614966
   0.83410241  0.16801580  0.00025118
   0.83599415  0.16668455  0.33266004
   0.82958959  0.16878839  0.66627930
   0.83342997  0.49998979  0.00192632
   0.83372838  0.49984034  0.33158413
   0.83162161  0.50060604  0.66615729
   0.83200311  0.83353065  0.99989100
   0.83286657  0.83445742  0.33348566
   0.83016409  0.83171342  0.66664614
