  32  32   0   0
  0.1660753E+02  0.8100000E-09  0.8100000E-09  0.8100000E-09  0.5000000E-15
  1.000000000000000E-004
  CAR 
 unknown system                          
     11.65915319     -5.01234268  301      8.48314718      1.00000000
     -5.012  0.0000E+00  0.0000E+00
     -4.957  0.0000E+00  0.0000E+00
     -4.901  0.0000E+00  0.0000E+00
     -4.846  0.0000E+00  0.0000E+00
     -4.790  0.0000E+00  0.0000E+00
     -4.734  0.0000E+00  0.0000E+00
     -4.679  0.0000E+00  0.0000E+00
     -4.623 -0.2840E-28 -0.1578E-29
     -4.568 -0.2203E-26 -0.1240E-27
     -4.512 -0.1478E-24 -0.8338E-26
     -4.457 -0.8484E-23 -0.4798E-24
     -4.401 -0.4165E-21 -0.2362E-22
     -4.345 -0.1748E-19 -0.9951E-21
     -4.290 -0.6273E-18 -0.3586E-19
     -4.234 -0.1924E-16 -0.1105E-17
     -4.179 -0.4937E-15 -0.2854E-16
     -4.123 -0.1092E-13 -0.6353E-15
     -4.068 -0.2080E-12 -0.1219E-13
     -4.012 -0.3377E-11 -0.1999E-12
     -3.956 -0.4673E-10 -0.2797E-11
     -3.901 -0.5505E-09 -0.3339E-10
     -3.845 -0.5514E-08 -0.3398E-09
     -3.790 -0.4689E-07 -0.2945E-08
     -3.734 -0.3379E-06 -0.2172E-07
     -3.679 -0.2058E-05 -0.1361E-06
     -3.623 -0.1056E-04 -0.7227E-06
     -3.567 -0.4535E-04 -0.3243E-05
     -3.512 -0.1620E-03 -0.1224E-04
     -3.456 -0.4745E-03 -0.3861E-04
     -3.401 -0.1113E-02 -0.1005E-03
     -3.345 -0.1985E-02 -0.2108E-03
     -3.290 -0.2285E-02 -0.3378E-03
     -3.234 -0.1461E-03 -0.3459E-03
     -3.178  0.6698E-02  0.2634E-04
     -3.123  0.1880E-01  0.1071E-02
     -3.067  0.3288E-01  0.2898E-02
     -3.012  0.4252E-01  0.5261E-02
     -2.956  0.4241E-01  0.7618E-02
     -2.901  0.3261E-01  0.9430E-02
     -2.845  0.1851E-01  0.1046E-01
     -2.789  0.6498E-02  0.1082E-01
     -2.734 -0.2320E-03  0.1081E-01
     -2.678 -0.2296E-02  0.1068E-01
     -2.623 -0.1968E-02  0.1057E-01
     -2.567 -0.1096E-02  0.1051E-01
     -2.512 -0.4649E-03  0.1048E-01
     -2.456 -0.1580E-03  0.1047E-01
     -2.400 -0.4408E-04  0.1047E-01
     -2.345 -0.1022E-04  0.1047E-01
     -2.289 -0.1985E-05  0.1047E-01
     -2.234 -0.3248E-06  0.1047E-01
     -2.178 -0.4492E-07  0.1047E-01
     -2.123 -0.5264E-08  0.1047E-01
     -2.067 -0.5237E-09  0.1047E-01
     -2.011 -0.4431E-10  0.1047E-01
     -1.956 -0.3192E-11  0.1047E-01
     -1.900 -0.1968E-12  0.1047E-01
     -1.845 -0.3068E-13  0.1047E-01
     -1.789 -0.4154E-12  0.1047E-01
     -1.734 -0.7157E-11  0.1047E-01
     -1.678 -0.1053E-09  0.1047E-01
     -1.622 -0.1318E-08  0.1047E-01
     -1.567 -0.1404E-07  0.1047E-01
     -1.511 -0.1271E-06  0.1047E-01
     -1.456 -0.9760E-06  0.1047E-01
     -1.400 -0.6339E-05  0.1047E-01
     -1.345 -0.3472E-04  0.1047E-01
     -1.289 -0.1597E-03  0.1046E-01
     -1.233 -0.6126E-03  0.1043E-01
     -1.178 -0.1939E-02  0.1032E-01
     -1.122 -0.4970E-02  0.1004E-01
     -1.067 -0.9932E-02  0.9490E-02
     -1.011 -0.1401E-01  0.8712E-02
     -0.956 -0.8405E-02  0.8245E-02
     -0.900  0.2063E-01  0.9391E-02
     -0.844  0.8216E-01  0.1396E-01
     -0.789  0.1660E+00  0.2318E-01
     -0.733  0.2388E+00  0.3645E-01
     -0.678  0.2625E+00  0.5104E-01
     -0.622  0.2233E+00  0.6345E-01
     -0.567  0.1436E+00  0.7143E-01
     -0.511  0.6311E-01  0.7493E-01
     -0.455  0.1007E-01  0.7549E-01
     -0.400 -0.1154E-01  0.7485E-01
     -0.344 -0.1340E-01  0.7411E-01
     -0.289 -0.8524E-02  0.7363E-01
     -0.233 -0.3975E-02  0.7341E-01
     -0.178 -0.1464E-02  0.7333E-01
     -0.122 -0.4394E-03  0.7331E-01
     -0.066 -0.1092E-03  0.7330E-01
     -0.011 -0.2267E-04  0.7330E-01
      0.045 -0.3957E-05  0.7330E-01
      0.100 -0.5831E-06  0.7330E-01
      0.156 -0.7274E-07  0.7330E-01
      0.211 -0.7701E-08  0.7330E-01
      0.267 -0.6929E-09  0.7330E-01
      0.323 -0.5305E-10  0.7330E-01
      0.378 -0.3465E-11  0.7330E-01
      0.434 -0.2943E-12  0.7330E-01
      0.489 -0.1978E-11  0.7330E-01
      0.545 -0.3240E-10  0.7330E-01
      0.600 -0.4542E-09  0.7330E-01
      0.656 -0.5423E-08  0.7330E-01
      0.712 -0.5505E-07  0.7330E-01
      0.767 -0.4745E-06  0.7330E-01
      0.823 -0.3467E-05  0.7330E-01
      0.878 -0.2141E-04  0.7330E-01
      0.934 -0.1114E-03  0.7329E-01
      0.989 -0.4859E-03  0.7326E-01
      1.045 -0.1763E-02  0.7317E-01
      1.101 -0.5252E-02  0.7287E-01
      1.156 -0.1257E-01  0.7218E-01
      1.212 -0.2300E-01  0.7090E-01
      1.267 -0.2785E-01  0.6935E-01
      1.323 -0.5684E-02  0.6903E-01
      1.378  0.7105E-01  0.7298E-01
      1.434  0.2118E+00  0.8475E-01
      1.490  0.3815E+00  0.1060E+00
      1.545  0.5046E+00  0.1340E+00
      1.601  0.5140E+00  0.1626E+00
      1.656  0.4041E+00  0.1850E+00
      1.712  0.2360E+00  0.1981E+00
      1.767  0.8765E-01  0.2030E+00
      1.823  0.1441E-02  0.2031E+00
      1.879 -0.2698E-01  0.2016E+00
      1.934 -0.2441E-01  0.2002E+00
      1.990 -0.1397E-01  0.1994E+00
      2.045 -0.6042E-02  0.1991E+00
      2.101 -0.2089E-02  0.1990E+00
      2.156 -0.5919E-03  0.1990E+00
      2.212 -0.1393E-03  0.1990E+00
      2.268 -0.2745E-04  0.1990E+00
      2.323 -0.4555E-05  0.1990E+00
      2.379 -0.6386E-06  0.1990E+00
      2.434 -0.7585E-07  0.1990E+00
      2.490 -0.7650E-08  0.1990E+00
      2.545 -0.6560E-09  0.1990E+00
      2.601 -0.5024E-10  0.1990E+00
      2.657 -0.3920E-10  0.1990E+00
      2.712 -0.4726E-09  0.1990E+00
      2.768 -0.5243E-08  0.1990E+00
      2.823 -0.4945E-07  0.1990E+00
      2.879 -0.3958E-06  0.1990E+00
      2.934 -0.2682E-05  0.1990E+00
      2.990 -0.1534E-04  0.1990E+00
      3.046 -0.7376E-04  0.1989E+00
      3.101 -0.2964E-03  0.1989E+00
      3.157 -0.9860E-03  0.1989E+00
      3.212 -0.2672E-02  0.1987E+00
      3.268 -0.5723E-02  0.1984E+00
      3.323 -0.8993E-02  0.1979E+00
      3.379 -0.7806E-02  0.1975E+00
      3.435  0.6318E-02  0.1978E+00
      3.490  0.4067E-01  0.2001E+00
      3.546  0.9192E-01  0.2052E+00
      3.601  0.1414E+00  0.2131E+00
      3.657  0.1658E+00  0.2223E+00
      3.712  0.1576E+00  0.2310E+00
      3.768  0.1353E+00  0.2385E+00
      3.824  0.1271E+00  0.2456E+00
      3.879  0.1428E+00  0.2535E+00
      3.935  0.1635E+00  0.2626E+00
      3.990  0.1612E+00  0.2716E+00
      4.046  0.1261E+00  0.2786E+00
      4.101  0.7314E-01  0.2827E+00
      4.157  0.2637E-01  0.2841E+00
      4.213 -0.6182E-03  0.2841E+00
      4.268 -0.9198E-02  0.2836E+00
      4.324 -0.8033E-02  0.2831E+00
      4.379 -0.4529E-02  0.2829E+00
      4.435 -0.1939E-02  0.2828E+00
      4.490 -0.6648E-03  0.2827E+00
      4.546 -0.1870E-03  0.2827E+00
      4.602 -0.4399E-04  0.2827E+00
      4.657 -0.1069E-04  0.2827E+00
      4.713 -0.1356E-04  0.2827E+00
      4.768 -0.5830E-04  0.2827E+00
      4.824 -0.2321E-03  0.2827E+00
      4.879 -0.7668E-03  0.2827E+00
      4.935 -0.2063E-02  0.2825E+00
      4.991 -0.4375E-02  0.2823E+00
      5.046 -0.6766E-02  0.2819E+00
      5.102 -0.5564E-02  0.2816E+00
      5.157  0.5815E-02  0.2819E+00
      5.213  0.3303E-01  0.2838E+00
      5.268  0.7361E-01  0.2879E+00
      5.324  0.1130E+00  0.2941E+00
      5.380  0.1314E+00  0.3015E+00
      5.435  0.1183E+00  0.3080E+00
      5.491  0.8120E-01  0.3125E+00
      5.546  0.3948E-01  0.3147E+00
      5.602  0.9383E-02  0.3152E+00
      5.657 -0.4507E-02  0.3150E+00
      5.713 -0.6973E-02  0.3146E+00
      5.769 -0.4852E-02  0.3143E+00
      5.824 -0.2399E-02  0.3142E+00
      5.880 -0.9272E-03  0.3142E+00
      5.935 -0.2905E-03  0.3141E+00
      5.991 -0.7533E-04  0.3141E+00
      6.046 -0.1751E-04  0.3141E+00
      6.102 -0.1067E-04  0.3141E+00
      6.158 -0.3922E-04  0.3141E+00
      6.213 -0.1627E-03  0.3141E+00
      6.269 -0.5664E-03  0.3141E+00
      6.324 -0.1614E-02  0.3140E+00
      6.380 -0.3668E-02  0.3138E+00
      6.435 -0.6260E-02  0.3135E+00
      6.491 -0.6583E-02  0.3131E+00
      6.547  0.1337E-02  0.3132E+00
      6.602  0.2406E-01  0.3145E+00
      6.658  0.6198E-01  0.3179E+00
      6.713  0.1037E+00  0.3237E+00
      6.769  0.1294E+00  0.3309E+00
      6.824  0.1248E+00  0.3378E+00
      6.880  0.9234E-01  0.3430E+00
      6.936  0.4931E-01  0.3457E+00
      6.991  0.1325E-01  0.3464E+00
      7.047 -0.9455E-02  0.3459E+00
      7.102 -0.2302E-01  0.3446E+00
      7.158 -0.3167E-01  0.3429E+00
      7.213 -0.2770E-01  0.3413E+00
      7.269  0.1210E-01  0.3420E+00
      7.325  0.1124E+00  0.3482E+00
      7.380  0.2700E+00  0.3632E+00
      7.436  0.4331E+00  0.3873E+00
      7.491  0.5226E+00  0.4164E+00
      7.547  0.4877E+00  0.4435E+00
      7.602  0.3488E+00  0.4628E+00
      7.658  0.1797E+00  0.4728E+00
      7.714  0.5047E-01  0.4756E+00
      7.769 -0.1363E-01  0.4749E+00
      7.825 -0.2819E-01  0.4733E+00
      7.880 -0.2101E-01  0.4721E+00
      7.936 -0.1110E-01  0.4715E+00
      7.991 -0.5442E-02  0.4712E+00
      8.047 -0.4642E-02  0.4710E+00
      8.103 -0.7751E-02  0.4705E+00
      8.158 -0.1264E-01  0.4698E+00
      8.214 -0.1313E-01  0.4691E+00
      8.269  0.2945E-02  0.4693E+00
      8.325  0.4870E-01  0.4720E+00
      8.380  0.1248E+00  0.4789E+00
      8.436  0.2080E+00  0.4905E+00
      8.492  0.2590E+00  0.5049E+00
      8.547  0.2492E+00  0.5187E+00
      8.603  0.1843E+00  0.5289E+00
      8.658  0.9940E-01  0.5345E+00
      8.714  0.3125E-01  0.5362E+00
      8.769 -0.4555E-02  0.5360E+00
      8.825 -0.1405E-01  0.5352E+00
      8.881 -0.1110E-01  0.5346E+00
      8.936 -0.5934E-02  0.5342E+00
      8.992 -0.2521E-02  0.5341E+00
      9.047 -0.1221E-02  0.5340E+00
      9.103 -0.1770E-02  0.5339E+00
      9.158 -0.4785E-02  0.5337E+00
      9.214 -0.1172E-01  0.5330E+00
      9.270 -0.2258E-01  0.5317E+00
      9.325 -0.3038E-01  0.5301E+00
      9.381 -0.1534E-01  0.5292E+00
      9.436  0.5207E-01  0.5321E+00
      9.492  0.1902E+00  0.5427E+00
      9.547  0.3762E+00  0.5636E+00
      9.603  0.5386E+00  0.5935E+00
      9.659  0.5959E+00  0.6266E+00
      9.714  0.5162E+00  0.6553E+00
      9.770  0.3436E+00  0.6744E+00
      9.825  0.1623E+00  0.6834E+00
      9.881  0.3633E-01  0.6854E+00
      9.936 -0.2025E-01  0.6843E+00
      9.992 -0.2968E-01  0.6827E+00
     10.048 -0.2056E-01  0.6815E+00
     10.103 -0.1024E-01  0.6809E+00
     10.159 -0.4016E-02  0.6807E+00
     10.214 -0.1283E-02  0.6807E+00
     10.270 -0.3402E-03  0.6806E+00
     10.325 -0.7555E-04  0.6806E+00
     10.381 -0.1414E-04  0.6806E+00
     10.437 -0.2241E-05  0.6806E+00
     10.492 -0.3014E-06  0.6806E+00
     10.548 -0.3447E-07  0.6806E+00
     10.603 -0.3357E-08  0.6806E+00
     10.659 -0.2787E-09  0.6806E+00
     10.714 -0.1975E-10  0.6806E+00
     10.770 -0.1195E-11  0.6806E+00
     10.826 -0.6175E-13  0.6806E+00
     10.881 -0.2803E-14  0.6806E+00
     10.937  0.0000E+00  0.6806E+00
     10.992  0.0000E+00  0.6806E+00
     11.048  0.0000E+00  0.6806E+00
     11.103  0.0000E+00  0.6806E+00
     11.159  0.0000E+00  0.6806E+00
     11.215  0.0000E+00  0.6806E+00
     11.270  0.0000E+00  0.6806E+00
     11.326  0.0000E+00  0.6806E+00
     11.381  0.0000E+00  0.6806E+00
     11.437  0.0000E+00  0.6806E+00
     11.492  0.0000E+00  0.6806E+00
     11.548  0.0000E+00  0.6806E+00
     11.604  0.0000E+00  0.6806E+00
     11.659  0.0000E+00  0.6806E+00
