   32   32  191    1
  0.1660753E+02  0.8100000E-09  0.8100000E-09  0.8100000E-09  0.5000000E-15
  1.000000000000000E-004
  CAR 
 unknown system                          
   96    1   65
 
  0.0000000E+00  0.0000000E+00  0.0000000E+00  0.1000000E+01
   1       -3.012343
   2       -0.712780
   3       -0.712780
   4       -0.712780
   5       -0.712780
   6       -0.712780
   7       -0.712780
   8        1.549117
   9        1.549117
  10        1.549117
  11        1.549117
  12        1.549117
  13        1.549117
  14        1.549117
  15        1.549117
  16        1.549117
  17        1.549117
  18        1.549117
  19        1.549117
  20        3.635788
  21        3.635788
  22        3.635788
  23        3.635788
  24        3.936491
  25        3.936491
  26        3.936491
  27        3.936491
  28        5.356665
  29        5.356665
  30        5.356665
  31        6.760947
  32        6.760947
  33        6.760947
  34        7.476219
  35        7.476219
  36        7.476219
  37        7.476219
  38        7.476219
  39        7.476219
  40        7.476219
  41        7.476219
  42        7.476219
  43        7.476219
  44        7.476219
  45        7.476219
  46        8.483147
  47        8.483147
  48        8.483147
  49        8.483147
  50        8.483147
  51        8.483147
  52        9.603390
  53        9.603390
  54        9.603390
  55        9.603390
  56        9.603390
  57        9.603390
  58        9.603390
  59        9.603390
  60        9.649217
  61        9.656667
  62        9.657517
  63        9.657793
  64        9.659153
  65        9.659153
