       N       E                     dE             d eps       ncg     rms          rms(c)
RMM:   1     0.298724236405E+03    0.29872E+03   -0.17417E+04    65   0.637E+02
RMM:   2    -0.118545720343E+02   -0.31058E+03   -0.30420E+03    65   0.134E+02
RMM:   3    -0.729980279895E+02   -0.61143E+02   -0.63449E+02    65   0.429E+01
RMM:   4    -0.892396185878E+02   -0.16242E+02   -0.14368E+02    65   0.233E+01
RMM:   5    -0.968228583779E+02   -0.75832E+01   -0.58238E+01    65   0.129E+01
RMM:   6    -0.100038169336E+03   -0.32153E+01   -0.27886E+01    65   0.795E+00
RMM:   7    -0.101584126353E+03   -0.15460E+01   -0.14122E+01    65   0.501E+00
RMM:   8    -0.102392121576E+03   -0.80800E+00   -0.73834E+00    65   0.334E+00
RMM:   9    -0.103340278215E+03   -0.94816E+00   -0.81337E+00   137   0.229E+00
RMM:  10    -0.103426813442E+03   -0.86535E-01   -0.85996E-01   118   0.435E-01
RMM:  11    -0.103432682867E+03   -0.58694E-02   -0.51430E-02   113   0.103E-01
RMM:  12    -0.103433070978E+03   -0.38811E-03   -0.38026E-03    79   0.251E-02    0.622E+00
RMM:  13    -0.102888495500E+03    0.54458E+00   -0.70509E-02   130   0.823E-01    0.387E+00
RMM:  14    -0.102478543967E+03    0.40995E+00   -0.23218E-01   130   0.141E+00    0.152E-01
RMM:  15    -0.102478593815E+03   -0.49848E-04   -0.17508E-03   131   0.159E-01    0.391E-02
RMM:  16    -0.102478600793E+03   -0.69776E-05   -0.11186E-04    81   0.178E-02
   1 F= -.10247860E+03 E0= -.10236576E+03  d E =-.102479E+03
       N       E                     dE             d eps       ncg     rms          rms(c)
RMM:   1    -0.102733603621E+03   -0.25501E+00   -0.43061E+00   130   0.598E+00    0.911E-01
RMM:   2    -0.102715383726E+03    0.18220E-01   -0.15244E-02   130   0.380E-01    0.576E-01
RMM:   3    -0.102702399154E+03    0.12985E-01   -0.59091E-03   130   0.198E-01    0.242E-02
RMM:   4    -0.102702415096E+03   -0.15941E-04   -0.19263E-04    76   0.496E-02
   2 F= -.10270242E+03 E0= -.10258958E+03  d E =-.223814E+00
       N       E                     dE             d eps       ncg     rms          rms(c)
RMM:   1    -0.102742964735E+03   -0.40566E-01   -0.30424E-01   130   0.157E+00    0.239E-01
RMM:   2    -0.102741566211E+03    0.13985E-02   -0.90467E-04   110   0.923E-02    0.152E-01
RMM:   3    -0.102740516146E+03    0.10501E-02   -0.40211E-04   103   0.526E-02    0.692E-03
RMM:   4    -0.102740521175E+03   -0.50292E-05   -0.13875E-05    56   0.154E-02
   3 F= -.10274052E+03 E0= -.10262768E+03  d E =-.261920E+00
