<?xml version="1.0" encoding="ISO-8859-1"?>
<modeling>
 <generator>
  <i name="program" type="string">vasp </i>
  <i name="version" type="string">5.2.2  </i>
  <i name="subversion" type="string">15Apr09 complex  parallel </i>
  <i name="platform" type="string">LinuxIFC </i>
  <i name="date" type="string">2014 04 24 </i>
  <i name="time" type="string">09:18:59 </i>
 </generator>
 <incar>
  <i type="string" name="PREC">accurate</i>
  <i type="int" name="IALGO">    48</i>
  <i type="int" name="IBRION">     2</i>
  <i name="EDIFFG">      0.05000000</i>
  <i type="int" name="NSW">   191</i>
  <i type="int" name="ISIF">     3</i>
  <i name="ENCUT">    300.00000000</i>
  <i type="int" name="ISMEAR">     1</i>
  <i name="SIGMA">      0.20000000</i>
  <i type="logical" name="LWAVE"> F  </i>
  <i type="logical" name="LCHARG"> F  </i>
  <i type="logical" name="LPEAD"> F  </i>
  <i type="logical" name="LCALCPOL"> F  </i>
  <i type="logical" name="LCALCEPS"> F  </i>
  <v name="EFIELD_PEAD">      0.00000000      0.00000000      0.00000000</v>
  <i type="logical" name="LEFG"> F  </i>
 </incar>
 <kpoints>
  <generation param="Gamma">
   <v type="int" name="divisions">       1        1        1 </v>
   <v name="usershift">      0.00000000       0.00000000       0.00000000 </v>
   <v name="genvec1">      1.00000000       0.00000000       0.00000000 </v>
   <v name="genvec2">      0.00000000       1.00000000       0.00000000 </v>
   <v name="genvec3">      0.00000000       0.00000000       1.00000000 </v>
   <v name="shift">      0.00000000       0.00000000       0.00000000 </v>
  </generation>
  <varray name="kpointlist" >
   <v>       0.00000000       0.00000000       0.00000000 </v>
  </varray>
  <varray name="weights" >
   <v>       1.00000000 </v>
  </varray>
 </kpoints>
 <parameters>
  <separator name="general" >
   <i type="string" name="SYSTEM">unknown system</i>
   <i type="logical" name="LCOMPAT"> F  </i>
  </separator>
  <separator name="electronic" >
   <i type="string" name="PREC">accura</i>
   <i name="ENMAX">    300.00000000</i>
   <i name="ENAUG">    291.05200000</i>
   <i name="EDIFF">      0.00010000</i>
   <i type="int" name="IALGO">    48</i>
   <i type="int" name="IWAVPR">    11</i>
   <i type="int" name="NBANDS">    65</i>
   <i name="NELECT">     96.00000000</i>
   <separator name="electronic smearing" >
    <i type="int" name="ISMEAR">     1</i>
    <i name="SIGMA">      0.20000000</i>
   </separator>
   <separator name="electronic projectors" >
    <i type="logical" name="LREAL"> F  </i>
    <v name="ROPT">      0.00000000</v>
    <i type="int" name="LMAXPAW">  -100</i>
    <i type="int" name="LMAXMIX">     2</i>
   </separator>
   <separator name="electronic startup" >
    <i type="int" name="ISTART">     0</i>
    <i type="int" name="ICHARG">     2</i>
    <i type="int" name="INIWAV">     1</i>
   </separator>
   <separator name="electronic spin" >
    <i type="int" name="ISPIN">     1</i>
    <i type="logical" name="LNONCOLLINEAR"> F  </i>
    <v name="MAGMOM">      1.00000000      1.00000000      1.00000000      1.00000000      1.00000000      1.00000000      1.00000000      1.00000000      1.00000000      1.00000000      1.00000000      1.00000000      1.00000000      1.00000000      1.00000000      1.00000000      1.00000000      1.00000000      1.00000000      1.00000000
      1.00000000      1.00000000      1.00000000      1.00000000      1.00000000      1.00000000      1.00000000      1.00000000      1.00000000      1.00000000      1.00000000      1.00000000</v>
    <i name="NUPDOWN">     -1.00000000</i>
    <i type="logical" name="LSORBIT"> F  </i>
    <v name="SAXIS">      0.00000000      0.00000000      1.00000000</v>
    <i type="logical" name="LSPIRAL"> F  </i>
    <v name="QSPIRAL">      0.00000000      0.00000000      0.00000000</v>
    <i type="logical" name="LZEROZ"> F  </i>
   </separator>
   <separator name="electronic exchange-correlation" >
    <i type="logical" name="LASPH"> F  </i>
    <i type="logical" name="LMETAGGA"> F  </i>
   </separator>
   <separator name="electronic convergence" >
    <i type="int" name="NELM">    60</i>
    <i type="int" name="NELMDL">   -12</i>
    <i type="int" name="NELMIN">     2</i>
    <i name="ENINI">    300.00000000</i>
    <separator name="electronic convergence detail" >
     <i type="logical" name="LDIAG"> T  </i>
     <i name="WEIMIN">      0.00100000</i>
     <i name="EBREAK">      0.00000038</i>
     <i name="DEPER">      0.30000000</i>
     <i type="int" name="NRMM">     4</i>
     <i name="TIME">      0.40000000</i>
    </separator>
   </separator>
   <separator name="electronic mixer" >
    <i name="AMIX">      0.40000000</i>
    <i name="BMIX">      1.00000000</i>
    <i name="AMIN">      0.10000000</i>
    <i name="AMIX_MAG">      1.60000000</i>
    <i name="BMIX_MAG">      1.00000000</i>
    <separator name="electronic mixer details" >
     <i type="int" name="IMIX">     4</i>
     <i type="int" name="MAXMIX">   -45</i>
     <i name="WC">    100.00000000</i>
     <i type="int" name="INIMIX">     1</i>
     <i type="int" name="MIXPRE">     1</i>
     <i type="int" name="MREMOVE">     5</i>
    </separator>
   </separator>
   <separator name="electronic dipolcorrection" >
    <i type="logical" name="LDIPOL"> F  </i>
    <i type="logical" name="LMONO"> F  </i>
    <i type="int" name="IDIPOL">     0</i>
    <i name="EPSILON">      1.00000000</i>
    <v name="DIPOL">   -100.00000000   -100.00000000   -100.00000000</v>
    <i name="EFIELD">      0.00000000</i>
   </separator>
  </separator>
  <separator name="grids" >
   <i type="int" name="NGX">    48</i>
   <i type="int" name="NGY">    48</i>
   <i type="int" name="NGZ">    48</i>
   <i type="int" name="NGXF">    96</i>
   <i type="int" name="NGYF">    96</i>
   <i type="int" name="NGZF">    96</i>
   <i type="logical" name="ADDGRID"> F  </i>
  </separator>
  <separator name="ionic" >
   <i type="int" name="NSW">   191</i>
   <i type="int" name="IBRION">     2</i>
   <i type="int" name="ISIF">     3</i>
   <i name="PSTRESS">      0.00000000</i>
   <i name="EDIFFG">      0.05000000</i>
   <i type="int" name="NFREE">     1</i>
   <i name="POTIM">      0.50000000</i>
   <i name="SMASS">     -3.00000000</i>
  </separator>
  <separator name="ionic md" >
   <i name="TEBEG">      0.00010000</i>
   <i name="TEEND">      0.00010000</i>
   <i type="int" name="NBLOCK">     1</i>
   <i type="int" name="KBLOCK">   191</i>
   <i type="int" name="NPACO">   256</i>
   <i name="APACO">     16.00000000</i>
  </separator>
  <separator name="symmetry" >
   <i type="int" name="ISYM">     2</i>
   <i name="SYMPREC">      0.00001000</i>
  </separator>
  <separator name="dos" >
   <i type="logical" name="LORBIT"> F  </i>
   <v name="RWIGS">     -1.00000000</v>
   <i type="int" name="NEDOS">   301</i>
   <i name="EMIN">     10.00000000</i>
   <i name="EMAX">    -10.00000000</i>
   <i name="EFERMI">      0.00000000</i>
  </separator>
  <separator name="writing" >
   <i type="int" name="NWRITE">     2</i>
   <i type="logical" name="LWAVE"> F  </i>
   <i type="logical" name="LCHARG"> F  </i>
   <i type="logical" name="LPARD"> F  </i>
   <i type="logical" name="LVTOT"> F  </i>
   <i type="logical" name="LELF"> F  </i>
   <i type="logical" name="LOPTICS"> F  </i>
   <v name="STM">      0.00000000      0.00000000      0.00000000      0.00000000      0.00000000</v>
  </separator>
  <separator name="performance" >
   <i type="int" name="NPAR">     1</i>
   <i type="int" name="NSIM">     4</i>
   <i type="int" name="NBLK">    32</i>
   <i type="logical" name="LPLANE"> T  </i>
   <i type="logical" name="LSCALAPACK"> F  </i>
   <i type="logical" name="LSCAAWARE"> F  </i>
   <i type="logical" name="LSCALU"> F  </i>
   <i type="logical" name="LASYNC"> F  </i>
  </separator>
  <separator name="miscellaneous" >
   <i type="int" name="IDIOT">     3</i>
   <i type="logical" name="LMUSIC"> F  </i>
   <v name="POMASS">     26.98200000</v>
   <i type="logical" name="LCORR"> T  </i>
  </separator>
  <i type="logical" name="LREAL_COMPAT"> F  </i>
  <i type="logical" name="GGA_COMPAT"> T  </i>
  <i type="logical" name="LBERRY"> F  </i>
  <i type="int" name="ICORELEVEL">     0</i>
  <i type="logical" name="LDAU"> F  </i>
  <i type="int" name="I_CONSTRAINED_M">     0</i>
  <separator name="electronic exchange-correlation" >
   <i type="string" name="GGA">--</i>
   <i type="int" name="VOSKOWN">     0</i>
   <i type="logical" name="LHFCALC"> F  </i>
   <i type="logical" name="LHFONE"> F  </i>
   <i type="logical" name="LRHFCALC"> F  </i>
   <i type="logical" name="LTHOMAS"> F  </i>
   <i type="logical" name="LMODELHF"> F  </i>
   <i name="ENCUTFOCK">      0.00000000</i>
   <i name="ENCUT4O">     -1.00000000</i>
   <i type="int" name="EXXOEP">     0</i>
   <i type="int" name="FOURORBIT">     0</i>
   <i name="AEXX">      0.00000000</i>
   <i name="HFALPHA">      0.00000000</i>
   <i name="ALDAX">      1.00000000</i>
   <i name="AGGAX">      1.00000000</i>
   <i name="ALDAC">      1.00000000</i>
   <i name="AGGAC">      1.00000000</i>
   <i type="int" name="NKREDX">     1</i>
   <i type="int" name="NKREDY">     1</i>
   <i type="int" name="NKREDZ">     1</i>
   <i type="logical" name="SHIFTRED"> F  </i>
   <i type="logical" name="ODDONLY"> F  </i>
   <i type="logical" name="EVENONLY"> F  </i>
   <i type="int" name="LMAXFOCK">     0</i>
   <i type="int" name="NMAXFOCKAE">     0</i>
   <i name="HFSCREEN">      0.00000000</i>
   <i name="HFSCREENC">      0.00000000</i>
  </separator>
  <separator name="model GW" >
   <i type="int" name="MODEL_GW">     0</i>
   <i name="MODEL_EPS0">      9.96451875</i>
   <i name="MODEL_ALPHA">      1.00000000</i>
  </separator>
  <separator name="linear response parameters" >
   <i type="logical" name="LEPSILON"> F  </i>
   <i type="logical" name="LRPA"> F  </i>
   <i type="logical" name="LNABLA"> F  </i>
   <i type="logical" name="LVEL"> F  </i>
   <i type="int" name="KINTER">     0</i>
   <i name="CSHIFT">      0.10000000</i>
   <i name="OMEGAMAX">     -1.00000000</i>
  </separator>
  <separator name="orbital magnetization" >
   <i type="logical" name="ORBITALMAG"> F  </i>
   <i type="logical" name="LMAGBLOCH"> F  </i>
   <i type="logical" name="LCHIMAG"> F  </i>
   <i type="logical" name="LGAUGE"> T  </i>
   <i type="int" name="MAGATOM">     0</i>
   <v name="MAGDIPOL">      0.00000000      0.00000000      0.00000000</v>
   <v name="AVECCONST">      0.00000000      0.00000000      0.00000000</v>
  </separator>
  <separator name="response functions" >
   <i type="logical" name="LRPA"> T  </i>
   <i type="logical" name="LTCTE"> F  </i>
   <i type="logical" name="LTETE"> F  </i>
   <i type="logical" name="L2ORDER"> F  </i>
   <i type="logical" name="LGWLF"> F  </i>
   <i name="ENCUTGW">    200.00000000</i>
   <i name="ENCUTGWSOFT">     -2.00000000</i>
   <i name="ENCUTLF">     -1.00000000</i>
   <i type="int" name="LMAXMP2">    -1</i>
   <i name="SCISSOR">      0.00000000</i>
   <i type="int" name="NOMEGA">     0</i>
   <i type="int" name="NOMEGAR">     0</i>
   <i type="int" name="NBANDSGW">    -1</i>
   <i type="int" name="NBANDSLF">    -1</i>
   <i type="int" name="NELM">     1</i>
   <i type="int" name="DIM">     3</i>
   <i type="int" name="ANTIRES">     0</i>
   <i type="logical" name="LUSEW"> F  </i>
   <i name="OMEGAMAX">    -30.00000000</i>
   <i name="OMEGATL">   -200.00000000</i>
   <i type="int" name="OMEGAGRID">     0</i>
   <i name="CSHIFT">     -0.10000000</i>
   <i type="logical" name="SELFENERGY"> F  </i>
   <i type="logical" name="LSPECTRAL"> F  </i>
   <i type="logical" name="ODDONLYGW"> F  </i>
   <i type="logical" name="EVENONLYGW"> F  </i>
   <i type="int" name="NKREDLFX">     1</i>
   <i type="int" name="NKREDLFY">     1</i>
   <i type="int" name="NKREDLFZ">     1</i>
   <i type="int" name="MAXMEM">  1024</i>
   <i type="int" name="TELESCOPE">     0</i>
  </separator>
 </parameters>
 <atominfo>
  <atoms>      32 </atoms>
  <types>       1 </types>
  <array name="atoms" >
   <dimension dim="1">ion</dimension>
   <field type="string">element</field>
   <field type="int">atomtype</field>
   <set>
    <rc><c>Al</c><c>   1</c></rc>
    <rc><c>Al</c><c>   1</c></rc>
    <rc><c>Al</c><c>   1</c></rc>
    <rc><c>Al</c><c>   1</c></rc>
    <rc><c>Al</c><c>   1</c></rc>
    <rc><c>Al</c><c>   1</c></rc>
    <rc><c>Al</c><c>   1</c></rc>
    <rc><c>Al</c><c>   1</c></rc>
    <rc><c>Al</c><c>   1</c></rc>
    <rc><c>Al</c><c>   1</c></rc>
    <rc><c>Al</c><c>   1</c></rc>
    <rc><c>Al</c><c>   1</c></rc>
    <rc><c>Al</c><c>   1</c></rc>
    <rc><c>Al</c><c>   1</c></rc>
    <rc><c>Al</c><c>   1</c></rc>
    <rc><c>Al</c><c>   1</c></rc>
    <rc><c>Al</c><c>   1</c></rc>
    <rc><c>Al</c><c>   1</c></rc>
    <rc><c>Al</c><c>   1</c></rc>
    <rc><c>Al</c><c>   1</c></rc>
    <rc><c>Al</c><c>   1</c></rc>
    <rc><c>Al</c><c>   1</c></rc>
    <rc><c>Al</c><c>   1</c></rc>
    <rc><c>Al</c><c>   1</c></rc>
    <rc><c>Al</c><c>   1</c></rc>
    <rc><c>Al</c><c>   1</c></rc>
    <rc><c>Al</c><c>   1</c></rc>
    <rc><c>Al</c><c>   1</c></rc>
    <rc><c>Al</c><c>   1</c></rc>
    <rc><c>Al</c><c>   1</c></rc>
    <rc><c>Al</c><c>   1</c></rc>
    <rc><c>Al</c><c>   1</c></rc>
   </set>
  </array>
  <array name="atomtypes" >
   <dimension dim="1">type</dimension>
   <field type="int">atomspertype</field>
   <field type="string">element</field>
   <field>mass</field>
   <field>valence</field>
   <field type="string">pseudopotential</field>
   <set>
    <rc><c>  32</c><c>Al</c><c>     26.98200000</c><c>      3.00000000</c><c> PAW_PBE Al 04Jan2001                   </c></rc>
   </set>
  </array>
 </atominfo>
 <structure name="initialpos" >
  <crystal>
   <varray name="basis" >
    <v>       8.10000000       0.00000000       0.00000000 </v>
    <v>       0.00000000       8.10000000       0.00000000 </v>
    <v>       0.00000000       0.00000000       8.10000000 </v>
   </varray>
   <i name="volume">    531.44100000 </i>
   <varray name="rec_basis" >
    <v>       0.12345679       0.00000000       0.00000000 </v>
    <v>       0.00000000       0.12345679       0.00000000 </v>
    <v>       0.00000000       0.00000000       0.12345679 </v>
   </varray>
  </crystal>
  <varray name="positions" >
   <v>       0.00000000       0.00000000       0.00000000 </v>
   <v>       0.25000000       0.00000000       0.25000000 </v>
   <v>       0.25000000       0.25000000       0.00000000 </v>
   <v>       0.00000000       0.25000000       0.25000000 </v>
   <v>       0.50000000       0.00000000       0.00000000 </v>
   <v>       0.75000000       0.00000000       0.25000000 </v>
   <v>       0.75000000       0.25000000       0.00000000 </v>
   <v>       0.50000000       0.25000000       0.25000000 </v>
   <v>       0.00000000       0.50000000       0.00000000 </v>
   <v>       0.25000000       0.50000000       0.25000000 </v>
   <v>       0.25000000       0.75000000       0.00000000 </v>
   <v>       0.00000000       0.75000000       0.25000000 </v>
   <v>       0.50000000       0.50000000       0.00000000 </v>
   <v>       0.75000000       0.50000000       0.25000000 </v>
   <v>       0.75000000       0.75000000       0.00000000 </v>
   <v>       0.50000000       0.75000000       0.25000000 </v>
   <v>       0.00000000       0.00000000       0.50000000 </v>
   <v>       0.25000000       0.00000000       0.75000000 </v>
   <v>       0.25000000       0.25000000       0.50000000 </v>
   <v>       0.00000000       0.25000000       0.75000000 </v>
   <v>       0.50000000       0.00000000       0.50000000 </v>
   <v>       0.75000000       0.00000000       0.75000000 </v>
   <v>       0.75000000       0.25000000       0.50000000 </v>
   <v>       0.50000000       0.25000000       0.75000000 </v>
   <v>       0.00000000       0.50000000       0.50000000 </v>
   <v>       0.25000000       0.50000000       0.75000000 </v>
   <v>       0.25000000       0.75000000       0.50000000 </v>
   <v>       0.00000000       0.75000000       0.75000000 </v>
   <v>       0.50000000       0.50000000       0.50000000 </v>
   <v>       0.75000000       0.50000000       0.75000000 </v>
   <v>       0.75000000       0.75000000       0.50000000 </v>
   <v>       0.50000000       0.75000000       0.75000000 </v>
  </varray>
 </structure>
 <calculation>
  <scstep>
   <time name="diag">    2.50    1.63</time>
   <time name="diis">   11.62    3.61</time>
   <time name="orth">    0.19    0.05</time>
   <time name="total">   16.37    7.24</time>
   <energy>
    <i name="alphaZ">     -6.47188209 </i>
    <i name="ewald">  -2347.41496354 </i>
    <i name="hartreedc">     -3.32377371 </i>
    <i name="XCdc">   -840.04563207 </i>
    <i name="pawpsdc">   1137.73615723 </i>
    <i name="pawaedc">   -115.16745734 </i>
    <i name="eentropy">      0.01400443 </i>
    <i name="bandstr">    760.19381543 </i>
    <i name="atom">   1713.20396807 </i>
    <i name="e_fr_energy">    298.72423640 </i>
    <i name="e_wo_entrp">    298.71023198 </i>
    <i name="e_0_energy">    298.71956826 </i>
   </energy>
  </scstep>
  <scstep>
   <time name="diag">    2.34    1.54</time>
   <time name="diis">   11.64    3.60</time>
   <time name="orth">    0.19    0.05</time>
   <time name="total">   14.18    5.19</time>
   <energy>
    <i name="e_fr_energy">    -11.85457203 </i>
    <i name="e_wo_entrp">    -11.85887453 </i>
    <i name="e_0_energy">    -11.85600620 </i>
   </energy>
  </scstep>
  <scstep>
   <time name="diag">    2.34    1.54</time>
   <time name="diis">   11.70    3.61</time>
   <time name="orth">    0.19    0.05</time>
   <time name="total">   14.24    5.20</time>
   <energy>
    <i name="e_fr_energy">    -72.99802799 </i>
    <i name="e_wo_entrp">    -72.89595905 </i>
    <i name="e_0_energy">    -72.96400501 </i>
   </energy>
  </scstep>
  <scstep>
   <time name="diag">    2.33    1.53</time>
   <time name="diis">   11.77    3.61</time>
   <time name="orth">    0.19    0.05</time>
   <time name="total">   14.30    5.20</time>
   <energy>
    <i name="e_fr_energy">    -89.23961859 </i>
    <i name="e_wo_entrp">    -89.30959433 </i>
    <i name="e_0_energy">    -89.26294383 </i>
   </energy>
  </scstep>
  <scstep>
   <time name="diag">    2.33    1.53</time>
   <time name="diis">   11.87    3.64</time>
   <time name="orth">    0.19    0.05</time>
   <time name="total">   14.40    5.22</time>
   <energy>
    <i name="e_fr_energy">    -96.82285838 </i>
    <i name="e_wo_entrp">    -96.79096118 </i>
    <i name="e_0_energy">    -96.81222598 </i>
   </energy>
  </scstep>
  <scstep>
   <time name="diag">    2.30    1.53</time>
   <time name="diis">   11.87    3.62</time>
   <time name="orth">    0.19    0.05</time>
   <time name="total">   14.36    5.20</time>
   <energy>
    <i name="e_fr_energy">   -100.03816934 </i>
    <i name="e_wo_entrp">    -99.96269249 </i>
    <i name="e_0_energy">   -100.01301039 </i>
   </energy>
  </scstep>
  <scstep>
   <time name="diag">    2.27    1.53</time>
   <time name="diis">   11.92    3.63</time>
   <time name="orth">    0.19    0.05</time>
   <time name="total">   14.39    5.20</time>
   <energy>
    <i name="e_fr_energy">   -101.58412635 </i>
    <i name="e_wo_entrp">   -101.47016818 </i>
    <i name="e_0_energy">   -101.54614030 </i>
   </energy>
  </scstep>
  <scstep>
   <time name="diag">    2.27    1.53</time>
   <time name="diis">   11.94    3.63</time>
   <time name="orth">    0.19    0.05</time>
   <time name="total">   14.42    5.21</time>
   <energy>
    <i name="e_fr_energy">   -102.39212158 </i>
    <i name="e_wo_entrp">   -102.18794538 </i>
    <i name="e_0_energy">   -102.32406284 </i>
   </energy>
  </scstep>
  <scstep>
   <time name="diag">    2.27    1.53</time>
   <time name="diis">   23.42    6.64</time>
   <time name="orth">    0.19    0.05</time>
   <time name="total">   25.89    8.21</time>
   <energy>
    <i name="e_fr_energy">   -103.34027821 </i>
    <i name="e_wo_entrp">   -103.00350588 </i>
    <i name="e_0_energy">   -103.22802077 </i>
   </energy>
  </scstep>
  <scstep>
   <time name="diag">    2.33    1.53</time>
   <time name="diis">   20.60    5.85</time>
   <time name="orth">    0.19    0.05</time>
   <time name="total">   23.13    7.43</time>
   <energy>
    <i name="e_fr_energy">   -103.42681344 </i>
    <i name="e_wo_entrp">   -103.08830915 </i>
    <i name="e_0_energy">   -103.31397868 </i>
   </energy>
  </scstep>
  <scstep>
   <time name="diag">    2.41    1.54</time>
   <time name="diis">   19.65    5.61</time>
   <time name="orth">    0.19    0.05</time>
   <time name="total">   22.26    7.20</time>
   <energy>
    <i name="e_fr_energy">   -103.43268287 </i>
    <i name="e_wo_entrp">   -103.09416922 </i>
    <i name="e_0_energy">   -103.31984498 </i>
   </energy>
  </scstep>
  <scstep>
   <time name="diag">    2.26    1.52</time>
   <time name="diis">   15.76    4.49</time>
   <time name="orth">    0.19    0.05</time>
   <time name="total">   19.57    7.32</time>
   <energy>
    <i name="e_fr_energy">   -103.43307098 </i>
    <i name="e_wo_entrp">   -103.09455723 </i>
    <i name="e_0_energy">   -103.32023306 </i>
   </energy>
  </scstep>
  <scstep>
   <time name="diag">    2.41    1.55</time>
   <time name="diis">   22.28    6.44</time>
   <time name="orth">    0.19    0.05</time>
   <time name="total">   28.09   11.15</time>
   <energy>
    <i name="e_fr_energy">   -102.88849550 </i>
    <i name="e_wo_entrp">   -102.54998175 </i>
    <i name="e_0_energy">   -102.77565758 </i>
   </energy>
  </scstep>
  <scstep>
   <time name="diag">    2.40    1.55</time>
   <time name="diis">   22.47    6.46</time>
   <time name="orth">    0.19    0.05</time>
   <time name="total">   28.28   11.17</time>
   <energy>
    <i name="e_fr_energy">   -102.47854397 </i>
    <i name="e_wo_entrp">   -102.14003027 </i>
    <i name="e_0_energy">   -102.36570607 </i>
   </energy>
  </scstep>
  <scstep>
   <time name="diag">    2.41    1.55</time>
   <time name="diis">   22.09    6.39</time>
   <time name="orth">    0.19    0.05</time>
   <time name="total">   28.00   11.12</time>
   <energy>
    <i name="e_fr_energy">   -102.47859382 </i>
    <i name="e_wo_entrp">   -102.14008012 </i>
    <i name="e_0_energy">   -102.36575592 </i>
   </energy>
  </scstep>
  <scstep>
   <time name="diag">    2.40    1.55</time>
   <time name="diis">   14.83    4.33</time>
   <time name="orth">    0.19    0.05</time>
   <time name="total">   19.38    7.83</time>
   <energy>
    <i name="alphaZ">     -6.47188209 </i>
    <i name="ewald">  -2347.41496354 </i>
    <i name="hartreedc">     -3.50577270 </i>
    <i name="XCdc">   -836.15847691 </i>
    <i name="pawpsdc">   1132.93739610 </i>
    <i name="pawaedc">   -110.41805296 </i>
    <i name="eentropy">     -0.33851369 </i>
    <i name="bandstr">    355.68769692 </i>
    <i name="atom">   1713.20396807 </i>
    <i name="e_fr_energy">   -102.47860079 </i>
    <i name="e_wo_entrp">   -102.14008710 </i>
    <i name="e_0_energy">   -102.36576290 </i>
   </energy>
  </scstep>
  <structure>
   <crystal>
    <varray name="basis" >
     <v>       8.10000000       0.00000000       0.00000000 </v>
     <v>       0.00000000       8.10000000       0.00000000 </v>
     <v>       0.00000000       0.00000000       8.10000000 </v>
    </varray>
    <i name="volume">    531.44100000 </i>
    <varray name="rec_basis" >
     <v>       0.12345679       0.00000000       0.00000000 </v>
     <v>       0.00000000       0.12345679       0.00000000 </v>
     <v>       0.00000000       0.00000000       0.12345679 </v>
    </varray>
   </crystal>
   <varray name="positions" >
    <v>       0.00000000       0.00000000       0.00000000 </v>
    <v>       0.25000000       0.00000000       0.25000000 </v>
    <v>       0.25000000       0.25000000       0.00000000 </v>
    <v>       0.00000000       0.25000000       0.25000000 </v>
    <v>       0.50000000       0.00000000       0.00000000 </v>
    <v>       0.75000000       0.00000000       0.25000000 </v>
    <v>       0.75000000       0.25000000       0.00000000 </v>
    <v>       0.50000000       0.25000000       0.25000000 </v>
    <v>       0.00000000       0.50000000       0.00000000 </v>
    <v>       0.25000000       0.50000000       0.25000000 </v>
    <v>       0.25000000       0.75000000       0.00000000 </v>
    <v>       0.00000000       0.75000000       0.25000000 </v>
    <v>       0.50000000       0.50000000       0.00000000 </v>
    <v>       0.75000000       0.50000000       0.25000000 </v>
    <v>       0.75000000       0.75000000       0.00000000 </v>
    <v>       0.50000000       0.75000000       0.25000000 </v>
    <v>       0.00000000       0.00000000       0.50000000 </v>
    <v>       0.25000000       0.00000000       0.75000000 </v>
    <v>       0.25000000       0.25000000       0.50000000 </v>
    <v>       0.00000000       0.25000000       0.75000000 </v>
    <v>       0.50000000       0.00000000       0.50000000 </v>
    <v>       0.75000000       0.00000000       0.75000000 </v>
    <v>       0.75000000       0.25000000       0.50000000 </v>
    <v>       0.50000000       0.25000000       0.75000000 </v>
    <v>       0.00000000       0.50000000       0.50000000 </v>
    <v>       0.25000000       0.50000000       0.75000000 </v>
    <v>       0.25000000       0.75000000       0.50000000 </v>
    <v>       0.00000000       0.75000000       0.75000000 </v>
    <v>       0.50000000       0.50000000       0.50000000 </v>
    <v>       0.75000000       0.50000000       0.75000000 </v>
    <v>       0.75000000       0.75000000       0.50000000 </v>
    <v>       0.50000000       0.75000000       0.75000000 </v>
   </varray>
  </structure>
  <varray name="forces" >
   <v>       0.00000000       0.00000000       0.00000000 </v>
   <v>       0.00000000       0.00000000       0.00000000 </v>
   <v>       0.00000000       0.00000000       0.00000000 </v>
   <v>       0.00000000       0.00000000       0.00000000 </v>
   <v>       0.00000000       0.00000000       0.00000000 </v>
   <v>       0.00000000       0.00000000       0.00000000 </v>
   <v>       0.00000000       0.00000000       0.00000000 </v>
   <v>       0.00000000       0.00000000       0.00000000 </v>
   <v>       0.00000000       0.00000000       0.00000000 </v>
   <v>       0.00000000       0.00000000       0.00000000 </v>
   <v>       0.00000000       0.00000000       0.00000000 </v>
   <v>       0.00000000       0.00000000       0.00000000 </v>
   <v>       0.00000000       0.00000000       0.00000000 </v>
   <v>       0.00000000       0.00000000       0.00000000 </v>
   <v>       0.00000000       0.00000000       0.00000000 </v>
   <v>       0.00000000       0.00000000       0.00000000 </v>
   <v>       0.00000000       0.00000000       0.00000000 </v>
   <v>       0.00000000       0.00000000       0.00000000 </v>
   <v>       0.00000000       0.00000000       0.00000000 </v>
   <v>       0.00000000       0.00000000       0.00000000 </v>
   <v>       0.00000000       0.00000000       0.00000000 </v>
   <v>       0.00000000       0.00000000       0.00000000 </v>
   <v>       0.00000000       0.00000000       0.00000000 </v>
   <v>       0.00000000       0.00000000       0.00000000 </v>
   <v>       0.00000000       0.00000000       0.00000000 </v>
   <v>       0.00000000       0.00000000       0.00000000 </v>
   <v>       0.00000000       0.00000000       0.00000000 </v>
   <v>       0.00000000       0.00000000       0.00000000 </v>
   <v>       0.00000000       0.00000000       0.00000000 </v>
   <v>       0.00000000       0.00000000       0.00000000 </v>
   <v>       0.00000000       0.00000000       0.00000000 </v>
   <v>       0.00000000       0.00000000       0.00000000 </v>
  </varray>
  <varray name="stress" >
   <v>     -37.57571202       0.00000000       0.00000000 </v>
   <v>       0.00000000     -37.57571202       0.00000000 </v>
   <v>       0.00000000       0.00000000     -37.57571202 </v>
  </varray>
  <energy>
   <i name="e_fr_energy">   -102.47860079 </i>
   <i name="e_wo_entrp">   -102.36576290 </i>
   <i name="e_0_energy">     -0.33851369 </i>
  </energy>
  <time name="totalsc">  346.58  133.14</time>
 </calculation>
 <calculation>
  <scstep>
   <time name="diag">    2.41    1.56</time>
   <time name="diis">   22.08    6.42</time>
   <time name="orth">    0.19    0.05</time>
   <time name="total">   28.08   11.16</time>
   <energy>
    <i name="alphaZ">     -6.85085935 </i>
    <i name="ewald">  -2392.36819618 </i>
    <i name="hartreedc">     -3.57388471 </i>
    <i name="XCdc">   -833.17624127 </i>
    <i name="pawpsdc">   1132.84435780 </i>
    <i name="pawaedc">   -110.32315142 </i>
    <i name="eentropy">     -0.33851375 </i>
    <i name="bandstr">    397.84891717 </i>
    <i name="atom">   1713.20396807 </i>
    <i name="e_fr_energy">   -102.73360362 </i>
    <i name="e_wo_entrp">   -102.39508987 </i>
    <i name="e_0_energy">   -102.62076570 </i>
   </energy>
  </scstep>
  <scstep>
   <time name="diag">    2.40    1.55</time>
   <time name="diis">   21.97    6.36</time>
   <time name="orth">    0.19    0.05</time>
   <time name="total">   27.77   11.08</time>
   <energy>
    <i name="e_fr_energy">   -102.71538373 </i>
    <i name="e_wo_entrp">   -102.37686998 </i>
    <i name="e_0_energy">   -102.60254581 </i>
   </energy>
  </scstep>
  <scstep>
   <time name="diag">    2.40    1.55</time>
   <time name="diis">   22.48    6.46</time>
   <time name="orth">    0.19    0.05</time>
   <time name="total">   28.30   11.18</time>
   <energy>
    <i name="e_fr_energy">   -102.70239915 </i>
    <i name="e_wo_entrp">   -102.36388540 </i>
    <i name="e_0_energy">   -102.58956124 </i>
   </energy>
  </scstep>
  <scstep>
   <time name="diag">    2.40    1.55</time>
   <time name="diis">   13.30    4.00</time>
   <time name="orth">    0.19    0.05</time>
   <time name="total">   17.83    7.47</time>
   <energy>
    <i name="alphaZ">     -6.85085935 </i>
    <i name="ewald">  -2392.36819618 </i>
    <i name="hartreedc">     -3.88732733 </i>
    <i name="XCdc">   -832.50214644 </i>
    <i name="pawpsdc">   1139.48647980 </i>
    <i name="pawaedc">   -117.31065462 </i>
    <i name="eentropy">     -0.33851375 </i>
    <i name="bandstr">    397.86483470 </i>
    <i name="atom">   1713.20396807 </i>
    <i name="e_fr_energy">   -102.70241510 </i>
    <i name="e_wo_entrp">   -102.36390135 </i>
    <i name="e_0_energy">   -102.58957718 </i>
   </energy>
  </scstep>
  <structure>
   <crystal>
    <varray name="basis" >
     <v>       7.94779885       0.00000000       0.00000000 </v>
     <v>       0.00000000       7.94779885       0.00000000 </v>
     <v>       0.00000000       0.00000000       7.94779885 </v>
    </varray>
    <i name="volume">    502.04263650 </i>
    <varray name="rec_basis" >
     <v>       0.12582100       0.00000000       0.00000000 </v>
     <v>       0.00000000       0.12582100       0.00000000 </v>
     <v>       0.00000000       0.00000000       0.12582100 </v>
    </varray>
   </crystal>
   <varray name="positions" >
    <v>       0.00000000       0.00000000       0.00000000 </v>
    <v>       0.25000000       0.00000000       0.25000000 </v>
    <v>       0.25000000       0.25000000       0.00000000 </v>
    <v>       0.00000000       0.25000000       0.25000000 </v>
    <v>       0.50000000       0.00000000       0.00000000 </v>
    <v>       0.75000000       0.00000000       0.25000000 </v>
    <v>       0.75000000       0.25000000       0.00000000 </v>
    <v>       0.50000000       0.25000000       0.25000000 </v>
    <v>       0.00000000       0.50000000       0.00000000 </v>
    <v>       0.25000000       0.50000000       0.25000000 </v>
    <v>       0.25000000       0.75000000       0.00000000 </v>
    <v>       0.00000000       0.75000000       0.25000000 </v>
    <v>       0.50000000       0.50000000       0.00000000 </v>
    <v>       0.75000000       0.50000000       0.25000000 </v>
    <v>       0.75000000       0.75000000       0.00000000 </v>
    <v>       0.50000000       0.75000000       0.25000000 </v>
    <v>       0.00000000       0.00000000       0.50000000 </v>
    <v>       0.25000000       0.00000000       0.75000000 </v>
    <v>       0.25000000       0.25000000       0.50000000 </v>
    <v>       0.00000000       0.25000000       0.75000000 </v>
    <v>       0.50000000       0.00000000       0.50000000 </v>
    <v>       0.75000000       0.00000000       0.75000000 </v>
    <v>       0.75000000       0.25000000       0.50000000 </v>
    <v>       0.50000000       0.25000000       0.75000000 </v>
    <v>       0.00000000       0.50000000       0.50000000 </v>
    <v>       0.25000000       0.50000000       0.75000000 </v>
    <v>       0.25000000       0.75000000       0.50000000 </v>
    <v>       0.00000000       0.75000000       0.75000000 </v>
    <v>       0.50000000       0.50000000       0.50000000 </v>
    <v>       0.75000000       0.50000000       0.75000000 </v>
    <v>       0.75000000       0.75000000       0.50000000 </v>
    <v>       0.50000000       0.75000000       0.75000000 </v>
   </varray>
  </structure>
  <varray name="forces" >
   <v>       0.00000000       0.00000000       0.00000000 </v>
   <v>       0.00000000       0.00000000       0.00000000 </v>
   <v>       0.00000000       0.00000000       0.00000000 </v>
   <v>       0.00000000       0.00000000       0.00000000 </v>
   <v>       0.00000000       0.00000000       0.00000000 </v>
   <v>       0.00000000       0.00000000       0.00000000 </v>
   <v>       0.00000000       0.00000000       0.00000000 </v>
   <v>       0.00000000       0.00000000       0.00000000 </v>
   <v>       0.00000000       0.00000000       0.00000000 </v>
   <v>       0.00000000       0.00000000       0.00000000 </v>
   <v>       0.00000000       0.00000000       0.00000000 </v>
   <v>       0.00000000       0.00000000       0.00000000 </v>
   <v>       0.00000000       0.00000000       0.00000000 </v>
   <v>       0.00000000       0.00000000       0.00000000 </v>
   <v>       0.00000000       0.00000000       0.00000000 </v>
   <v>       0.00000000       0.00000000       0.00000000 </v>
   <v>       0.00000000       0.00000000       0.00000000 </v>
   <v>       0.00000000       0.00000000       0.00000000 </v>
   <v>       0.00000000       0.00000000       0.00000000 </v>
   <v>       0.00000000       0.00000000       0.00000000 </v>
   <v>       0.00000000       0.00000000       0.00000000 </v>
   <v>       0.00000000       0.00000000       0.00000000 </v>
   <v>       0.00000000       0.00000000       0.00000000 </v>
   <v>       0.00000000       0.00000000       0.00000000 </v>
   <v>       0.00000000       0.00000000       0.00000000 </v>
   <v>       0.00000000       0.00000000       0.00000000 </v>
   <v>       0.00000000       0.00000000       0.00000000 </v>
   <v>       0.00000000       0.00000000       0.00000000 </v>
   <v>       0.00000000       0.00000000       0.00000000 </v>
   <v>       0.00000000       0.00000000       0.00000000 </v>
   <v>       0.00000000       0.00000000       0.00000000 </v>
   <v>       0.00000000       0.00000000       0.00000000 </v>
  </varray>
  <varray name="stress" >
   <v>      15.73665103       0.00000000       0.00000000 </v>
   <v>       0.00000000      15.73665103       0.00000000 </v>
   <v>       0.00000000       0.00000000      15.73665103 </v>
  </varray>
  <energy>
   <i name="e_fr_energy">   -102.70241510 </i>
   <i name="e_wo_entrp">   -102.58957718 </i>
   <i name="e_0_energy">     -0.33851375 </i>
  </energy>
  <time name="totalsc">  137.32   58.97</time>
 </calculation>
 <calculation>
  <scstep>
   <time name="diag">    2.41    1.55</time>
   <time name="diis">   22.06    6.41</time>
   <time name="orth">    0.19    0.05</time>
   <time name="total">   28.04   11.14</time>
   <energy>
    <i name="alphaZ">     -6.74582757 </i>
    <i name="ewald">  -2380.07923406 </i>
    <i name="hartreedc">     -3.87334713 </i>
    <i name="XCdc">   -833.31504752 </i>
    <i name="pawpsdc">   1139.32844591 </i>
    <i name="pawaedc">   -117.15095908 </i>
    <i name="eentropy">     -0.33851375 </i>
    <i name="bandstr">    386.22755040 </i>
    <i name="atom">   1713.20396807 </i>
    <i name="e_fr_energy">   -102.74296473 </i>
    <i name="e_wo_entrp">   -102.40445098 </i>
    <i name="e_0_energy">   -102.63012682 </i>
   </energy>
  </scstep>
  <scstep>
   <time name="diag">    2.41    1.55</time>
   <time name="diis">   19.01    5.47</time>
   <time name="orth">    0.19    0.05</time>
   <time name="total">   24.90   10.28</time>
   <energy>
    <i name="e_fr_energy">   -102.74156621 </i>
    <i name="e_wo_entrp">   -102.40305246 </i>
    <i name="e_0_energy">   -102.62872829 </i>
   </energy>
  </scstep>
  <scstep>
   <time name="diag">    2.41    1.55</time>
   <time name="diis">   18.04    5.25</time>
   <time name="orth">    0.19    0.05</time>
   <time name="total">   23.86    9.98</time>
   <energy>
    <i name="e_fr_energy">   -102.74051615 </i>
    <i name="e_wo_entrp">   -102.40200240 </i>
    <i name="e_0_energy">   -102.62767823 </i>
   </energy>
  </scstep>
  <scstep>
   <time name="diag">    2.40    1.55</time>
   <time name="diis">   11.92    3.49</time>
   <time name="orth">    0.19    0.05</time>
   <time name="total">   16.41    6.96</time>
   <energy>
    <i name="alphaZ">     -6.74582757 </i>
    <i name="ewald">  -2380.07923406 </i>
    <i name="hartreedc">     -3.77772335 </i>
    <i name="XCdc">   -833.49215152 </i>
    <i name="pawpsdc">   1137.37406635 </i>
    <i name="pawaedc">   -115.09791786 </i>
    <i name="eentropy">     -0.33851375 </i>
    <i name="bandstr">    386.21281251 </i>
    <i name="atom">   1713.20396807 </i>
    <i name="e_fr_energy">   -102.74052118 </i>
    <i name="e_wo_entrp">   -102.40200743 </i>
    <i name="e_0_energy">   -102.62768326 </i>
   </energy>
  </scstep>
  <structure>
   <crystal>
    <varray name="basis" >
     <v>       7.98883539       0.00000000       0.00000000 </v>
     <v>       0.00000000       7.98883539       0.00000000 </v>
     <v>       0.00000000       0.00000000       7.98883539 </v>
    </varray>
    <i name="volume">    509.85938413 </i>
    <varray name="rec_basis" >
     <v>       0.12517469       0.00000000       0.00000000 </v>
     <v>       0.00000000       0.12517469       0.00000000 </v>
     <v>       0.00000000       0.00000000       0.12517469 </v>
    </varray>
   </crystal>
   <varray name="positions" >
    <v>       0.00000000       0.00000000       0.00000000 </v>
    <v>       0.25000000       0.00000000       0.25000000 </v>
    <v>       0.25000000       0.25000000       0.00000000 </v>
    <v>       0.00000000       0.25000000       0.25000000 </v>
    <v>       0.50000000       0.00000000       0.00000000 </v>
    <v>       0.75000000       0.00000000       0.25000000 </v>
    <v>       0.75000000       0.25000000       0.00000000 </v>
    <v>       0.50000000       0.25000000       0.25000000 </v>
    <v>       0.00000000       0.50000000       0.00000000 </v>
    <v>       0.25000000       0.50000000       0.25000000 </v>
    <v>       0.25000000       0.75000000       0.00000000 </v>
    <v>       0.00000000       0.75000000       0.25000000 </v>
    <v>       0.50000000       0.50000000       0.00000000 </v>
    <v>       0.75000000       0.50000000       0.25000000 </v>
    <v>       0.75000000       0.75000000       0.00000000 </v>
    <v>       0.50000000       0.75000000       0.25000000 </v>
    <v>       0.00000000       0.00000000       0.50000000 </v>
    <v>       0.25000000       0.00000000       0.75000000 </v>
    <v>       0.25000000       0.25000000       0.50000000 </v>
    <v>       0.00000000       0.25000000       0.75000000 </v>
    <v>       0.50000000       0.00000000       0.50000000 </v>
    <v>       0.75000000       0.00000000       0.75000000 </v>
    <v>       0.75000000       0.25000000       0.50000000 </v>
    <v>       0.50000000       0.25000000       0.75000000 </v>
    <v>       0.00000000       0.50000000       0.50000000 </v>
    <v>       0.25000000       0.50000000       0.75000000 </v>
    <v>       0.25000000       0.75000000       0.50000000 </v>
    <v>       0.00000000       0.75000000       0.75000000 </v>
    <v>       0.50000000       0.50000000       0.50000000 </v>
    <v>       0.75000000       0.50000000       0.75000000 </v>
    <v>       0.75000000       0.75000000       0.50000000 </v>
    <v>       0.50000000       0.75000000       0.75000000 </v>
   </varray>
  </structure>
  <varray name="forces" >
   <v>       0.00000000       0.00000000       0.00000000 </v>
   <v>       0.00000000       0.00000000       0.00000000 </v>
   <v>       0.00000000       0.00000000       0.00000000 </v>
   <v>       0.00000000       0.00000000       0.00000000 </v>
   <v>       0.00000000       0.00000000       0.00000000 </v>
   <v>       0.00000000       0.00000000       0.00000000 </v>
   <v>       0.00000000       0.00000000       0.00000000 </v>
   <v>       0.00000000       0.00000000       0.00000000 </v>
   <v>       0.00000000       0.00000000       0.00000000 </v>
   <v>       0.00000000       0.00000000       0.00000000 </v>
   <v>       0.00000000       0.00000000       0.00000000 </v>
   <v>       0.00000000       0.00000000       0.00000000 </v>
   <v>       0.00000000       0.00000000       0.00000000 </v>
   <v>       0.00000000       0.00000000       0.00000000 </v>
   <v>       0.00000000       0.00000000       0.00000000 </v>
   <v>       0.00000000       0.00000000       0.00000000 </v>
   <v>       0.00000000       0.00000000       0.00000000 </v>
   <v>       0.00000000       0.00000000       0.00000000 </v>
   <v>       0.00000000       0.00000000       0.00000000 </v>
   <v>       0.00000000       0.00000000       0.00000000 </v>
   <v>       0.00000000       0.00000000       0.00000000 </v>
   <v>       0.00000000       0.00000000       0.00000000 </v>
   <v>       0.00000000       0.00000000       0.00000000 </v>
   <v>       0.00000000       0.00000000       0.00000000 </v>
   <v>       0.00000000       0.00000000       0.00000000 </v>
   <v>       0.00000000       0.00000000       0.00000000 </v>
   <v>       0.00000000       0.00000000       0.00000000 </v>
   <v>       0.00000000       0.00000000       0.00000000 </v>
   <v>       0.00000000       0.00000000       0.00000000 </v>
   <v>       0.00000000       0.00000000       0.00000000 </v>
   <v>       0.00000000       0.00000000       0.00000000 </v>
   <v>       0.00000000       0.00000000       0.00000000 </v>
  </varray>
  <varray name="stress" >
   <v>       0.08381975       0.00000000       0.00000000 </v>
   <v>       0.00000000       0.08381975       0.00000000 </v>
   <v>       0.00000000       0.00000000       0.08381975 </v>
  </varray>
  <energy>
   <i name="e_fr_energy">   -102.74052118 </i>
   <i name="e_wo_entrp">   -102.62768326 </i>
   <i name="e_0_energy">     -0.33851375 </i>
  </energy>
  <time name="totalsc">  125.60   55.21</time>
  <eigenvalues>
   <array>
    <dimension dim="1">band</dimension>
    <dimension dim="2">kpoint</dimension>
    <dimension dim="3">spin</dimension>
    <field>eigene</field>
    <field>occ</field>
    <set>
     <set comment="spin 1">
      <set comment="kpoint 1">
       <r>   -3.0123    1.0000 </r>
       <r>   -0.7128    1.0000 </r>
       <r>   -0.7128    1.0000 </r>
       <r>   -0.7128    1.0000 </r>
       <r>   -0.7128    1.0000 </r>
       <r>   -0.7128    1.0000 </r>
       <r>   -0.7128    1.0000 </r>
       <r>    1.5491    1.0000 </r>
       <r>    1.5491    1.0000 </r>
       <r>    1.5491    1.0000 </r>
       <r>    1.5491    1.0000 </r>
       <r>    1.5491    1.0000 </r>
       <r>    1.5491    1.0000 </r>
       <r>    1.5491    1.0000 </r>
       <r>    1.5491    1.0000 </r>
       <r>    1.5491    1.0000 </r>
       <r>    1.5491    1.0000 </r>
       <r>    1.5491    1.0000 </r>
       <r>    1.5491    1.0000 </r>
       <r>    3.6358    1.0000 </r>
       <r>    3.6358    1.0000 </r>
       <r>    3.6358    1.0000 </r>
       <r>    3.6358    1.0000 </r>
       <r>    3.9365    1.0000 </r>
       <r>    3.9365    1.0000 </r>
       <r>    3.9365    1.0000 </r>
       <r>    3.9365    1.0000 </r>
       <r>    5.3567    1.0000 </r>
       <r>    5.3567    1.0000 </r>
       <r>    5.3567    1.0000 </r>
       <r>    6.7609    1.0000 </r>
       <r>    6.7609    1.0000 </r>
       <r>    6.7609    1.0000 </r>
       <r>    7.4762    1.0000 </r>
       <r>    7.4762    1.0000 </r>
       <r>    7.4762    1.0000 </r>
       <r>    7.4762    1.0000 </r>
       <r>    7.4762    1.0000 </r>
       <r>    7.4762    1.0000 </r>
       <r>    7.4762    1.0000 </r>
       <r>    7.4762    1.0000 </r>
       <r>    7.4762    1.0000 </r>
       <r>    7.4762    1.0000 </r>
       <r>    7.4762    1.0000 </r>
       <r>    7.4762    1.0000 </r>
       <r>    8.4831    0.5000 </r>
       <r>    8.4831    0.5000 </r>
       <r>    8.4831    0.5000 </r>
       <r>    8.4831    0.5000 </r>
       <r>    8.4831    0.5000 </r>
       <r>    8.4831    0.5000 </r>
       <r>    9.6034    0.0000 </r>
       <r>    9.6034    0.0000 </r>
       <r>    9.6034    0.0000 </r>
       <r>    9.6034    0.0000 </r>
       <r>    9.6034    0.0000 </r>
       <r>    9.6034    0.0000 </r>
       <r>    9.6034    0.0000 </r>
       <r>    9.6034    0.0000 </r>
       <r>    9.6492    0.0000 </r>
       <r>    9.6567    0.0000 </r>
       <r>    9.6575    0.0000 </r>
       <r>    9.6578    0.0000 </r>
       <r>    9.6592    0.0000 </r>
       <r>    9.6592    0.0000 </r>
      </set>
     </set>
    </set>
   </array>
  </eigenvalues>
  <separator name="orbital magnetization" >
   <v name="MAGDIPOLOUT">      0.00000000      0.00000000      0.00000000</v>
  </separator>
  <dos>
   <i name="efermi">      8.48314718 </i>
   <total>
    <array>
     <dimension dim="1">gridpoints</dimension>
     <dimension dim="2">spin</dimension>
     <field>energy</field>
     <field>total</field>
     <field>integrated</field>
     <set>
      <set comment="spin 1">
       <r>  -5.0123   0.0000   0.0000 </r>
       <r>  -4.9568   0.0000   0.0000 </r>
       <r>  -4.9012   0.0000   0.0000 </r>
       <r>  -4.8456   0.0000   0.0000 </r>
       <r>  -4.7901   0.0000   0.0000 </r>
       <r>  -4.7345   0.0000   0.0000 </r>
       <r>  -4.6789   0.0000   0.0000 </r>
       <r>  -4.6233   0.0000   0.0000 </r>
       <r>  -4.5678   0.0000   0.0000 </r>
       <r>  -4.5122   0.0000   0.0000 </r>
       <r>  -4.4566   0.0000   0.0000 </r>
       <r>  -4.4011   0.0000   0.0000 </r>
       <r>  -4.3455   0.0000   0.0000 </r>
       <r>  -4.2899   0.0000   0.0000 </r>
       <r>  -4.2343   0.0000   0.0000 </r>
       <r>  -4.1788   0.0000   0.0000 </r>
       <r>  -4.1232   0.0000   0.0000 </r>
       <r>  -4.0676   0.0000   0.0000 </r>
       <r>  -4.0121   0.0000   0.0000 </r>
       <r>  -3.9565   0.0000   0.0000 </r>
       <r>  -3.9009   0.0000   0.0000 </r>
       <r>  -3.8453   0.0000   0.0000 </r>
       <r>  -3.7898   0.0000   0.0000 </r>
       <r>  -3.7342  -0.0001   0.0000 </r>
       <r>  -3.6786  -0.0004   0.0000 </r>
       <r>  -3.6231  -0.0020  -0.0001 </r>
       <r>  -3.5675  -0.0087  -0.0006 </r>
       <r>  -3.5119  -0.0309  -0.0023 </r>
       <r>  -3.4563  -0.0906  -0.0074 </r>
       <r>  -3.4008  -0.2126  -0.0192 </r>
       <r>  -3.3452  -0.3791  -0.0403 </r>
       <r>  -3.2896  -0.4365  -0.0645 </r>
       <r>  -3.2340  -0.0279  -0.0661 </r>
       <r>  -3.1785   1.2794   0.0050 </r>
       <r>  -3.1229   3.5906   0.2046 </r>
       <r>  -3.0673   6.2799   0.5536 </r>
       <r>  -3.0118   8.1220   1.0049 </r>
       <r>  -2.9562   8.1005   1.4551 </r>
       <r>  -2.9006   6.2279   1.8012 </r>
       <r>  -2.8450   3.5349   1.9976 </r>
       <r>  -2.7895   1.2411   2.0666 </r>
       <r>  -2.7339  -0.0443   2.0641 </r>
       <r>  -2.6783  -0.4385   2.0397 </r>
       <r>  -2.6228  -0.3759   2.0189 </r>
       <r>  -2.5672  -0.2094   2.0072 </r>
       <r>  -2.5116  -0.0888   2.0023 </r>
       <r>  -2.4560  -0.0302   2.0006 </r>
       <r>  -2.4005  -0.0084   2.0001 </r>
       <r>  -2.3449  -0.0020   2.0000 </r>
       <r>  -2.2893  -0.0004   2.0000 </r>
       <r>  -2.2338  -0.0001   2.0000 </r>
       <r>  -2.1782   0.0000   2.0000 </r>
       <r>  -2.1226   0.0000   2.0000 </r>
       <r>  -2.0670   0.0000   2.0000 </r>
       <r>  -2.0115   0.0000   2.0000 </r>
       <r>  -1.9559   0.0000   2.0000 </r>
       <r>  -1.9003   0.0000   2.0000 </r>
       <r>  -1.8448   0.0000   2.0000 </r>
       <r>  -1.7892   0.0000   2.0000 </r>
       <r>  -1.7336   0.0000   2.0000 </r>
       <r>  -1.6780   0.0000   2.0000 </r>
       <r>  -1.6225   0.0000   2.0000 </r>
       <r>  -1.5669   0.0000   2.0000 </r>
       <r>  -1.5113   0.0000   2.0000 </r>
       <r>  -1.4558  -0.0002   2.0000 </r>
       <r>  -1.4002  -0.0012   1.9999 </r>
       <r>  -1.3446  -0.0066   1.9996 </r>
       <r>  -1.2890  -0.0305   1.9979 </r>
       <r>  -1.2335  -0.1170   1.9914 </r>
       <r>  -1.1779  -0.3703   1.9708 </r>
       <r>  -1.1223  -0.9492   1.9180 </r>
       <r>  -1.0668  -1.8970   1.8126 </r>
       <r>  -1.0112  -2.6755   1.6639 </r>
       <r>  -0.9556  -1.6054   1.5747 </r>
       <r>  -0.9000   3.9407   1.7937 </r>
       <r>  -0.8445  15.6927   2.6658 </r>
       <r>  -0.7889  31.7095   4.4279 </r>
       <r>  -0.7333  45.6159   6.9629 </r>
       <r>  -0.6778  50.1291   9.7486 </r>
       <r>  -0.6222  42.6429  12.1184 </r>
       <r>  -0.5666  27.4211  13.6422 </r>
       <r>  -0.5110  12.0545  14.3121 </r>
       <r>  -0.4555   1.9239  14.4190 </r>
       <r>  -0.3999  -2.2035  14.2965 </r>
       <r>  -0.3443  -2.5595  14.1543 </r>
       <r>  -0.2888  -1.6281  14.0638 </r>
       <r>  -0.2332  -0.7592  14.0217 </r>
       <r>  -0.1776  -0.2796  14.0061 </r>
       <r>  -0.1220  -0.0839  14.0014 </r>
       <r>  -0.0665  -0.0209  14.0003 </r>
       <r>  -0.0109  -0.0043  14.0000 </r>
       <r>   0.0447  -0.0008  14.0000 </r>
       <r>   0.1002  -0.0001  14.0000 </r>
       <r>   0.1558   0.0000  14.0000 </r>
       <r>   0.2114   0.0000  14.0000 </r>
       <r>   0.2670   0.0000  14.0000 </r>
       <r>   0.3225   0.0000  14.0000 </r>
       <r>   0.3781   0.0000  14.0000 </r>
       <r>   0.4337   0.0000  14.0000 </r>
       <r>   0.4893   0.0000  14.0000 </r>
       <r>   0.5448   0.0000  14.0000 </r>
       <r>   0.6004   0.0000  14.0000 </r>
       <r>   0.6560   0.0000  14.0000 </r>
       <r>   0.7115   0.0000  14.0000 </r>
       <r>   0.7671  -0.0001  14.0000 </r>
       <r>   0.8227  -0.0007  14.0000 </r>
       <r>   0.8783  -0.0041  13.9997 </r>
       <r>   0.9338  -0.0213  13.9985 </r>
       <r>   0.9894  -0.0928  13.9934 </r>
       <r>   1.0450  -0.3366  13.9747 </r>
       <r>   1.1005  -1.0032  13.9189 </r>
       <r>   1.1561  -2.4006  13.7855 </r>
       <r>   1.2117  -4.3937  13.5414 </r>
       <r>   1.2673  -5.3193  13.2458 </r>
       <r>   1.3228  -1.0857  13.1854 </r>
       <r>   1.3784  13.5707  13.9396 </r>
       <r>   1.4340  40.4607  16.1880 </r>
       <r>   1.4895  72.8634  20.2372 </r>
       <r>   1.5451  96.3834  25.5934 </r>
       <r>   1.6007  98.1674  31.0487 </r>
       <r>   1.6563  77.1784  35.3376 </r>
       <r>   1.7118  45.0730  37.8424 </r>
       <r>   1.7674  16.7412  38.7727 </r>
       <r>   1.8230   0.2752  38.7880 </r>
       <r>   1.8785  -5.1528  38.5017 </r>
       <r>   1.9341  -4.6614  38.2426 </r>
       <r>   1.9897  -2.6674  38.0944 </r>
       <r>   2.0453  -1.1539  38.0303 </r>
       <r>   2.1008  -0.3990  38.0081 </r>
       <r>   2.1564  -0.1130  38.0018 </r>
       <r>   2.2120  -0.0266  38.0003 </r>
       <r>   2.2675  -0.0052  38.0001 </r>
       <r>   2.3231  -0.0009  38.0000 </r>
       <r>   2.3787  -0.0001  38.0000 </r>
       <r>   2.4343   0.0000  38.0000 </r>
       <r>   2.4898   0.0000  38.0000 </r>
       <r>   2.5454   0.0000  38.0000 </r>
       <r>   2.6010   0.0000  38.0000 </r>
       <r>   2.6565   0.0000  38.0000 </r>
       <r>   2.7121   0.0000  38.0000 </r>
       <r>   2.7677   0.0000  38.0000 </r>
       <r>   2.8233   0.0000  38.0000 </r>
       <r>   2.8788  -0.0001  38.0000 </r>
       <r>   2.9344  -0.0005  38.0000 </r>
       <r>   2.9900  -0.0029  37.9998 </r>
       <r>   3.0455  -0.0141  37.9990 </r>
       <r>   3.1011  -0.0566  37.9959 </r>
       <r>   3.1567  -0.1883  37.9854 </r>
       <r>   3.2123  -0.5104  37.9570 </r>
       <r>   3.2678  -1.0930  37.8963 </r>
       <r>   3.3234  -1.7176  37.8009 </r>
       <r>   3.3790  -1.4909  37.7180 </r>
       <r>   3.4345   1.2067  37.7851 </r>
       <r>   3.4901   7.7686  38.2168 </r>
       <r>   3.5457  17.5561  39.1924 </r>
       <r>   3.6013  27.0141  40.6936 </r>
       <r>   3.6568  31.6675  42.4534 </r>
       <r>   3.7124  30.1044  44.1264 </r>
       <r>   3.7680  25.8473  45.5628 </r>
       <r>   3.8236  24.2806  46.9121 </r>
       <r>   3.8791  27.2667  48.4273 </r>
       <r>   3.9347  31.2205  50.1623 </r>
       <r>   3.9903  30.7927  51.8735 </r>
       <r>   4.0458  24.0785  53.2116 </r>
       <r>   4.1014  13.9690  53.9879 </r>
       <r>   4.1570   5.0357  54.2677 </r>
       <r>   4.2126  -0.1181  54.2612 </r>
       <r>   4.2681  -1.7567  54.1635 </r>
       <r>   4.3237  -1.5343  54.0783 </r>
       <r>   4.3793  -0.8650  54.0302 </r>
       <r>   4.4348  -0.3704  54.0096 </r>
       <r>   4.4904  -0.1270  54.0026 </r>
       <r>   4.5460  -0.0357  54.0006 </r>
       <r>   4.6016  -0.0084  54.0001 </r>
       <r>   4.6571  -0.0020  54.0000 </r>
       <r>   4.7127  -0.0026  53.9998 </r>
       <r>   4.7683  -0.0111  53.9992 </r>
       <r>   4.8238  -0.0443  53.9968 </r>
       <r>   4.8794  -0.1465  53.9886 </r>
       <r>   4.9350  -0.3940  53.9667 </r>
       <r>   4.9906  -0.8356  53.9203 </r>
       <r>   5.0461  -1.2923  53.8485 </r>
       <r>   5.1017  -1.0627  53.7894 </r>
       <r>   5.1573   1.1106  53.8511 </r>
       <r>   5.2128   6.3096  54.2018 </r>
       <r>   5.2684  14.0595  54.9831 </r>
       <r>   5.3240  21.5825  56.1825 </r>
       <r>   5.3796  25.0938  57.5770 </r>
       <r>   5.4351  22.5883  58.8322 </r>
       <r>   5.4907  15.5101  59.6942 </r>
       <r>   5.5463   7.5399  60.1132 </r>
       <r>   5.6018   1.7921  60.2127 </r>
       <r>   5.6574  -0.8609  60.1649 </r>
       <r>   5.7130  -1.3318  60.0909 </r>
       <r>   5.7686  -0.9266  60.0394 </r>
       <r>   5.8241  -0.4582  60.0139 </r>
       <r>   5.8797  -0.1771  60.0041 </r>
       <r>   5.9353  -0.0555  60.0010 </r>
       <r>   5.9908  -0.0144  60.0002 </r>
       <r>   6.0464  -0.0033  60.0000 </r>
       <r>   6.1020  -0.0020  59.9999 </r>
       <r>   6.1576  -0.0075  59.9995 </r>
       <r>   6.2131  -0.0311  59.9978 </r>
       <r>   6.2687  -0.1082  59.9918 </r>
       <r>   6.3243  -0.3083  59.9746 </r>
       <r>   6.3798  -0.7005  59.9357 </r>
       <r>   6.4354  -1.1957  59.8692 </r>
       <r>   6.4910  -1.2573  59.7994 </r>
       <r>   6.5466   0.2554  59.8136 </r>
       <r>   6.6021   4.5948  60.0689 </r>
       <r>   6.6577  11.8380  60.7268 </r>
       <r>   6.7133  19.7985  61.8270 </r>
       <r>   6.7688  24.7129  63.2003 </r>
       <r>   6.8244  23.8283  64.5245 </r>
       <r>   6.8800  17.6375  65.5047 </r>
       <r>   6.9356   9.4180  66.0280 </r>
       <r>   6.9911   2.5305  66.1687 </r>
       <r>   7.0467  -1.8060  66.0683 </r>
       <r>   7.1023  -4.3968  65.8240 </r>
       <r>   7.1578  -6.0495  65.4878 </r>
       <r>   7.2134  -5.2898  65.1938 </r>
       <r>   7.2690   2.3107  65.3222 </r>
       <r>   7.3246  21.4701  66.5154 </r>
       <r>   7.3801  51.5606  69.3807 </r>
       <r>   7.4357  82.7304  73.9781 </r>
       <r>   7.4913  99.8079  79.5246 </r>
       <r>   7.5469  93.1480  84.7010 </r>
       <r>   7.6024  66.6118  88.4027 </r>
       <r>   7.6580  34.3154  90.3097 </r>
       <r>   7.7136   9.6391  90.8454 </r>
       <r>   7.7691  -2.6029  90.7007 </r>
       <r>   7.8247  -5.3842  90.4015 </r>
       <r>   7.8803  -4.0120  90.1786 </r>
       <r>   7.9359  -2.1201  90.0607 </r>
       <r>   7.9914  -1.0395  90.0030 </r>
       <r>   8.0470  -0.8866  89.9537 </r>
       <r>   8.1026  -1.4804  89.8714 </r>
       <r>   8.1581  -2.4147  89.7372 </r>
       <r>   8.2137  -2.5080  89.5979 </r>
       <r>   8.2693   0.5625  89.6291 </r>
       <r>   8.3249   9.3013  90.1460 </r>
       <r>   8.3804  23.8291  91.4702 </r>
       <r>   8.4360  39.7298  93.6781 </r>
       <r>   8.4916  49.4698  96.4272 </r>
       <r>   8.5471  47.5975  99.0723 </r>
       <r>   8.6027  35.2005 101.0284 </r>
       <r>   8.6583  18.9854 102.0835 </r>
       <r>   8.7139   5.9688 102.4152 </r>
       <r>   8.7694  -0.8701 102.3668 </r>
       <r>   8.8250  -2.6828 102.2177 </r>
       <r>   8.8806  -2.1196 102.1000 </r>
       <r>   8.9361  -1.1333 102.0370 </r>
       <r>   8.9917  -0.4816 102.0102 </r>
       <r>   9.0473  -0.2333 101.9972 </r>
       <r>   9.1029  -0.3380 101.9785 </r>
       <r>   9.1584  -0.9139 101.9277 </r>
       <r>   9.2140  -2.2393 101.8032 </r>
       <r>   9.2696  -4.3119 101.5636 </r>
       <r>   9.3251  -5.8023 101.2412 </r>
       <r>   9.3807  -2.9303 101.0783 </r>
       <r>   9.4363   9.9457 101.6310 </r>
       <r>   9.4919  36.3243 103.6496 </r>
       <r>   9.5474  71.8476 107.6423 </r>
       <r>   9.6030 102.8789 113.3595 </r>
       <r>   9.6586 113.8079 119.6840 </r>
       <r>   9.7141  98.5882 125.1627 </r>
       <r>   9.7697  65.6266 128.8097 </r>
       <r>   9.8253  30.9951 130.5321 </r>
       <r>   9.8809   6.9385 130.9177 </r>
       <r>   9.9364  -3.8670 130.7028 </r>
       <r>   9.9920  -5.6680 130.3878 </r>
       <r>  10.0476  -3.9275 130.1696 </r>
       <r>  10.1031  -1.9564 130.0608 </r>
       <r>  10.1587  -0.7670 130.0182 </r>
       <r>  10.2143  -0.2451 130.0046 </r>
       <r>  10.2699  -0.0650 130.0010 </r>
       <r>  10.3254  -0.0144 130.0002 </r>
       <r>  10.3810  -0.0027 130.0000 </r>
       <r>  10.4366  -0.0004 130.0000 </r>
       <r>  10.4921  -0.0001 130.0000 </r>
       <r>  10.5477   0.0000 130.0000 </r>
       <r>  10.6033   0.0000 130.0000 </r>
       <r>  10.6589   0.0000 130.0000 </r>
       <r>  10.7144   0.0000 130.0000 </r>
       <r>  10.7700   0.0000 130.0000 </r>
       <r>  10.8256   0.0000 130.0000 </r>
       <r>  10.8812   0.0000 130.0000 </r>
       <r>  10.9367   0.0000 130.0000 </r>
       <r>  10.9923   0.0000 130.0000 </r>
       <r>  11.0479   0.0000 130.0000 </r>
       <r>  11.1034   0.0000 130.0000 </r>
       <r>  11.1590   0.0000 130.0000 </r>
       <r>  11.2146   0.0000 130.0000 </r>
       <r>  11.2702   0.0000 130.0000 </r>
       <r>  11.3257   0.0000 130.0000 </r>
       <r>  11.3813   0.0000 130.0000 </r>
       <r>  11.4369   0.0000 130.0000 </r>
       <r>  11.4924   0.0000 130.0000 </r>
       <r>  11.5480   0.0000 130.0000 </r>
       <r>  11.6036   0.0000 130.0000 </r>
       <r>  11.6592   0.0000 130.0000 </r>
      </set>
     </set>
    </array>
   </total>
  </dos>
 </calculation>
 <structure name="finalpos" >
  <crystal>
   <varray name="basis" >
    <v>       7.98883539       0.00000000       0.00000000 </v>
    <v>       0.00000000       7.98883539       0.00000000 </v>
    <v>       0.00000000       0.00000000       7.98883539 </v>
   </varray>
   <i name="volume">    509.85938413 </i>
   <varray name="rec_basis" >
    <v>       0.12517469       0.00000000       0.00000000 </v>
    <v>       0.00000000       0.12517469       0.00000000 </v>
    <v>       0.00000000       0.00000000       0.12517469 </v>
   </varray>
  </crystal>
  <varray name="positions" >
   <v>       0.00000000       0.00000000       0.00000000 </v>
   <v>       0.25000000       0.00000000       0.25000000 </v>
   <v>       0.25000000       0.25000000       0.00000000 </v>
   <v>       0.00000000       0.25000000       0.25000000 </v>
   <v>       0.50000000       0.00000000       0.00000000 </v>
   <v>       0.75000000       0.00000000       0.25000000 </v>
   <v>       0.75000000       0.25000000       0.00000000 </v>
   <v>       0.50000000       0.25000000       0.25000000 </v>
   <v>       0.00000000       0.50000000       0.00000000 </v>
   <v>       0.25000000       0.50000000       0.25000000 </v>
   <v>       0.25000000       0.75000000       0.00000000 </v>
   <v>       0.00000000       0.75000000       0.25000000 </v>
   <v>       0.50000000       0.50000000       0.00000000 </v>
   <v>       0.75000000       0.50000000       0.25000000 </v>
   <v>       0.75000000       0.75000000       0.00000000 </v>
   <v>       0.50000000       0.75000000       0.25000000 </v>
   <v>       0.00000000       0.00000000       0.50000000 </v>
   <v>       0.25000000       0.00000000       0.75000000 </v>
   <v>       0.25000000       0.25000000       0.50000000 </v>
   <v>       0.00000000       0.25000000       0.75000000 </v>
   <v>       0.50000000       0.00000000       0.50000000 </v>
   <v>       0.75000000       0.00000000       0.75000000 </v>
   <v>       0.75000000       0.25000000       0.50000000 </v>
   <v>       0.50000000       0.25000000       0.75000000 </v>
   <v>       0.00000000       0.50000000       0.50000000 </v>
   <v>       0.25000000       0.50000000       0.75000000 </v>
   <v>       0.25000000       0.75000000       0.50000000 </v>
   <v>       0.00000000       0.75000000       0.75000000 </v>
   <v>       0.50000000       0.50000000       0.50000000 </v>
   <v>       0.75000000       0.50000000       0.75000000 </v>
   <v>       0.75000000       0.75000000       0.50000000 </v>
   <v>       0.50000000       0.75000000       0.75000000 </v>
  </varray>
 </structure>
</modeling>
