Automatically generated mesh
      20
Reciprocal lattice
    0.12500000000000    0.12500000000000    0.12500000000000             2
    0.37500000000000    0.12500000000000    0.12500000000000             4
   -0.37500000000000    0.12500000000000    0.12500000000000             4
   -0.12500000000000    0.12500000000000    0.12500000000000             4
    0.37500000000000    0.37500000000000    0.12500000000000             2
   -0.37500000000000    0.37500000000000    0.12500000000000             4
   -0.12500000000000    0.37500000000000    0.12500000000000             4
   -0.37500000000000   -0.37500000000000    0.12500000000000             2
   -0.12500000000000   -0.37500000000000    0.12500000000000             4
   -0.12500000000000   -0.12500000000000    0.12500000000000             2
    0.12500000000000    0.12500000000000    0.37500000000000             2
    0.37500000000000    0.12500000000000    0.37500000000000             4
   -0.37500000000000    0.12500000000000    0.37500000000000             4
   -0.12500000000000    0.12500000000000    0.37500000000000             4
    0.37500000000000    0.37500000000000    0.37500000000000             2
   -0.37500000000000    0.37500000000000    0.37500000000000             4
   -0.12500000000000    0.37500000000000    0.37500000000000             4
   -0.37500000000000   -0.37500000000000    0.37500000000000             2
   -0.12500000000000   -0.37500000000000    0.37500000000000             4
   -0.12500000000000   -0.12500000000000    0.37500000000000             2
Tetrahedra
       100    0.00260416666667
         4         1         2         5        11
         4         2         5        11        12
         4         5        11        12        15
         4         2         3         6        12
         4         2         5         6        12
         4         5         6        12        15
         4         3         6        12        13
         4         6        12        13        16
         4         6        12        15        16
         4         3         4         7        13
         4         3         6         7        13
         4         6         7        13        16
         4         4         7        13        14
         4         7        13        14        17
         4         7        13        16        17
         4         1         2         4        14
         4         2         4         7        14
         4         2         7        14        17
         4         1         2        11        14
         4         2        11        12        14
         4         2        12        14        17
         4         5         6         8        15
         4         6         8        15        16
         4         8        15        16        18
         4         6         7         9        16
         4         6         8         9        16
         4         8         9        16        18
         4         7         9        16        17
         4         9        16        17        19
         4         9        16        18        19
         4         2         3         7        17
         4         3         7         9        17
         4         3         9        17        19
         4         2         3        12        17
         4         3        12        13        17
         4         3        13        17        19
         4         8         9        10        18
         4         9        10        18        19
         4        10        18        19        20
         4         3         4         9        19
         4         4         9        10        19
         4         4        10        19        20
         4         3         4        13        19
         4         4        13        14        19
         4         4        14        19        20
         4         1         4        10        20
         4         1         4        14        20
         4         1        11        14        20
         4        11        12        15        20
         4        12        15        19        20
         4        15        18        19        20
         4        12        13        16        19
         4        12        15        16        19
         4        15        16        18        19
         4        13        16        17        19
         4        16        16        17        19
         4        16        16        18        19
         4        13        14        17        17
         4        13        16        17        17
         2        16        16        17        17
         2        14        14        17        17
         4        11        12        14        14
         4        12        14        14        17
         4        12        13        14        17
         4        11        12        14        20
         4        12        14        19        20
         4        12        13        14        19
         4        15        16        18        18
         2        16        16        18        18
         4        12        13        13        17
         4        13        13        17        19
         4        12        13        13        19
         4        11        11        14        20
         2        11        11        14        14
         4         1         8         9        10
         4         1         2         8         9
         4         1         2         5         8
         4         2         6         7         9
         4         2         6         8         9
         4         2         5         6         8
         4         2         3         6         7
         4         2         3         6         6
         4         2         5         6         6
         4         3         3         4         7
         4         3         3         6         7
         2         3         3         6         6
         2         3         3         4         4
         4         4         4         9        10
         4         3         4         4         9
         4         3         4         7         9
         4         1         4         9        10
         4         1         2         4         9
         4         2         4         7         9
         4         5         5         6         8
         2         5         5         6         6
         4         3         7         7         9
         4         2         3         7         7
         4         2         7         7         9
         4         1         4        10        10
         2         4         4        10        10
