  31  31   0   0
  0.1706110E+02  0.8087040E-09  0.8087040E-09  0.8087040E-09  0.5000000E-15
  1.000000000000000E-004
  CAR 
 unknown system                          
     12.57354297     -5.03938776  301      7.75249770      1.00000000
     -5.039  0.0000E+00  0.0000E+00
     -4.981  0.0000E+00  0.0000E+00
     -4.922  0.0000E+00  0.0000E+00
     -4.863  0.0000E+00  0.0000E+00
     -4.805  0.0000E+00  0.0000E+00
     -4.746  0.0000E+00  0.0000E+00
     -4.687 -0.2472E-27 -0.1451E-28
     -4.628 -0.2739E-25 -0.1623E-26
     -4.570 -0.2569E-23 -0.1525E-24
     -4.511 -0.2025E-21 -0.1204E-22
     -4.452 -0.1341E-19 -0.7992E-21
     -4.394 -0.7455E-18 -0.4457E-19
     -4.335 -0.3481E-16 -0.2088E-17
     -4.276 -0.1364E-14 -0.8217E-16
     -4.217 -0.4296E-13 -0.2605E-14
     -4.159 -0.1199E-11 -0.7302E-13
     -4.100 -0.2761E-10 -0.1694E-11
     -4.041 -0.5326E-09 -0.3296E-10
     -3.983 -0.8595E-08 -0.5376E-09
     -3.924 -0.1159E-06 -0.7344E-08
     -3.865 -0.1305E-05 -0.8395E-07
     -3.806 -0.1223E-04 -0.8023E-06
     -3.748 -0.9534E-04 -0.6400E-05
     -3.689 -0.6154E-03 -0.4253E-04
     -3.630 -0.3275E-02 -0.2348E-03
     -3.572 -0.1427E-01 -0.1073E-02
     -3.513 -0.5038E-01 -0.4031E-02
     -3.454 -0.1412E+00 -0.1232E-01
     -3.396 -0.3022E+00 -0.3006E-01
     -3.337 -0.4434E+00 -0.5610E-01
     -3.278 -0.2483E+00 -0.7067E-01
     -3.219  0.7927E+00 -0.2413E-01
     -3.161  0.2979E+01  0.1508E+00
     -3.102  0.5819E+01  0.4924E+00
     -3.043  0.7974E+01  0.9606E+00
     -2.985  0.8156E+01  0.1439E+01
     -2.926  0.6248E+01  0.1806E+01
     -2.867  0.3413E+01  0.2007E+01
     -2.808  0.1064E+01  0.2069E+01
     -2.750 -0.1529E+00  0.2060E+01
     -2.691 -0.4469E+00  0.2034E+01
     -2.632 -0.3316E+00  0.2014E+01
     -2.574 -0.1664E+00  0.2005E+01
     -2.515 -0.7815E-01  0.2000E+01
     -2.456 -0.8463E-01  0.1995E+01
     -2.397 -0.2061E+00  0.1983E+01
     -2.339 -0.4774E+00  0.1955E+01
     -2.280 -0.8269E+00  0.1906E+01
     -2.221 -0.8432E+00  0.1857E+01
     -2.163  0.3363E+00  0.1877E+01
     -2.104  0.3611E+01  0.2089E+01
     -2.045  0.8965E+01  0.2615E+01
     -1.986  0.1485E+02  0.3487E+01
     -1.928  0.1888E+02  0.4595E+01
     -1.869  0.1948E+02  0.5739E+01
     -1.810  0.1680E+02  0.6725E+01
     -1.752  0.1222E+02  0.7442E+01
     -1.693  0.7318E+01  0.7871E+01
     -1.634  0.3286E+01  0.8064E+01
     -1.576  0.7129E+00  0.8106E+01
     -1.517 -0.4297E+00  0.8081E+01
     -1.458 -0.6266E+00  0.8044E+01
     -1.399 -0.4498E+00  0.8018E+01
     -1.341 -0.2804E+00  0.8001E+01
     -1.282 -0.2829E+00  0.7985E+01
     -1.223 -0.4916E+00  0.7956E+01
     -1.165 -0.7887E+00  0.7910E+01
     -1.106 -0.7227E+00  0.7867E+01
     -1.047  0.5642E+00  0.7900E+01
     -0.988  0.3862E+01  0.8127E+01
     -0.930  0.8901E+01  0.8649E+01
     -0.871  0.1385E+02  0.9463E+01
     -0.812  0.1639E+02  0.1043E+02
     -0.754  0.1567E+02  0.1135E+02
     -0.695  0.1301E+02  0.1211E+02
     -0.636  0.1038E+02  0.1272E+02
     -0.577  0.8507E+01  0.1322E+02
     -0.519  0.6790E+01  0.1362E+02
     -0.460  0.4654E+01  0.1389E+02
     -0.401  0.2370E+01  0.1403E+02
     -0.343  0.6253E+00  0.1407E+02
     -0.284 -0.2607E+00  0.1405E+02
     -0.225 -0.5217E+00  0.1402E+02
     -0.166 -0.6167E+00  0.1398E+02
     -0.108 -0.8627E+00  0.1393E+02
     -0.049 -0.1182E+01  0.1386E+02
      0.010 -0.8876E+00  0.1381E+02
      0.068  0.1263E+01  0.1389E+02
      0.127  0.6277E+01  0.1425E+02
      0.186  0.1358E+02  0.1505E+02
      0.244  0.2050E+02  0.1626E+02
      0.303  0.2381E+02  0.1765E+02
      0.362  0.2233E+02  0.1896E+02
      0.421  0.1776E+02  0.2001E+02
      0.479  0.1289E+02  0.2076E+02
      0.538  0.9227E+01  0.2131E+02
      0.597  0.6520E+01  0.2169E+02
      0.655  0.4113E+01  0.2193E+02
      0.714  0.1948E+01  0.2204E+02
      0.773  0.3886E+00  0.2207E+02
      0.832 -0.4309E+00  0.2204E+02
      0.890 -0.8075E+00  0.2199E+02
      0.949 -0.1154E+01  0.2193E+02
      1.008 -0.1514E+01  0.2184E+02
      1.066 -0.1167E+01  0.2177E+02
      1.125  0.1339E+01  0.2185E+02
      1.184  0.7275E+01  0.2227E+02
      1.243  0.1620E+02  0.2323E+02
      1.301  0.2527E+02  0.2471E+02
      1.360  0.3073E+02  0.2651E+02
      1.419  0.3050E+02  0.2830E+02
      1.477  0.2549E+02  0.2980E+02
      1.536  0.1841E+02  0.3088E+02
      1.595  0.1192E+02  0.3158E+02
      1.654  0.7733E+01  0.3204E+02
      1.712  0.6334E+01  0.3241E+02
      1.771  0.6860E+01  0.3281E+02
      1.830  0.7504E+01  0.3325E+02
      1.888  0.6781E+01  0.3365E+02
      1.947  0.4616E+01  0.3392E+02
      2.006  0.2073E+01  0.3404E+02
      2.064  0.1780E+00  0.3405E+02
      2.123 -0.8370E+00  0.3400E+02
      2.182 -0.1253E+01  0.3393E+02
      2.241 -0.1107E+01  0.3386E+02
      2.299  0.2279E+00  0.3388E+02
      2.358  0.3628E+01  0.3409E+02
      2.417  0.9170E+01  0.3463E+02
      2.475  0.1537E+02  0.3553E+02
      2.534  0.1974E+02  0.3669E+02
      2.593  0.2038E+02  0.3789E+02
      2.652  0.1723E+02  0.3890E+02
      2.710  0.1189E+02  0.3960E+02
      2.769  0.6407E+01  0.3997E+02
      2.828  0.2274E+01  0.4011E+02
      2.886 -0.5721E-01  0.4010E+02
      2.945 -0.1016E+01  0.4004E+02
      3.004 -0.1343E+01  0.3996E+02
      3.063 -0.1448E+01  0.3988E+02
      3.121 -0.9908E+00  0.3982E+02
      3.180  0.1025E+01  0.3988E+02
      3.239  0.5521E+01  0.4021E+02
      3.297  0.1233E+02  0.4093E+02
      3.356  0.1986E+02  0.4210E+02
      3.415  0.2587E+02  0.4361E+02
      3.474  0.2880E+02  0.4531E+02
      3.532  0.2827E+02  0.4697E+02
      3.591  0.2499E+02  0.4843E+02
      3.650  0.2041E+02  0.4963E+02
      3.708  0.1631E+02  0.5059E+02
      3.767  0.1410E+02  0.5142E+02
      3.826  0.1406E+02  0.5224E+02
      3.884  0.1552E+02  0.5315E+02
      3.943  0.1757E+02  0.5418E+02
      4.002  0.1978E+02  0.5535E+02
      4.061  0.2193E+02  0.5663E+02
      4.119  0.2330E+02  0.5800E+02
      4.178  0.2261E+02  0.5933E+02
      4.237  0.1904E+02  0.6045E+02
      4.295  0.1325E+02  0.6122E+02
      4.354  0.7483E+01  0.6166E+02
      4.413  0.4534E+01  0.6193E+02
      4.472  0.6313E+01  0.6230E+02
      4.530  0.1258E+02  0.6304E+02
      4.589  0.2081E+02  0.6426E+02
      4.648  0.2764E+02  0.6588E+02
      4.706  0.3101E+02  0.6770E+02
      4.765  0.3109E+02  0.6953E+02
      4.824  0.2941E+02  0.7126E+02
      4.883  0.2732E+02  0.7286E+02
      4.941  0.2516E+02  0.7434E+02
      5.000  0.2254E+02  0.7566E+02
      5.059  0.1915E+02  0.7679E+02
      5.117  0.1542E+02  0.7769E+02
      5.176  0.1215E+02  0.7840E+02
      5.235  0.9680E+01  0.7897E+02
      5.294  0.7598E+01  0.7942E+02
      5.352  0.5316E+01  0.7973E+02
      5.411  0.2865E+01  0.7990E+02
      5.470  0.1046E+01  0.7996E+02
      5.528  0.8854E+00  0.8001E+02
      5.587  0.2864E+01  0.8018E+02
      5.646  0.6385E+01  0.8055E+02
      5.704  0.9912E+01  0.8114E+02
      5.763  0.1186E+02  0.8183E+02
      5.822  0.1160E+02  0.8251E+02
      5.881  0.9679E+01  0.8308E+02
      5.939  0.7167E+01  0.8350E+02
      5.998  0.5053E+01  0.8380E+02
      6.057  0.4029E+01  0.8404E+02
      6.115  0.4354E+01  0.8429E+02
      6.174  0.5600E+01  0.8462E+02
      6.233  0.6710E+01  0.8501E+02
      6.292  0.6615E+01  0.8540E+02
      6.350  0.4965E+01  0.8569E+02
      6.409  0.2387E+01  0.8583E+02
      6.468  0.2430E+00  0.8585E+02
      6.526  0.1850E+00  0.8586E+02
      6.585  0.3487E+01  0.8606E+02
      6.644  0.1007E+02  0.8666E+02
      6.703  0.1794E+02  0.8771E+02
      6.761  0.2433E+02  0.8914E+02
      6.820  0.2792E+02  0.9078E+02
      6.879  0.2978E+02  0.9252E+02
      6.937  0.3131E+02  0.9436E+02
      6.996  0.3178E+02  0.9623E+02
      7.055  0.2889E+02  0.9793E+02
      7.114  0.2177E+02  0.9920E+02
      7.172  0.1254E+02  0.9994E+02
      7.231  0.4638E+01  0.1002E+03
      7.290  0.5256E-01  0.1002E+03
      7.348 -0.1533E+01  0.1001E+03
      7.407 -0.1626E+01  0.1000E+03
      7.466 -0.1467E+01  0.9994E+02
      7.525 -0.1346E+01  0.9986E+02
      7.583 -0.6036E+00  0.9983E+02
      7.642  0.1887E+01  0.9994E+02
      7.701  0.6756E+01  0.1003E+03
      7.759  0.1319E+02  0.1011E+03
      7.818  0.1912E+02  0.1022E+03
      7.877  0.2298E+02  0.1036E+03
      7.935  0.2522E+02  0.1051E+03
      7.994  0.2778E+02  0.1067E+03
      8.053  0.3168E+02  0.1086E+03
      8.112  0.3551E+02  0.1106E+03
      8.170  0.3656E+02  0.1128E+03
      8.229  0.3316E+02  0.1147E+03
      8.288  0.2597E+02  0.1163E+03
      8.346  0.1730E+02  0.1173E+03
      8.405  0.9575E+01  0.1178E+03
      8.464  0.4086E+01  0.1181E+03
      8.523  0.9330E+00  0.1181E+03
      8.581 -0.4872E+00  0.1181E+03
      8.640 -0.9537E+00  0.1180E+03
      8.699 -0.1103E+01  0.1180E+03
      8.757 -0.1207E+01  0.1179E+03
      8.816 -0.9637E+00  0.1179E+03
      8.875  0.4884E+00  0.1179E+03
      8.934  0.4051E+01  0.1181E+03
      8.992  0.9691E+01  0.1187E+03
      9.051  0.1586E+02  0.1196E+03
      9.110  0.2031E+02  0.1208E+03
      9.168  0.2198E+02  0.1221E+03
      9.227  0.2201E+02  0.1234E+03
      9.286  0.2243E+02  0.1247E+03
      9.345  0.2370E+02  0.1261E+03
      9.403  0.2392E+02  0.1275E+03
      9.462  0.2082E+02  0.1287E+03
      9.521  0.1426E+02  0.1296E+03
      9.579  0.6578E+01  0.1300E+03
      9.638  0.7477E+00  0.1300E+03
      9.697 -0.1281E+01  0.1299E+03
      9.755  0.1308E+01  0.1300E+03
      9.814  0.8459E+01  0.1305E+03
      9.873  0.1873E+02  0.1316E+03
      9.932  0.2885E+02  0.1333E+03
      9.990  0.3500E+02  0.1353E+03
     10.049  0.3517E+02  0.1374E+03
     10.108  0.3025E+02  0.1392E+03
     10.166  0.2274E+02  0.1405E+03
     10.225  0.1489E+02  0.1414E+03
     10.284  0.8203E+01  0.1419E+03
     10.343  0.3895E+01  0.1421E+03
     10.401  0.2685E+01  0.1423E+03
     10.460  0.4089E+01  0.1425E+03
     10.519  0.6342E+01  0.1429E+03
     10.577  0.7455E+01  0.1433E+03
     10.636  0.6541E+01  0.1437E+03
     10.695  0.4219E+01  0.1439E+03
     10.754  0.1814E+01  0.1440E+03
     10.812  0.2566E+00  0.1441E+03
     10.871 -0.3410E+00  0.1440E+03
     10.930 -0.3659E+00  0.1440E+03
     10.988 -0.2179E+00  0.1440E+03
     11.047 -0.9439E-01  0.1440E+03
     11.106 -0.3196E-01  0.1440E+03
     11.165 -0.8707E-02  0.1440E+03
     11.223 -0.1938E-02  0.1440E+03
     11.282 -0.3556E-03  0.1440E+03
     11.341 -0.5406E-04  0.1440E+03
     11.399 -0.6833E-05  0.1440E+03
     11.458 -0.7201E-06  0.1440E+03
     11.517 -0.6337E-07  0.1440E+03
     11.575 -0.4664E-08  0.1440E+03
     11.634 -0.2873E-09  0.1440E+03
     11.693 -0.1483E-10  0.1440E+03
     11.752 -0.6467E-12  0.1440E+03
     11.810 -0.2269E-13  0.1440E+03
     11.869  0.0000E+00  0.1440E+03
     11.928  0.0000E+00  0.1440E+03
     11.986  0.0000E+00  0.1440E+03
     12.045  0.0000E+00  0.1440E+03
     12.104  0.0000E+00  0.1440E+03
     12.163  0.0000E+00  0.1440E+03
     12.221  0.0000E+00  0.1440E+03
     12.280  0.0000E+00  0.1440E+03
     12.339  0.0000E+00  0.1440E+03
     12.397  0.0000E+00  0.1440E+03
     12.456  0.0000E+00  0.1440E+03
     12.515  0.0000E+00  0.1440E+03
     12.574  0.0000E+00  0.1440E+03
