   31   31    1    1
  0.1706110E+02  0.8087040E-09  0.8087040E-09  0.8087040E-09  0.5000000E-15
  1.000000000000000E-004
  CAR 
 unknown system                          
  101    2   72
 
  0.2500000E+00  0.2500000E+00  0.2500000E+00  0.5000000E+00
   1       -3.039388
   2       -1.976381
   3       -1.924201
   4       -1.805534
   5       -0.865059
   6       -0.804332
   7       -0.623639
   8        0.236783
   9        0.273588
  10        0.307859
  11        0.561354
  12        1.292232
  13        1.314844
  14        1.381014
  15        1.400424
  16        1.528902
  17        1.791851
  18        2.467165
  19        2.532961
  20        2.660287
  21        3.321156
  22        3.374078
  23        3.453918
  24        3.528963
  25        3.599424
  26        3.710678
  27        3.879236
  28        3.986650
  29        4.109481
  30        4.169661
  31        4.218486
  32        4.592361
  33        4.630781
  34        4.669221
  35        4.759960
  36        4.804620
  37        4.917520
  38        4.960099
  39        5.007084
  40        5.301287
  41        5.703230
  42        5.933032
  43        6.177996
  44        6.712693
  45        6.772587
  46        6.805634
  47        6.938970
  48        6.982005
  49        7.016549
  50        7.044236
  51        7.782076
  52        7.865612
  53        7.938115
  54        8.030382
  55        8.045978
  56        8.079386
  57        8.147138
  58        8.182250
  59        8.253300
  60        9.083536
  61        9.134295
  62        9.216720
  63        9.358436
  64        9.381815
  65        9.437757
  66        9.859511
  67        9.910288
  68        9.979932
  69       10.024716
  70       10.055644
  71       10.150648
  72       10.509247
 
 -0.2500000E+00  0.2500000E+00  0.2500000E+00  0.5000000E+00
   1       -3.037806
   2       -1.975763
   3       -1.953907
   4       -1.781487
   5       -0.865038
   6       -0.831806
   7       -0.553400
   8        0.235606
   9        0.248476
  10        0.342099
  11        0.481997
  12        1.284477
  13        1.308217
  14        1.328128
  15        1.436603
  16        1.549168
  17        1.826356
  18        2.503451
  19        2.511324
  20        2.635061
  21        3.353944
  22        3.377320
  23        3.476905
  24        3.535940
  25        3.586408
  26        3.775352
  27        3.885595
  28        3.971532
  29        4.114772
  30        4.117553
  31        4.287037
  32        4.551059
  33        4.621376
  34        4.630510
  35        4.764018
  36        4.788446
  37        4.876894
  38        4.999245
  39        5.095939
  40        5.203650
  41        5.700045
  42        5.800897
  43        6.291269
  44        6.712116
  45        6.741345
  46        6.749983
  47        6.902572
  48        6.985811
  49        7.018534
  50        7.062722
  51        7.782331
  52        7.825493
  53        7.862054
  54        8.076886
  55        8.089241
  56        8.166361
  57        8.209666
  58        8.245431
  59        8.371170
  60        9.025632
  61        9.067073
  62        9.143545
  63        9.307555
  64        9.405056
  65        9.429120
  66        9.951062
  67        9.954405
  68        9.964732
  69        9.979243
  70       10.161538
  71       10.187557
  72       10.573543
