       N       E                     dE             d eps       ncg     rms          rms(c)
RMM:   1     0.298582019340E+03    0.29858E+03   -0.18209E+04   144   0.607E+02
RMM:   2    -0.317429143475E+02   -0.33032E+03   -0.31917E+03   144   0.134E+02
RMM:   3    -0.930226922484E+02   -0.61280E+02   -0.62325E+02   144   0.476E+01
RMM:   4    -0.106802407229E+03   -0.13780E+02   -0.12989E+02   144   0.466E+01
RMM:   5    -0.113436373871E+03   -0.66340E+01   -0.56234E+01   144   0.225E+01
RMM:   6    -0.116527315992E+03   -0.30909E+01   -0.24852E+01   144   0.211E+01
RMM:   7    -0.117985635890E+03   -0.14583E+01   -0.13034E+01   144   0.103E+01
RMM:   8    -0.118746106418E+03   -0.76047E+00   -0.65320E+00   144   0.958E+00
RMM:   9    -0.119507462733E+03   -0.76136E+00   -0.72760E+00   430   0.479E+00
RMM:  10    -0.119562552370E+03   -0.55090E-01   -0.18736E-01   369   0.416E-01
RMM:  11    -0.119564075972E+03   -0.15236E-02   -0.67138E-03   306   0.875E-02
RMM:  12    -0.119564105294E+03   -0.29322E-04   -0.15266E-04   260   0.290E-02    0.261E+01
RMM:  13    -0.145337353241E+03   -0.25773E+02   -0.31964E+02   445   0.515E+01    0.219E+01
RMM:  14    -0.120760496907E+03    0.24577E+02   -0.55702E+01   300   0.251E+01    0.118E+01
RMM:  15    -0.115566987202E+03    0.51935E+01   -0.32219E+01   294   0.201E+01    0.738E+00
RMM:  16    -0.115429883401E+03    0.13710E+00   -0.19288E+00   324   0.504E+00    0.265E+00
RMM:  17    -0.115306143327E+03    0.12374E+00   -0.14527E-01   351   0.129E+00    0.156E+00
RMM:  18    -0.115300033345E+03    0.61100E-02   -0.14944E-02   362   0.273E-01    0.139E+00
RMM:  19    -0.115258508403E+03    0.41525E-01   -0.18846E-01   320   0.152E+00    0.102E-01
RMM:  20    -0.115259047337E+03   -0.53893E-03   -0.74372E-03   313   0.154E-01    0.927E-02
RMM:  21    -0.115258929714E+03    0.11762E-03   -0.18746E-03   289   0.189E-01    0.364E-02
RMM:  22    -0.115259052503E+03   -0.12279E-03   -0.99981E-04   270   0.134E-01    0.818E-02
RMM:  23    -0.115258911442E+03    0.14106E-03   -0.37839E-04   220   0.879E-02    0.750E-03
RMM:  24    -0.115258911940E+03   -0.49789E-06   -0.20465E-05   152   0.119E-02
   1 F= -.11525891E+03 E0= -.11525271E+03  d E =-.186199E-01
