 vasp.5.2.2 15Apr09 complex 
 executed on             LinuxIFC date 2017.01.11  13:35:56
 running on   12 nodes
 distr:  one band on    1 nodes,   12 groups


--------------------------------------------------------------------------------------------------------


 INCAR:
 POTCAR:   PAW_PBE Al 04Jan2001                   
 POTCAR:   PAW_PBE Cu 05Jan2001                   
 POTCAR:   PAW_PBE Al 04Jan2001                   
   VRHFIN =Al: s2p1                                                             
   LEXCH  = PE                                                                  
   EATOM  =    53.5387 eV,    3.9350 Ry                                         
                                                                                
   TITEL  = PAW_PBE Al 04Jan2001                                                
   LULTRA =        F    use ultrasoft PP ?                                      
   IUNSCR =        1    unscreen: 0-lin 1-nonlin 2-no                           
   RPACOR =    1.500    partial core radius                                     
   POMASS =   26.982; ZVAL   =    3.000    mass and valenz                      
   RCORE  =    1.900    outmost cutoff radius                                   
   RWIGS  =    2.650; RWIGS  =    1.402    wigner-seitz radius (au A)           
   ENMAX  =  240.300; ENMIN  =  180.225 eV                                      
   ICORE  =        2    local potential                                         
   LCOR   =        T    correct aug charges                                     
   LPAW   =        T    paw PP                                                  
   EAUG   =  291.052                                                            
   DEXC   =    -.041                                                            
   RMAX   =    2.974    core radius for proj-oper                               
   RAUG   =    1.300    factor for augmentation sphere                          
   RDEP   =    1.966    radius for radial grids                                 
   QCUT   =   -4.203; QGAM   =    8.405    optimization parameters              
                                                                                
   Description                                                                  
     l     E      TYP  RCUT    TYP  RCUT                                        
     0   .000     23  1.900                                                     
     0   .000     23  1.900                                                     
     1   .000     23  1.900                                                     
     1  1.000     23  1.900                                                     
     2   .000      7  1.900                                                     
  local pseudopotential read in
  partial core-charges read in
  atomic valenz-charges read in
  non local Contribution for L=           0  read in
    real space projection operators read in
  non local Contribution for L=           0  read in
    real space projection operators read in
  non local Contribution for L=           1  read in
    real space projection operators read in
  non local Contribution for L=           1  read in
    real space projection operators read in
    PAW grid and wavefunctions read in
 
   number of l-projection  operators is LMAX  =           4
   number of lm-projection operators is LMMAX =           8
 
 POTCAR:   PAW_PBE Cu 05Jan2001                   
   VRHFIN =Cu: d10 p1                                                           
   LEXCH  = PE                                                                  
   EATOM  =  1390.9800 eV,  102.2341 Ry                                         
                                                                                
   TITEL  = PAW_PBE Cu 05Jan2001                                                
   LULTRA =        F    use ultrasoft PP ?                                      
   IUNSCR =        1    unscreen: 0-lin 1-nonlin 2-no                           
   RPACOR =    2.000    partial core radius                                     
   POMASS =   63.546; ZVAL   =   11.000    mass and valenz                      
   RCORE  =    2.300    outmost cutoff radius                                   
   RWIGS  =    2.480; RWIGS  =    1.312    wigner-seitz radius (au A)           
   ENMAX  =  273.214; ENMIN  =  204.910 eV                                      
   RCLOC  =    1.712    cutoff for local pot                                    
   LCOR   =        T    correct aug charges                                     
   LPAW   =        T    paw PP                                                  
   EAUG   =  516.456                                                            
   DEXC   =    -.008                                                            
   RMAX   =    2.789    core radius for proj-oper                               
   RAUG   =    1.300    factor for augmentation sphere                          
   RDEP   =    2.302    radius for radial grids                                 
   QCUT   =   -4.481; QGAM   =    8.962    optimization parameters              
                                                                                
   Description                                                                  
     l     E      TYP  RCUT    TYP  RCUT                                        
     2   .000     23  2.300                                                     
     2   .000     23  2.300                                                     
     0   .000     23  2.300                                                     
     0   .000     23  2.300                                                     
     1  -.200     23  2.300                                                     
     1   .000     23  2.300                                                     
     3   .000      7   .000                                                     
  local pseudopotential read in
  partial core-charges read in
  atomic valenz-charges read in
  non local Contribution for L=           2  read in
    real space projection operators read in
  non local Contribution for L=           2  read in
    real space projection operators read in
  non local Contribution for L=           0  read in
    real space projection operators read in
  non local Contribution for L=           0  read in
    real space projection operators read in
  non local Contribution for L=           1  read in
    real space projection operators read in
  non local Contribution for L=           1  read in
    real space projection operators read in
    PAW grid and wavefunctions read in
 
   number of l-projection  operators is LMAX  =           6
   number of lm-projection operators is LMMAX =          18
 

 ----------------------------------------------------------------------------- 
|                                                                             |
|  ADVICE TO THIS USER RUNNING 'VASP/VAMP'   (HEAR YOUR MASTER'S VOICE ...):  |
|                                                                             |
|      You have a (more or less) 'large supercell' and for larger cells       |
|      it might be more efficient to use real space projection operators      |
|      So try LREAL= Auto  in the INCAR   file.                               |
|      Mind: If you want to do a very accurate calculations keep the          |
|      reciprocal projection scheme          (i.e. LREAL=.FALSE.)             |
|                                                                             |
 ----------------------------------------------------------------------------- 

 PAW_PBE Al 04Jan2001                   :
 energy of atom  1       EATOM=  -53.5387
 kinetic energy error for atom=    0.0011 (will be added to EATOM!!)
 PAW_PBE Cu 05Jan2001                   :
 energy of atom  2       EATOM=-1390.9800
 kinetic energy error for atom=    0.0323 (will be added to EATOM!!)
 
 
 POSCAR: Al30 Cu1                                
  positions in direct lattice
  velocities in cartesian coordinates
 exchange correlation table for  LEXCH =        8
   RHO(1)=    0.500       N(1)  =     2000
   RHO(2)=  100.500       N(2)  =     4000

 VTST: version 2.03d, (02/18/09)

 CHAIN: initializing optimizer
 
 OPT: Using VASP Dynamics algorithm
 CHAIN: Read ICHAIN            0
 


--------------------------------------------------------------------------------------------------------


 ion  position               nearest neighbor table
   1  0.999  0.998  0.998-  26 2.83  20 2.83  14 2.83  10 2.84  11 2.86  18 2.87  17 2.87   7 2.88
                             6 2.89   3 2.89   4 2.90   2 2.92
   2  0.254  0.010  0.254-  19 2.76  31 2.77   4 2.80   3 2.80   5 2.84  16 2.84  15 2.89  25 2.90
                             1 2.92  11 2.94  10 2.96
   3  0.253  0.250  0.004-   2 2.80   9 2.80   5 2.82  12 2.82   4 2.84  22 2.88  17 2.89  24 2.89
                             8 2.89   1 2.89  18 2.90
   4  0.005  0.250  0.253-   2 2.80   9 2.80  31 2.81  23 2.83  16 2.83   3 2.84  21 2.88   6 2.88
                            13 2.88   1 2.90   8 2.90   7 2.91
   5  0.500  0.004  0.003-   3 2.82   7 2.82   6 2.83   2 2.84  15 2.87  22 2.88  20 2.89  10 2.89
                            14 2.90  30 2.90  17 2.90
   6  0.747  0.004  0.250-  21 2.82   7 2.82   5 2.83  19 2.84  15 2.87   4 2.88   1 2.89  29 2.89
                            14 2.90  11 2.90  16 2.90
   7  0.747  0.250  0.003-   5 2.82   6 2.82  12 2.82  13 2.82   1 2.88   8 2.88  20 2.88  28 2.88
                            18 2.90  22 2.91   4 2.91
   8  0.999  0.502  0.998-  26 2.83  28 2.83  14 2.83  10 2.84  11 2.86  18 2.87  24 2.87   7 2.88
                            13 2.89   3 2.89   4 2.90   9 2.92
   9  0.254  0.490  0.254-  27 2.76  31 2.77   4 2.80   3 2.80  12 2.84  23 2.84  15 2.89  25 2.90
                             8 2.92  11 2.94  10 2.96
  10  0.248  0.750  0.997-  26 2.83   8 2.84   1 2.84  30 2.85  11 2.87  15 2.89  17 2.89  24 2.89
                            12 2.89   5 2.89   9 2.96   2 2.96
  11  1.000  0.750  0.251-  29 2.85  25 2.85   1 2.86   8 2.86  14 2.86  10 2.87  16 2.88  23 2.88
                            13 2.90   6 2.90   9 2.94   2 2.94
  12  0.500  0.496  0.003-   3 2.82   7 2.82  13 2.83   9 2.84  15 2.87  22 2.88  28 2.89  10 2.89
                            14 2.90  30 2.90  24 2.90
  13  0.747  0.496  0.250-  21 2.82   7 2.82  12 2.83  27 2.84  15 2.87   4 2.88   8 2.89  29 2.89
                            14 2.90  11 2.90  23 2.90
  14  0.752  0.750  0.998-  26 2.83   8 2.83  20 2.83   1 2.83  28 2.83  11 2.86  30 2.86  15 2.88
                             6 2.90  12 2.90  13 2.90   5 2.90
  15  0.500  0.750  0.250-   5 2.87   6 2.87  12 2.87  13 2.87  25 2.87  14 2.88  10 2.89  29 2.89
                            19 2.89   2 2.89  27 2.89   9 2.89
  16  0.004  0.004  0.501-  17 2.80  31 2.82   4 2.83  18 2.83   2 2.84  25 2.85  20 2.87  11 2.88
                            26 2.88  21 2.89  29 2.89   6 2.90
  17  0.249  0.004  0.746-  16 2.80  31 2.82  22 2.83  18 2.83  19 2.84  25 2.85   1 2.87  30 2.88
                            26 2.88   3 2.89  10 2.89   5 2.90
  18  0.001  0.250  0.749-  16 2.83  17 2.83  23 2.83  24 2.83  31 2.85   8 2.87   1 2.87  28 2.87
                            20 2.87   7 2.90   3 2.90  21 2.90
  19  0.496  0.010  0.496-   2 2.76  31 2.77  22 2.80  21 2.80   6 2.84  17 2.84  15 2.89  25 2.90
                            20 2.92  30 2.94  29 2.96
  20  0.752  0.998  0.751-  26 2.83   1 2.83  14 2.83  29 2.84  30 2.86  18 2.87  16 2.87   7 2.88
                             5 2.89  21 2.89  22 2.90  19 2.92
  21  0.746  0.250  0.497-  19 2.80  27 2.80   6 2.82  13 2.82  22 2.84   4 2.88  23 2.89  16 2.89
                            20 2.89  28 2.89  18 2.90
  22  0.497  0.250  0.745-  19 2.80  27 2.80  31 2.81  17 2.83  24 2.83  21 2.84   3 2.88   5 2.88
                            12 2.88  28 2.90  20 2.90   7 2.91
  23  0.004  0.496  0.501-  24 2.80  31 2.82   4 2.83  18 2.83   9 2.84  25 2.85  28 2.87  11 2.88
                            26 2.88  21 2.89  29 2.89  13 2.90
  24  0.249  0.496  0.746-  23 2.80  31 2.82  22 2.83  18 2.83  27 2.84  25 2.85   8 2.87  30 2.88
                            26 2.88   3 2.89  10 2.89  12 2.90
  25  0.249  0.750  0.501-  16 2.85  17 2.85  23 2.85  24 2.85  11 2.85  30 2.85  26 2.86  15 2.87
                             9 2.90  19 2.90  27 2.90   2 2.90
  26  0.999  0.750  0.751-  14 2.83   8 2.83   1 2.83  20 2.83  28 2.83  10 2.83  29 2.83  25 2.86
                            24 2.88  17 2.88  16 2.88  23 2.88
  27  0.496  0.490  0.496-   9 2.76  31 2.77  22 2.80  21 2.80  13 2.84  24 2.84  15 2.89  25 2.90
                            28 2.92  30 2.94  29 2.96
  28  0.752  0.502  0.751-  26 2.83   8 2.83  14 2.83  29 2.84  30 2.86  18 2.87  23 2.87   7 2.88
                            12 2.89  21 2.89  22 2.90  27 2.92
  29  0.753  0.750  0.502-  26 2.83  20 2.84  28 2.84  11 2.85  30 2.87  15 2.89  23 2.89  16 2.89
                            13 2.89   6 2.89  19 2.96  27 2.96
  30  0.499  0.750  0.750-  10 2.85  25 2.85  20 2.86  28 2.86  14 2.86  29 2.87  24 2.88  17 2.88
                            12 2.90   5 2.90  19 2.94  27 2.94
  31  0.250  0.250  0.500-   2 2.77   9 2.77  19 2.77  27 2.77  22 2.81   4 2.81  17 2.82  23 2.82
                            24 2.82  16 2.82  18 2.85
 
  LATTYP: Found a simple cubic cell.
 ALAT       =     8.0870400000
  
  Lattice vectors:
  
 A1 = (   8.0870400000,   0.0000000000,   0.0000000000)
 A2 = (   0.0000000000,   8.0870400000,   0.0000000000)
 A3 = (   0.0000000000,   0.0000000000,   8.0870400000)
 Subroutine PRICEL returns:
 Original cell was already a primitive cell.
 

Analysis of symmetry for initial positions (statically):

 Routine SETGRP: Setting up the symmetry group for a 
 simple cubic supercell.


 Subroutine GETGRP returns: Found  4 space group operations
 (whereof  1 operations were pure point group operations)
 out of a pool of 48 trial point group operations.


The static configuration has the point symmetry C_1 .
 The point group associated with its full space group is C_2v.

Analysis of symmetry for dynamics (positions and initial velocities):

 Subroutine DYNSYM returns: Found  4 space group operations
 (whereof  1 operations were pure point group operations)
 out of a pool of  4 trial space group operations
 (whereof  1 operations were pure point group operations)
 and found also     1 'primitive' translations


The dynamic configuration has the point symmetry C_1 .
 The point group associated with its full space group is C_2v.
 
 
 KPOINTS: Automatic kpoint scheme                 

Automatic generation of k-mesh.
 
 Subroutine IBZKPT returns following result:
 ===========================================
 
 Found      2 irreducible k-points:
 
 Following reciprocal coordinates:
            Coordinates               Weight
  0.250000  0.250000  0.250000      4.000000
 -0.250000  0.250000  0.250000      4.000000
 
 Following cartesian coordinates:
            Coordinates               Weight
  0.030914  0.030914  0.030914      4.000000
 -0.030914  0.030914  0.030914      4.000000
 


--------------------------------------------------------------------------------------------------------




 Dimension of arrays:
   k-points           NKPTS =      2   k-points in BZ     NKDIM =      2   number of bands    NBANDS=     72
   number of dos      NEDOS =    301   number of ions     NIONS =     31
   non local maximal  LDIM  =      6   non local SUM 2l+1 LMDIM =     18
   total plane-waves  NPLWV = 110592
   max r-space proj   IRMAX =      1   max aug-charges    IRDMAX=   8337
   dimension x,y,z NGX =    48 NGY =   48 NGZ =   48
   dimension x,y,z NGXF=    96 NGYF=   96 NGZF=   96
   support grid    NGXF=    96 NGYF=   96 NGZF=   96
   ions per type =              30   1
 NGX,Y,Z   is equivalent  to a cutoff of   9.87,  9.87,  9.87 a.u.
 NGXF,Y,Z  is equivalent  to a cutoff of  19.73, 19.73, 19.73 a.u.


 I would recommend the setting:
   dimension x,y,z NGX =    46 NGY =   46 NGZ =   46
 SYSTEM =  unknown system                          
 POSCAR =  Al30 Cu1                                

 Startparameter for this run:
   NWRITE =      2    write-flag & timer
   PREC   = accura    medium, high low
   ISTART =      0    job   : 0-new  1-cont  2-samecut
   ICHARG =      2    charge: 1-file 2-atom 10-const
   ISPIN  =      1    spin polarized calculation?
   LNONCOLLINEAR =      F non collinear calculations
   LSORBIT =      F    spin-orbit coupling
   INIWAV =      1    electr: 0-lowe 1-rand  2-diag
   LASPH  =      F    aspherical Exc in radial PAW
   METAGGA=      F    non-selfconsistent MetaGGA calc.

 Electronic Relaxation 1
   ENCUT  =  300.0 eV  22.05 Ry    4.70 a.u.  11.42 11.42 11.42*2*pi/ulx,y,z
   ENINI  =  300.0     initial cutoff
   ENAUG  =  516.5 eV  augmentation charge cutoff
   NELM   =     60;   NELMIN=  2; NELMDL=-12     # of ELM steps 
   EDIFF  = 0.1E-03   stopping-criterion for ELM
   LREAL  =      F    real-space projection
   LCOMPAT=      F    compatible to vasp.4.4
   LREAL_COMPAT= F    compatible to vasp.4.5.1-3
   GGA_COMPAT  = T    GGA compatible to vasp.4.4-vasp.4.6
   LMAXPAW     = -100 max onsite density
   LMAXMIX     =    2 max onsite mixed and CHGCAR
   VOSKOWN=      0    Vosko Wilk Nusair interpolation
   ROPT   =    0.00000   0.00000
 Ionic relaxation
   EDIFFG = 0.5E-01   stopping-criterion for IOM
   NSW    =      0    number of steps for IOM
   NBLOCK =      1;   KBLOCK =      1    inner block; outer block 
   IBRION =     -1    ionic relax: 0-MD 1-quasi-New 2-CG
   NFREE  =      0    steps in history (QN), initial steepest desc. (CG)
   ISIF   =      2    stress and relaxation
   IWAVPR =     10    prediction:  0-non 1-charg 2-wave 3-comb
   ISYM   =      2    0-nonsym 1-usesym 2-fastsym
   LCORR  =      T    Harris-Foulkes like correction to forces

   POTIM  = 0.5000    time-step for ionic-motion
   TEIN   =    0.0    initial temperature
   TEBEG  =    0.0;   TEEND  =   0.0 temperature during run
   SMASS  =  -3.00    Nose mass-parameter (am)
   estimated Nose-frequenzy (Omega)   =  0.10E-29 period in steps =****** mass=  -0.149E-26a.u.
   NPACO  =    256;   APACO  = 16.0  distance and # of slots for P.C.
   PSTRESS=    0.0 pullay stress

  Mass of Ions in am
   POMASS =  26.98 63.55
  Ionic Valenz
   ZVAL   =   3.00 11.00
  Atomic Wigner-Seitz radii
   RWIGS  =  -1.00 -1.00
   NELECT =     101.0000    total number of electrons
   NUPDOWN=      -1.0000    fix difference up-down

 DOS related values:
   EMIN   =  10.00;   EMAX   =-10.00  energy-range for DOS
   EFERMI =   0.00
   ISMEAR =     1;   SIGMA  =   0.20  broadening in eV -4-tet -1-fermi 0-gaus

 Electronic relaxation 2 (details)
   IALGO  =     48    algorithm
   LDIAG  =      T    sub-space diagonalisation
   IMIX   =      4    mixing-type and parameters
     AMIX     =   0.40;   BMIX     =  1.00
     AMIX_MAG =   1.60;   BMIX_MAG =  1.00
     AMIN     =   0.10
     WC   =   100.;   INIMIX=   1;  MIXPRE=   1

 Intra band minimization:
   WEIMIN = 0.0000     energy-eigenvalue tresh-hold
   EBREAK =  0.38E-06  absolut break condition
   DEPER  =   0.30     relativ break condition  

   TIME   =   0.40     timestep for ELM

  volume/ion in A,a.u.               =      17.06       115.13
  Fermi-wavevector in a.u.,A,eV,Ry     =   0.942741  1.781522 12.092320  0.888760
  Thomas-Fermi vector in A             =   2.070380
 
 Write flags
   LWAVE  =      F    write WAVECAR
   LCHARG =      F    write CHGCAR
   LVTOT  =      F    write LOCPOT, local potential
   LELF   =      F    write electronic localiz. function (ELF)
   LORBIT =      0    0 simple, 1 ext, 2 COOP (PROOUT)


 Dipole corrections
   LMONO  =      F    monopole corrections only (constant potential shift)
   LDIPOL =      F    correct potential (dipole corrections)
   IDIPOL =      0    1-x, 2-y, 3-z, 4-all directions 
   EPSILON=  1.0000000 bulk dielectric constant

 Exchange correlation treatment:
   GGA     =    --    GGA type
   LEXCH   =     8    internal setting for exchange type
   VOSKOWN=      0    Vosko Wilk Nusair interpolation
   LHFCALC =     F    Hartree Fock is set to
   LHFONE  =     F    Hartree Fock one center treatment
   AEXX    =    0.0000 exact exchange contribution

 Linear response parameters
   LEPSILON=     F    determine dielectric tensor
   LRPA    =     F    only Hartree local field effects (RPA)
   LNABLA  =     F    use nabla operator in PAW spheres
   LVEL    =     F    velocity operator in full k-point grid
   LINTERFAST=   F  fast interpolation
   KINTER  =     0    interpolate to denser k-point grid
   CSHIFT  =0.1000    complex shift for real part using Kramers Kronig
   OMEGAMAX=  -1.0    maximum frequency

 Orbital magnetization related:
   ORBITALMAG=     F  switch on orbital magnetization
   LCHIMAG   =     F  perturbation theory with respect to B field



--------------------------------------------------------------------------------------------------------


 Static calculation
 charge density and potential will be updated during run
 non-spin polarized calculation
 RMM-DIIS sequential band-by-band
 perform sub-space diagonalisation
    before iterative eigenvector-optimisation
 modified Broyden-mixing scheme, WC =      100.0
 initial mixing is a Kerker type mixing with AMIX =  0.4000 and BMIX =      1.0000
 Hartree-type preconditioning will be used
 using additional bands           21
 reciprocal scheme for non local part
 use partial core corrections
 calculate Harris-corrections to forces 
   (improved forces if not selfconsistent)
 use gradient corrections 
 use of overlap-Matrix (Vanderbilt PP)
 Methfessel and Paxton  Order N= 1 SIGMA  =   0.20


--------------------------------------------------------------------------------------------------------


  energy-cutoff  :      300.00
  volume of cell :      528.89
      direct lattice vectors                 reciprocal lattice vectors
     8.087040000  0.000000000  0.000000000     0.123654638  0.000000000  0.000000000
     0.000000000  8.087040000  0.000000000     0.000000000  0.123654638  0.000000000
     0.000000000  0.000000000  8.087040000     0.000000000  0.000000000  0.123654638

  length of vectors
     8.087040000  8.087040000  8.087040000     0.123654638  0.123654638  0.123654638


 
 k-points in units of 2pi/SCALE and weight: Automatic kpoint scheme                 
   0.03091366  0.03091366  0.03091366       0.500
  -0.03091366  0.03091366  0.03091366       0.500
 
 k-points in reciprocal lattice and weights: Automatic kpoint scheme                 
   0.25000000  0.25000000  0.25000000       0.500
  -0.25000000  0.25000000  0.25000000       0.500
 
 position of ions in fractional coordinates (direct lattice) 
   0.99946100  0.99789400  0.99824700
   0.25439000  0.01029200  0.25436200
   0.25288000  0.25000000  0.00389000
   0.00522400  0.25000000  0.25321100
   0.49952400  0.00430500  0.00333500
   0.74666500  0.00430500  0.25047600
   0.74745400  0.25000000  0.00254600
   0.99946100  0.50210600  0.99824700
   0.25439000  0.48970800  0.25436200
   0.24815100  0.75000000  0.99718900
   0.99977600  0.75000000  0.25114100
   0.49952400  0.49569500  0.00333500
   0.74666500  0.49569500  0.25047600
   0.75181500  0.75000000  0.99818500
   0.50000300  0.75000000  0.24999700
   0.00410200  0.00353200  0.50078900
   0.24921100  0.00353200  0.74589800
   0.00073700  0.25000000  0.74926300
   0.49563800  0.01029200  0.49561000
   0.75175300  0.99789400  0.75053900
   0.74611000  0.25000000  0.49712000
   0.49678900  0.25000000  0.74477600
   0.00410200  0.49646800  0.50078900
   0.24921100  0.49646800  0.74589800
   0.24873200  0.75000000  0.50126800
   0.99891200  0.75000000  0.75108800
   0.49563800  0.48970800  0.49561000
   0.75175300  0.50210600  0.75053900
   0.75281100  0.75000000  0.50184900
   0.49885900  0.75000000  0.75022400
   0.25026200  0.25000000  0.49973800
 
 position of ions in cartesian coordinates  (Angst):
   8.08268109  8.07000869  8.07286342
   2.05726211  0.08323182  2.05703567
   2.04505068  2.02176000  0.03145859
   0.04224670  2.02176000  2.04772749
   4.03967057  0.03481471  0.02697028
   6.03830972  0.03481471  2.02560943
   6.04469040  2.02176000  0.02058960
   8.08268109  4.06055131  8.07286342
   2.05726211  3.96028818  2.05703567
   2.00680706  6.06528000  8.06430733
   8.08522850  6.06528000  2.03098731
   4.03967057  4.00870529  0.02697028
   6.03830972  4.00870529  2.02560943
   6.07995798  6.06528000  8.07236202
   4.04354426  6.06528000  2.02173574
   0.03317304  0.02856343  4.04990067
   2.01537933  0.02856343  6.03210696
   0.00596015  2.02176000  6.05931985
   4.00824433  0.08323182  4.00801789
   6.07945658  8.07000869  6.06963891
   6.03382141  2.02176000  4.02022932
   4.01755251  2.02176000  6.02303330
   0.03317304  4.01495657  4.04990067
   2.01537933  4.01495657  6.03210696
   2.01150563  6.06528000  4.05377437
   8.07824130  6.06528000  6.07407870
   4.00824433  3.96028818  4.00801789
   6.07945658  4.06055131  6.06963891
   6.08801267  6.06528000  4.05847294
   4.03429269  6.06528000  6.06709150
   2.02387880  2.02176000  4.04140120
 


--------------------------------------------------------------------------------------------------------


 k-point  1 :  0.25000.25000.2500  plane waves:    6238
 k-point  2 :  -.25000.25000.2500  plane waves:    6238

 maximum and minimum number of plane-waves per node :    6238   6238

 maximum number of plane-waves:    6238
 maximal index in each direction: 
   IXMAX= 11   IYMAX= 11   IZMAX= 11
   IXMIN=-11   IYMIN=-11   IZMIN=-11

 NGX is ok and might be reduce to  46
 NGY is ok and might be reduce to  46
 NGZ is ok and might be reduce to  46

 serial   3D FFT for wavefunctions
 parallel 3D FFT for charge:
    minimum data exchange during FFTs selected (reduces bandwidth)


 total amount of memory used by VASP on root node  63028. kBytes
========================================================================

   base      :    30000. kBytes
   nonl-proj :     6689. kBytes
   fftplans  :     2983. kBytes
   grid      :    21626. kBytes
   one-center:      482. kBytes
   wavefun   :     1248. kBytes
 
 Broyden mixing: mesh for mixing (old mesh)
   NGX = 23   NGY = 23   NGZ = 23
  (NGX  = 96   NGY  = 96   NGZ  = 96)
  gives a total of  12167 points

 initial charge density was supplied:
 charge density of overlapping atoms calculated
 number of electron  101.0000000 magnetization 
 keeping initial charge density in first step


--------------------------------------------------------------------------------------------------------


 Maximum index for augmentation-charges          543 (set IRDMAX)


--------------------------------------------------------------------------------------------------------


 First call to EWALD:  gamma=   0.219
 Maximum number of real-space cells 3x 3x 3
 Maximum number of reciprocal cells 3x 3x 3

    FEWALD:  cpu time    0.01: real time    0.01
   RESPFUN:  cpu time    0.00: real time    0.00


----------------------------------------- Iteration    1(   1)  ---------------------------------------


    POTLOK:  cpu time    0.15: real time    0.15
    SETDIJ:  cpu time    0.02: real time    0.02
    EDDIAG:  cpu time    0.30: real time    0.30
  RMM-DIIS:  cpu time    0.70: real time    0.70
    ORTHCH:  cpu time    0.02: real time    0.02
       DOS:  cpu time    0.00: real time    0.00
    --------------------------------------------
      LOOP:  cpu time    1.19: real time    1.19

 eigenvalue-minimisations  :   144
 total energy-change (2. order) : 0.2985820E+03  (-0.1820924E+04)
 number of electron  101.0000000 magnetization 
 augmentation part   101.0000000 magnetization 

 Free energy of the ion-electron system (eV)
  ---------------------------------------------------
  alpha Z        PSCENC =        15.76595319
  Ewald energy   TEWEN  =     -2773.86160625
  -1/2 Hartree   DENC   =      -777.69535717
  -exchange  EXHF       =         0.00000000
  -V(xc)+E(xc)   XCENC  =      -745.27156544
  PAW double counting   =      2148.67993976    -1334.04649801
  entropy T*S    EENTRO =        -0.00329042
  eigenvalues    EBANDS =       767.93803885
  atomic energy  EATOM  =      2997.07640482
  ---------------------------------------------------
  free energy    TOTEN  =       298.58201934 eV

  energy without entropy =      298.58530976  energy(sigma->0) =      298.58311615


--------------------------------------------------------------------------------------------------------




----------------------------------------- Iteration    1(   2)  ---------------------------------------


    EDDIAG:  cpu time    0.30: real time    0.30
  RMM-DIIS:  cpu time    0.69: real time    0.69
    ORTHCH:  cpu time    0.02: real time    0.02
       DOS:  cpu time    0.00: real time    0.00
    --------------------------------------------
      LOOP:  cpu time    1.01: real time    1.01

 eigenvalue-minimisations  :   144
 total energy-change (2. order) :-0.3303249E+03  (-0.3191662E+03)
 number of electron  101.0000000 magnetization 
 augmentation part   101.0000000 magnetization 

 Free energy of the ion-electron system (eV)
  ---------------------------------------------------
  alpha Z        PSCENC =        15.76595319
  Ewald energy   TEWEN  =     -2773.86160625
  -1/2 Hartree   DENC   =      -777.69535717
  -exchange  EXHF       =         0.00000000
  -V(xc)+E(xc)   XCENC  =      -745.27156544
  PAW double counting   =      2148.67993976    -1334.04649801
  entropy T*S    EENTRO =        -0.00739081
  eigenvalues    EBANDS =       437.61720556
  atomic energy  EATOM  =      2997.07640482
  ---------------------------------------------------
  free energy    TOTEN  =       -31.74291435 eV

  energy without entropy =      -31.73552354  energy(sigma->0) =      -31.74045074


--------------------------------------------------------------------------------------------------------




----------------------------------------- Iteration    1(   3)  ---------------------------------------


    EDDIAG:  cpu time    0.30: real time    0.30
  RMM-DIIS:  cpu time    0.69: real time    0.69
    ORTHCH:  cpu time    0.02: real time    0.02
       DOS:  cpu time    0.00: real time    0.00
    --------------------------------------------
      LOOP:  cpu time    1.01: real time    1.01

 eigenvalue-minimisations  :   144
 total energy-change (2. order) :-0.6127978E+02  (-0.6232477E+02)
 number of electron  101.0000000 magnetization 
 augmentation part   101.0000000 magnetization 

 Free energy of the ion-electron system (eV)
  ---------------------------------------------------
  alpha Z        PSCENC =        15.76595319
  Ewald energy   TEWEN  =     -2773.86160625
  -1/2 Hartree   DENC   =      -777.69535717
  -exchange  EXHF       =         0.00000000
  -V(xc)+E(xc)   XCENC  =      -745.27156544
  PAW double counting   =      2148.67993976    -1334.04649801
  entropy T*S    EENTRO =        -0.04911372
  eigenvalues    EBANDS =       376.37915056
  atomic energy  EATOM  =      2997.07640482
  ---------------------------------------------------
  free energy    TOTEN  =       -93.02269225 eV

  energy without entropy =      -92.97357853  energy(sigma->0) =      -93.00632101


--------------------------------------------------------------------------------------------------------




----------------------------------------- Iteration    1(   4)  ---------------------------------------


    EDDIAG:  cpu time    0.30: real time    0.30
  RMM-DIIS:  cpu time    0.70: real time    0.70
    ORTHCH:  cpu time    0.02: real time    0.02
       DOS:  cpu time    0.00: real time    0.00
    --------------------------------------------
      LOOP:  cpu time    1.02: real time    1.02

 eigenvalue-minimisations  :   144
 total energy-change (2. order) :-0.1377971E+02  (-0.1298886E+02)
 number of electron  101.0000000 magnetization 
 augmentation part   101.0000000 magnetization 

 Free energy of the ion-electron system (eV)
  ---------------------------------------------------
  alpha Z        PSCENC =        15.76595319
  Ewald energy   TEWEN  =     -2773.86160625
  -1/2 Hartree   DENC   =      -777.69535717
  -exchange  EXHF       =         0.00000000
  -V(xc)+E(xc)   XCENC  =      -745.27156544
  PAW double counting   =      2148.67993976    -1334.04649801
  entropy T*S    EENTRO =        -0.02529564
  eigenvalues    EBANDS =       362.57561751
  atomic energy  EATOM  =      2997.07640482
  ---------------------------------------------------
  free energy    TOTEN  =      -106.80240723 eV

  energy without entropy =     -106.77711158  energy(sigma->0) =     -106.79397535


--------------------------------------------------------------------------------------------------------




----------------------------------------- Iteration    1(   5)  ---------------------------------------


    EDDIAG:  cpu time    0.30: real time    0.30
  RMM-DIIS:  cpu time    0.69: real time    0.69
    ORTHCH:  cpu time    0.02: real time    0.02
       DOS:  cpu time    0.00: real time    0.00
    --------------------------------------------
      LOOP:  cpu time    1.01: real time    1.01

 eigenvalue-minimisations  :   144
 total energy-change (2. order) :-0.6633967E+01  (-0.5623415E+01)
 number of electron  101.0000000 magnetization 
 augmentation part   101.0000000 magnetization 

 Free energy of the ion-electron system (eV)
  ---------------------------------------------------
  alpha Z        PSCENC =        15.76595319
  Ewald energy   TEWEN  =     -2773.86160625
  -1/2 Hartree   DENC   =      -777.69535717
  -exchange  EXHF       =         0.00000000
  -V(xc)+E(xc)   XCENC  =      -745.27156544
  PAW double counting   =      2148.67993976    -1334.04649801
  entropy T*S    EENTRO =         0.00865920
  eigenvalues    EBANDS =       355.90769602
  atomic energy  EATOM  =      2997.07640482
  ---------------------------------------------------
  free energy    TOTEN  =      -113.43637387 eV

  energy without entropy =     -113.44503307  energy(sigma->0) =     -113.43926027


--------------------------------------------------------------------------------------------------------




----------------------------------------- Iteration    1(   6)  ---------------------------------------


    EDDIAG:  cpu time    0.30: real time    0.30
  RMM-DIIS:  cpu time    0.69: real time    0.69
    ORTHCH:  cpu time    0.02: real time    0.02
       DOS:  cpu time    0.00: real time    0.00
    --------------------------------------------
      LOOP:  cpu time    1.01: real time    1.01

 eigenvalue-minimisations  :   144
 total energy-change (2. order) :-0.3090942E+01  (-0.2485174E+01)
 number of electron  101.0000000 magnetization 
 augmentation part   101.0000000 magnetization 

 Free energy of the ion-electron system (eV)
  ---------------------------------------------------
  alpha Z        PSCENC =        15.76595319
  Ewald energy   TEWEN  =     -2773.86160625
  -1/2 Hartree   DENC   =      -777.69535717
  -exchange  EXHF       =         0.00000000
  -V(xc)+E(xc)   XCENC  =      -745.27156544
  PAW double counting   =      2148.67993976    -1334.04649801
  entropy T*S    EENTRO =         0.01366360
  eigenvalues    EBANDS =       352.81174950
  atomic energy  EATOM  =      2997.07640482
  ---------------------------------------------------
  free energy    TOTEN  =      -116.52731599 eV

  energy without entropy =     -116.54097959  energy(sigma->0) =     -116.53187053


--------------------------------------------------------------------------------------------------------




----------------------------------------- Iteration    1(   7)  ---------------------------------------


    EDDIAG:  cpu time    0.30: real time    0.30
  RMM-DIIS:  cpu time    0.69: real time    0.69
    ORTHCH:  cpu time    0.02: real time    0.02
       DOS:  cpu time    0.00: real time    0.00
    --------------------------------------------
      LOOP:  cpu time    1.01: real time    1.01

 eigenvalue-minimisations  :   144
 total energy-change (2. order) :-0.1458320E+01  (-0.1303385E+01)
 number of electron  101.0000000 magnetization 
 augmentation part   101.0000000 magnetization 

 Free energy of the ion-electron system (eV)
  ---------------------------------------------------
  alpha Z        PSCENC =        15.76595319
  Ewald energy   TEWEN  =     -2773.86160625
  -1/2 Hartree   DENC   =      -777.69535717
  -exchange  EXHF       =         0.00000000
  -V(xc)+E(xc)   XCENC  =      -745.27156544
  PAW double counting   =      2148.67993976    -1334.04649801
  entropy T*S    EENTRO =         0.02102611
  eigenvalues    EBANDS =       351.34606709
  atomic energy  EATOM  =      2997.07640482
  ---------------------------------------------------
  free energy    TOTEN  =      -117.98563589 eV

  energy without entropy =     -118.00666200  energy(sigma->0) =     -117.99264459


--------------------------------------------------------------------------------------------------------




----------------------------------------- Iteration    1(   8)  ---------------------------------------


    EDDIAG:  cpu time    0.30: real time    0.30
  RMM-DIIS:  cpu time    0.69: real time    0.69
    ORTHCH:  cpu time    0.02: real time    0.02
       DOS:  cpu time    0.00: real time    0.00
    --------------------------------------------
      LOOP:  cpu time    1.01: real time    1.01

 eigenvalue-minimisations  :   144
 total energy-change (2. order) :-0.7604705E+00  (-0.6532004E+00)
 number of electron  101.0000000 magnetization 
 augmentation part   101.0000000 magnetization 

 Free energy of the ion-electron system (eV)
  ---------------------------------------------------
  alpha Z        PSCENC =        15.76595319
  Ewald energy   TEWEN  =     -2773.86160625
  -1/2 Hartree   DENC   =      -777.69535717
  -exchange  EXHF       =         0.00000000
  -V(xc)+E(xc)   XCENC  =      -745.27156544
  PAW double counting   =      2148.67993976    -1334.04649801
  entropy T*S    EENTRO =         0.02429201
  eigenvalues    EBANDS =       350.58233066
  atomic energy  EATOM  =      2997.07640482
  ---------------------------------------------------
  free energy    TOTEN  =      -118.74610642 eV

  energy without entropy =     -118.77039843  energy(sigma->0) =     -118.75420376


--------------------------------------------------------------------------------------------------------




----------------------------------------- Iteration    1(   9)  ---------------------------------------


    EDDIAG:  cpu time    0.30: real time    0.30
  RMM-DIIS:  cpu time    1.87: real time    1.87
    ORTHCH:  cpu time    0.02: real time    0.02
       DOS:  cpu time    0.00: real time    0.00
    --------------------------------------------
      LOOP:  cpu time    2.19: real time    2.19

 eigenvalue-minimisations  :   430
 total energy-change (2. order) :-0.7613563E+00  (-0.7276049E+00)
 number of electron  101.0000000 magnetization 
 augmentation part   101.0000000 magnetization 

 Free energy of the ion-electron system (eV)
  ---------------------------------------------------
  alpha Z        PSCENC =        15.76595319
  Ewald energy   TEWEN  =     -2773.86160625
  -1/2 Hartree   DENC   =      -777.69535717
  -exchange  EXHF       =         0.00000000
  -V(xc)+E(xc)   XCENC  =      -745.27156544
  PAW double counting   =      2148.67993976    -1334.04649801
  entropy T*S    EENTRO =         0.02917006
  eigenvalues    EBANDS =       349.81609630
  atomic energy  EATOM  =      2997.07640482
  ---------------------------------------------------
  free energy    TOTEN  =      -119.50746273 eV

  energy without entropy =     -119.53663279  energy(sigma->0) =     -119.51718609


--------------------------------------------------------------------------------------------------------




----------------------------------------- Iteration    1(  10)  ---------------------------------------


    EDDIAG:  cpu time    0.30: real time    0.30
  RMM-DIIS:  cpu time    1.64: real time    1.64
    ORTHCH:  cpu time    0.02: real time    0.02
       DOS:  cpu time    0.00: real time    0.00
    --------------------------------------------
      LOOP:  cpu time    1.97: real time    1.97

 eigenvalue-minimisations  :   369
 total energy-change (2. order) :-0.5508964E-01  (-0.1873556E-01)
 number of electron  101.0000000 magnetization 
 augmentation part   101.0000000 magnetization 

 Free energy of the ion-electron system (eV)
  ---------------------------------------------------
  alpha Z        PSCENC =        15.76595319
  Ewald energy   TEWEN  =     -2773.86160625
  -1/2 Hartree   DENC   =      -777.69535717
  -exchange  EXHF       =         0.00000000
  -V(xc)+E(xc)   XCENC  =      -745.27156544
  PAW double counting   =      2148.67993976    -1334.04649801
  entropy T*S    EENTRO =         0.02468290
  eigenvalues    EBANDS =       349.76549382
  atomic energy  EATOM  =      2997.07640482
  ---------------------------------------------------
  free energy    TOTEN  =      -119.56255237 eV

  energy without entropy =     -119.58723527  energy(sigma->0) =     -119.57078000


--------------------------------------------------------------------------------------------------------




----------------------------------------- Iteration    1(  11)  ---------------------------------------


    EDDIAG:  cpu time    0.30: real time    0.30
  RMM-DIIS:  cpu time    1.38: real time    1.38
    ORTHCH:  cpu time    0.02: real time    0.02
       DOS:  cpu time    0.00: real time    0.00
    --------------------------------------------
      LOOP:  cpu time    1.70: real time    1.70

 eigenvalue-minimisations  :   306
 total energy-change (2. order) :-0.1523602E-02  (-0.6713786E-03)
 number of electron  101.0000000 magnetization 
 augmentation part   101.0000000 magnetization 

 Free energy of the ion-electron system (eV)
  ---------------------------------------------------
  alpha Z        PSCENC =        15.76595319
  Ewald energy   TEWEN  =     -2773.86160625
  -1/2 Hartree   DENC   =      -777.69535717
  -exchange  EXHF       =         0.00000000
  -V(xc)+E(xc)   XCENC  =      -745.27156544
  PAW double counting   =      2148.67993976    -1334.04649801
  entropy T*S    EENTRO =         0.02470104
  eigenvalues    EBANDS =       349.76395208
  atomic energy  EATOM  =      2997.07640482
  ---------------------------------------------------
  free energy    TOTEN  =      -119.56407597 eV

  energy without entropy =     -119.58877701  energy(sigma->0) =     -119.57230965


--------------------------------------------------------------------------------------------------------




----------------------------------------- Iteration    1(  12)  ---------------------------------------


    EDDIAG:  cpu time    0.30: real time    0.30
  RMM-DIIS:  cpu time    1.19: real time    1.19
    ORTHCH:  cpu time    0.02: real time    0.02
       DOS:  cpu time    0.00: real time    0.00
    CHARGE:  cpu time    0.19: real time    0.20
    MIXING:  cpu time    0.00: real time    0.00
    --------------------------------------------
      LOOP:  cpu time    1.71: real time    1.72

 eigenvalue-minimisations  :   260
 total energy-change (2. order) :-0.2932204E-04  (-0.1526567E-04)
 number of electron  100.9999959 magnetization 
 augmentation part     3.6533126 magnetization 

 Broyden mixing:
  rms(total) = 0.26128E+01    rms(broyden)= 0.26126E+01
  rms(prec ) = 0.43538E+01
  weight for this iteration     100.00

 Free energy of the ion-electron system (eV)
  ---------------------------------------------------
  alpha Z        PSCENC =        15.76595319
  Ewald energy   TEWEN  =     -2773.86160625
  -1/2 Hartree   DENC   =      -777.69535717
  -exchange  EXHF       =         0.00000000
  -V(xc)+E(xc)   XCENC  =      -745.27156544
  PAW double counting   =      2148.67993976    -1334.04649801
  entropy T*S    EENTRO =         0.02470828
  eigenvalues    EBANDS =       349.76391552
  atomic energy  EATOM  =      2997.07640482
  ---------------------------------------------------
  free energy    TOTEN  =      -119.56410529 eV

  energy without entropy =     -119.58881358  energy(sigma->0) =     -119.57234139


--------------------------------------------------------------------------------------------------------




----------------------------------------- Iteration    1(  13)  ---------------------------------------


    POTLOK:  cpu time    0.15: real time    0.15
    SETDIJ:  cpu time    0.02: real time    0.02
    EDDIAG:  cpu time    0.30: real time    0.30
  RMM-DIIS:  cpu time    1.93: real time    1.94
    ORTHCH:  cpu time    0.02: real time    0.02
       DOS:  cpu time    0.00: real time    0.00
    CHARGE:  cpu time    0.19: real time    0.20
    MIXING:  cpu time    0.01: real time    0.01
    --------------------------------------------
      LOOP:  cpu time    2.61: real time    2.66

 eigenvalue-minimisations  :   445
 total energy-change (2. order) :-0.2577325E+02  (-0.3196388E+02)
 number of electron  100.9999930 magnetization 
 augmentation part     7.4274154 magnetization 

 Broyden mixing:
  rms(total) = 0.21928E+01    rms(broyden)= 0.21922E+01
  rms(prec ) = 0.36587E+01
  weight for this iteration     100.00

 eigenvalues of (default mixing * dielectric matrix)
  average eigenvalue GAMMA=   0.5449
  0.5449

 Free energy of the ion-electron system (eV)
  ---------------------------------------------------
  alpha Z        PSCENC =        15.76595319
  Ewald energy   TEWEN  =     -2773.86160625
  -1/2 Hartree   DENC   =      -632.02154542
  -exchange  EXHF       =         0.00000000
  -V(xc)+E(xc)   XCENC  =      -749.14782534
  PAW double counting   =      1910.27982343    -1058.52034950
  entropy T*S    EENTRO =        -0.00015228
  eigenvalues    EBANDS =       145.09194411
  atomic energy  EATOM  =      2997.07640482
  ---------------------------------------------------
  free energy    TOTEN  =      -145.33735324 eV

  energy without entropy =     -145.33720096  energy(sigma->0) =     -145.33730248


--------------------------------------------------------------------------------------------------------




----------------------------------------- Iteration    1(  14)  ---------------------------------------


    POTLOK:  cpu time    0.15: real time    0.15
    SETDIJ:  cpu time    0.02: real time    0.02
    EDDIAG:  cpu time    0.30: real time    0.30
  RMM-DIIS:  cpu time    1.42: real time    1.42
    ORTHCH:  cpu time    0.02: real time    0.02
       DOS:  cpu time    0.00: real time    0.00
    CHARGE:  cpu time    0.20: real time    0.20
    MIXING:  cpu time    0.00: real time    0.00
    --------------------------------------------
      LOOP:  cpu time    2.10: real time    2.10

 eigenvalue-minimisations  :   300
 total energy-change (2. order) : 0.2457686E+02  (-0.5570219E+01)
 number of electron  100.9999934 magnetization 
 augmentation part     6.8903179 magnetization 

 Broyden mixing:
  rms(total) = 0.11767E+01    rms(broyden)= 0.11767E+01
  rms(prec ) = 0.19533E+01
  weight for this iteration     100.00

 eigenvalues of (default mixing * dielectric matrix)
  average eigenvalue GAMMA=   0.9256
  0.9256  0.9256

 Free energy of the ion-electron system (eV)
  ---------------------------------------------------
  alpha Z        PSCENC =        15.76595319
  Ewald energy   TEWEN  =     -2773.86160625
  -1/2 Hartree   DENC   =      -695.94608138
  -exchange  EXHF       =         0.00000000
  -V(xc)+E(xc)   XCENC  =      -746.62522320
  PAW double counting   =      2034.25888217    -1210.82025005
  entropy T*S    EENTRO =        -0.02594271
  eigenvalues    EBANDS =       259.41736650
  atomic energy  EATOM  =      2997.07640482
  ---------------------------------------------------
  free energy    TOTEN  =      -120.76049691 eV

  energy without entropy =     -120.73455420  energy(sigma->0) =     -120.75184934


--------------------------------------------------------------------------------------------------------




----------------------------------------- Iteration    1(  15)  ---------------------------------------


    POTLOK:  cpu time    0.15: real time    0.15
    SETDIJ:  cpu time    0.02: real time    0.02
    EDDIAG:  cpu time    0.30: real time    0.30
  RMM-DIIS:  cpu time    1.39: real time    1.39
    ORTHCH:  cpu time    0.02: real time    0.02
       DOS:  cpu time    0.00: real time    0.00
    CHARGE:  cpu time    0.20: real time    0.20
    MIXING:  cpu time    0.00: real time    0.00
    --------------------------------------------
      LOOP:  cpu time    2.08: real time    2.08

 eigenvalue-minimisations  :   294
 total energy-change (2. order) : 0.5193510E+01  (-0.3221911E+01)
 number of electron  100.9999946 magnetization 
 augmentation part     5.3659750 magnetization 

 Broyden mixing:
  rms(total) = 0.73792E+00    rms(broyden)= 0.73759E+00
  rms(prec ) = 0.11869E+01
  weight for this iteration     100.00

 eigenvalues of (default mixing * dielectric matrix)
  average eigenvalue GAMMA=   1.2864
  2.4007  0.7293  0.7293

 Free energy of the ion-electron system (eV)
  ---------------------------------------------------
  alpha Z        PSCENC =        15.76595319
  Ewald energy   TEWEN  =     -2773.86160625
  -1/2 Hartree   DENC   =      -753.08664295
  -exchange  EXHF       =         0.00000000
  -V(xc)+E(xc)   XCENC  =      -744.05735524
  PAW double counting   =      2145.75629091    -1339.35831984
  entropy T*S    EENTRO =        -0.01434300
  eigenvalues    EBANDS =       336.21263115
  atomic energy  EATOM  =      2997.07640482
  ---------------------------------------------------
  free energy    TOTEN  =      -115.56698720 eV

  energy without entropy =     -115.55264420  energy(sigma->0) =     -115.56220620


--------------------------------------------------------------------------------------------------------




----------------------------------------- Iteration    1(  16)  ---------------------------------------


    POTLOK:  cpu time    0.15: real time    0.15
    SETDIJ:  cpu time    0.02: real time    0.02
    EDDIAG:  cpu time    0.30: real time    0.30
  RMM-DIIS:  cpu time    1.49: real time    1.49
    ORTHCH:  cpu time    0.02: real time    0.02
       DOS:  cpu time    0.00: real time    0.00
    CHARGE:  cpu time    0.19: real time    0.19
    MIXING:  cpu time    0.01: real time    0.00
    --------------------------------------------
      LOOP:  cpu time    2.18: real time    2.18

 eigenvalue-minimisations  :   324
 total energy-change (2. order) : 0.1371038E+00  (-0.1928790E+00)
 number of electron  100.9999939 magnetization 
 augmentation part     6.2358007 magnetization 

 Broyden mixing:
  rms(total) = 0.26503E+00    rms(broyden)= 0.26495E+00
  rms(prec ) = 0.44674E+00
  weight for this iteration     100.00

 eigenvalues of (default mixing * dielectric matrix)
  average eigenvalue GAMMA=   1.2761
  2.5006  0.6748  0.6748  1.2543

 Free energy of the ion-electron system (eV)
  ---------------------------------------------------
  alpha Z        PSCENC =        15.76595319
  Ewald energy   TEWEN  =     -2773.86160625
  -1/2 Hartree   DENC   =      -735.88189947
  -exchange  EXHF       =         0.00000000
  -V(xc)+E(xc)   XCENC  =      -743.90709168
  PAW double counting   =      2128.67136589    -1317.38509749
  entropy T*S    EENTRO =        -0.02130325
  eigenvalues    EBANDS =       314.11339083
  atomic energy  EATOM  =      2997.07640482
  ---------------------------------------------------
  free energy    TOTEN  =      -115.42988340 eV

  energy without entropy =     -115.40858016  energy(sigma->0) =     -115.42278232


--------------------------------------------------------------------------------------------------------




----------------------------------------- Iteration    1(  17)  ---------------------------------------


    POTLOK:  cpu time    0.15: real time    0.15
    SETDIJ:  cpu time    0.02: real time    0.02
    EDDIAG:  cpu time    0.30: real time    0.30
  RMM-DIIS:  cpu time    1.54: real time    1.54
    ORTHCH:  cpu time    0.02: real time    0.02
       DOS:  cpu time    0.00: real time    0.00
    CHARGE:  cpu time    0.19: real time    0.19
    MIXING:  cpu time    0.00: real time    0.00
    --------------------------------------------
      LOOP:  cpu time    2.22: real time    2.22

 eigenvalue-minimisations  :   351
 total energy-change (2. order) : 0.1237401E+00  (-0.1452657E-01)
 number of electron  100.9999940 magnetization 
 augmentation part     6.1548266 magnetization 

 Broyden mixing:
  rms(total) = 0.15582E+00    rms(broyden)= 0.15582E+00
  rms(prec ) = 0.25480E+00
  weight for this iteration     100.00

 eigenvalues of (default mixing * dielectric matrix)
  average eigenvalue GAMMA=   1.3442
  2.5624  1.8050  0.6785  0.6785  0.9966

 Free energy of the ion-electron system (eV)
  ---------------------------------------------------
  alpha Z        PSCENC =        15.76595319
  Ewald energy   TEWEN  =     -2773.86160625
  -1/2 Hartree   DENC   =      -741.66804956
  -exchange  EXHF       =         0.00000000
  -V(xc)+E(xc)   XCENC  =      -743.51289949
  PAW double counting   =      2142.47732098    -1330.04624705
  entropy T*S    EENTRO =        -0.01985474
  eigenvalues    EBANDS =       318.48283476
  atomic energy  EATOM  =      2997.07640482
  ---------------------------------------------------
  free energy    TOTEN  =      -115.30614333 eV

  energy without entropy =     -115.28628859  energy(sigma->0) =     -115.29952508


--------------------------------------------------------------------------------------------------------




----------------------------------------- Iteration    1(  18)  ---------------------------------------


    POTLOK:  cpu time    0.15: real time    0.15
    SETDIJ:  cpu time    0.02: real time    0.02
    EDDIAG:  cpu time    0.30: real time    0.30
  RMM-DIIS:  cpu time    1.59: real time    1.59
    ORTHCH:  cpu time    0.02: real time    0.02
       DOS:  cpu time    0.00: real time    0.00
    CHARGE:  cpu time    0.19: real time    0.19
    MIXING:  cpu time    0.00: real time    0.00
    --------------------------------------------
      LOOP:  cpu time    2.27: real time    2.28

 eigenvalue-minimisations  :   362
 total energy-change (2. order) : 0.6109982E-02  (-0.1494359E-02)
 number of electron  100.9999940 magnetization 
 augmentation part     6.1487826 magnetization 

 Broyden mixing:
  rms(total) = 0.13851E+00    rms(broyden)= 0.13851E+00
  rms(prec ) = 0.22502E+00
  weight for this iteration     100.00

 eigenvalues of (default mixing * dielectric matrix)
  average eigenvalue GAMMA=   1.4133
  2.6200  2.2743  0.6801  0.6801  1.3616  0.8634

 Free energy of the ion-electron system (eV)
  ---------------------------------------------------
  alpha Z        PSCENC =        15.76595319
  Ewald energy   TEWEN  =     -2773.86160625
  -1/2 Hartree   DENC   =      -743.61353177
  -exchange  EXHF       =         0.00000000
  -V(xc)+E(xc)   XCENC  =      -743.38067167
  PAW double counting   =      2146.58480514    -1332.64919734
  entropy T*S    EENTRO =        -0.01993262
  eigenvalues    EBANDS =       318.79774315
  atomic energy  EATOM  =      2997.07640482
  ---------------------------------------------------
  free energy    TOTEN  =      -115.30003335 eV

  energy without entropy =     -115.28010073  energy(sigma->0) =     -115.29338914


--------------------------------------------------------------------------------------------------------




----------------------------------------- Iteration    1(  19)  ---------------------------------------


    POTLOK:  cpu time    0.15: real time    0.15
    SETDIJ:  cpu time    0.02: real time    0.02
    EDDIAG:  cpu time    0.30: real time    0.30
  RMM-DIIS:  cpu time    1.47: real time    1.47
    ORTHCH:  cpu time    0.02: real time    0.02
       DOS:  cpu time    0.00: real time    0.00
    CHARGE:  cpu time    0.19: real time    0.19
    MIXING:  cpu time    0.01: real time    0.00
    --------------------------------------------
      LOOP:  cpu time    2.15: real time    2.15

 eigenvalue-minimisations  :   320
 total energy-change (2. order) : 0.4152494E-01  (-0.1884650E-01)
 number of electron  100.9999941 magnetization 
 augmentation part     6.0290831 magnetization 

 Broyden mixing:
  rms(total) = 0.10218E-01    rms(broyden)= 0.10117E-01
  rms(prec ) = 0.14533E-01
  weight for this iteration     100.00

 eigenvalues of (default mixing * dielectric matrix)
  average eigenvalue GAMMA=   1.3184
  2.5666  2.4717  0.6805  0.6805  1.0103  0.9097  0.9097

 Free energy of the ion-electron system (eV)
  ---------------------------------------------------
  alpha Z        PSCENC =        15.76595319
  Ewald energy   TEWEN  =     -2773.86160625
  -1/2 Hartree   DENC   =      -748.31506395
  -exchange  EXHF       =         0.00000000
  -V(xc)+E(xc)   XCENC  =      -743.19195190
  PAW double counting   =      2154.29136072    -1340.61982830
  entropy T*S    EENTRO =        -0.01860919
  eigenvalues    EBANDS =       323.61483245
  atomic energy  EATOM  =      2997.07640482
  ---------------------------------------------------
  free energy    TOTEN  =      -115.25850840 eV

  energy without entropy =     -115.23989921  energy(sigma->0) =     -115.25230534


--------------------------------------------------------------------------------------------------------




----------------------------------------- Iteration    1(  20)  ---------------------------------------


    POTLOK:  cpu time    0.15: real time    0.15
    SETDIJ:  cpu time    0.02: real time    0.02
    EDDIAG:  cpu time    0.30: real time    0.30
  RMM-DIIS:  cpu time    1.45: real time    1.45
    ORTHCH:  cpu time    0.02: real time    0.02
       DOS:  cpu time    0.00: real time    0.00
    CHARGE:  cpu time    0.19: real time    0.19
    MIXING:  cpu time    0.00: real time    0.00
    --------------------------------------------
      LOOP:  cpu time    2.13: real time    2.13

 eigenvalue-minimisations  :   313
 total energy-change (2. order) :-0.5389338E-03  (-0.7437178E-03)
 number of electron  100.9999941 magnetization 
 augmentation part     6.0283656 magnetization 

 Broyden mixing:
  rms(total) = 0.92702E-02    rms(broyden)= 0.92657E-02
  rms(prec ) = 0.14565E-01
  weight for this iteration     100.00

 eigenvalues of (default mixing * dielectric matrix)
  average eigenvalue GAMMA=   1.3179
  2.6212  2.5161  0.6805  0.6805  1.2094  0.9182  0.9585  0.9585

 Free energy of the ion-electron system (eV)
  ---------------------------------------------------
  alpha Z        PSCENC =        15.76595319
  Ewald energy   TEWEN  =     -2773.86160625
  -1/2 Hartree   DENC   =      -748.27761117
  -exchange  EXHF       =         0.00000000
  -V(xc)+E(xc)   XCENC  =      -743.19460344
  PAW double counting   =      2154.20821211    -1340.42518505
  entropy T*S    EENTRO =        -0.01853006
  eigenvalues    EBANDS =       323.46791849
  atomic energy  EATOM  =      2997.07640482
  ---------------------------------------------------
  free energy    TOTEN  =      -115.25904734 eV

  energy without entropy =     -115.24051728  energy(sigma->0) =     -115.25287065


--------------------------------------------------------------------------------------------------------




----------------------------------------- Iteration    1(  21)  ---------------------------------------


    POTLOK:  cpu time    0.15: real time    0.15
    SETDIJ:  cpu time    0.01: real time    0.02
    EDDIAG:  cpu time    0.30: real time    0.30
  RMM-DIIS:  cpu time    1.36: real time    1.36
    ORTHCH:  cpu time    0.02: real time    0.02
       DOS:  cpu time    0.00: real time    0.00
    CHARGE:  cpu time    0.19: real time    0.19
    MIXING:  cpu time    0.00: real time    0.00
    --------------------------------------------
      LOOP:  cpu time    2.04: real time    2.04

 eigenvalue-minimisations  :   289
 total energy-change (2. order) : 0.1176232E-03  (-0.1874594E-03)
 number of electron  100.9999941 magnetization 
 augmentation part     6.0398193 magnetization 

 Broyden mixing:
  rms(total) = 0.36355E-02    rms(broyden)= 0.36342E-02
  rms(prec ) = 0.52365E-02
  weight for this iteration     100.00

 eigenvalues of (default mixing * dielectric matrix)
  average eigenvalue GAMMA=   1.3415
  2.6272  2.3916  1.7630  0.6796  0.6796  1.0417  0.9288  0.9810  0.9810

 Free energy of the ion-electron system (eV)
  ---------------------------------------------------
  alpha Z        PSCENC =        15.76595319
  Ewald energy   TEWEN  =     -2773.86160625
  -1/2 Hartree   DENC   =      -748.07351574
  -exchange  EXHF       =         0.00000000
  -V(xc)+E(xc)   XCENC  =      -743.19997454
  PAW double counting   =      2153.63757668    -1339.70932583
  entropy T*S    EENTRO =        -0.01864048
  eigenvalues    EBANDS =       323.12419843
  atomic energy  EATOM  =      2997.07640482
  ---------------------------------------------------
  free energy    TOTEN  =      -115.25892971 eV

  energy without entropy =     -115.24028923  energy(sigma->0) =     -115.25271622


--------------------------------------------------------------------------------------------------------




----------------------------------------- Iteration    1(  22)  ---------------------------------------


    POTLOK:  cpu time    0.15: real time    0.15
    SETDIJ:  cpu time    0.02: real time    0.02
    EDDIAG:  cpu time    0.30: real time    0.30
  RMM-DIIS:  cpu time    1.25: real time    1.25
    ORTHCH:  cpu time    0.02: real time    0.02
       DOS:  cpu time    0.00: real time    0.00
    CHARGE:  cpu time    0.19: real time    0.19
    MIXING:  cpu time    0.00: real time    0.01
    --------------------------------------------
      LOOP:  cpu time    1.93: real time    1.93

 eigenvalue-minimisations  :   270
 total energy-change (2. order) :-0.1227898E-03  (-0.9998088E-04)
 number of electron  100.9999941 magnetization 
 augmentation part     6.0298538 magnetization 

 Broyden mixing:
  rms(total) = 0.81766E-02    rms(broyden)= 0.81759E-02
  rms(prec ) = 0.13120E-01
  weight for this iteration     100.00

 eigenvalues of (default mixing * dielectric matrix)
  average eigenvalue GAMMA=   1.3840
  2.5528  2.5528  2.2213  1.3574  0.6801  0.6801  0.9776  0.9776  0.9199  0.9199

 Free energy of the ion-electron system (eV)
  ---------------------------------------------------
  alpha Z        PSCENC =        15.76595319
  Ewald energy   TEWEN  =     -2773.86160625
  -1/2 Hartree   DENC   =      -748.34944452
  -exchange  EXHF       =         0.00000000
  -V(xc)+E(xc)   XCENC  =      -743.18894929
  PAW double counting   =      2153.94848163    -1340.10220920
  entropy T*S    EENTRO =        -0.01854725
  eigenvalues    EBANDS =       323.47086435
  atomic energy  EATOM  =      2997.07640482
  ---------------------------------------------------
  free energy    TOTEN  =      -115.25905250 eV

  energy without entropy =     -115.24050526  energy(sigma->0) =     -115.25287009


--------------------------------------------------------------------------------------------------------




----------------------------------------- Iteration    1(  23)  ---------------------------------------


    POTLOK:  cpu time    0.15: real time    0.15
    SETDIJ:  cpu time    0.02: real time    0.02
    EDDIAG:  cpu time    0.30: real time    0.30
  RMM-DIIS:  cpu time    1.12: real time    1.12
    ORTHCH:  cpu time    0.02: real time    0.02
       DOS:  cpu time    0.00: real time    0.00
    CHARGE:  cpu time    0.19: real time    0.19
    MIXING:  cpu time    0.01: real time    0.01
    --------------------------------------------
      LOOP:  cpu time    1.79: real time    1.79

 eigenvalue-minimisations  :   220
 total energy-change (2. order) : 0.1410613E-03  (-0.3783897E-04)
 number of electron  100.9999941 magnetization 
 augmentation part     6.0362416 magnetization 

 Broyden mixing:
  rms(total) = 0.75015E-03    rms(broyden)= 0.74756E-03
  rms(prec ) = 0.13314E-02
  weight for this iteration     100.00

 eigenvalues of (default mixing * dielectric matrix)
  average eigenvalue GAMMA=   1.3733
  2.6274  2.6274  2.3270  1.5812  0.6802  0.6802  0.9364  0.9364  0.9281  0.8910
  0.8910

 Free energy of the ion-electron system (eV)
  ---------------------------------------------------
  alpha Z        PSCENC =        15.76595319
  Ewald energy   TEWEN  =     -2773.86160625
  -1/2 Hartree   DENC   =      -748.15519645
  -exchange  EXHF       =         0.00000000
  -V(xc)+E(xc)   XCENC  =      -743.19551764
  PAW double counting   =      2153.52654985    -1339.63733514
  entropy T*S    EENTRO =        -0.01861547
  eigenvalues    EBANDS =       323.24045164
  atomic energy  EATOM  =      2997.07640482
  ---------------------------------------------------
  free energy    TOTEN  =      -115.25891144 eV

  energy without entropy =     -115.24029598  energy(sigma->0) =     -115.25270629


--------------------------------------------------------------------------------------------------------




----------------------------------------- Iteration    1(  24)  ---------------------------------------


    POTLOK:  cpu time    0.15: real time    0.15
    SETDIJ:  cpu time    0.02: real time    0.02
    EDDIAG:  cpu time    0.30: real time    0.30
  RMM-DIIS:  cpu time    0.98: real time    0.98
    ORTHCH:  cpu time    0.02: real time    0.02
       DOS:  cpu time    0.00: real time    0.00
    --------------------------------------------
      LOOP:  cpu time    1.46: real time    1.46

 eigenvalue-minimisations  :   152
 total energy-change (2. order) :-0.4978942E-06  (-0.2046484E-05)
 number of electron  100.9999941 magnetization 
 augmentation part     6.0362416 magnetization 

 Free energy of the ion-electron system (eV)
  ---------------------------------------------------
  alpha Z        PSCENC =        15.76595319
  Ewald energy   TEWEN  =     -2773.86160625
  -1/2 Hartree   DENC   =      -748.13553973
  -exchange  EXHF       =         0.00000000
  -V(xc)+E(xc)   XCENC  =      -743.19591382
  PAW double counting   =      2153.46035365    -1339.57370321
  entropy T*S    EENTRO =        -0.01861986
  eigenvalues    EBANDS =       323.22375927
  atomic energy  EATOM  =      2997.07640482
  ---------------------------------------------------
  free energy    TOTEN  =      -115.25891194 eV

  energy without entropy =     -115.24029208  energy(sigma->0) =     -115.25270532


--------------------------------------------------------------------------------------------------------




 average (electrostatic) potential at core
  the test charge radii are     1.0406  1.0053
  (the norm of the test charge is              1.0000)
       1 -73.2094       2 -73.2047       3 -73.1537       4 -73.2528       5 -73.1794
       6 -73.1794       7 -73.1580       8 -73.2094       9 -73.2047      10 -73.2238
      11 -73.2451      12 -73.1794      13 -73.1794      14 -73.1317      15 -73.2978
      16 -73.2196      17 -73.2196      18 -73.2092      19 -73.2047      20 -73.2094
      21 -73.1537      22 -73.2528      23 -73.2196      24 -73.2196      25 -73.2072
      26 -72.9978      27 -73.2047      28 -73.2094      29 -73.2238      30 -73.2451
      31 -36.7696
 
 
 
 E-fermi :   7.7525     XC(G=0): -10.0738     alpha+bet :-14.1381
   add alpha+bet to get absolut eigen values

 k-point   1 :       0.2500    0.2500    0.2500
  band No.  band energies     occupation 
      1      -3.0394      2.00000
      2      -1.9764      2.00000
      3      -1.9242      2.00000
      4      -1.8055      2.00000
      5      -0.8651      2.00000
      6      -0.8043      2.00000
      7      -0.6236      2.00000
      8       0.2368      2.00000
      9       0.2736      2.00000
     10       0.3079      2.00000
     11       0.5614      2.00000
     12       1.2922      2.00000
     13       1.3148      2.00000
     14       1.3810      2.00000
     15       1.4004      2.00000
     16       1.5289      2.00000
     17       1.7919      2.00000
     18       2.4672      2.00000
     19       2.5330      2.00000
     20       2.6603      2.00000
     21       3.3212      2.00000
     22       3.3741      2.00000
     23       3.4539      2.00000
     24       3.5290      2.00000
     25       3.5994      2.00000
     26       3.7107      2.00000
     27       3.8792      2.00000
     28       3.9866      2.00000
     29       4.1095      2.00000
     30       4.1697      2.00000
     31       4.2185      2.00000
     32       4.5924      2.00000
     33       4.6308      2.00000
     34       4.6692      2.00000
     35       4.7600      2.00000
     36       4.8046      2.00000
     37       4.9175      2.00000
     38       4.9601      2.00000
     39       5.0071      2.00000
     40       5.3013      2.00000
     41       5.7032      2.00000
     42       5.9330      2.00000
     43       6.1780      2.00000
     44       6.7127      2.00000
     45       6.7726      2.00000
     46       6.8056      2.00000
     47       6.9390      2.00000
     48       6.9820      2.00000
     49       7.0165      2.00000
     50       7.0442      2.00001
     51       7.7821      0.75269
     52       7.8656      0.19207
     53       7.9381     -0.03193
     54       8.0304     -0.06430
     55       8.0460     -0.05816
     56       8.0794     -0.04296
     57       8.1471     -0.01742
     58       8.1822     -0.00960
     59       8.2533     -0.00227
     60       9.0835      0.00000
     61       9.1343      0.00000
     62       9.2167      0.00000
     63       9.3584      0.00000
     64       9.3818      0.00000
     65       9.4378      0.00000
     66       9.8595      0.00000
     67       9.9103      0.00000
     68       9.9799      0.00000
     69      10.0247      0.00000
     70      10.0556      0.00000
     71      10.1506      0.00000
     72      10.5092      0.00000

 k-point   2 :      -0.2500    0.2500    0.2500
  band No.  band energies     occupation 
      1      -3.0378      2.00000
      2      -1.9758      2.00000
      3      -1.9539      2.00000
      4      -1.7815      2.00000
      5      -0.8650      2.00000
      6      -0.8318      2.00000
      7      -0.5534      2.00000
      8       0.2356      2.00000
      9       0.2485      2.00000
     10       0.3421      2.00000
     11       0.4820      2.00000
     12       1.2845      2.00000
     13       1.3082      2.00000
     14       1.3281      2.00000
     15       1.4366      2.00000
     16       1.5492      2.00000
     17       1.8264      2.00000
     18       2.5035      2.00000
     19       2.5113      2.00000
     20       2.6351      2.00000
     21       3.3539      2.00000
     22       3.3773      2.00000
     23       3.4769      2.00000
     24       3.5359      2.00000
     25       3.5864      2.00000
     26       3.7754      2.00000
     27       3.8856      2.00000
     28       3.9715      2.00000
     29       4.1148      2.00000
     30       4.1176      2.00000
     31       4.2870      2.00000
     32       4.5511      2.00000
     33       4.6214      2.00000
     34       4.6305      2.00000
     35       4.7640      2.00000
     36       4.7884      2.00000
     37       4.8769      2.00000
     38       4.9992      2.00000
     39       5.0959      2.00000
     40       5.2037      2.00000
     41       5.7000      2.00000
     42       5.8009      2.00000
     43       6.2913      2.00000
     44       6.7121      2.00000
     45       6.7413      2.00000
     46       6.7500      2.00000
     47       6.9026      2.00000
     48       6.9858      2.00000
     49       7.0185      2.00000
     50       7.0627      2.00001
     51       7.7823      0.75062
     52       7.8255      0.42551
     53       7.8621      0.20959
     54       8.0769     -0.04411
     55       8.0892     -0.03852
     56       8.1664     -0.01270
     57       8.2097     -0.00571
     58       8.2454     -0.00271
     59       8.3712     -0.00011
     60       9.0256      0.00000
     61       9.0671      0.00000
     62       9.1435      0.00000
     63       9.3076      0.00000
     64       9.4051      0.00000
     65       9.4291      0.00000
     66       9.9511      0.00000
     67       9.9544      0.00000
     68       9.9647      0.00000
     69       9.9792      0.00000
     70      10.1615      0.00000
     71      10.1876      0.00000
     72      10.5735      0.00000


--------------------------------------------------------------------------------------------------------


 soft charge-density along one line, spin component           1
         0         1         2         3         4         5         6         7         8         9
 total charge-density along one line
 
 pseudopotential strength for first ion, spin component:           1
  8.464  -0.005   0.000   0.000   0.000   0.000   0.000   0.000
 -0.005   0.000   0.000   0.000   0.000   0.000   0.000   0.000
  0.000   0.000   1.987   0.000   0.000  -0.025   0.000   0.000
  0.000   0.000   0.000   1.987   0.000   0.000  -0.025   0.000
  0.000   0.000   0.000   0.000   1.987   0.000   0.000  -0.025
  0.000   0.000  -0.025   0.000   0.000  -0.012   0.000   0.000
  0.000   0.000   0.000  -0.025   0.000   0.000  -0.012   0.000
  0.000   0.000   0.000   0.000  -0.025   0.000   0.000  -0.012
 total augmentation occupancy for first ion, spin component:           1
  1.323  -0.493  -0.007  -0.004  -0.004   0.008   0.007   0.004
 -0.493   0.474   0.008   0.009   0.003  -0.004  -0.005  -0.002
 -0.007   0.008   0.735   0.003   0.003  -0.179   0.000  -0.001
 -0.004   0.009   0.003   0.715   0.001   0.000  -0.176   0.000
 -0.004   0.003   0.003   0.001   0.725   0.000   0.000  -0.177
  0.008  -0.004  -0.179   0.000   0.000   0.049   0.000   0.000
  0.007  -0.005   0.000  -0.176   0.000   0.000   0.049   0.000
  0.004  -0.002  -0.001   0.000  -0.177   0.000   0.000   0.049


------------------------ aborting loop because EDIFF is reached ----------------------------------------




--------------------------------------------------------------------------------------------------------



  FREE ENERGIE OF THE ION-ELECTRON SYSTEM (eV)
  ---------------------------------------------------
  free  energy   TOTEN  =      -115.258912 eV

  energy  without entropy=     -115.240292  energy(sigma->0) =     -115.252705
 
    CHARGE:  cpu time    0.18: real time    0.18
    FORLOC:  cpu time    0.04: real time    0.04
    FORNL :  cpu time    0.48: real time    0.48
    STRESS:  cpu time    1.08: real time    1.08
    FORCOR:  cpu time    0.17: real time    0.17
    FORHAR:  cpu time    0.07: real time    0.07
    MIXING:  cpu time    0.00: real time    0.01

  FORCE on cell =-STRESS in cart. coord.  units (eV):
  Direction    XX          YY          ZZ          XY          YZ          ZX
  --------------------------------------------------------------------------------------
  Alpha Z    15.76595    15.76595    15.76595
  Ewald    -946.82511  -880.22195  -946.82511     0.00000     0.00000    42.50904
  Hartree   233.22575   281.65763   233.22575     0.00000     0.00000    26.34210
  E(xc)    -317.44045  -317.30584  -317.44045     0.00000     0.00000     0.05203
  Local     -65.95487  -180.30306   -65.95487     0.00000     0.00000   -68.39407
  n-local   529.18247   527.86549   529.18262    -0.13864    -0.98332    -0.32206
  augment    26.00542    25.87506    26.00543    -0.00001    -0.00001    -0.19222
  Kinetic   520.46189   520.54247   520.46222     2.00101     3.61968    -1.27927
  Fock        0.00000     0.00000     0.00000     0.00000     0.00000     0.00000
  -------------------------------------------------------------------------------------
  Total      -5.57870    -6.12424    -5.57870     0.00000     0.00000    -1.28445
  in kB     -16.89953   -18.55215   -16.89953     0.00000     0.00000    -3.89097
  external pressure =      -17.45 kB  Pullay stress =        0.00 kB


 VOLUME and BASIS-vectors are now :
 -----------------------------------------------------------------------------
  energy-cutoff  :      300.00
  volume of cell :      528.89
      direct lattice vectors                 reciprocal lattice vectors
     8.087040000  0.000000000  0.000000000     0.123654638  0.000000000  0.000000000
     0.000000000  8.087040000  0.000000000     0.000000000  0.123654638  0.000000000
     0.000000000  0.000000000  8.087040000     0.000000000  0.000000000  0.123654638

  length of vectors
     8.087040000  8.087040000  8.087040000     0.123654638  0.123654638  0.123654638


 FORCES acting on ions
    electron-ion (+dipol)            ewald-force                    non-local-force                 convergence-correction
 -----------------------------------------------------------------------------------------------
   0.518E+01 0.302E+01 -.368E+01   -.536E+01 -.339E+01 0.337E+01   0.213E+00 0.404E+00 0.350E+00   0.477E-03 0.300E-03 -.597E-04
   -.839E+01 0.226E+02 0.300E+02   0.856E+01 -.223E+02 -.298E+02   -.147E+00 -.227E+00 -.122E+00   -.563E-04 0.407E-03 0.570E-03
   -.759E+01 0.300E-12 -.613E+01   0.780E+01 -.180E-13 0.642E+01   -.223E+00 0.000E+00 -.319E+00   -.413E-04 0.117E-13 -.141E-04
   0.287E+02 -.541E-13 0.285E+02   -.285E+02 -.502E-14 -.285E+02   -.294E+00 0.000E+00 -.333E-01   0.577E-03 0.148E-13 0.574E-03
   -.575E+01 -.819E+00 -.709E+01   0.583E+01 0.976E+00 0.735E+01   -.680E-01 -.169E+00 -.255E+00   -.491E-03 0.310E-03 -.276E-04
   0.709E+01 -.819E+00 0.575E+01   -.735E+01 0.976E+00 -.583E+01   0.255E+00 -.169E+00 0.680E-01   0.285E-04 0.309E-03 0.487E-03
   0.722E+01 0.340E-13 -.722E+01   -.748E+01 0.607E-13 0.748E+01   0.258E+00 0.000E+00 -.258E+00   0.549E-04 0.141E-13 -.538E-04
   0.518E+01 -.302E+01 -.368E+01   -.536E+01 0.339E+01 0.337E+01   0.213E+00 -.404E+00 0.350E+00   0.477E-03 -.300E-03 -.597E-04
   -.839E+01 -.226E+02 0.300E+02   0.856E+01 0.223E+02 -.298E+02   -.147E+00 0.227E+00 -.122E+00   -.563E-04 -.407E-03 0.570E-03
   -.319E+01 -.181E-12 -.399E+01   0.299E+01 0.119E-13 0.363E+01   0.215E+00 0.000E+00 0.395E+00   -.512E-04 -.120E-13 -.496E-04
   0.514E+01 -.303E-12 0.585E+01   -.535E+01 0.634E-14 -.590E+01   0.244E+00 0.000E+00 0.392E-01   0.480E-03 -.177E-13 0.464E-03
   -.575E+01 0.819E+00 -.709E+01   0.583E+01 -.976E+00 0.735E+01   -.680E-01 0.169E+00 -.255E+00   -.491E-03 -.310E-03 -.276E-04
   0.709E+01 0.819E+00 0.575E+01   -.735E+01 -.976E+00 -.583E+01   0.255E+00 0.169E+00 0.680E-01   0.285E-04 -.309E-03 0.487E-03
   0.373E+01 -.423E-13 -.373E+01   -.341E+01 -.419E-14 0.341E+01   -.384E+00 0.000E+00 0.384E+00   0.642E-04 -.140E-13 -.635E-04
   -.525E+01 -.109E-12 0.525E+01   0.558E+01 0.198E-14 -.558E+01   -.312E+00 0.000E+00 0.312E+00   -.477E-03 -.148E-13 0.475E-03
   0.283E+02 0.259E+02 0.278E+01   -.282E+02 -.261E+02 -.262E+01   -.765E-01 0.130E+00 -.147E+00   0.567E-03 0.402E-03 0.394E-04
   -.278E+01 0.259E+02 -.283E+02   0.262E+01 -.261E+02 0.282E+02   0.147E+00 0.130E+00 0.765E-01   -.403E-04 0.404E-03 -.564E-03
   0.269E+02 0.438E-13 -.269E+02   -.270E+02 -.998E-14 0.270E+02   0.836E-01 0.000E+00 -.836E-01   0.557E-03 0.715E-14 -.552E-03
   -.300E+02 0.226E+02 0.839E+01   0.298E+02 -.223E+02 -.856E+01   0.122E+00 -.227E+00 0.147E+00   -.573E-03 0.404E-03 0.553E-04
   0.368E+01 0.302E+01 -.518E+01   -.337E+01 -.339E+01 0.536E+01   -.350E+00 0.404E+00 -.213E+00   0.606E-04 0.298E-03 -.474E-03
   0.613E+01 -.886E-13 0.759E+01   -.642E+01 0.551E-13 -.780E+01   0.319E+00 0.000E+00 0.223E+00   0.152E-04 0.999E-14 0.399E-04
   -.285E+02 -.735E-13 -.287E+02   0.285E+02 0.739E-14 0.285E+02   0.333E-01 0.217E-18 0.294E+00   -.579E-03 0.291E-14 -.572E-03
   0.283E+02 -.259E+02 0.278E+01   -.282E+02 0.261E+02 -.262E+01   -.765E-01 -.130E+00 -.147E+00   0.567E-03 -.402E-03 0.394E-04
   -.278E+01 -.259E+02 -.283E+02   0.262E+01 0.261E+02 0.282E+02   0.147E+00 -.130E+00 0.765E-01   -.403E-04 -.404E-03 -.564E-03
   -.324E+01 -.511E-12 0.324E+01   0.294E+01 -.840E-12 -.294E+01   0.286E+00 0.000E+00 -.286E+00   -.362E-04 0.189E-15 0.355E-04
   0.485E+01 -.223E-12 -.485E+01   -.517E+01 -.709E-14 0.517E+01   0.385E+00 0.000E+00 -.385E+00   0.463E-03 -.614E-14 -.461E-03
   -.300E+02 -.226E+02 0.839E+01   0.298E+02 0.223E+02 -.856E+01   0.122E+00 0.227E+00 0.147E+00   -.573E-03 -.404E-03 0.553E-04
   0.368E+01 -.302E+01 -.518E+01   -.337E+01 0.339E+01 0.536E+01   -.350E+00 -.404E+00 -.213E+00   0.606E-04 -.298E-03 -.474E-03
   0.399E+01 0.942E-13 0.319E+01   -.363E+01 0.501E-14 -.299E+01   -.395E+00 0.000E+00 -.215E+00   0.503E-04 -.967E-14 0.506E-04
   -.585E+01 0.194E-12 -.514E+01   0.590E+01 -.359E-14 0.535E+01   -.392E-01 0.000E+00 -.244E+00   -.465E-03 -.185E-14 -.478E-03
   -.273E+02 -.508E-12 0.273E+02   0.281E+02 0.331E-13 -.281E+02   -.857E+00 0.000E+00 0.857E+00   -.115E-02 -.188E-12 0.114E-02
 -----------------------------------------------------------------------------------------------
   0.490E+00 0.532E-12 -.490E+00   -.391E-13 0.150E-13 -.320E-13   -.490E+00 0.000E+00 0.490E+00   -.587E-03 -.193E-12 0.587E-03
 
 
 POSITION                                       TOTAL-FORCE (eV/Angst)
 -----------------------------------------------------------------------------------
      8.08268      8.07001      8.07286         0.027544      0.038461      0.042273
      2.05726      0.08323      2.05704         0.017789      0.050658      0.001040
      2.04505      2.02176      0.03146        -0.017687      0.000000     -0.030669
      0.04225      2.02176      2.04773        -0.026599      0.000000     -0.024846
      4.03967      0.03481      0.02697         0.012336     -0.011497      0.004270
      6.03831      0.03481      2.02561        -0.004270     -0.011497     -0.012336
      6.04469      2.02176      0.02059        -0.000272      0.000000      0.000272
      8.08268      4.06055      8.07286         0.027544     -0.038461      0.042273
      2.05726      3.96029      2.05704         0.017789     -0.050658      0.001040
      2.00681      6.06528      8.06431         0.018031      0.000000      0.036951
      8.08523      6.06528      2.03099         0.034258      0.000000     -0.013718
      4.03967      4.00871      0.02697         0.012336      0.011497      0.004270
      6.03831      4.00871      2.02561        -0.004270      0.011497     -0.012336
      6.07996      6.06528      8.07236        -0.061254      0.000000      0.061254
      4.04354      6.06528      2.02174         0.020168      0.000000     -0.020168
      0.03317      0.02856      4.04990        -0.010398     -0.024073      0.012262
      2.01538      0.02856      6.03211        -0.012262     -0.024073      0.010398
      0.00596      2.02176      6.05932         0.007290      0.000000     -0.007290
      4.00824      0.08323      4.00802        -0.001040      0.050658     -0.017789
      6.07946      8.07001      6.06964        -0.042273      0.038461     -0.027544
      6.03382      2.02176      4.02023         0.030669      0.000000      0.017687
      4.01755      2.02176      6.02303         0.024846      0.000000      0.026599
      0.03317      4.01496      4.04990        -0.010398      0.024073      0.012262
      2.01538      4.01496      6.03211        -0.012262      0.024073      0.010398
      2.01151      6.06528      4.05377        -0.010033      0.000000      0.010033
      8.07824      6.06528      6.07408         0.057957      0.000000     -0.057957
      4.00824      3.96029      4.00802        -0.001040     -0.050658     -0.017789
      6.07946      4.06055      6.06964        -0.042273     -0.038461     -0.027544
      6.08801      6.06528      4.05847        -0.036951      0.000000     -0.018031
      4.03429      6.06528      6.06709         0.013718      0.000000     -0.034258
      2.02388      2.02176      4.04140        -0.028996      0.000000      0.028996
 -----------------------------------------------------------------------------------
    total drift:                               -0.000040      0.000000      0.000050


--------------------------------------------------------------------------------------------------------


    POTLOK:  cpu time    0.16: real time    0.16


--------------------------------------------------------------------------------------------------------


  FORCES: max atom, RMS     0.086626    0.044171
  FORCE total and by dimension    0.245934    0.061254
     LOOP+:  cpu time   43.04: real time   43.13
    4ORBIT:  cpu time    0.00: real time    0.00

 total amount of memory used by VASP on root node  63028. kBytes
========================================================================

   base      :    30000. kBytes
   nonl-proj :     6689. kBytes
   fftplans  :     2983. kBytes
   grid      :    21626. kBytes
   one-center:      482. kBytes
   wavefun   :     1248. kBytes
 
  
  
 General timing and accounting informations for this job:
 ========================================================
  
                  Total CPU time used (sec):       43.785
                            User time (sec):       43.685
                          System time (sec):        0.100
                         Elapsed time (sec):       44.005
  
                   Maximum memory used (kb):           0.
                   Average memory used (kb):           0.
  
                          Minor page faults:        23351
                          Major page faults:            0
                 Voluntary context switches:         1408
