   3   3   0   0
  0.1535906E+02  0.3585051E-09  0.3585051E-09  0.3585051E-09  0.5000000E-15
  1.000000000000000E-004
  CAR 
 unknown system                          
      7.67482020     -5.64726610  301      5.03575033      1.00000000
     -5.647  0.0000E+00  0.0000E+00
     -5.603  0.0000E+00  0.0000E+00
     -5.558  0.0000E+00  0.0000E+00
     -5.514  0.0000E+00  0.0000E+00
     -5.470  0.0000E+00  0.0000E+00
     -5.425  0.0000E+00  0.0000E+00
     -5.381  0.0000E+00  0.0000E+00
     -5.336  0.0000E+00  0.0000E+00
     -5.292  0.0000E+00  0.0000E+00
     -5.248 -0.8309E-28 -0.3690E-29
     -5.203 -0.2603E-26 -0.1193E-27
     -5.159 -0.7592E-25 -0.3491E-26
     -5.114 -0.2004E-23 -0.9249E-25
     -5.070 -0.4788E-22 -0.2219E-23
     -5.026 -0.1035E-20 -0.4817E-22
     -4.981 -0.2023E-19 -0.9467E-21
     -4.937 -0.3579E-18 -0.1684E-19
     -4.892 -0.5726E-17 -0.2711E-18
     -4.848 -0.8284E-16 -0.3950E-17
     -4.804 -0.1044E-14 -0.5033E-16
     -4.759 -0.1241E-13 -0.6013E-15
     -4.715 -0.1322E-12 -0.6471E-14
     -4.670 -0.1272E-11 -0.6296E-13
     -4.626 -0.1105E-10 -0.5538E-12
     -4.581 -0.8666E-10 -0.4402E-11
     -4.537 -0.6129E-09 -0.3162E-10
     -4.493 -0.3907E-08 -0.2051E-09
     -4.448 -0.2243E-07 -0.1201E-08
     -4.404 -0.1159E-06 -0.6346E-08
     -4.359 -0.5379E-06 -0.3023E-07
     -4.315 -0.2241E-05 -0.1297E-06
     -4.271 -0.8362E-05 -0.5011E-06
     -4.226 -0.2788E-04 -0.1739E-05
     -4.182 -0.8271E-04 -0.5412E-05
     -4.137 -0.2173E-03 -0.1506E-04
     -4.093 -0.5016E-03 -0.3734E-04
     -4.049 -0.1004E-02 -0.8190E-04
     -4.004 -0.1699E-02 -0.1573E-03
     -3.960 -0.2303E-02 -0.2596E-03
     -3.915 -0.2100E-02 -0.3529E-03
     -3.871  0.5599E-04 -0.3504E-03
     -3.827  0.5344E-02 -0.1131E-03
     -3.782  0.1418E-01  0.5166E-03
     -3.738  0.2541E-01  0.1645E-02
     -3.693  0.3619E-01  0.3252E-02
     -3.649  0.4298E-01  0.5161E-02
     -3.605  0.4325E-01  0.7081E-02
     -3.560  0.3689E-01  0.8720E-02
     -3.516  0.2629E-01  0.9887E-02
     -3.471  0.1497E-01  0.1055E-01
     -3.427  0.5894E-02  0.1081E-01
     -3.383  0.3356E-03  0.1083E-01
     -3.338 -0.2021E-02  0.1074E-01
     -3.294 -0.2328E-02  0.1064E-01
     -3.249 -0.1754E-02  0.1056E-01
     -3.205 -0.1051E-02  0.1051E-01
     -3.160 -0.5315E-03  0.1049E-01
     -3.116 -0.2327E-03  0.1048E-01
     -3.072 -0.8940E-04  0.1047E-01
     -3.027 -0.3040E-04  0.1047E-01
     -2.983 -0.9200E-05  0.1047E-01
     -2.938 -0.2487E-05  0.1047E-01
     -2.894 -0.6018E-06  0.1047E-01
     -2.850 -0.1307E-06  0.1047E-01
     -2.805 -0.2550E-07  0.1047E-01
     -2.761 -0.4478E-08  0.1047E-01
     -2.716 -0.7081E-09  0.1047E-01
     -2.672 -0.1009E-09  0.1047E-01
     -2.628 -0.1297E-10  0.1047E-01
     -2.583 -0.1505E-11  0.1047E-01
     -2.539 -0.1575E-12  0.1047E-01
     -2.494 -0.1492E-13  0.1047E-01
     -2.450 -0.1257E-14  0.1047E-01
     -2.406 -0.1047E-15  0.1047E-01
     -2.361  0.0000E+00  0.1047E-01
     -2.317  0.0000E+00  0.1047E-01
     -2.272  0.0000E+00  0.1047E-01
     -2.228  0.0000E+00  0.1047E-01
     -2.184  0.0000E+00  0.1047E-01
     -2.139  0.0000E+00  0.1047E-01
     -2.095  0.0000E+00  0.1047E-01
     -2.050  0.0000E+00  0.1047E-01
     -2.006  0.0000E+00  0.1047E-01
     -1.961  0.0000E+00  0.1047E-01
     -1.917  0.0000E+00  0.1047E-01
     -1.873  0.0000E+00  0.1047E-01
     -1.828  0.0000E+00  0.1047E-01
     -1.784  0.0000E+00  0.1047E-01
     -1.739  0.0000E+00  0.1047E-01
     -1.695  0.0000E+00  0.1047E-01
     -1.651  0.0000E+00  0.1047E-01
     -1.606  0.0000E+00  0.1047E-01
     -1.562 -0.6843E-29  0.1047E-01
     -1.517 -0.2303E-27  0.1047E-01
     -1.473 -0.7205E-26  0.1047E-01
     -1.429 -0.2040E-24  0.1047E-01
     -1.384 -0.5227E-23  0.1047E-01
     -1.340 -0.1212E-21  0.1047E-01
     -1.295 -0.2542E-20  0.1047E-01
     -1.251 -0.4824E-19  0.1047E-01
     -1.207 -0.8281E-18  0.1047E-01
     -1.162 -0.1286E-16  0.1047E-01
     -1.118 -0.1805E-15  0.1047E-01
     -1.073 -0.2212E-14  0.1047E-01
     -1.029 -0.2542E-13  0.1047E-01
     -0.985 -0.2628E-12  0.1047E-01
     -0.940 -0.2453E-11  0.1047E-01
     -0.896 -0.2067E-10  0.1047E-01
     -0.851 -0.1572E-09  0.1047E-01
     -0.807 -0.1078E-08  0.1047E-01
     -0.763 -0.6658E-08  0.1047E-01
     -0.718 -0.3704E-07  0.1047E-01
     -0.674 -0.1854E-06  0.1047E-01
     -0.629 -0.8333E-06  0.1047E-01
     -0.585 -0.3360E-05  0.1047E-01
     -0.540 -0.1213E-04  0.1047E-01
     -0.496 -0.3906E-04  0.1047E-01
     -0.452 -0.1118E-03  0.1046E-01
     -0.407 -0.2830E-03  0.1045E-01
     -0.363 -0.6269E-03  0.1042E-01
     -0.318 -0.1197E-02  0.1037E-01
     -0.274 -0.1912E-02  0.1029E-01
     -0.230 -0.2372E-02  0.1018E-01
     -0.185 -0.1719E-02  0.1010E-01
     -0.141  0.1266E-02  0.1016E-01
     -0.096  0.7629E-02  0.1050E-01
     -0.052  0.1738E-01  0.1127E-01
     -0.008  0.2884E-01  0.1255E-01
      0.037  0.3879E-01  0.1427E-01
      0.081  0.4380E-01  0.1622E-01
      0.126  0.4198E-01  0.1808E-01
      0.170  0.3402E-01  0.1959E-01
      0.214  0.2282E-01  0.2061E-01
      0.259  0.1193E-01  0.2114E-01
      0.303  0.3853E-02  0.2131E-01
      0.348 -0.6593E-03  0.2128E-01
      0.392 -0.2269E-02  0.2118E-01
      0.436 -0.2205E-02  0.2108E-01
      0.481 -0.1536E-02  0.2101E-01
      0.525 -0.8715E-03  0.2097E-01
      0.570 -0.4212E-03  0.2095E-01
      0.614 -0.1772E-03  0.2095E-01
      0.659 -0.6566E-04  0.2094E-01
      0.703 -0.2189E-04  0.2094E-01
      0.747 -0.7976E-05  0.2094E-01
      0.792 -0.8621E-05  0.2094E-01
      0.836 -0.2633E-04  0.2094E-01
      0.881 -0.8632E-04  0.2094E-01
      0.925 -0.2551E-03  0.2093E-01
      0.969 -0.6680E-03  0.2090E-01
      1.014 -0.1536E-02  0.2083E-01
      1.058 -0.3063E-02  0.2069E-01
      1.103 -0.5163E-02  0.2046E-01
      1.147 -0.6965E-02  0.2015E-01
      1.191 -0.6309E-02  0.1987E-01
      1.236  0.2063E-03  0.1988E-01
      1.280  0.1598E-01  0.2059E-01
      1.325  0.4201E-01  0.2246E-01
      1.369  0.7461E-01  0.2577E-01
      1.413  0.1053E+00  0.3045E-01
      1.458  0.1245E+00  0.3598E-01
      1.502  0.1264E+00  0.4159E-01
      1.547  0.1136E+00  0.4664E-01
      1.591  0.9516E-01  0.5086E-01
      1.635  0.8146E-01  0.5448E-01
      1.680  0.7740E-01  0.5792E-01
      1.724  0.8008E-01  0.6147E-01
      1.769  0.8176E-01  0.6510E-01
      1.813  0.7568E-01  0.6846E-01
      1.858  0.6040E-01  0.7115E-01
      1.902  0.3984E-01  0.7292E-01
      1.946  0.2006E-01  0.7381E-01
      1.991  0.5604E-02  0.7405E-01
      2.035 -0.2213E-02  0.7396E-01
      2.080 -0.4737E-02  0.7375E-01
      2.124 -0.4311E-02  0.7355E-01
      2.168 -0.2909E-02  0.7343E-01
      2.213 -0.1615E-02  0.7335E-01
      2.257 -0.7668E-03  0.7332E-01
      2.302 -0.3175E-03  0.7331E-01
      2.346 -0.1158E-03  0.7330E-01
      2.390 -0.3751E-04  0.7330E-01
      2.435 -0.1082E-04  0.7330E-01
      2.479 -0.2793E-05  0.7330E-01
      2.524 -0.6461E-06  0.7330E-01
      2.568 -0.1342E-06  0.7330E-01
      2.612 -0.2506E-07  0.7330E-01
      2.657 -0.4212E-08  0.7330E-01
      2.701 -0.6378E-09  0.7330E-01
      2.746 -0.8707E-10  0.7330E-01
      2.790 -0.1072E-10  0.7330E-01
      2.834 -0.1192E-11  0.7330E-01
      2.879 -0.1196E-12  0.7330E-01
      2.923 -0.1089E-13  0.7330E-01
      2.968 -0.8377E-15  0.7330E-01
      3.012 -0.1047E-15  0.7330E-01
      3.056 -0.2440E-22  0.7330E-01
      3.101 -0.5578E-21  0.7330E-01
      3.145 -0.1154E-19  0.7330E-01
      3.190 -0.2160E-18  0.7330E-01
      3.234 -0.3656E-17  0.7330E-01
      3.279 -0.5598E-16  0.7330E-01
      3.323 -0.7357E-15  0.7330E-01
      3.367 -0.9424E-14  0.7330E-01
      3.412 -0.1061E-12  0.7330E-01
      3.456 -0.1081E-11  0.7330E-01
      3.501 -0.9951E-11  0.7330E-01
      3.545 -0.8267E-10  0.7330E-01
      3.589 -0.6196E-09  0.7330E-01
      3.634 -0.4188E-08  0.7330E-01
      3.678 -0.2550E-07  0.7330E-01
      3.723 -0.1398E-06  0.7330E-01
      3.767 -0.6894E-06  0.7330E-01
      3.811 -0.3053E-05  0.7330E-01
      3.856 -0.1213E-04  0.7330E-01
      3.900 -0.4308E-04  0.7330E-01
      3.945 -0.1366E-03  0.7329E-01
      3.989 -0.3845E-03  0.7327E-01
      4.033 -0.9557E-03  0.7323E-01
      4.078 -0.2077E-02  0.7314E-01
      4.122 -0.3878E-02  0.7297E-01
      4.167 -0.6017E-02  0.7270E-01
      4.211 -0.7127E-02  0.7238E-01
      4.255 -0.4443E-02  0.7218E-01
      4.300  0.5719E-02  0.7244E-01
      4.344  0.2618E-01  0.7360E-01
      4.389  0.5625E-01  0.7610E-01
      4.433  0.8997E-01  0.8009E-01
      4.478  0.1172E+00  0.8530E-01
      4.522  0.1281E+00  0.9099E-01
      4.566  0.1188E+00  0.9627E-01
      4.611  0.9414E-01  0.1004E+00
      4.655  0.6579E-01  0.1034E+00
      4.700  0.4634E-01  0.1054E+00
      4.744  0.4282E-01  0.1073E+00
      4.788  0.5356E-01  0.1097E+00
      4.833  0.6985E-01  0.1128E+00
      4.877  0.8104E-01  0.1164E+00
      4.922  0.8010E-01  0.1200E+00
      4.966  0.6654E-01  0.1229E+00
      5.010  0.4548E-01  0.1249E+00
      5.055  0.2401E-01  0.1260E+00
      5.099  0.7371E-02  0.1263E+00
      5.144 -0.2823E-02  0.1262E+00
      5.188 -0.7937E-02  0.1259E+00
      5.232 -0.1031E-01  0.1254E+00
      5.277 -0.1120E-01  0.1249E+00
      5.321 -0.9518E-02  0.1245E+00
      5.366 -0.1880E-02  0.1244E+00
      5.410  0.1590E-01  0.1251E+00
      5.454  0.4599E-01  0.1271E+00
      5.499  0.8566E-01  0.1309E+00
      5.543  0.1264E+00  0.1366E+00
      5.588  0.1563E+00  0.1435E+00
      5.632  0.1655E+00  0.1508E+00
      5.677  0.1511E+00  0.1576E+00
      5.721  0.1183E+00  0.1628E+00
      5.765  0.7788E-01  0.1663E+00
      5.810  0.4086E-01  0.1681E+00
      5.854  0.1406E-01  0.1687E+00
      5.899 -0.1033E-02  0.1687E+00
      5.943 -0.6823E-02  0.1684E+00
      5.987 -0.7137E-02  0.1680E+00
      6.032 -0.5264E-02  0.1678E+00
      6.076 -0.3172E-02  0.1677E+00
      6.121 -0.1640E-02  0.1676E+00
      6.165 -0.7428E-03  0.1676E+00
      6.209 -0.2984E-03  0.1675E+00
      6.254 -0.1070E-03  0.1675E+00
      6.298 -0.3435E-04  0.1675E+00
      6.343 -0.9912E-05  0.1675E+00
      6.387 -0.2574E-05  0.1675E+00
      6.431 -0.6021E-06  0.1675E+00
      6.476 -0.1270E-06  0.1675E+00
      6.520 -0.2417E-07  0.1675E+00
      6.565 -0.4153E-08  0.1675E+00
      6.609 -0.6442E-09  0.1675E+00
      6.653 -0.9026E-10  0.1675E+00
      6.698 -0.1143E-10  0.1675E+00
      6.742 -0.1307E-11  0.1675E+00
      6.787 -0.1350E-12  0.1675E+00
      6.831 -0.1278E-13  0.1675E+00
      6.875 -0.9948E-15  0.1675E+00
      6.920 -0.1047E-15  0.1675E+00
      6.964  0.0000E+00  0.1675E+00
      7.009  0.0000E+00  0.1675E+00
      7.053  0.0000E+00  0.1675E+00
      7.098  0.0000E+00  0.1675E+00
      7.142  0.0000E+00  0.1675E+00
      7.186  0.0000E+00  0.1675E+00
      7.231  0.0000E+00  0.1675E+00
      7.275  0.0000E+00  0.1675E+00
      7.320  0.0000E+00  0.1675E+00
      7.364  0.0000E+00  0.1675E+00
      7.408  0.0000E+00  0.1675E+00
      7.453  0.0000E+00  0.1675E+00
      7.497  0.0000E+00  0.1675E+00
      7.542  0.0000E+00  0.1675E+00
      7.586  0.0000E+00  0.1675E+00
      7.630  0.0000E+00  0.1675E+00
      7.675  0.0000E+00  0.1675E+00
