  31  31   0   0
  0.1706118E+02  0.8087052E-09  0.8087052E-09  0.8087052E-09  0.5000000E-15
  1.000000000000000E-004
  CAR 
 unknown system                          
     13.28389001     -4.98578822  301      7.87236498      1.00000000
     -4.986  0.0000E+00  0.0000E+00
     -4.925  0.0000E+00  0.0000E+00
     -4.864  0.0000E+00  0.0000E+00
     -4.803  0.0000E+00  0.0000E+00
     -4.742  0.0000E+00  0.0000E+00
     -4.681  0.0000E+00  0.0000E+00
     -4.620 -0.3459E-29 -0.2106E-30
     -4.559 -0.4386E-27 -0.2692E-28
     -4.499 -0.4643E-25 -0.2854E-26
     -4.438 -0.4075E-23 -0.2510E-24
     -4.377 -0.2965E-21 -0.1831E-22
     -4.316 -0.1788E-19 -0.1107E-20
     -4.255 -0.8932E-18 -0.5550E-19
     -4.194 -0.3696E-16 -0.2306E-17
     -4.133 -0.1228E-14 -0.7708E-16
     -4.072 -0.3469E-13 -0.2190E-14
     -4.011 -0.8099E-12 -0.5151E-13
     -3.951 -0.1561E-10 -0.1002E-11
     -3.890 -0.2483E-09 -0.1612E-10
     -3.829 -0.3253E-08 -0.2142E-09
     -3.768 -0.3503E-07 -0.2348E-08
     -3.707 -0.3095E-06 -0.2119E-07
     -3.646 -0.2235E-05 -0.1573E-06
     -3.585 -0.1313E-04 -0.9569E-06
     -3.524 -0.6232E-04 -0.4752E-05
     -3.463 -0.2363E-03 -0.1914E-04
     -3.402 -0.7008E-03 -0.6182E-04
     -3.342 -0.1560E-02 -0.1568E-03
     -3.281 -0.2319E-02 -0.2981E-03
     -3.220 -0.1136E-02 -0.3673E-03
     -3.159  0.4942E-02 -0.6630E-04
     -3.098  0.1740E-01  0.9933E-03
     -3.037  0.3275E-01  0.2988E-02
     -2.976  0.4286E-01  0.5598E-02
     -2.915  0.4114E-01  0.8103E-02
     -2.854  0.2876E-01  0.9855E-02
     -2.793  0.1351E-01  0.1068E-01
     -2.733  0.2678E-02  0.1084E-01
     -2.672 -0.1809E-02  0.1073E-01
     -2.611 -0.2203E-02  0.1060E-01
     -2.550 -0.1316E-02  0.1052E-01
     -2.489 -0.6154E-03  0.1048E-01
     -2.428 -0.4671E-03  0.1045E-01
     -2.367 -0.9381E-03  0.1039E-01
     -2.306 -0.2074E-02  0.1027E-01
     -2.245 -0.3374E-02  0.1006E-01
     -2.184 -0.2781E-02  0.9892E-02
     -2.124  0.3494E-02  0.1010E-01
     -2.063  0.1868E-01  0.1124E-01
     -2.002  0.4144E-01  0.1377E-01
     -1.941  0.6457E-01  0.1770E-01
     -1.880  0.7939E-01  0.2253E-01
     -1.819  0.8217E-01  0.2754E-01
     -1.758  0.7544E-01  0.3213E-01
     -1.697  0.6352E-01  0.3600E-01
     -1.636  0.4873E-01  0.3897E-01
     -1.575  0.3229E-01  0.4093E-01
     -1.515  0.1670E-01  0.4195E-01
     -1.454  0.5172E-02  0.4227E-01
     -1.393 -0.8042E-03  0.4222E-01
     -1.332 -0.2449E-02  0.4207E-01
     -1.271 -0.2240E-02  0.4193E-01
     -1.210 -0.2159E-02  0.4180E-01
     -1.149 -0.2896E-02  0.4162E-01
     -1.088 -0.3452E-02  0.4141E-01
     -1.027 -0.7883E-03  0.4137E-01
     -0.966  0.9077E-02  0.4192E-01
     -0.906  0.2735E-01  0.4358E-01
     -0.845  0.4894E-01  0.4656E-01
     -0.784  0.6470E-01  0.5050E-01
     -0.723  0.6897E-01  0.5470E-01
     -0.662  0.6395E-01  0.5860E-01
     -0.601  0.5560E-01  0.6199E-01
     -0.540  0.4739E-01  0.6487E-01
     -0.479  0.3982E-01  0.6730E-01
     -0.418  0.3307E-01  0.6931E-01
     -0.357  0.2711E-01  0.7096E-01
     -0.297  0.2083E-01  0.7223E-01
     -0.236  0.1336E-01  0.7304E-01
     -0.175  0.5664E-02  0.7339E-01
     -0.114 -0.4619E-03  0.7336E-01
     -0.053 -0.4176E-02  0.7310E-01
      0.008 -0.4998E-02  0.7280E-01
      0.069 -0.8385E-03  0.7275E-01
      0.130  0.1170E-01  0.7346E-01
      0.191  0.3353E-01  0.7550E-01
      0.252  0.5956E-01  0.7913E-01
      0.312  0.8059E-01  0.8404E-01
      0.373  0.8990E-01  0.8951E-01
      0.434  0.8783E-01  0.9486E-01
      0.495  0.7988E-01  0.9973E-01
      0.556  0.7119E-01  0.1041E+00
      0.617  0.6286E-01  0.1079E+00
      0.678  0.5270E-01  0.1111E+00
      0.739  0.3898E-01  0.1135E+00
      0.800  0.2325E-01  0.1149E+00
      0.861  0.9431E-02  0.1155E+00
      0.921  0.3369E-03  0.1155E+00
      0.982 -0.4406E-02  0.1152E+00
      1.043 -0.6945E-02  0.1148E+00
      1.104 -0.7648E-02  0.1143E+00
      1.165 -0.2382E-02  0.1142E+00
      1.226  0.1620E-01  0.1152E+00
      1.287  0.5202E-01  0.1183E+00
      1.348  0.9783E-01  0.1243E+00
      1.409  0.1351E+00  0.1325E+00
      1.469  0.1453E+00  0.1414E+00
      1.530  0.1242E+00  0.1489E+00
      1.591  0.8631E-01  0.1542E+00
      1.652  0.5481E-01  0.1575E+00
      1.713  0.4489E-01  0.1603E+00
      1.774  0.5418E-01  0.1636E+00
      1.835  0.6712E-01  0.1676E+00
      1.896  0.6887E-01  0.1718E+00
      1.957  0.5576E-01  0.1752E+00
      2.018  0.3472E-01  0.1773E+00
      2.078  0.1529E-01  0.1783E+00
      2.139  0.2905E-02  0.1785E+00
      2.200 -0.2483E-02  0.1783E+00
      2.261 -0.3916E-02  0.1781E+00
      2.322 -0.4289E-02  0.1778E+00
      2.383 -0.4286E-02  0.1775E+00
      2.444 -0.1730E-02  0.1774E+00
      2.505  0.7406E-02  0.1779E+00
      2.566  0.2594E-01  0.1795E+00
      2.627  0.5182E-01  0.1826E+00
      2.687  0.7732E-01  0.1873E+00
      2.748  0.9306E-01  0.1930E+00
      2.809  0.9354E-01  0.1987E+00
      2.870  0.7963E-01  0.2035E+00
      2.931  0.5690E-01  0.2070E+00
      2.992  0.3264E-01  0.2090E+00
      3.053  0.1299E-01  0.2098E+00
      3.114  0.7223E-03  0.2098E+00
      3.175 -0.5369E-02  0.2095E+00
      3.236 -0.8241E-02  0.2090E+00
      3.296 -0.8646E-02  0.2085E+00
      3.357 -0.2296E-02  0.2083E+00
      3.418  0.1863E-01  0.2095E+00
      3.479  0.5846E-01  0.2130E+00
      3.540  0.1099E+00  0.2197E+00
      3.601  0.1538E+00  0.2291E+00
      3.662  0.1703E+00  0.2395E+00
      3.723  0.1535E+00  0.2488E+00
      3.784  0.1155E+00  0.2558E+00
      3.845  0.7666E-01  0.2605E+00
      3.905  0.5149E-01  0.2636E+00
      3.966  0.4135E-01  0.2662E+00
      4.027  0.3785E-01  0.2685E+00
      4.088  0.3193E-01  0.2704E+00
      4.149  0.2068E-01  0.2717E+00
      4.210  0.7295E-02  0.2721E+00
      4.271 -0.3191E-02  0.2719E+00
      4.332 -0.6484E-02  0.2715E+00
      4.393  0.1708E-02  0.2716E+00
      4.454  0.2542E-01  0.2732E+00
      4.514  0.6419E-01  0.2771E+00
      4.575  0.1087E+00  0.2837E+00
      4.636  0.1435E+00  0.2924E+00
      4.697  0.1574E+00  0.3020E+00
      4.758  0.1525E+00  0.3113E+00
      4.819  0.1407E+00  0.3199E+00
      4.880  0.1320E+00  0.3279E+00
      4.941  0.1266E+00  0.3356E+00
      5.002  0.1198E+00  0.3429E+00
      5.063  0.1096E+00  0.3496E+00
      5.123  0.9670E-01  0.3555E+00
      5.184  0.8027E-01  0.3604E+00
      5.245  0.5887E-01  0.3640E+00
      5.306  0.3449E-01  0.3661E+00
      5.367  0.1289E-01  0.3668E+00
      5.428 -0.9013E-03  0.3668E+00
      5.489 -0.5327E-02  0.3665E+00
      5.550 -0.9074E-03  0.3664E+00
      5.611  0.1137E-01  0.3671E+00
      5.672  0.2851E-01  0.3688E+00
      5.732  0.4409E-01  0.3715E+00
      5.793  0.5114E-01  0.3746E+00
      5.854  0.4750E-01  0.3775E+00
      5.915  0.3769E-01  0.3798E+00
      5.976  0.2958E-01  0.3816E+00
      6.037  0.2877E-01  0.3834E+00
      6.098  0.3469E-01  0.3855E+00
      6.159  0.4151E-01  0.3880E+00
      6.220  0.4345E-01  0.3907E+00
      6.281  0.3917E-01  0.3931E+00
      6.341  0.3065E-01  0.3949E+00
      6.402  0.2007E-01  0.3961E+00
      6.463  0.1032E-01  0.3968E+00
      6.524  0.7616E-02  0.3972E+00
      6.585  0.1947E-01  0.3984E+00
      6.646  0.4707E-01  0.4013E+00
      6.707  0.8040E-01  0.4062E+00
      6.768  0.1049E+00  0.4126E+00
      6.829  0.1151E+00  0.4196E+00
      6.890  0.1201E+00  0.4269E+00
      6.950  0.1309E+00  0.4349E+00
      7.011  0.1466E+00  0.4438E+00
      7.072  0.1529E+00  0.4531E+00
      7.133  0.1371E+00  0.4615E+00
      7.194  0.9990E-01  0.4675E+00
      7.255  0.5546E-01  0.4709E+00
      7.316  0.1958E-01  0.4721E+00
      7.377 -0.4924E-03  0.4721E+00
      7.438 -0.7481E-02  0.4716E+00
      7.498 -0.8075E-02  0.4711E+00
      7.559 -0.6489E-02  0.4707E+00
      7.620 -0.2151E-02  0.4706E+00
      7.681  0.8312E-02  0.4711E+00
      7.742  0.2709E-01  0.4728E+00
      7.803  0.5256E-01  0.4760E+00
      7.864  0.8042E-01  0.4809E+00
      7.925  0.1074E+00  0.4874E+00
      7.986  0.1337E+00  0.4955E+00
      8.047  0.1608E+00  0.5053E+00
      8.107  0.1867E+00  0.5167E+00
      8.168  0.2012E+00  0.5290E+00
      8.229  0.1914E+00  0.5406E+00
      8.290  0.1545E+00  0.5500E+00
      8.351  0.1041E+00  0.5564E+00
      8.412  0.6036E-01  0.5600E+00
      8.473  0.3436E-01  0.5621E+00
      8.534  0.2307E-01  0.5635E+00
      8.595  0.1722E-01  0.5646E+00
      8.656  0.1067E-01  0.5652E+00
      8.716  0.2954E-02  0.5654E+00
      8.777 -0.3511E-02  0.5652E+00
      8.838 -0.5799E-02  0.5649E+00
      8.899 -0.2177E-03  0.5648E+00
      8.960  0.1709E-01  0.5659E+00
      9.021  0.4597E-01  0.5687E+00
      9.082  0.7863E-01  0.5735E+00
      9.143  0.1036E+00  0.5798E+00
      9.204  0.1155E+00  0.5868E+00
      9.265  0.1196E+00  0.5941E+00
      9.325  0.1235E+00  0.6016E+00
      9.386  0.1263E+00  0.6093E+00
      9.447  0.1194E+00  0.6166E+00
      9.508  0.9694E-01  0.6225E+00
      9.569  0.6279E-01  0.6263E+00
      9.630  0.2769E-01  0.6280E+00
      9.691  0.1914E-02  0.6281E+00
      9.752 -0.7606E-02  0.6276E+00
      9.813  0.4009E-02  0.6279E+00
      9.874  0.3869E-01  0.6302E+00
      9.934  0.9017E-01  0.6357E+00
      9.995  0.1421E+00  0.6444E+00
     10.056  0.1760E+00  0.6551E+00
     10.117  0.1823E+00  0.6662E+00
     10.178  0.1623E+00  0.6761E+00
     10.239  0.1237E+00  0.6836E+00
     10.300  0.7850E-01  0.6884E+00
     10.361  0.4273E-01  0.6910E+00
     10.422  0.3050E-01  0.6929E+00
     10.483  0.4376E-01  0.6955E+00
     10.543  0.6963E-01  0.6998E+00
     10.604  0.8968E-01  0.7052E+00
     10.665  0.9288E-01  0.7109E+00
     10.726  0.8126E-01  0.7158E+00
     10.787  0.6531E-01  0.7198E+00
     10.848  0.5484E-01  0.7232E+00
     10.909  0.5225E-01  0.7263E+00
     10.970  0.5313E-01  0.7296E+00
     11.031  0.5304E-01  0.7328E+00
     11.092  0.5308E-01  0.7360E+00
     11.152  0.5728E-01  0.7395E+00
     11.213  0.6472E-01  0.7435E+00
     11.274  0.6730E-01  0.7476E+00
     11.335  0.5758E-01  0.7511E+00
     11.396  0.3735E-01  0.7534E+00
     11.457  0.1614E-01  0.7543E+00
     11.518  0.2218E-02  0.7545E+00
     11.579 -0.3045E-02  0.7543E+00
     11.640 -0.3137E-02  0.7541E+00
     11.701 -0.1775E-02  0.7540E+00
     11.761 -0.7199E-03  0.7539E+00
     11.822 -0.2249E-03  0.7539E+00
     11.883 -0.5575E-04  0.7539E+00
     11.944 -0.1113E-04  0.7539E+00
     12.005 -0.1809E-05  0.7539E+00
     12.066 -0.2404E-06  0.7539E+00
     12.127 -0.2624E-07  0.7539E+00
     12.188 -0.2358E-08  0.7539E+00
     12.249 -0.1749E-09  0.7539E+00
     12.310 -0.1072E-10  0.7539E+00
     12.370 -0.5438E-12  0.7539E+00
     12.431 -0.2283E-13  0.7539E+00
     12.492 -0.8018E-15  0.7539E+00
     12.553 -0.1909E-16  0.7539E+00
     12.614  0.0000E+00  0.7539E+00
     12.675  0.0000E+00  0.7539E+00
     12.736  0.0000E+00  0.7539E+00
     12.797  0.0000E+00  0.7539E+00
     12.858  0.0000E+00  0.7539E+00
     12.918  0.0000E+00  0.7539E+00
     12.979  0.0000E+00  0.7539E+00
     13.040  0.0000E+00  0.7539E+00
     13.101  0.0000E+00  0.7539E+00
     13.162  0.0000E+00  0.7539E+00
     13.223  0.0000E+00  0.7539E+00
     13.284  0.0000E+00  0.7539E+00
