   31   31  191    1
  0.1706118E+02  0.8087052E-09  0.8087052E-09  0.8087052E-09  0.5000000E-15
  1.000000000000000E-004
  CAR 
 unknown system                          
   92    2   72
 
  0.2500000E+00  0.2500000E+00  0.2500000E+00  0.5000000E+00
   1       -2.982828
   2       -1.960165
   3       -1.878664
   4       -1.641567
   5       -0.811889
   6       -0.760664
   7       -0.354077
   8        0.257452
   9        0.321789
  10        0.532731
  11        0.616133
  12        1.344993
  13        1.363736
  14        1.405982
  15        1.539828
  16        1.813812
  17        1.940460
  18        2.700584
  19        2.708564
  20        2.904220
  21        3.530466
  22        3.591845
  23        3.629166
  24        3.677536
  25        3.736375
  26        4.050798
  27        4.531061
  28        4.558234
  29        4.645004
  30        4.807384
  31        4.864760
  32        4.870499
  33        4.929402
  34        5.110731
  35        5.206131
  36        5.726776
  37        5.892861
  38        6.355529
  39        6.710145
  40        6.775732
  41        6.786772
  42        6.944553
  43        6.989293
  44        7.094215
  45        7.149959
  46        7.789432
  47        7.887696
  48        8.006188
  49        8.036493
  50        8.162315
  51        8.198933
  52        8.207415
  53        8.373537
  54        8.536285
  55        9.056895
  56        9.137282
  57        9.188095
  58        9.354358
  59        9.372038
  60        9.513119
  61        9.970710
  62        9.984834
  63       10.064102
  64       10.155681
  65       10.203010
  66       10.211247
  67       10.517889
  68       10.648505
  69       10.776250
  70       10.933851
  71       11.072811
  72       11.241436
 
 -0.2500000E+00  0.2500000E+00  0.2500000E+00  0.5000000E+00
   1       -2.985788
   2       -1.950433
   3       -1.815451
   4       -1.721973
   5       -0.825260
   6       -0.609646
   7       -0.548368
   8        0.261830
   9        0.398639
  10        0.441561
  11        0.699265
  12        1.393413
  13        1.428380
  14        1.492424
  15        1.493816
  16        1.768391
  17        1.842764
  18        2.621322
  19        2.773109
  20        2.839415
  21        3.537911
  22        3.588241
  23        3.634372
  24        3.681445
  25        3.811700
  26        3.963587
  27        4.597916
  28        4.651418
  29        4.678274
  30        4.698716
  31        4.716621
  32        4.949519
  33        4.973467
  34        5.059567
  35        5.174909
  36        5.746293
  37        6.116970
  38        6.177867
  39        6.706373
  40        6.747011
  41        6.917465
  42        7.023750
  43        7.033414
  44        7.070485
  45        7.141417
  46        7.837884
  47        7.956886
  48        7.994620
  49        8.067106
  50        8.148990
  51        8.172095
  52        8.188184
  53        8.217098
  54        8.263996
  55        9.095351
  56        9.146914
  57        9.273277
  58        9.378195
  59        9.407939
  60        9.487826
  61        9.968263
  62        9.979549
  63       10.042257
  64       10.051576
  65       10.142427
  66       10.231232
  67       10.555514
  68       10.565540
  69       10.681092
  70       10.951055
  71       11.244890
  72       11.283890
