 vasp.5.2.2 15Apr09 complex 
 executed on             LinuxIFC date 2017.03.17  11:40:27
 running on   12 nodes
 distr:  one band on    1 nodes,   12 groups


--------------------------------------------------------------------------------------------------------


 INCAR:
 POTCAR:   PAW_PBE Al 04Jan2001                   
 POTCAR:   PAW_PBE Mg 05Jan2001                   
 POTCAR:   PAW_PBE Al 04Jan2001                   
   VRHFIN =Al: s2p1                                                             
   LEXCH  = PE                                                                  
   EATOM  =    53.5387 eV,    3.9350 Ry                                         
                                                                                
   TITEL  = PAW_PBE Al 04Jan2001                                                
   LULTRA =        F    use ultrasoft PP ?                                      
   IUNSCR =        1    unscreen: 0-lin 1-nonlin 2-no                           
   RPACOR =    1.500    partial core radius                                     
   POMASS =   26.982; ZVAL   =    3.000    mass and valenz                      
   RCORE  =    1.900    outmost cutoff radius                                   
   RWIGS  =    2.650; RWIGS  =    1.402    wigner-seitz radius (au A)           
   ENMAX  =  240.300; ENMIN  =  180.225 eV                                      
   ICORE  =        2    local potential                                         
   LCOR   =        T    correct aug charges                                     
   LPAW   =        T    paw PP                                                  
   EAUG   =  291.052                                                            
   DEXC   =    -.041                                                            
   RMAX   =    2.974    core radius for proj-oper                               
   RAUG   =    1.300    factor for augmentation sphere                          
   RDEP   =    1.966    radius for radial grids                                 
   QCUT   =   -4.203; QGAM   =    8.405    optimization parameters              
                                                                                
   Description                                                                  
     l     E      TYP  RCUT    TYP  RCUT                                        
     0   .000     23  1.900                                                     
     0   .000     23  1.900                                                     
     1   .000     23  1.900                                                     
     1  1.000     23  1.900                                                     
     2   .000      7  1.900                                                     
  local pseudopotential read in
  partial core-charges read in
  atomic valenz-charges read in
  non local Contribution for L=           0  read in
    real space projection operators read in
  non local Contribution for L=           0  read in
    real space projection operators read in
  non local Contribution for L=           1  read in
    real space projection operators read in
  non local Contribution for L=           1  read in
    real space projection operators read in
    PAW grid and wavefunctions read in
 
   number of l-projection  operators is LMAX  =           4
   number of lm-projection operators is LMMAX =           8
 
 POTCAR:   PAW_PBE Mg 05Jan2001                   
   VRHFIN =Mg: s2p0                                                             
   LEXCH  = PE                                                                  
   EATOM  =    23.0029 eV,    1.6907 Ry                                         
                                                                                
   TITEL  = PAW_PBE Mg 05Jan2001                                                
   LULTRA =        F    use ultrasoft PP ?                                      
   IUNSCR =        1    unscreen: 0-lin 1-nonlin 2-no                           
   RPACOR =    2.000    partial core radius                                     
   POMASS =   24.305; ZVAL   =    2.000    mass and valenz                      
   RCORE  =    2.000    outmost cutoff radius                                   
   RWIGS  =    2.880; RWIGS  =    1.524    wigner-seitz radius (au A)           
   ENMAX  =  210.012; ENMIN  =  157.509 eV                                      
   ICORE  =        2    local potential                                         
   LCOR   =        T    correct aug charges                                     
   LPAW   =        T    paw PP                                                  
   EAUG   =  274.554                                                            
   DEXC   =    -.136                                                            
   RMAX   =    3.182    core radius for proj-oper                               
   RAUG   =    1.300    factor for augmentation sphere                          
   RDEP   =    2.025    radius for radial grids                                 
   QCUT   =   -3.929; QGAM   =    7.858    optimization parameters              
                                                                                
   Description                                                                  
     l     E      TYP  RCUT    TYP  RCUT                                        
     0   .000     23  2.000                                                     
     0  2.000     23  2.000                                                     
     1   .000     23  2.000                                                     
     1  2.000     23  2.000                                                     
     2   .000     23  2.000                                                     
  local pseudopotential read in
  partial core-charges read in
  atomic valenz-charges read in
  non local Contribution for L=           0  read in
    real space projection operators read in
  non local Contribution for L=           0  read in
    real space projection operators read in
  non local Contribution for L=           1  read in
    real space projection operators read in
  non local Contribution for L=           1  read in
    real space projection operators read in
    PAW grid and wavefunctions read in
 
   number of l-projection  operators is LMAX  =           4
   number of lm-projection operators is LMMAX =           8
 

 ----------------------------------------------------------------------------- 
|                                                                             |
|  ADVICE TO THIS USER RUNNING 'VASP/VAMP'   (HEAR YOUR MASTER'S VOICE ...):  |
|                                                                             |
|      You have a (more or less) 'large supercell' and for larger cells       |
|      it might be more efficient to use real space projection operators      |
|      So try LREAL= Auto  in the INCAR   file.                               |
|      Mind: If you want to do a very accurate calculations keep the          |
|      reciprocal projection scheme          (i.e. LREAL=.FALSE.)             |
|                                                                             |
 ----------------------------------------------------------------------------- 

 PAW_PBE Al 04Jan2001                   :
 energy of atom  1       EATOM=  -53.5387
 kinetic energy error for atom=    0.0011 (will be added to EATOM!!)
 PAW_PBE Mg 05Jan2001                   :
 energy of atom  2       EATOM=  -23.0029
 kinetic energy error for atom=    0.0002 (will be added to EATOM!!)
 
 
 POSCAR: Mg1 Al30                                
  positions in direct lattice
  velocities in cartesian coordinates
 exchange correlation table for  LEXCH =        8
   RHO(1)=    0.500       N(1)  =     2000
   RHO(2)=  100.500       N(2)  =     4000

 VTST: version 2.03d, (02/18/09)

 CHAIN: initializing optimizer
 
 OPT: Using VASP Dynamics algorithm
 CHAIN: Read ICHAIN            0
 


--------------------------------------------------------------------------------------------------------


 ion  position               nearest neighbor table
   1  0.001  0.000  0.001-   6 2.78  17 2.78   2 2.81  14 2.83  27 2.83  19 2.83   7 2.83  21 2.88
                             4 2.88  10 2.88  11 2.88   3 2.88
   2  0.247  0.000  0.247-   1 2.81   8 2.83  15 2.83  18 2.83  26 2.83  11 2.85   4 2.85   3 2.85
                            10 2.85  20 2.93  16 2.94   5 2.94
   3  0.249  0.256  0.005-   4 2.80  12 2.82   9 2.82  17 2.84   2 2.85   8 2.85  25 2.87   1 2.88
                            19 2.88   5 2.90  23 2.92
   4  0.005  0.256  0.249-   3 2.80  24 2.82   9 2.82   6 2.84   2 2.85  18 2.85  13 2.87   1 2.88
                             7 2.88  16 2.90  22 2.92
   5  0.500  0.000  0.986-  17 2.71  15 2.75   8 2.75  21 2.78  23 2.84  30 2.84  14 2.86   7 2.86
                             3 2.90  10 2.90   2 2.94   6 3.01
   6  0.764  0.000  0.250-  16 2.71  15 2.75   8 2.75   1 2.78   4 2.84  11 2.84  14 2.86   7 2.86
                            22 2.90  29 2.90  20 2.94   5 3.01
   7  0.754  0.247  0.996-   8 2.77  19 2.78   1 2.83  21 2.83   9 2.85  28 2.85   6 2.86   5 2.86
                             4 2.88  23 2.88  13 2.90  12 2.90
   8  0.511  0.228  0.239-  31 2.70   6 2.75   5 2.75   7 2.77  20 2.83   2 2.83  22 2.85   3 2.85
                            13 2.91  12 2.91  18 3.12
   9  1.000  0.500  1.000-   3 2.82   4 2.82  10 2.82  11 2.82   7 2.85  19 2.85  14 2.85  27 2.85
                            28 2.86  13 2.88  25 2.88
  10  0.249  0.744  0.005-  11 2.80  12 2.82   9 2.82  17 2.84   2 2.85  15 2.85  25 2.87   1 2.88
                            27 2.88   5 2.90  30 2.92
  11  0.005  0.744  0.249-  10 2.80  24 2.82   9 2.82   6 2.84   2 2.85  26 2.85  13 2.87   1 2.88
                            14 2.88  16 2.90  29 2.92
  12  0.499  0.500  0.003-   3 2.82  10 2.82  13 2.84  23 2.87  30 2.87  25 2.88  28 2.88   7 2.90
                            14 2.90   8 2.91  15 2.91  31 3.17
  13  0.747  0.500  0.251-  22 2.82  29 2.82  12 2.84  11 2.87   4 2.87  24 2.88   9 2.88   7 2.90
                            14 2.90  15 2.91   8 2.91  31 3.17
  14  0.754  0.753  0.996-  15 2.77  27 2.78   1 2.83  21 2.83   9 2.85  28 2.85   6 2.86   5 2.86
                            11 2.88  30 2.88  13 2.90  12 2.90
  15  0.511  0.772  0.239-  31 2.70   6 2.75   5 2.75  14 2.77  20 2.83   2 2.83  29 2.85  10 2.85
                            13 2.91  12 2.91  26 3.12
  16  0.986  0.000  0.500-   6 2.71  18 2.75  26 2.75  21 2.78  22 2.84  29 2.84  27 2.86  19 2.86
                            11 2.90   4 2.90   2 2.94  17 3.01
  17  0.250  0.000  0.764-   5 2.71  18 2.75  26 2.75   1 2.78   3 2.84  10 2.84  27 2.86  19 2.86
                            23 2.90  30 2.90  20 2.94  16 3.01
  18  0.239  0.228  0.511-  31 2.70  17 2.75  16 2.75  19 2.77  20 2.83   2 2.83  23 2.85   4 2.85
                            25 2.91  24 2.91   8 3.12
  19  0.996  0.247  0.754-  18 2.77   7 2.78   1 2.83  21 2.83   9 2.85  28 2.85  17 2.86  16 2.86
                             3 2.88  22 2.88  25 2.90  24 2.90
  20  0.503  0.000  0.503-  21 2.81  15 2.83  18 2.83   8 2.83  26 2.83  23 2.85  22 2.85  29 2.85
                            30 2.85   2 2.93  17 2.94   6 2.94
  21  0.749  0.000  0.749-   5 2.78  16 2.78  20 2.81  14 2.83  27 2.83   7 2.83  19 2.83   1 2.88
                            22 2.88  29 2.88  23 2.88  30 2.88
  22  0.745  0.256  0.501-  23 2.80  13 2.82  28 2.82  16 2.84  20 2.85   8 2.85  24 2.87  21 2.88
                            19 2.88   6 2.90   4 2.92
  23  0.501  0.256  0.745-  22 2.80  25 2.82  28 2.82   5 2.84  20 2.85  18 2.85  12 2.87  21 2.88
                             7 2.88  17 2.90   3 2.92
  24  0.003  0.500  0.499-   4 2.82  11 2.82  25 2.84  22 2.87  29 2.87  13 2.88  28 2.88  19 2.90
                            27 2.90  26 2.91  18 2.91  31 3.17
  25  0.251  0.500  0.747-  23 2.82  30 2.82  24 2.84  10 2.87   3 2.87  12 2.88   9 2.88  19 2.90
                            27 2.90  18 2.91  26 2.91  31 3.17
  26  0.239  0.772  0.511-  31 2.70  17 2.75  16 2.75  27 2.77  20 2.83   2 2.83  30 2.85  11 2.85
                            25 2.91  24 2.91  15 3.12
  27  0.996  0.753  0.754-  26 2.77  14 2.78   1 2.83  21 2.83   9 2.85  28 2.85  17 2.86  16 2.86
                            10 2.88  29 2.88  25 2.90  24 2.90
  28  0.750  0.500  0.750-  22 2.82  23 2.82  29 2.82  30 2.82   7 2.85  19 2.85  14 2.85  27 2.85
                             9 2.86  24 2.88  12 2.88
  29  0.745  0.744  0.501-  30 2.80  13 2.82  28 2.82  16 2.84  20 2.85  15 2.85  24 2.87  21 2.88
                            27 2.88   6 2.90  11 2.92
  30  0.501  0.744  0.745-  29 2.80  25 2.82  28 2.82   5 2.84  20 2.85  26 2.85  12 2.87  21 2.88
                            14 2.88  17 2.90  10 2.92
  31  0.375  0.500  0.375-   8 2.70  15 2.70  18 2.70  26 2.70  25 3.17  13 3.17  12 3.17  24 3.17

 
  LATTYP: Found a simple cubic cell.
 ALAT       =     8.0870520000
  
  Lattice vectors:
  
 A1 = (   8.0870520000,   0.0000000000,   0.0000000000)
 A2 = (   0.0000000000,   8.0870520000,   0.0000000000)
 A3 = (   0.0000000000,   0.0000000000,   8.0870520000)
 Subroutine PRICEL returns:
 Original cell was already a primitive cell.
 

Analysis of symmetry for initial positions (statically):

 Routine SETGRP: Setting up the symmetry group for a 
 simple cubic supercell.


 Subroutine GETGRP returns: Found  8 space group operations
 (whereof  4 operations were pure point group operations)
 out of a pool of 48 trial point group operations.


The static configuration has the point symmetry C_2v.
 The point group associated with its full space group is D_2h.

Analysis of symmetry for dynamics (positions and initial velocities):

 Subroutine DYNSYM returns: Found  8 space group operations
 (whereof  4 operations were pure point group operations)
 out of a pool of  8 trial space group operations
 (whereof  4 operations were pure point group operations)
 and found also     1 'primitive' translations


The dynamic configuration has the point symmetry C_2v.
 The point group associated with its full space group is D_2h.

Analysis of constrained symmetry for selective dynamics:

 Subroutine DYNSYM returns: Found  8 space group operations
 (whereof  4 operations were pure point group operations)
 out of a pool of  8 trial space group operations
 (whereof  4 operations were pure point group operations)
 and found also     1 'primitive' translations


The constrained configuration has the point symmetry C_2v.
 The point group associated with its full space group is D_2h.
 
 
 KPOINTS: Automatic kpoint scheme                 

Automatic generation of k-mesh.
 
 Subroutine IBZKPT returns following result:
 ===========================================
 
 Found      2 irreducible k-points:
 
 Following reciprocal coordinates:
            Coordinates               Weight
  0.250000  0.250000  0.250000      4.000000
 -0.250000  0.250000  0.250000      4.000000
 
 Following cartesian coordinates:
            Coordinates               Weight
  0.030914  0.030914  0.030914      4.000000
 -0.030914  0.030914  0.030914      4.000000
 
 
 Subroutine IBZKPT_HF returns following result:
 ==============================================
 
 Found      8 k-points in 1st BZ
 the following      8 k-points will be used (e.g. in the exchange kernel)
 Following reciprocal coordinates:   # in IRBZ
  0.250000  0.250000  0.250000       1
 -0.250000  0.250000  0.250000       2
  0.250000 -0.250000  0.250000       1
 -0.250000 -0.250000 -0.250000       1
 -0.250000  0.250000 -0.250000       1
  0.250000 -0.250000 -0.250000       2
 -0.250000 -0.250000  0.250000       2
  0.250000  0.250000 -0.250000       2


--------------------------------------------------------------------------------------------------------




 Dimension of arrays:
   k-points           NKPTS =      2   k-points in BZ     NKDIM =      2   number of bands    NBANDS=     72
   number of dos      NEDOS =    301   number of ions     NIONS =     31
   non local maximal  LDIM  =      4   non local SUM 2l+1 LMDIM =      8
   total plane-waves  NPLWV = 110592
   max r-space proj   IRMAX =      1   max aug-charges    IRDMAX=   9081
   dimension x,y,z NGX =    48 NGY =   48 NGZ =   48
   dimension x,y,z NGXF=    96 NGYF=   96 NGZF=   96
   support grid    NGXF=    96 NGYF=   96 NGZF=   96
   ions per type =              30   1
 NGX,Y,Z   is equivalent  to a cutoff of   9.87,  9.87,  9.87 a.u.
 NGXF,Y,Z  is equivalent  to a cutoff of  19.73, 19.73, 19.73 a.u.


 I would recommend the setting:
   dimension x,y,z NGX =    46 NGY =   46 NGZ =   46
 SYSTEM =  unknown system                          
 POSCAR =  Mg1 Al30                                

 Startparameter for this run:
   NWRITE =      2    write-flag & timer
   PREC   = accura    medium, high low
   ISTART =      0    job   : 0-new  1-cont  2-samecut
   ICHARG =      2    charge: 1-file 2-atom 10-const
   ISPIN  =      1    spin polarized calculation?
   LNONCOLLINEAR =      F non collinear calculations
   LSORBIT =      F    spin-orbit coupling
   INIWAV =      1    electr: 0-lowe 1-rand  2-diag
   LASPH  =      F    aspherical Exc in radial PAW
   METAGGA=      F    non-selfconsistent MetaGGA calc.

 Electronic Relaxation 1
   ENCUT  =  300.0 eV  22.05 Ry    4.70 a.u.  11.42 11.42 11.42*2*pi/ulx,y,z
   ENINI  =  300.0     initial cutoff
   ENAUG  =  291.1 eV  augmentation charge cutoff
   NELM   =     60;   NELMIN=  2; NELMDL=  0     # of ELM steps 
   EDIFF  = 0.1E-05   stopping-criterion for ELM
   LREAL  =      F    real-space projection
   LCOMPAT=      F    compatible to vasp.4.4
   LREAL_COMPAT= F    compatible to vasp.4.5.1-3
   GGA_COMPAT  = T    GGA compatible to vasp.4.4-vasp.4.6
   LMAXPAW     = -100 max onsite density
   LMAXMIX     =    2 max onsite mixed and CHGCAR
   VOSKOWN=      0    Vosko Wilk Nusair interpolation
   ROPT   =    0.00000   0.00000
 Ionic relaxation
   EDIFFG = 0.5E-01   stopping-criterion for IOM
   NSW    =    382    number of steps for IOM
   NBLOCK =      1;   KBLOCK =    191    inner block; outer block 
   IBRION =      5    ionic relax: 0-MD 1-quasi-New 2-CG
   NFREE  =      2    steps in history (QN), initial steepest desc. (CG)
   ISIF   =      2    stress and relaxation
   IWAVPR =     11    prediction:  0-non 1-charg 2-wave 3-comb
   ISYM   =      2    0-nonsym 1-usesym 2-fastsym
   LCORR  =      T    Harris-Foulkes like correction to forces

   POTIM  = 0.5000    time-step for ionic-motion
   TEIN   =    0.0    initial temperature
   TEBEG  =    0.0;   TEEND  =   0.0 temperature during run
   SMASS  =  -3.00    Nose mass-parameter (am)
   estimated Nose-frequenzy (Omega)   =  0.10E-29 period in steps =****** mass=  -0.149E-26a.u.
   NPACO  =    256;   APACO  = 16.0  distance and # of slots for P.C.
   PSTRESS=    0.0 pullay stress

  Mass of Ions in am
   POMASS =  26.98 24.30
  Ionic Valenz
   ZVAL   =   3.00  2.00
  Atomic Wigner-Seitz radii
   RWIGS  =  -1.00 -1.00
   NELECT =      92.0000    total number of electrons
   NUPDOWN=      -1.0000    fix difference up-down

 DOS related values:
   EMIN   =  10.00;   EMAX   =-10.00  energy-range for DOS
   EFERMI =   0.00
   ISMEAR =     1;   SIGMA  =   0.20  broadening in eV -4-tet -1-fermi 0-gaus

 Electronic relaxation 2 (details)
   IALGO  =     48    algorithm
   LDIAG  =      T    sub-space diagonalisation
   IMIX   =      4    mixing-type and parameters
     AMIX     =   0.40;   BMIX     =  1.00
     AMIX_MAG =   1.60;   BMIX_MAG =  1.00
     AMIN     =   0.10
     WC   =   100.;   INIMIX=   1;  MIXPRE=   1

 Intra band minimization:
   WEIMIN = 0.0010     energy-eigenvalue tresh-hold
   EBREAK =  0.40E-08  absolut break condition
   DEPER  =   0.30     relativ break condition  

   TIME   =   0.40     timestep for ELM

  volume/ion in A,a.u.               =      17.06       115.13
  Fermi-wavevector in a.u.,A,eV,Ry     =   0.913862  1.726948 11.362816  0.835143
  Thomas-Fermi vector in A             =   2.038422
 
 Write flags
   LWAVE  =      F    write WAVECAR
   LCHARG =      F    write CHGCAR
   LVTOT  =      F    write LOCPOT, local potential
   LELF   =      F    write electronic localiz. function (ELF)
   LORBIT =      0    0 simple, 1 ext, 2 COOP (PROOUT)


 Dipole corrections
   LMONO  =      F    monopole corrections only (constant potential shift)
   LDIPOL =      F    correct potential (dipole corrections)
   IDIPOL =      0    1-x, 2-y, 3-z, 4-all directions 
   EPSILON=  1.0000000 bulk dielectric constant

 Exchange correlation treatment:
   GGA     =    --    GGA type
   LEXCH   =     8    internal setting for exchange type
   VOSKOWN=      0    Vosko Wilk Nusair interpolation
   LHFCALC =     F    Hartree Fock is set to
   LHFONE  =     F    Hartree Fock one center treatment
   AEXX    =    0.0000 exact exchange contribution

 Linear response parameters
   LEPSILON=     F    determine dielectric tensor
   LRPA    =     F    only Hartree local field effects (RPA)
   LNABLA  =     F    use nabla operator in PAW spheres
   LVEL    =     F    velocity operator in full k-point grid
   LINTERFAST=   F  fast interpolation
   KINTER  =     0    interpolate to denser k-point grid
   CSHIFT  =0.1000    complex shift for real part using Kramers Kronig
   OMEGAMAX=  -1.0    maximum frequency

 Orbital magnetization related:
   ORBITALMAG=     F  switch on orbital magnetization
   LCHIMAG   =     F  perturbation theory with respect to B field



--------------------------------------------------------------------------------------------------------


 finite differences
   using selective dynamics as specified on POSCAR
 charge density and potential will be updated during run
 non-spin polarized calculation
 RMM-DIIS sequential band-by-band
 perform sub-space diagonalisation
    before iterative eigenvector-optimisation
 modified Broyden-mixing scheme, WC =      100.0
 initial mixing is a Kerker type mixing with AMIX =  0.4000 and BMIX =      1.0000
 Hartree-type preconditioning will be used
 using additional bands           26
 reciprocal scheme for non local part
 use partial core corrections
 calculate Harris-corrections to forces 
   (improved forces if not selfconsistent)
 use gradient corrections 
 use of overlap-Matrix (Vanderbilt PP)
 Methfessel and Paxton  Order N= 1 SIGMA  =   0.20


--------------------------------------------------------------------------------------------------------


  energy-cutoff  :      300.00
  volume of cell :      528.90
      direct lattice vectors                 reciprocal lattice vectors
     8.087052000  0.000000000  0.000000000     0.123654454  0.000000000  0.000000000
     0.000000000  8.087052000  0.000000000     0.000000000  0.123654454  0.000000000
     0.000000000  0.000000000  8.087052000     0.000000000  0.000000000  0.123654454

  length of vectors
     8.087052000  8.087052000  8.087052000     0.123654454  0.123654454  0.123654454


 
 k-points in units of 2pi/SCALE and weight: Automatic kpoint scheme                 
   0.03091361  0.03091361  0.03091361       0.500
  -0.03091361  0.03091361  0.03091361       0.500
 
 k-points in reciprocal lattice and weights: Automatic kpoint scheme                 
   0.25000000  0.25000000  0.25000000       0.500
  -0.25000000  0.25000000  0.25000000       0.500
 
 position of ions in fractional coordinates (direct lattice) 
   0.00090600  0.00000000  0.00090600
   0.24684900  0.00000000  0.24684900
   0.24947500  0.25556300  0.00486800
   0.00486800  0.25556300  0.24947500
   0.50022800  0.00000000  0.98624300
   0.76375700  0.00000000  0.24977300
   0.75355500  0.24728000  0.99644600
   0.51143300  0.22809400  0.23856800
   0.99998300  0.50000000  0.99998300
   0.24947500  0.74443700  0.00486800
   0.00486800  0.74443700  0.24947500
   0.49876600  0.50000000  0.00318600
   0.74681300  0.50000000  0.25123200
   0.75355500  0.75272100  0.99644600
   0.51143300  0.77190600  0.23856800
   0.98624300  0.00000000  0.50022800
   0.24977300  0.00000000  0.76375700
   0.23856800  0.22809400  0.51143300
   0.99644600  0.24728000  0.75355500
   0.50315100  0.00000000  0.50315100
   0.74909400  0.00000000  0.74909400
   0.74513100  0.25556300  0.50052600
   0.50052600  0.25556300  0.74513100
   0.00318600  0.50000000  0.49876600
   0.25123200  0.50000000  0.74681300
   0.23856800  0.77190600  0.51143300
   0.99644600  0.75272100  0.75355500
   0.75001800  0.50000000  0.75001800
   0.74513100  0.74443700  0.50052600
   0.50052600  0.74443700  0.74513100
   0.37500000  0.50000000  0.37500000
 
 position of ions in cartesian coordinates  (Angst):
   0.00732687  0.00000000  0.00732687
   1.99628070  0.00000000  1.99628070
   2.01751730  2.06675127  0.03936777
   0.03936777  2.06675127  2.01751730
   4.04536985  0.00000000  7.97579843
   6.17654257  0.00000000  2.01992724
   6.09403847  1.99976622  8.05831062
   4.13598527  1.84460804  1.92931182
   8.08691452  4.04352600  8.08691452
   2.01751730  6.02030073  0.03936777
   0.03936777  6.02030073  2.01751730
   4.03354658  4.04352600  0.02576535
   6.03951557  4.04352600  2.03172625
   6.09403847  6.08729387  8.05831062
   4.13598527  6.24244396  1.92931182
   7.97579843  0.00000000  4.04536985
   2.01992724  0.00000000  6.17654257
   1.92931182  1.84460804  4.13598527
   8.05831062  1.99976622  6.09403847
   4.06900830  0.00000000  4.06900830
   6.05796213  0.00000000  6.05796213
   6.02591314  2.06675127  4.04777979
   4.04777979  2.06675127  6.02591314
   0.02576535  4.04352600  4.03354658
   2.03172625  4.04352600  6.03951557
   1.92931182  6.24244396  4.13598527
   8.05831062  6.08729387  6.09403847
   6.06543457  4.04352600  6.06543457
   6.02591314  6.02030073  4.04777979
   4.04777979  6.02030073  6.02591314
   3.03264450  4.04352600  3.03264450
 


--------------------------------------------------------------------------------------------------------


 k-point  1 :  0.25000.25000.2500  plane waves:    6238
 k-point  2 :  -.25000.25000.2500  plane waves:    6238

 maximum and minimum number of plane-waves per node :    6238   6238

 maximum number of plane-waves:    6238
 maximal index in each direction: 
   IXMAX= 11   IYMAX= 11   IZMAX= 11
   IXMIN=-11   IYMIN=-11   IZMIN=-11

 NGX is ok and might be reduce to  46
 NGY is ok and might be reduce to  46
 NGZ is ok and might be reduce to  46

 serial   3D FFT for wavefunctions
 parallel 3D FFT for charge:
    minimum data exchange during FFTs selected (reduces bandwidth)


 total amount of memory used by VASP on root node  60642. kBytes
========================================================================

   base      :    30000. kBytes
   nonl-proj :     4692. kBytes
   fftplans  :     2983. kBytes
   grid      :    21626. kBytes
   one-center:       95. kBytes
   wavefun   :     1246. kBytes
 
 Broyden mixing: mesh for mixing (old mesh)
   NGX = 23   NGY = 23   NGZ = 23
  (NGX  = 96   NGY  = 96   NGZ  = 96)
  gives a total of  12167 points

 initial charge density was supplied:
 charge density of overlapping atoms calculated
 number of electron   92.0000000 magnetization 
 keeping initial charge density in first step


--------------------------------------------------------------------------------------------------------


 Maximum index for augmentation-charges          619 (set IRDMAX)


--------------------------------------------------------------------------------------------------------


 First call to EWALD:  gamma=   0.219
 Maximum number of real-space cells 3x 3x 3
 Maximum number of reciprocal cells 3x 3x 3

    FEWALD:  cpu time    0.01: real time    0.01
   RESPFUN:  cpu time    0.00: real time    0.00


----------------------------------------- Iteration    1(   1)  ---------------------------------------


    POTLOK:  cpu time    0.15: real time    0.15
    SETDIJ:  cpu time    0.01: real time    0.01
    EDDIAG:  cpu time    0.30: real time    0.30
  RMM-DIIS:  cpu time    0.68: real time    0.68
    ORTHCH:  cpu time    0.02: real time    0.02
       DOS:  cpu time    0.00: real time    0.00
    --------------------------------------------
      LOOP:  cpu time    1.17: real time    1.17

 eigenvalue-minimisations  :   144
 total energy-change (2. order) : 0.2324757E+03  (-0.1550232E+04)
 number of electron   92.0000000 magnetization 
 augmentation part    92.0000000 magnetization 

 Free energy of the ion-electron system (eV)
  ---------------------------------------------------
  alpha Z        PSCENC =        -7.38313139
  Ewald energy   TEWEN  =     -2176.46779687
  -1/2 Hartree   DENC   =       -27.65180422
  -exchange  EXHF       =         0.00000000
  -V(xc)+E(xc)   XCENC  =      -796.31441840
  PAW double counting   =      1078.21717227     -108.50372521
  entropy T*S    EENTRO =        -0.00632502
  eigenvalues    EBANDS =       641.45432194
  atomic energy  EATOM  =      1629.13144109
  ---------------------------------------------------
  free energy    TOTEN  =       232.47573420 eV

  energy without entropy =      232.48205922  energy(sigma->0) =      232.47784254


--------------------------------------------------------------------------------------------------------




----------------------------------------- Iteration    1(   2)  ---------------------------------------


    EDDIAG:  cpu time    0.30: real time    0.30
  RMM-DIIS:  cpu time    0.68: real time    0.68
    ORTHCH:  cpu time    0.02: real time    0.02
       DOS:  cpu time    0.00: real time    0.00
    --------------------------------------------
      LOOP:  cpu time    1.00: real time    1.01

 eigenvalue-minimisations  :   144
 total energy-change (2. order) :-0.2713698E+03  (-0.2602450E+03)
 number of electron   92.0000000 magnetization 
 augmentation part    92.0000000 magnetization 

 Free energy of the ion-electron system (eV)
  ---------------------------------------------------
  alpha Z        PSCENC =        -7.38313139
  Ewald energy   TEWEN  =     -2176.46779687
  -1/2 Hartree   DENC   =       -27.65180422
  -exchange  EXHF       =         0.00000000
  -V(xc)+E(xc)   XCENC  =      -796.31441840
  PAW double counting   =      1078.21717227     -108.50372521
  entropy T*S    EENTRO =        -0.04067662
  eigenvalues    EBANDS =       370.11885772
  atomic energy  EATOM  =      1629.13144109
  ---------------------------------------------------
  free energy    TOTEN  =       -38.89408162 eV

  energy without entropy =      -38.85340500  energy(sigma->0) =      -38.88052275


--------------------------------------------------------------------------------------------------------




----------------------------------------- Iteration    1(   3)  ---------------------------------------


    EDDIAG:  cpu time    0.30: real time    0.30
  RMM-DIIS:  cpu time    0.69: real time    0.69
    ORTHCH:  cpu time    0.02: real time    0.02
       DOS:  cpu time    0.00: real time    0.00
    --------------------------------------------
      LOOP:  cpu time    1.01: real time    1.01

 eigenvalue-minimisations  :   144
 total energy-change (2. order) :-0.5570710E+02  (-0.5443781E+02)
 number of electron   92.0000000 magnetization 
 augmentation part    92.0000000 magnetization 

 Free energy of the ion-electron system (eV)
  ---------------------------------------------------
  alpha Z        PSCENC =        -7.38313139
  Ewald energy   TEWEN  =     -2176.46779687
  -1/2 Hartree   DENC   =       -27.65180422
  -exchange  EXHF       =         0.00000000
  -V(xc)+E(xc)   XCENC  =      -796.31441840
  PAW double counting   =      1078.21717227     -108.50372521
  entropy T*S    EENTRO =        -0.05404411
  eigenvalues    EBANDS =       314.42512696
  atomic energy  EATOM  =      1629.13144109
  ---------------------------------------------------
  free energy    TOTEN  =       -94.60117987 eV

  energy without entropy =      -94.54713576  energy(sigma->0) =      -94.58316516


--------------------------------------------------------------------------------------------------------




----------------------------------------- Iteration    1(   4)  ---------------------------------------


    EDDIAG:  cpu time    0.30: real time    0.30
  RMM-DIIS:  cpu time    0.68: real time    0.68
    ORTHCH:  cpu time    0.02: real time    0.02
       DOS:  cpu time    0.00: real time    0.00
    --------------------------------------------
      LOOP:  cpu time    1.00: real time    1.01

 eigenvalue-minimisations  :   144
 total energy-change (2. order) :-0.1241245E+02  (-0.1087870E+02)
 number of electron   92.0000000 magnetization 
 augmentation part    92.0000000 magnetization 

 Free energy of the ion-electron system (eV)
  ---------------------------------------------------
  alpha Z        PSCENC =        -7.38313139
  Ewald energy   TEWEN  =     -2176.46779687
  -1/2 Hartree   DENC   =       -27.65180422
  -exchange  EXHF       =         0.00000000
  -V(xc)+E(xc)   XCENC  =      -796.31441840
  PAW double counting   =      1078.21717227     -108.50372521
  entropy T*S    EENTRO =         0.09195423
  eigenvalues    EBANDS =       301.86667511
  atomic energy  EATOM  =      1629.13144109
  ---------------------------------------------------
  free energy    TOTEN  =      -107.01363338 eV

  energy without entropy =     -107.10558761  energy(sigma->0) =     -107.04428479


--------------------------------------------------------------------------------------------------------




----------------------------------------- Iteration    1(   5)  ---------------------------------------


    EDDIAG:  cpu time    0.30: real time    0.30
  RMM-DIIS:  cpu time    0.69: real time    0.69
    ORTHCH:  cpu time    0.02: real time    0.02
       DOS:  cpu time    0.00: real time    0.00
    --------------------------------------------
      LOOP:  cpu time    1.01: real time    1.01

 eigenvalue-minimisations  :   144
 total energy-change (2. order) :-0.4180890E+01  (-0.3134031E+01)
 number of electron   92.0000000 magnetization 
 augmentation part    92.0000000 magnetization 

 Free energy of the ion-electron system (eV)
  ---------------------------------------------------
  alpha Z        PSCENC =        -7.38313139
  Ewald energy   TEWEN  =     -2176.46779687
  -1/2 Hartree   DENC   =       -27.65180422
  -exchange  EXHF       =         0.00000000
  -V(xc)+E(xc)   XCENC  =      -796.31441840
  PAW double counting   =      1078.21717227     -108.50372521
  entropy T*S    EENTRO =         0.03011342
  eigenvalues    EBANDS =       297.74762562
  atomic energy  EATOM  =      1629.13144109
  ---------------------------------------------------
  free energy    TOTEN  =      -111.19452368 eV

  energy without entropy =     -111.22463709  energy(sigma->0) =     -111.20456148


--------------------------------------------------------------------------------------------------------




----------------------------------------- Iteration    1(   6)  ---------------------------------------


    EDDIAG:  cpu time    0.30: real time    0.30
  RMM-DIIS:  cpu time    0.69: real time    0.69
    ORTHCH:  cpu time    0.02: real time    0.02
       DOS:  cpu time    0.00: real time    0.00
    --------------------------------------------
      LOOP:  cpu time    1.01: real time    1.01

 eigenvalue-minimisations  :   144
 total energy-change (2. order) :-0.1329010E+01  (-0.9937815E+00)
 number of electron   92.0000000 magnetization 
 augmentation part    92.0000000 magnetization 

 Free energy of the ion-electron system (eV)
  ---------------------------------------------------
  alpha Z        PSCENC =        -7.38313139
  Ewald energy   TEWEN  =     -2176.46779687
  -1/2 Hartree   DENC   =       -27.65180422
  -exchange  EXHF       =         0.00000000
  -V(xc)+E(xc)   XCENC  =      -796.31441840
  PAW double counting   =      1078.21717227     -108.50372521
  entropy T*S    EENTRO =         0.00313001
  eigenvalues    EBANDS =       296.44559900
  atomic energy  EATOM  =      1629.13144109
  ---------------------------------------------------
  free energy    TOTEN  =      -112.52353371 eV

  energy without entropy =     -112.52666372  energy(sigma->0) =     -112.52457704


--------------------------------------------------------------------------------------------------------




----------------------------------------- Iteration    1(   7)  ---------------------------------------


    EDDIAG:  cpu time    0.30: real time    0.30
  RMM-DIIS:  cpu time    0.69: real time    0.69
    ORTHCH:  cpu time    0.02: real time    0.02
       DOS:  cpu time    0.00: real time    0.00
    --------------------------------------------
      LOOP:  cpu time    1.01: real time    1.01

 eigenvalue-minimisations  :   144
 total energy-change (2. order) :-0.4515012E+00  (-0.3482622E+00)
 number of electron   92.0000000 magnetization 
 augmentation part    92.0000000 magnetization 

 Free energy of the ion-electron system (eV)
  ---------------------------------------------------
  alpha Z        PSCENC =        -7.38313139
  Ewald energy   TEWEN  =     -2176.46779687
  -1/2 Hartree   DENC   =       -27.65180422
  -exchange  EXHF       =         0.00000000
  -V(xc)+E(xc)   XCENC  =      -796.31441840
  PAW double counting   =      1078.21717227     -108.50372521
  entropy T*S    EENTRO =        -0.01173414
  eigenvalues    EBANDS =       296.00896198
  atomic energy  EATOM  =      1629.13144109
  ---------------------------------------------------
  free energy    TOTEN  =      -112.97503487 eV

  energy without entropy =     -112.96330073  energy(sigma->0) =     -112.97112349


--------------------------------------------------------------------------------------------------------




----------------------------------------- Iteration    1(   8)  ---------------------------------------


    EDDIAG:  cpu time    0.30: real time    0.30
  RMM-DIIS:  cpu time    0.70: real time    0.70
    ORTHCH:  cpu time    0.02: real time    0.02
       DOS:  cpu time    0.00: real time    0.00
    --------------------------------------------
      LOOP:  cpu time    1.02: real time    1.03

 eigenvalue-minimisations  :   144
 total energy-change (2. order) :-0.1668163E+00  (-0.1325226E+00)
 number of electron   92.0000000 magnetization 
 augmentation part    92.0000000 magnetization 

 Free energy of the ion-electron system (eV)
  ---------------------------------------------------
  alpha Z        PSCENC =        -7.38313139
  Ewald energy   TEWEN  =     -2176.46779687
  -1/2 Hartree   DENC   =       -27.65180422
  -exchange  EXHF       =         0.00000000
  -V(xc)+E(xc)   XCENC  =      -796.31441840
  PAW double counting   =      1078.21717227     -108.50372521
  entropy T*S    EENTRO =        -0.01095463
  eigenvalues    EBANDS =       295.84136619
  atomic energy  EATOM  =      1629.13144109
  ---------------------------------------------------
  free energy    TOTEN  =      -113.14185116 eV

  energy without entropy =     -113.13089653  energy(sigma->0) =     -113.13819962


--------------------------------------------------------------------------------------------------------




----------------------------------------- Iteration    1(   9)  ---------------------------------------


    EDDIAG:  cpu time    0.30: real time    0.30
  RMM-DIIS:  cpu time    1.42: real time    1.42
    ORTHCH:  cpu time    0.02: real time    0.02
       DOS:  cpu time    0.00: real time    0.00
    --------------------------------------------
      LOOP:  cpu time    1.74: real time    1.74

 eigenvalue-minimisations  :   332
 total energy-change (2. order) :-0.8889739E-01  (-0.7945868E-01)
 number of electron   92.0000000 magnetization 
 augmentation part    92.0000000 magnetization 

 Free energy of the ion-electron system (eV)
  ---------------------------------------------------
  alpha Z        PSCENC =        -7.38313139
  Ewald energy   TEWEN  =     -2176.46779687
  -1/2 Hartree   DENC   =       -27.65180422
  -exchange  EXHF       =         0.00000000
  -V(xc)+E(xc)   XCENC  =      -796.31441840
  PAW double counting   =      1078.21717227     -108.50372521
  entropy T*S    EENTRO =        -0.00744886
  eigenvalues    EBANDS =       295.74896302
  atomic energy  EATOM  =      1629.13144109
  ---------------------------------------------------
  free energy    TOTEN  =      -113.23074855 eV

  energy without entropy =     -113.22329969  energy(sigma->0) =     -113.22826560


--------------------------------------------------------------------------------------------------------




----------------------------------------- Iteration    1(  10)  ---------------------------------------


    EDDIAG:  cpu time    0.30: real time    0.30
  RMM-DIIS:  cpu time    1.48: real time    1.48
    ORTHCH:  cpu time    0.02: real time    0.02
       DOS:  cpu time    0.00: real time    0.00
    --------------------------------------------
      LOOP:  cpu time    1.80: real time    1.80

 eigenvalue-minimisations  :   345
 total energy-change (2. order) :-0.1154964E-01  (-0.7669665E-02)
 number of electron   92.0000000 magnetization 
 augmentation part    92.0000000 magnetization 

 Free energy of the ion-electron system (eV)
  ---------------------------------------------------
  alpha Z        PSCENC =        -7.38313139
  Ewald energy   TEWEN  =     -2176.46779687
  -1/2 Hartree   DENC   =       -27.65180422
  -exchange  EXHF       =         0.00000000
  -V(xc)+E(xc)   XCENC  =      -796.31441840
  PAW double counting   =      1078.21717227     -108.50372521
  entropy T*S    EENTRO =        -0.00688782
  eigenvalues    EBANDS =       295.73685235
  atomic energy  EATOM  =      1629.13144109
  ---------------------------------------------------
  free energy    TOTEN  =      -113.24229819 eV

  energy without entropy =     -113.23541037  energy(sigma->0) =     -113.24000225


--------------------------------------------------------------------------------------------------------




----------------------------------------- Iteration    1(  11)  ---------------------------------------


    EDDIAG:  cpu time    0.30: real time    0.30
  RMM-DIIS:  cpu time    1.22: real time    1.22
    ORTHCH:  cpu time    0.02: real time    0.02
       DOS:  cpu time    0.00: real time    0.00
    --------------------------------------------
      LOOP:  cpu time    1.54: real time    1.54

 eigenvalue-minimisations  :   294
 total energy-change (2. order) :-0.4642831E-03  (-0.2817945E-03)
 number of electron   92.0000000 magnetization 
 augmentation part    92.0000000 magnetization 

 Free energy of the ion-electron system (eV)
  ---------------------------------------------------
  alpha Z        PSCENC =        -7.38313139
  Ewald energy   TEWEN  =     -2176.46779687
  -1/2 Hartree   DENC   =       -27.65180422
  -exchange  EXHF       =         0.00000000
  -V(xc)+E(xc)   XCENC  =      -796.31441840
  PAW double counting   =      1078.21717227     -108.50372521
  entropy T*S    EENTRO =        -0.00690863
  eigenvalues    EBANDS =       295.73640887
  atomic energy  EATOM  =      1629.13144109
  ---------------------------------------------------
  free energy    TOTEN  =      -113.24276248 eV

  energy without entropy =     -113.23585384  energy(sigma->0) =     -113.24045960


--------------------------------------------------------------------------------------------------------




----------------------------------------- Iteration    1(  12)  ---------------------------------------


    EDDIAG:  cpu time    0.30: real time    0.30
  RMM-DIIS:  cpu time    1.14: real time    1.14
    ORTHCH:  cpu time    0.02: real time    0.02
       DOS:  cpu time    0.00: real time    0.00
    CHARGE:  cpu time    0.19: real time    0.19
    MIXING:  cpu time    0.00: real time    0.00
    --------------------------------------------
      LOOP:  cpu time    1.66: real time    1.66

 eigenvalue-minimisations  :   261
 total energy-change (2. order) :-0.1898563E-04  (-0.1753375E-04)
 number of electron   91.9999998 magnetization 
 augmentation part    -1.1048665 magnetization 

 Broyden mixing:
  rms(total) = 0.54685E+00    rms(broyden)= 0.54683E+00
  rms(prec ) = 0.97593E+00
  weight for this iteration     100.00

 Free energy of the ion-electron system (eV)
  ---------------------------------------------------
  alpha Z        PSCENC =        -7.38313139
  Ewald energy   TEWEN  =     -2176.46779687
  -1/2 Hartree   DENC   =       -27.65180422
  -exchange  EXHF       =         0.00000000
  -V(xc)+E(xc)   XCENC  =      -796.31441840
  PAW double counting   =      1078.21717227     -108.50372521
  entropy T*S    EENTRO =        -0.00690725
  eigenvalues    EBANDS =       295.73638851
  atomic energy  EATOM  =      1629.13144109
  ---------------------------------------------------
  free energy    TOTEN  =      -113.24278146 eV

  energy without entropy =     -113.23587421  energy(sigma->0) =     -113.24047905


--------------------------------------------------------------------------------------------------------




----------------------------------------- Iteration    1(  13)  ---------------------------------------


    POTLOK:  cpu time    0.15: real time    0.15
    SETDIJ:  cpu time    0.01: real time    0.01
    EDDIAG:  cpu time    0.30: real time    0.30
  RMM-DIIS:  cpu time    1.21: real time    1.21
    ORTHCH:  cpu time    0.02: real time    0.02
       DOS:  cpu time    0.00: real time    0.00
    CHARGE:  cpu time    0.19: real time    0.19
    MIXING:  cpu time    0.00: real time    0.00
    --------------------------------------------
      LOOP:  cpu time    1.88: real time    1.89

 eigenvalue-minimisations  :   288
 total energy-change (2. order) : 0.8265752E+00  (-0.1063857E+00)
 number of electron   91.9999998 magnetization 
 augmentation part    -1.1132560 magnetization 

 Broyden mixing:
  rms(total) = 0.33044E+00    rms(broyden)= 0.33043E+00
  rms(prec ) = 0.49382E+00
  weight for this iteration     100.00

 eigenvalues of (default mixing * dielectric matrix)
  average eigenvalue GAMMA=   2.3400
  2.3400

 Free energy of the ion-electron system (eV)
  ---------------------------------------------------
  alpha Z        PSCENC =        -7.38313139
  Ewald energy   TEWEN  =     -2176.46779687
  -1/2 Hartree   DENC   =       -30.08161004
  -exchange  EXHF       =         0.00000000
  -V(xc)+E(xc)   XCENC  =      -795.16650489
  PAW double counting   =      1080.89767207     -111.33482913
  entropy T*S    EENTRO =        -0.00343202
  eigenvalues    EBANDS =       297.99198493
  atomic energy  EATOM  =      1629.13144109
  ---------------------------------------------------
  free energy    TOTEN  =      -112.41620624 eV

  energy without entropy =     -112.41277422  energy(sigma->0) =     -112.41506224


--------------------------------------------------------------------------------------------------------




----------------------------------------- Iteration    1(  14)  ---------------------------------------


    POTLOK:  cpu time    0.15: real time    0.15
    SETDIJ:  cpu time    0.01: real time    0.01
    EDDIAG:  cpu time    0.30: real time    0.30
  RMM-DIIS:  cpu time    1.19: real time    1.19
    ORTHCH:  cpu time    0.02: real time    0.02
       DOS:  cpu time    0.00: real time    0.00
    CHARGE:  cpu time    0.19: real time    0.19
    MIXING:  cpu time    0.00: real time    0.00
    --------------------------------------------
      LOOP:  cpu time    1.86: real time    1.86

 eigenvalue-minimisations  :   288
 total energy-change (2. order) : 0.2388710E+00  (-0.1669605E-01)
 number of electron   91.9999998 magnetization 
 augmentation part    -1.1259867 magnetization 

 Broyden mixing:
  rms(total) = 0.15600E+00    rms(broyden)= 0.15600E+00
  rms(prec ) = 0.22934E+00
  weight for this iteration     100.00

 eigenvalues of (default mixing * dielectric matrix)
  average eigenvalue GAMMA=   1.8089
  2.5901  1.0277

 Free energy of the ion-electron system (eV)
  ---------------------------------------------------
  alpha Z        PSCENC =        -7.38313139
  Ewald energy   TEWEN  =     -2176.46779687
  -1/2 Hartree   DENC   =       -31.10399337
  -exchange  EXHF       =         0.00000000
  -V(xc)+E(xc)   XCENC  =      -794.02326750
  PAW double counting   =      1082.70041262     -113.28640232
  entropy T*S    EENTRO =        -0.00520791
  eigenvalues    EBANDS =       298.26061044
  atomic energy  EATOM  =      1629.13144109
  ---------------------------------------------------
  free energy    TOTEN  =      -112.17733522 eV

  energy without entropy =     -112.17212731  energy(sigma->0) =     -112.17559925


--------------------------------------------------------------------------------------------------------




----------------------------------------- Iteration    1(  15)  ---------------------------------------


    POTLOK:  cpu time    0.15: real time    0.15
    SETDIJ:  cpu time    0.01: real time    0.01
    EDDIAG:  cpu time    0.30: real time    0.30
  RMM-DIIS:  cpu time    1.21: real time    1.21
    ORTHCH:  cpu time    0.02: real time    0.02
       DOS:  cpu time    0.00: real time    0.00
    CHARGE:  cpu time    0.18: real time    0.18
    MIXING:  cpu time    0.00: real time    0.00
    --------------------------------------------
      LOOP:  cpu time    1.88: real time    1.88

 eigenvalue-minimisations  :   288
 total energy-change (2. order) : 0.6647749E-01  (-0.5255169E-02)
 number of electron   91.9999998 magnetization 
 augmentation part    -1.1389949 magnetization 

 Broyden mixing:
  rms(total) = 0.19373E-01    rms(broyden)= 0.19372E-01
  rms(prec ) = 0.34155E-01
  weight for this iteration     100.00

 eigenvalues of (default mixing * dielectric matrix)
  average eigenvalue GAMMA=   1.7412
  2.6190  1.0096  1.5950

 Free energy of the ion-electron system (eV)
  ---------------------------------------------------
  alpha Z        PSCENC =        -7.38313139
  Ewald energy   TEWEN  =     -2176.46779687
  -1/2 Hartree   DENC   =       -32.05701400
  -exchange  EXHF       =         0.00000000
  -V(xc)+E(xc)   XCENC  =      -792.95560082
  PAW double counting   =      1084.07079284     -114.80142923
  entropy T*S    EENTRO =        -0.00584905
  eigenvalues    EBANDS =       298.35772971
  atomic energy  EATOM  =      1629.13144109
  ---------------------------------------------------
  free energy    TOTEN  =      -112.11085772 eV

  energy without entropy =     -112.10500867  energy(sigma->0) =     -112.10890804


--------------------------------------------------------------------------------------------------------




----------------------------------------- Iteration    1(  16)  ---------------------------------------


    POTLOK:  cpu time    0.15: real time    0.15
    SETDIJ:  cpu time    0.01: real time    0.01
    EDDIAG:  cpu time    0.30: real time    0.30
  RMM-DIIS:  cpu time    1.22: real time    1.22
    ORTHCH:  cpu time    0.02: real time    0.02
       DOS:  cpu time    0.00: real time    0.00
    CHARGE:  cpu time    0.19: real time    0.19
    MIXING:  cpu time    0.00: real time    0.00
    --------------------------------------------
      LOOP:  cpu time    1.89: real time    1.89

 eigenvalue-minimisations  :   290
 total energy-change (2. order) : 0.1972418E-02  (-0.3796244E-03)
 number of electron   91.9999998 magnetization 
 augmentation part    -1.1424212 magnetization 

 Broyden mixing:
  rms(total) = 0.54060E-02    rms(broyden)= 0.54059E-02
  rms(prec ) = 0.92442E-02
  weight for this iteration     100.00

 eigenvalues of (default mixing * dielectric matrix)
  average eigenvalue GAMMA=   1.7892
  2.6508  2.2317  1.0532  1.2211

 Free energy of the ion-electron system (eV)
  ---------------------------------------------------
  alpha Z        PSCENC =        -7.38313139
  Ewald energy   TEWEN  =     -2176.46779687
  -1/2 Hartree   DENC   =       -32.06957491
  -exchange  EXHF       =         0.00000000
  -V(xc)+E(xc)   XCENC  =      -792.82874510
  PAW double counting   =      1084.33436612     -115.09567297
  entropy T*S    EENTRO =        -0.00568067
  eigenvalues    EBANDS =       298.27590938
  atomic energy  EATOM  =      1629.13144109
  ---------------------------------------------------
  free energy    TOTEN  =      -112.10888530 eV

  energy without entropy =     -112.10320464  energy(sigma->0) =     -112.10699175


--------------------------------------------------------------------------------------------------------




----------------------------------------- Iteration    1(  17)  ---------------------------------------


    POTLOK:  cpu time    0.15: real time    0.15
    SETDIJ:  cpu time    0.01: real time    0.01
    EDDIAG:  cpu time    0.30: real time    0.30
  RMM-DIIS:  cpu time    1.20: real time    1.20
    ORTHCH:  cpu time    0.02: real time    0.02
       DOS:  cpu time    0.00: real time    0.00
    CHARGE:  cpu time    0.19: real time    0.19
    MIXING:  cpu time    0.00: real time    0.00
    --------------------------------------------
      LOOP:  cpu time    1.87: real time    1.87

 eigenvalue-minimisations  :   288
 total energy-change (2. order) : 0.5130451E-04  (-0.5192557E-04)
 number of electron   91.9999998 magnetization 
 augmentation part    -1.1435998 magnetization 

 Broyden mixing:
  rms(total) = 0.13895E-02    rms(broyden)= 0.13894E-02
  rms(prec ) = 0.29225E-02
  weight for this iteration     100.00

 eigenvalues of (default mixing * dielectric matrix)
  average eigenvalue GAMMA=   1.7275
  2.6576  2.1535  1.7238  1.0514  1.0514

 Free energy of the ion-electron system (eV)
  ---------------------------------------------------
  alpha Z        PSCENC =        -7.38313139
  Ewald energy   TEWEN  =     -2176.46779687
  -1/2 Hartree   DENC   =       -32.03864340
  -exchange  EXHF       =         0.00000000
  -V(xc)+E(xc)   XCENC  =      -792.80647796
  PAW double counting   =      1084.39724496     -115.17042670
  entropy T*S    EENTRO =        -0.00541781
  eigenvalues    EBANDS =       298.23437408
  atomic energy  EATOM  =      1629.13144109
  ---------------------------------------------------
  free energy    TOTEN  =      -112.10883400 eV

  energy without entropy =     -112.10341619  energy(sigma->0) =     -112.10702806


--------------------------------------------------------------------------------------------------------




----------------------------------------- Iteration    1(  18)  ---------------------------------------


    POTLOK:  cpu time    0.15: real time    0.15
    SETDIJ:  cpu time    0.01: real time    0.02
    EDDIAG:  cpu time    0.30: real time    0.30
  RMM-DIIS:  cpu time    1.29: real time    1.29
    ORTHCH:  cpu time    0.02: real time    0.02
       DOS:  cpu time    0.00: real time    0.00
    CHARGE:  cpu time    0.19: real time    0.19
    MIXING:  cpu time    0.00: real time    0.00
    --------------------------------------------
      LOOP:  cpu time    1.97: real time    1.97

 eigenvalue-minimisations  :   303
 total energy-change (2. order) :-0.1398957E-05  (-0.4848609E-05)
 number of electron   91.9999998 magnetization 
 augmentation part    -1.1439871 magnetization 

 Broyden mixing:
  rms(total) = 0.63880E-03    rms(broyden)= 0.63878E-03
  rms(prec ) = 0.89411E-03
  weight for this iteration     100.00

 eigenvalues of (default mixing * dielectric matrix)
  average eigenvalue GAMMA=   1.7288
  2.6217  2.6217  0.9916  0.9916  1.5869  1.5597

 Free energy of the ion-electron system (eV)
  ---------------------------------------------------
  alpha Z        PSCENC =        -7.38313139
  Ewald energy   TEWEN  =     -2176.46779687
  -1/2 Hartree   DENC   =       -32.05774491
  -exchange  EXHF       =         0.00000000
  -V(xc)+E(xc)   XCENC  =      -792.80210782
  PAW double counting   =      1084.39161527     -115.16693769
  entropy T*S    EENTRO =        -0.00550247
  eigenvalues    EBANDS =       298.25132938
  atomic energy  EATOM  =      1629.13144109
  ---------------------------------------------------
  free energy    TOTEN  =      -112.10883540 eV

  energy without entropy =     -112.10333293  energy(sigma->0) =     -112.10700124


--------------------------------------------------------------------------------------------------------




----------------------------------------- Iteration    1(  19)  ---------------------------------------


    POTLOK:  cpu time    0.15: real time    0.15
    SETDIJ:  cpu time    0.01: real time    0.01
    EDDIAG:  cpu time    0.30: real time    0.30
  RMM-DIIS:  cpu time    1.01: real time    1.01
    ORTHCH:  cpu time    0.02: real time    0.02
       DOS:  cpu time    0.00: real time    0.00
    CHARGE:  cpu time    0.19: real time    0.19
    MIXING:  cpu time    0.00: real time    0.01
    --------------------------------------------
      LOOP:  cpu time    1.68: real time    1.68

 eigenvalue-minimisations  :   225
 total energy-change (2. order) :-0.6650474E-05  (-0.3952581E-06)
 number of electron   91.9999998 magnetization 
 augmentation part    -1.1440832 magnetization 

 Broyden mixing:
  rms(total) = 0.12906E-03    rms(broyden)= 0.12905E-03
  rms(prec ) = 0.23144E-03
  weight for this iteration     100.00

 eigenvalues of (default mixing * dielectric matrix)
  average eigenvalue GAMMA=   1.7000
  2.7294  2.5364  1.7104  1.7104  0.9824  0.9824  1.2485

 Free energy of the ion-electron system (eV)
  ---------------------------------------------------
  alpha Z        PSCENC =        -7.38313139
  Ewald energy   TEWEN  =     -2176.46779687
  -1/2 Hartree   DENC   =       -32.05913048
  -exchange  EXHF       =         0.00000000
  -V(xc)+E(xc)   XCENC  =      -792.80045497
  PAW double counting   =      1084.37202742     -115.14867914
  entropy T*S    EENTRO =        -0.00549836
  eigenvalues    EBANDS =       298.25238066
  atomic energy  EATOM  =      1629.13144109
  ---------------------------------------------------
  free energy    TOTEN  =      -112.10884205 eV

  energy without entropy =     -112.10334368  energy(sigma->0) =     -112.10700926


--------------------------------------------------------------------------------------------------------




----------------------------------------- Iteration    1(  20)  ---------------------------------------


    POTLOK:  cpu time    0.15: real time    0.15
    SETDIJ:  cpu time    0.01: real time    0.01
    EDDIAG:  cpu time    0.30: real time    0.30
  RMM-DIIS:  cpu time    0.83: real time    0.84
    ORTHCH:  cpu time    0.02: real time    0.02
       DOS:  cpu time    0.00: real time    0.00
    --------------------------------------------
      LOOP:  cpu time    1.31: real time    1.32

 eigenvalue-minimisations  :   181
 total energy-change (2. order) :-0.4272440E-06  (-0.7396455E-07)
 number of electron   91.9999998 magnetization 
 augmentation part    -1.1440832 magnetization 

 Free energy of the ion-electron system (eV)
  ---------------------------------------------------
  alpha Z        PSCENC =        -7.38313139
  Ewald energy   TEWEN  =     -2176.46779687
  -1/2 Hartree   DENC   =       -32.05978548
  -exchange  EXHF       =         0.00000000
  -V(xc)+E(xc)   XCENC  =      -792.80010513
  PAW double counting   =      1084.36307285     -115.13979528
  entropy T*S    EENTRO =        -0.00549514
  eigenvalues    EBANDS =       298.25275287
  atomic energy  EATOM  =      1629.13144109
  ---------------------------------------------------
  free energy    TOTEN  =      -112.10884248 eV

  energy without entropy =     -112.10334734  energy(sigma->0) =     -112.10701076


--------------------------------------------------------------------------------------------------------




 average (electrostatic) potential at core
  the test charge radii are     1.0406  1.0714
  (the norm of the test charge is              1.0000)
       1 -72.9666       2 -73.1295       3 -73.0302       4 -73.0302       5 -73.0506
       6 -73.0507       7 -73.0498       8 -72.8998       9 -73.0203      10 -73.0302
      11 -73.0302      12 -73.0833      13 -73.0833      14 -73.0498      15 -72.8998
      16 -73.0506      17 -73.0507      18 -72.8998      19 -73.0498      20 -73.1298
      21 -72.9667      22 -73.0303      23 -73.0303      24 -73.0833      25 -73.0833
      26 -72.8998      27 -73.0498      28 -73.0203      29 -73.0303      30 -73.0303
      31 -50.6504
 
 
 
 E-fermi :   7.8724     XC(G=0): -10.0126     alpha+bet :-14.3074
   add alpha+bet to get absolut eigen values

 k-point   1 :       0.2500    0.2500    0.2500
  band No.  band energies     occupation 
      1      -2.9828      2.00000
      2      -1.9602      2.00000
      3      -1.8787      2.00000
      4      -1.6416      2.00000
      5      -0.8119      2.00000
      6      -0.7607      2.00000
      7      -0.3541      2.00000
      8       0.2574      2.00000
      9       0.3218      2.00000
     10       0.5327      2.00000
     11       0.6161      2.00000
     12       1.3450      2.00000
     13       1.3637      2.00000
     14       1.4060      2.00000
     15       1.5398      2.00000
     16       1.8138      2.00000
     17       1.9404      2.00000
     18       2.7007      2.00000
     19       2.7085      2.00000
     20       2.9042      2.00000
     21       3.5305      2.00000
     22       3.5918      2.00000
     23       3.6292      2.00000
     24       3.6775      2.00000
     25       3.7364      2.00000
     26       4.0508      2.00000
     27       4.5311      2.00000
     28       4.5582      2.00000
     29       4.6450      2.00000
     30       4.8074      2.00000
     31       4.8648      2.00000
     32       4.8705      2.00000
     33       4.9294      2.00000
     34       5.1107      2.00000
     35       5.2061      2.00000
     36       5.7268      2.00000
     37       5.8929      2.00000
     38       6.3555      2.00000
     39       6.7101      2.00000
     40       6.7757      2.00000
     41       6.7868      2.00000
     42       6.9445      2.00000
     43       6.9893      2.00000
     44       7.0942      2.00000
     45       7.1500      2.00000
     46       7.7894      1.63938
     47       7.8877      0.87061
     48       8.0062      0.10265
     49       8.0364      0.00985
     50       8.1623     -0.05965
     51       8.1989     -0.04312
     52       8.2074     -0.03929
     53       8.3735     -0.00226
     54       8.5363     -0.00003
     55       9.0569      0.00000
     56       9.1373      0.00000
     57       9.1881      0.00000
     58       9.3544      0.00000
     59       9.3720      0.00000
     60       9.5131      0.00000
     61       9.9708      0.00000
     62       9.9850      0.00000
     63      10.0642      0.00000
     64      10.1560      0.00000
     65      10.2035      0.00000
     66      10.2123      0.00000
     67      10.5189      0.00000
     68      10.6557      0.00000
     69      10.7821      0.00000
     70      11.0383      0.00000
     71      11.1555      0.00000
     72      11.2625      0.00000

 k-point   2 :      -0.2500    0.2500    0.2500
  band No.  band energies     occupation 
      1      -2.9858      2.00000
      2      -1.9504      2.00000
      3      -1.8155      2.00000
      4      -1.7220      2.00000
      5      -0.8253      2.00000
      6      -0.6096      2.00000
      7      -0.5484      2.00000
      8       0.2618      2.00000
      9       0.3986      2.00000
     10       0.4416      2.00000
     11       0.6993      2.00000
     12       1.3934      2.00000
     13       1.4284      2.00000
     14       1.4930      2.00000
     15       1.4932      2.00000
     16       1.7684      2.00000
     17       1.8427      2.00000
     18       2.6213      2.00000
     19       2.7731      2.00000
     20       2.8394      2.00000
     21       3.5379      2.00000
     22       3.5882      2.00000
     23       3.6344      2.00000
     24       3.6814      2.00000
     25       3.8117      2.00000
     26       3.9636      2.00000
     27       4.5979      2.00000
     28       4.6514      2.00000
     29       4.6783      2.00000
     30       4.6988      2.00000
     31       4.7166      2.00000
     32       4.9495      2.00000
     33       4.9735      2.00000
     34       5.0596      2.00000
     35       5.1749      2.00000
     36       5.7463      2.00000
     37       6.1171      2.00000
     38       6.1778      2.00000
     39       6.7064      2.00000
     40       6.7470      2.00000
     41       6.9175      2.00000
     42       7.0238      2.00000
     43       7.0334      2.00000
     44       7.0705      2.00000
     45       7.1414      2.00000
     46       7.8379      1.28710
     47       7.9569      0.35074
     48       7.9946      0.14995
     49       8.0671     -0.04437
     50       8.1490     -0.06474
     51       8.1721     -0.05542
     52       8.1882     -0.04808
     53       8.2171     -0.03507
     54       8.2640     -0.01826
     55       9.0953      0.00000
     56       9.1469      0.00000
     57       9.2733      0.00000
     58       9.3782      0.00000
     59       9.4079      0.00000
     60       9.4878      0.00000
     61       9.9683      0.00000
     62       9.9796      0.00000
     63      10.0423      0.00000
     64      10.0516      0.00000
     65      10.1430      0.00000
     66      10.2317      0.00000
     67      10.5573      0.00000
     68      10.5693      0.00000
     69      10.6843      0.00000
     70      10.9633      0.00000
     71      11.2558      0.00000
     72      11.3931      0.00000


--------------------------------------------------------------------------------------------------------


 soft charge-density along one line, spin component           1
         0         1         2         3         4         5         6         7         8         9
 total charge-density along one line
 
 pseudopotential strength for first ion, spin component:           1
  8.459  -0.006   0.000   0.000   0.000   0.000   0.000   0.000
 -0.006   0.000   0.000   0.000   0.000   0.000   0.000   0.000
  0.000   0.000   1.989   0.000   0.000  -0.026   0.000   0.000
  0.000   0.000   0.000   1.989   0.000   0.000  -0.026   0.000
  0.000   0.000   0.000   0.000   1.989   0.000   0.000  -0.026
  0.000   0.000  -0.026   0.000   0.000  -0.012   0.000   0.000
  0.000   0.000   0.000  -0.026   0.000   0.000  -0.012   0.000
  0.000   0.000   0.000   0.000  -0.026   0.000   0.000  -0.012
 total augmentation occupancy for first ion, spin component:           1
  1.306  -0.534   0.000   0.000   0.000   0.000   0.002   0.002
 -0.534   0.510   0.000   0.002   0.002   0.000  -0.001  -0.001
  0.000   0.000   0.752   0.000   0.000  -0.187   0.000   0.000
  0.000   0.002   0.000   0.765  -0.011   0.000  -0.192   0.005
  0.000   0.002   0.000  -0.011   0.765   0.000   0.005  -0.192
  0.000   0.000  -0.187   0.000   0.000   0.052   0.000   0.000
  0.002  -0.001   0.000  -0.192   0.005   0.000   0.054  -0.002
  0.002  -0.001   0.000   0.005  -0.192   0.000  -0.002   0.054


------------------------ aborting loop because EDIFF is reached ----------------------------------------




--------------------------------------------------------------------------------------------------------



  FREE ENERGIE OF THE ION-ELECTRON SYSTEM (eV)
  ---------------------------------------------------
  free  energy   TOTEN  =      -112.108842 eV

  energy  without entropy=     -112.103347  energy(sigma->0) =     -112.107011
 
    CHARGE:  cpu time    0.18: real time    0.18
    FORLOC:  cpu time    0.04: real time    0.04
    FORNL :  cpu time    0.46: real time    0.46
    STRESS:  cpu time    0.99: real time    1.00
    FORCOR:  cpu time    0.17: real time    0.17
    FORHAR:  cpu time    0.07: real time    0.07
    MIXING:  cpu time    0.00: real time    0.01

  FORCE on cell =-STRESS in cart. coord.  units (eV):
  Direction    XX          YY          ZZ          XY          YZ          ZX
  --------------------------------------------------------------------------------------
  Alpha Z    -7.38313    -7.38313    -7.38313
  Ewald    -722.79765  -730.88100  -722.79765     0.00000     0.00000     1.65543
  Hartree    14.48457     3.09387    14.48457     0.00000     0.00000     3.57512
  E(xc)    -260.98084  -261.28783  -260.98084     0.00000     0.00000     0.19122
  Local     -24.25143    -4.64344   -24.25143     0.00000     0.00000    -5.33606
  n-local   577.95585   580.74390   577.95580     0.43785    -0.98017    -1.83788
  augment   -30.50829   -30.70900   -30.50829     0.00001     0.00001     0.01078
  Kinetic   452.51790   457.13505   452.51789    -4.05418     0.31590     2.59913
  Fock        0.00000     0.00000     0.00000     0.00000     0.00000     0.00000
  -------------------------------------------------------------------------------------
  Total      -0.96304     6.06842    -0.96304     0.00000     0.00000     0.85774
  in kB      -2.91732    18.38297    -2.91732     0.00000     0.00000     2.59835
  external pressure =        4.18 kB  Pullay stress =        0.00 kB


 VOLUME and BASIS-vectors are now :
 -----------------------------------------------------------------------------
  energy-cutoff  :      300.00
  volume of cell :      528.90
      direct lattice vectors                 reciprocal lattice vectors
     8.087052000  0.000000000  0.000000000     0.123654454  0.000000000  0.000000000
     0.000000000  8.087052000  0.000000000     0.000000000  0.123654454  0.000000000
     0.000000000  0.000000000  8.087052000     0.000000000  0.000000000  0.123654454

  length of vectors
     8.087052000  8.087052000  8.087052000     0.123654454  0.123654454  0.123654454


 FORCES acting on ions
    electron-ion (+dipol)            ewald-force                    non-local-force                 convergence-correction
 -----------------------------------------------------------------------------------------------
   -.222E+01 0.834E-06 -.222E+01   0.208E+01 0.668E-04 0.208E+01   0.122E+00 0.000E+00 0.122E+00   0.200E-03 0.430E-07 0.201E-03
   -.207E+01 0.212E-07 -.207E+01   0.192E+01 0.164E-05 0.192E+01   0.164E+00 0.000E+00 0.164E+00   0.191E-03 0.604E-07 0.192E-03
   -.240E+01 -.103E+02 -.726E+01   0.208E+01 0.103E+02 0.733E+01   0.373E+00 0.217E-01 -.280E-01   0.211E-03 0.673E-03 0.283E-03
   -.726E+01 -.103E+02 -.240E+01   0.733E+01 0.103E+02 0.208E+01   -.280E-01 0.217E-01 0.373E+00   0.283E-03 0.674E-03 0.212E-03
   0.144E+01 0.398E-06 -.226E+01   -.174E+01 0.317E-04 0.161E+01   0.323E+00 0.000E+00 0.697E+00   -.183E-03 0.520E-07 0.170E-03
   0.226E+01 0.398E-06 -.144E+01   -.161E+01 0.317E-04 0.174E+01   -.697E+00 0.000E+00 -.323E+00   -.180E-03 0.520E-07 0.192E-03
   0.193E+01 -.510E+01 -.193E+01   -.194E+01 0.504E+01 0.194E+01   -.393E-02 0.115E+00 0.393E-02   -.207E-03 0.554E-03 0.203E-03
   0.710E+01 -.124E+02 -.710E+01   -.697E+01 0.126E+02 0.697E+01   -.130E+00 -.164E+00 0.130E+00   -.277E-03 0.733E-03 0.288E-03
   -.748E+01 0.864E-06 -.748E+01   0.736E+01 0.694E-04 0.736E+01   0.145E+00 0.000E+00 0.145E+00   0.320E-03 -.182E-06 0.321E-03
   -.240E+01 0.103E+02 -.726E+01   0.208E+01 -.103E+02 0.733E+01   0.373E+00 -.217E-01 -.280E-01   0.211E-03 -.673E-03 0.283E-03
   -.726E+01 0.103E+02 -.240E+01   0.733E+01 -.103E+02 0.208E+01   -.280E-01 -.217E-01 0.373E+00   0.283E-03 -.674E-03 0.212E-03
   0.649E+01 0.406E-06 -.648E+01   -.684E+01 0.325E-04 0.650E+01   0.333E+00 -.260E-17 0.314E-01   -.297E-03 -.144E-06 0.284E-03
   0.648E+01 0.406E-06 -.649E+01   -.650E+01 0.325E-04 0.684E+01   -.314E-01 0.000E+00 -.333E+00   -.290E-03 -.144E-06 0.304E-03
   0.193E+01 0.510E+01 -.193E+01   -.194E+01 -.504E+01 0.194E+01   -.393E-02 -.115E+00 0.393E-02   -.207E-03 -.554E-03 0.203E-03
   0.710E+01 0.124E+02 -.710E+01   -.697E+01 -.126E+02 0.697E+01   -.130E+00 0.164E+00 0.130E+00   -.277E-03 -.733E-03 0.288E-03
   -.226E+01 0.398E-06 0.144E+01   0.161E+01 0.317E-04 -.174E+01   0.697E+00 0.000E+00 0.323E+00   0.170E-03 0.520E-07 -.184E-03
   -.144E+01 0.398E-06 0.226E+01   0.174E+01 0.317E-04 -.161E+01   -.323E+00 0.000E+00 -.697E+00   0.192E-03 0.520E-07 -.180E-03
   -.710E+01 -.124E+02 0.710E+01   0.697E+01 0.126E+02 -.697E+01   0.130E+00 -.164E+00 -.130E+00   0.288E-03 0.733E-03 -.278E-03
   -.193E+01 -.510E+01 0.193E+01   0.194E+01 0.504E+01 -.194E+01   0.393E-02 0.115E+00 -.393E-02   0.202E-03 0.554E-03 -.208E-03
   0.207E+01 0.212E-07 0.207E+01   -.192E+01 0.164E-05 -.192E+01   -.164E+00 0.000E+00 -.164E+00   -.182E-03 0.604E-07 -.183E-03
   0.222E+01 0.834E-06 0.222E+01   -.208E+01 0.668E-04 -.208E+01   -.122E+00 0.000E+00 -.122E+00   -.209E-03 0.430E-07 -.210E-03
   0.726E+01 -.103E+02 0.240E+01   -.733E+01 0.103E+02 -.208E+01   0.280E-01 0.217E-01 -.373E+00   -.293E-03 0.671E-03 -.207E-03
   0.240E+01 -.103E+02 0.726E+01   -.208E+01 0.103E+02 -.733E+01   -.373E+00 0.217E-01 0.280E-01   -.206E-03 0.670E-03 -.294E-03
   -.648E+01 0.406E-06 0.649E+01   0.650E+01 0.325E-04 -.684E+01   0.314E-01 0.000E+00 0.333E+00   0.283E-03 -.144E-06 -.298E-03
   -.649E+01 0.406E-06 0.648E+01   0.684E+01 0.325E-04 -.650E+01   -.333E+00 0.867E-18 -.314E-01   0.303E-03 -.144E-06 -.291E-03
   -.710E+01 0.124E+02 0.710E+01   0.697E+01 -.126E+02 -.697E+01   0.130E+00 0.164E+00 -.130E+00   0.288E-03 -.733E-03 -.278E-03
   -.193E+01 0.510E+01 0.193E+01   0.194E+01 -.504E+01 -.194E+01   0.393E-02 -.115E+00 -.393E-02   0.202E-03 -.554E-03 -.208E-03
   0.748E+01 0.864E-06 0.748E+01   -.736E+01 0.694E-04 -.736E+01   -.145E+00 0.000E+00 -.145E+00   -.326E-03 -.182E-06 -.327E-03
   0.726E+01 0.103E+02 0.240E+01   -.733E+01 -.103E+02 -.208E+01   0.280E-01 -.217E-01 -.373E+00   -.293E-03 -.671E-03 -.207E-03
   0.240E+01 0.103E+02 0.726E+01   -.208E+01 -.103E+02 -.733E+01   -.373E+00 -.217E-01 0.280E-01   -.206E-03 -.670E-03 -.294E-03
   -.971E-06 0.163E-07 -.971E-06   -.734E-04 0.136E-05 -.734E-04   -.339E-20 0.000E+00 -.339E-20   0.369E-05 -.611E-07 0.369E-05
 -----------------------------------------------------------------------------------------------
   0.537E-03 0.356E-03 0.537E-03   -.223E-13 0.477E-13 -.500E-14   -.111E-15 0.278E-16 0.323E-15   -.478E-05 0.183E-06 -.478E-05
 
 
 POSITION                                       TOTAL-FORCE (eV/Angst)
 -----------------------------------------------------------------------------------
      0.00733      0.00000      0.00733        -0.016547      0.000000     -0.016547
      1.99628      0.00000      1.99628         0.020875      0.000000      0.020875
      2.01752      2.06675      0.03937         0.049326      0.070906      0.043274
      0.03937      2.06675      2.01752         0.043274      0.070906      0.049326
      4.04537      0.00000      7.97580         0.026285      0.000000      0.048715
      6.17654      0.00000      2.01993        -0.048715      0.000000     -0.026285
      6.09404      1.99977      8.05831        -0.014278      0.054883      0.014278
      4.13599      1.84461      1.92931        -0.000221     -0.023677      0.000221
      8.08691      4.04353      8.08691         0.029833      0.000000      0.029833
      2.01752      6.02030      0.03937         0.049326     -0.070906      0.043274
      0.03937      6.02030      2.01752         0.043274     -0.070906      0.049326
      4.03355      4.04353      0.02577        -0.018118      0.000000      0.051793
      6.03952      4.04353      2.03173        -0.051793      0.000000      0.018118
      6.09404      6.08729      8.05831        -0.014278     -0.054883      0.014278
      4.13599      6.24244      1.92931        -0.000221      0.023677      0.000221
      7.97580      0.00000      4.04537         0.048715      0.000000      0.026285
      2.01993      0.00000      6.17654        -0.026285      0.000000     -0.048715
      1.92931      1.84461      4.13599         0.000221     -0.023677     -0.000221
      8.05831      1.99977      6.09404         0.014278      0.054883     -0.014278
      4.06901      0.00000      4.06901        -0.020875      0.000000     -0.020875
      6.05796      0.00000      6.05796         0.016547      0.000000      0.016547
      6.02591      2.06675      4.04778        -0.043274      0.070906     -0.049326
      4.04778      2.06675      6.02591        -0.049326      0.070906     -0.043274
      0.02577      4.04353      4.03355         0.051793      0.000000     -0.018118
      2.03173      4.04353      6.03952         0.018118      0.000000     -0.051793
      1.92931      6.24244      4.13599         0.000221      0.023677     -0.000221
      8.05831      6.08729      6.09404         0.014278     -0.054883     -0.014278
      6.06543      4.04353      6.06543        -0.029833      0.000000     -0.029833
      6.02591      6.02030      4.04778        -0.043274     -0.070906     -0.049326
      4.04778      6.02030      6.02591        -0.049326     -0.070906     -0.043274
      3.03264      4.04353      3.03264         0.000000      0.000000      0.000000
 -----------------------------------------------------------------------------------
    total drift:                                0.000532      0.000356      0.000532


--------------------------------------------------------------------------------------------------------


    POTLOK:  cpu time    0.16: real time    0.16


--------------------------------------------------------------------------------------------------------


  FORCES: max atom, RMS     0.000000    0.000000
  FORCE total and by dimension    0.000000    0.000000

 ----------------------------------------------------------------------------- 
|                                                                             |
|           W    W    AA    RRRRR   N    N  II  N    N   GGGG   !!!           |
|           W    W   A  A   R    R  NN   N  II  NN   N  G    G  !!!           |
|           W    W  A    A  R    R  N N  N  II  N N  N  G       !!!           |
|           W WW W  AAAAAA  RRRRR   N  N N  II  N  N N  G  GGG   !            |
|           WW  WW  A    A  R   R   N   NN  II  N   NN  G    G                |
|           W    W  A    A  R    R  N    N  II  N    N   GGGG   !!!           |
|                                                                             |
|      Your timestep is larger than 0.1 Angst.                                |
|      For finite differences this really does not make sense. I will         |
|      reset POTIM to 0.015. I recommend to use 0.01 to 0.02 for finite       |
|      differences.                                                           |
|                                                                             |
 ----------------------------------------------------------------------------- 

 Finite differences:
   Step               POTIM =   1.500000000000000E-002
   Degrees of freedom DOF   =            3
  LATTYP: Found a simple cubic cell.
 ALAT       =     8.0870520000
  
  Lattice vectors:
  
 A1 = (   8.0870520000,   0.0000000000,   0.0000000000)
 A2 = (   0.0000000000,   8.0870520000,   0.0000000000)
 A3 = (   0.0000000000,   0.0000000000,   8.0870520000)
 Subroutine PRICEL returns:
 Original cell was already a primitive cell.
 

Analysis of symmetry for initial positions (statically):

 Routine SETGRP: Setting up the symmetry group for a 
 simple cubic supercell.


 Subroutine GETGRP returns: Found  2 space group operations
 (whereof  2 operations were pure point group operations)
 out of a pool of 48 trial point group operations.


The static configuration has the point symmetry C_1h.

Analysis of symmetry for dynamics (positions and initial velocities):

 Subroutine DYNSYM returns: Found  2 space group operations
 (whereof  2 operations were pure point group operations)
 out of a pool of  2 trial space group operations
 (whereof  2 operations were pure point group operations)
[...]
  in kB      -2.91961    18.38153    -2.91951     0.00000     0.00000     2.59849
  external pressure =        4.18 kB  Pullay stress =        0.00 kB


 VOLUME and BASIS-vectors are now :
 -----------------------------------------------------------------------------
  energy-cutoff  :      300.00
  volume of cell :      528.90
      direct lattice vectors                 reciprocal lattice vectors
     8.087052000  0.000000000  0.000000000     0.123654454  0.000000000  0.000000000
     0.000000000  8.087052000  0.000000000     0.000000000  0.123654454  0.000000000
     0.000000000  0.000000000  8.087052000     0.000000000  0.000000000  0.123654454

  length of vectors
     8.087052000  8.087052000  8.087052000     0.123654454  0.123654454  0.123654454


 FORCES acting on ions
    electron-ion (+dipol)            ewald-force                    non-local-force                 convergence-correction
 -----------------------------------------------------------------------------------------------
   -.222E+01 0.834E-06 -.221E+01   0.208E+01 0.668E-04 0.207E+01   0.122E+00 0.000E+00 0.122E+00   0.469E-04 0.835E-04 -.922E-05
   -.206E+01 0.212E-07 -.208E+01   0.192E+01 0.164E-05 0.194E+01   0.163E+00 0.000E+00 0.165E+00   -.153E-05 0.109E-03 -.191E-04
   -.239E+01 -.103E+02 -.722E+01   0.206E+01 0.103E+02 0.729E+01   0.375E+00 0.223E-01 -.263E-01   -.144E-04 -.132E-04 0.275E-04
   -.725E+01 -.103E+02 -.242E+01   0.732E+01 0.103E+02 0.209E+01   -.279E-01 0.216E-01 0.374E+00   0.344E-04 0.313E-04 0.445E-05
   0.144E+01 0.398E-06 -.225E+01   -.173E+01 0.317E-04 0.160E+01   0.323E+00 0.000E+00 0.696E+00   -.262E-04 0.951E-04 0.288E-04
   0.226E+01 0.398E-06 -.145E+01   -.161E+01 0.317E-04 0.174E+01   -.698E+00 0.000E+00 -.322E+00   -.887E-05 0.951E-04 0.165E-04
   0.193E+01 -.509E+01 -.192E+01   -.194E+01 0.503E+01 0.193E+01   -.289E-02 0.114E+00 0.284E-02   0.127E-04 0.238E-04 0.831E-05
   0.706E+01 -.123E+02 -.712E+01   -.694E+01 0.125E+02 0.700E+01   -.113E+00 -.194E+00 0.122E+00   -.450E-04 0.220E-04 0.222E-05
   -.746E+01 0.864E-06 -.745E+01   0.735E+01 0.694E-04 0.734E+01   0.144E+00 0.000E+00 0.146E+00   -.909E-05 -.836E-04 0.471E-04
   -.239E+01 0.103E+02 -.722E+01   0.206E+01 -.103E+02 0.729E+01   0.375E+00 -.223E-01 -.263E-01   -.262E-04 0.596E-05 0.144E-04
   -.725E+01 0.103E+02 -.242E+01   0.732E+01 -.103E+02 0.209E+01   -.279E-01 -.216E-01 0.374E+00   0.213E-04 -.386E-04 -.736E-05
   0.646E+01 0.406E-06 -.638E+01   -.681E+01 0.325E-04 0.641E+01   0.339E+00 0.000E+00 0.147E-01   -.169E-04 -.955E-04 0.192E-04
   0.644E+01 0.406E-06 -.652E+01   -.647E+01 0.325E-04 0.687E+01   -.253E-01 0.000E+00 -.334E+00   0.462E-04 -.955E-04 -.304E-04
   0.193E+01 0.509E+01 -.192E+01   -.194E+01 -.503E+01 0.193E+01   -.289E-02 -.114E+00 0.284E-02   0.246E-04 -.209E-04 -.357E-05
   0.706E+01 0.123E+02 -.712E+01   -.694E+01 -.125E+02 0.700E+01   -.113E+00 0.194E+00 0.122E+00   -.323E-04 0.591E-05 -.105E-04
   -.226E+01 0.398E-06 0.143E+01   0.162E+01 0.317E-04 -.173E+01   0.695E+00 0.000E+00 0.323E+00   -.257E-05 0.951E-04 0.106E-04
   -.144E+01 0.398E-06 0.228E+01   0.174E+01 0.317E-04 -.163E+01   -.323E+00 0.000E+00 -.697E+00   -.219E-04 0.951E-04 0.213E-04
   -.714E+01 -.125E+02 0.708E+01   0.700E+01 0.126E+02 -.695E+01   0.146E+00 -.133E+00 -.137E+00   -.307E-04 0.178E-05 -.128E-04
   -.194E+01 -.510E+01 0.195E+01   0.195E+01 0.504E+01 -.196E+01   0.489E-02 0.117E+00 -.499E-02   0.292E-04 -.144E-04 -.967E-05
   0.207E+01 0.212E-07 0.205E+01   -.193E+01 0.164E-05 -.191E+01   -.166E+00 0.000E+00 -.164E+00   -.741E-05 0.109E-03 -.264E-04
   0.222E+01 0.834E-06 0.223E+01   -.208E+01 0.668E-04 -.209E+01   -.123E+00 0.000E+00 -.123E+00   0.421E-04 0.835E-04 -.154E-04
   0.727E+01 -.103E+02 0.238E+01   -.734E+01 0.103E+02 -.206E+01   0.282E-01 0.216E-01 -.373E+00   0.205E-04 -.335E-04 -.130E-04
   0.241E+01 -.103E+02 0.730E+01   -.209E+01 0.104E+02 -.737E+01   -.372E+00 0.209E-01 0.298E-01   -.309E-04 0.113E-04 0.118E-04
   -.651E+01 0.406E-06 0.647E+01   0.653E+01 0.325E-04 -.682E+01   0.375E-01 0.000E+00 0.332E+00   0.422E-04 -.955E-04 -.347E-04
   -.653E+01 0.406E-06 0.658E+01   0.687E+01 0.325E-04 -.659E+01   -.327E+00 0.000E+00 -.471E-01   -.134E-04 -.955E-04 0.208E-04
   -.714E+01 0.125E+02 0.708E+01   0.700E+01 -.126E+02 -.695E+01   0.146E+00 0.133E+00 -.137E+00   -.435E-04 0.262E-04 -.175E-07
   -.194E+01 0.510E+01 0.195E+01   0.195E+01 -.504E+01 -.196E+01   0.489E-02 -.117E+00 -.499E-02   0.173E-04 0.173E-04 0.222E-05
   0.749E+01 0.864E-06 0.750E+01   -.737E+01 0.694E-04 -.738E+01   -.146E+00 0.000E+00 -.143E+00   -.128E-04 -.836E-04 0.418E-04
   0.727E+01 0.103E+02 0.238E+01   -.734E+01 -.103E+02 -.206E+01   0.282E-01 -.216E-01 -.373E+00   0.335E-04 0.262E-04 -.117E-05
   0.241E+01 0.103E+02 0.730E+01   -.209E+01 -.104E+02 -.737E+01   -.372E+00 -.209E-01 0.298E-01   -.191E-04 -.185E-04 0.249E-04
   0.183E+00 0.163E-07 -.272E+00   -.148E+00 0.136E-05 0.248E+00   -.789E-01 0.000E+00 0.532E-01   -.376E-04 -.696E-04 -.709E-04
 -----------------------------------------------------------------------------------------------
   -.128E-01 0.356E-03 0.153E-02   -.265E-13 0.500E-13 0.572E-14   0.129E-01 0.139E-16 -.147E-02   -.295E-04 0.178E-03 0.377E-04
 
 
 POSITION                                       TOTAL-FORCE (eV/Angst)
 -----------------------------------------------------------------------------------
      0.00733      0.00000      0.00733        -0.016826      0.000000     -0.015787
      1.99628      0.00000      1.99628         0.021104      0.000000      0.020158
      2.01752      2.06675      0.03937         0.048383      0.070329      0.043482
      0.03937      2.06675      2.01752         0.042975      0.071176      0.049264
      4.04537      0.00000      7.97580         0.025701      0.000000      0.048346
      6.17654      0.00000      2.01993        -0.047541      0.000000     -0.026187
      6.09404      1.99977      8.05831        -0.013317      0.054341      0.014348
      4.13599      1.84461      1.92931         0.007730     -0.040407     -0.003648
      8.08691      4.04353      8.08691         0.029710      0.000000      0.029963
      2.01752      6.02030      0.03937         0.048383     -0.070329      0.043482
      0.03937      6.02030      2.01752         0.042975     -0.071176      0.049264
      4.03355      4.04353      0.02577        -0.014916      0.000000      0.045795
      6.03952      4.04353      2.03173        -0.048592      0.000000      0.017163
      6.09404      6.08729      8.05831        -0.013317     -0.054341      0.014348
      4.13599      6.24244      1.92931         0.007730      0.040407     -0.003648
      7.97580      0.00000      4.04537         0.049914      0.000000      0.026374
      2.01993      0.00000      6.17654        -0.026892      0.000000     -0.049103
      1.92931      1.84461      4.13599         0.008121     -0.007001     -0.004280
      8.05831      1.99977      6.09404         0.015250      0.055455     -0.014217
      4.06901      0.00000      4.06901        -0.020650      0.000000     -0.021635
      6.05796      0.00000      6.05796         0.016257      0.000000      0.017311
      6.02591      2.06675      4.04778        -0.043616      0.070700     -0.049426
      4.04778      2.06675      6.02591        -0.050286      0.071558     -0.043081
      0.02577      4.04353      4.03355         0.055050      0.000000     -0.019107
      2.03173      4.04353      6.03952         0.021165      0.000000     -0.057439
      1.92931      6.24244      4.13599         0.008121      0.007001     -0.004280
      8.05831      6.08729      6.09404         0.015250     -0.055455     -0.014217
      6.06543      4.04353      6.06543        -0.029990      0.000000     -0.029738
      6.02591      6.02030      4.04778        -0.043616     -0.070700     -0.049426
      4.04778      6.02030      6.02591        -0.050286     -0.071558     -0.043081
      3.03264      4.04353      3.01764        -0.043977      0.000000      0.029003
 -----------------------------------------------------------------------------------
    total drift:                               -0.000004      0.000534      0.000098
 d Force =-0.8215012E-06[-0.870E-03, 0.868E-03]  d Energy =-0.3914965E-07-0.782E-06
 d Force = 0.2200948E-05[-0.743E-02, 0.743E-02]  d Ewald  = 0.2201040E-05-0.919E-10


--------------------------------------------------------------------------------------------------------


    POTLOK:  cpu time    0.16: real time    0.16


--------------------------------------------------------------------------------------------------------


  FORCES: max atom, RMS     0.052679    0.009461
  FORCE total and by dimension    0.052679    0.043977
 Finite differences progress:
  Degree of freedom:   3/  3
  Displacement:        2/  2
  Total:               6/  6
 
 SECOND DERIVATIVES (NOT SYMMETRIZED)
 ------------------------------------
              31X         31Y         31Z 
 31X    -1.934151    0.000000    2.931674
 31Y     0.000000   -8.353712    0.000000
 31Z     2.930258    0.000000   -1.931684
 
 
 Eigenvectors and eigenvalues of the dynamical matrix
 ----------------------------------------------------
 
 
   1 f  =    9.165215 THz    57.586743 2PiTHz  305.718649 cm-1    37.904295 meV
             X         Y         Z           dx          dy          dz
      0.007327  0.000000  0.007327            0           0           0  
      1.996281  0.000000  1.996281            0           0           0  
      2.017517  2.066751  0.039368            0           0           0  
      0.039368  2.066751  2.017517            0           0           0  
      4.045370  0.000000  7.975798            0           0           0  
      6.176543  0.000000  2.019927            0           0           0  
      6.094038  1.999766  8.058311            0           0           0  
      4.135985  1.844608  1.929312            0           0           0  
      8.086915  4.043526  8.086915            0           0           0  
      2.017517  6.020301  0.039368            0           0           0  
      0.039368  6.020301  2.017517            0           0           0  
      4.033547  4.043526  0.025765            0           0           0  
      6.039516  4.043526  2.031726            0           0           0  
      6.094038  6.087294  8.058311            0           0           0  
      4.135985  6.242444  1.929312            0           0           0  
      7.975798  0.000000  4.045370            0           0           0  
      2.019927  0.000000  6.176543            0           0           0  
      1.929312  1.844608  4.135985            0           0           0  
      8.058311  1.999766  6.094038            0           0           0  
      4.069008  0.000000  4.069008            0           0           0  
      6.057962  0.000000  6.057962            0           0           0  
      6.025913  2.066751  4.047780            0           0           0  
      4.047780  2.066751  6.025913            0           0           0  
      0.025765  4.043526  4.033547            0           0           0  
      2.031726  4.043526  6.039516            0           0           0  
      1.929312  6.242444  4.135985            0           0           0  
      8.058311  6.087294  6.094038            0           0           0  
      6.065435  4.043526  6.065435            0           0           0  
      6.025913  6.020301  4.047780            0           0           0  
      4.047780  6.020301  6.025913            0           0           0  
      3.032644  4.043526  3.032644     0.000000    1.000000    0.000000  
 
   2 f  =    6.993499 THz    43.941447 2PiTHz  233.277993 cm-1    28.922795 meV
             X         Y         Z           dx          dy          dz
      0.007327  0.000000  0.007327            0           0           0  
      1.996281  0.000000  1.996281            0           0           0  
      2.017517  2.066751  0.039368            0           0           0  
      0.039368  2.066751  2.017517            0           0           0  
      4.045370  0.000000  7.975798            0           0           0  
      6.176543  0.000000  2.019927            0           0           0  
      6.094038  1.999766  8.058311            0           0           0  
      4.135985  1.844608  1.929312            0           0           0  
      8.086915  4.043526  8.086915            0           0           0  
      2.017517  6.020301  0.039368            0           0           0  
      0.039368  6.020301  2.017517            0           0           0  
      4.033547  4.043526  0.025765            0           0           0  
      6.039516  4.043526  2.031726            0           0           0  
      6.094038  6.087294  8.058311            0           0           0  
      4.135985  6.242444  1.929312            0           0           0  
      7.975798  0.000000  4.045370            0           0           0  
      2.019927  0.000000  6.176543            0           0           0  
      1.929312  1.844608  4.135985            0           0           0  
      8.058311  1.999766  6.094038            0           0           0  
      4.069008  0.000000  4.069008            0           0           0  
      6.057962  0.000000  6.057962            0           0           0  
      6.025913  2.066751  4.047780            0           0           0  
      4.047780  2.066751  6.025913            0           0           0  
      0.025765  4.043526  4.033547            0           0           0  
      2.031726  4.043526  6.039516            0           0           0  
      1.929312  6.242444  4.135985            0           0           0  
      8.058311  6.087294  6.094038            0           0           0  
      6.065435  4.043526  6.065435            0           0           0  
      6.025913  6.020301  4.047780            0           0           0  
      4.047780  6.020301  6.025913            0           0           0  
      3.032644  4.043526  3.032644    -0.707256    0.000000    0.706958  
 
   3 f/i=    3.167954 THz    19.904841 2PiTHz  105.671560 cm-1    13.101608 meV
             X         Y         Z           dx          dy          dz
      0.007327  0.000000  0.007327            0           0           0  
      1.996281  0.000000  1.996281            0           0           0  
      2.017517  2.066751  0.039368            0           0           0  
      0.039368  2.066751  2.017517            0           0           0  
      4.045370  0.000000  7.975798            0           0           0  
      6.176543  0.000000  2.019927            0           0           0  
      6.094038  1.999766  8.058311            0           0           0  
      4.135985  1.844608  1.929312            0           0           0  
      8.086915  4.043526  8.086915            0           0           0  
      2.017517  6.020301  0.039368            0           0           0  
      0.039368  6.020301  2.017517            0           0           0  
      4.033547  4.043526  0.025765            0           0           0  
      6.039516  4.043526  2.031726            0           0           0  
      6.094038  6.087294  8.058311            0           0           0  
      4.135985  6.242444  1.929312            0           0           0  
      7.975798  0.000000  4.045370            0           0           0  
      2.019927  0.000000  6.176543            0           0           0  
      1.929312  1.844608  4.135985            0           0           0  
      8.058311  1.999766  6.094038            0           0           0  
      4.069008  0.000000  4.069008            0           0           0  
      6.057962  0.000000  6.057962            0           0           0  
      6.025913  2.066751  4.047780            0           0           0  
      4.047780  2.066751  6.025913            0           0           0  
      0.025765  4.043526  4.033547            0           0           0  
      2.031726  4.043526  6.039516            0           0           0  
      1.929312  6.242444  4.135985            0           0           0  
      8.058311  6.087294  6.094038            0           0           0  
      6.065435  4.043526  6.065435            0           0           0  
      6.025913  6.020301  4.047780            0           0           0  
      4.047780  6.020301  6.025913            0           0           0  
      3.032644  4.043526  3.032644    -0.706958    0.000000   -0.707256  
 
 Finite differences POTIM=  1.500000000000000E-002
  LATTYP: Found a simple cubic cell.
 ALAT       =     8.0870520000
  
  Lattice vectors:
  
 A1 = (   8.0870520000,   0.0000000000,   0.0000000000)
 A2 = (   0.0000000000,   8.0870520000,   0.0000000000)
 A3 = (   0.0000000000,   0.0000000000,   8.0870520000)
 Subroutine PRICEL returns:
 Original cell was already a primitive cell.
 

Analysis of symmetry for initial positions (statically):

 Routine SETGRP: Setting up the symmetry group for a 
 simple cubic supercell.


 Subroutine GETGRP returns: Found  8 space group operations
 (whereof  4 operations were pure point group operations)
 out of a pool of 48 trial point group operations.


The static configuration has the point symmetry C_2v.
 The point group associated with its full space group is D_2h.

Analysis of symmetry for dynamics (positions and initial velocities):

 Subroutine DYNSYM returns: Found  8 space group operations
 (whereof  4 operations were pure point group operations)
 out of a pool of  8 trial space group operations
 (whereof  4 operations were pure point group operations)
 and found also     1 'primitive' translations


The dynamic configuration has the point symmetry C_2v.
 The point group associated with its full space group is D_2h.

Analysis of constrained symmetry for selective dynamics:

 Subroutine DYNSYM returns: Found  8 space group operations
 (whereof  4 operations were pure point group operations)
 out of a pool of  8 trial space group operations
 (whereof  4 operations were pure point group operations)
 and found also     1 'primitive' translations


The constrained configuration has the point symmetry C_2v.
 The point group associated with its full space group is D_2h.
 
 KPOINTS: Automatic kpoint scheme                 

Automatic generation of k-mesh.
 
 Subroutine IBZKPT returns following result:
 ===========================================
 
 Found      2 irreducible k-points:
 
 Following reciprocal coordinates:
            Coordinates               Weight
  0.250000  0.250000  0.250000      4.000000
 -0.250000  0.250000  0.250000      4.000000
 
 Following cartesian coordinates:
            Coordinates               Weight
  0.030914  0.030914  0.030914      4.000000
 -0.030914  0.030914  0.030914      4.000000
 
     LOOP+:  cpu time   12.77: real time   12.78
    4ORBIT:  cpu time    0.00: real time    0.00

 total amount of memory used by VASP on root node  60642. kBytes
========================================================================

   base      :    30000. kBytes
   nonl-proj :     4692. kBytes
   fftplans  :     2983. kBytes
   grid      :    21626. kBytes
   one-center:       95. kBytes
   wavefun   :     1246. kBytes
 
  
  
 General timing and accounting informations for this job:
 ========================================================
  
                  Total CPU time used (sec):      106.446
                            User time (sec):      106.298
                          System time (sec):        0.148
                         Elapsed time (sec):      106.807
  
                   Maximum memory used (kb):           0.
                   Average memory used (kb):           0.
  
                          Minor page faults:        24013
                          Major page faults:            0
                 Voluntary context switches:         3587
