Processors received = 12
script running on host compute-1-32.local
PBS_NODEFILE
compute-1-32
compute-1-32
compute-1-32
compute-1-32
compute-1-32
compute-1-32
compute-1-32
compute-1-32
compute-1-32
compute-1-32
compute-1-32
compute-1-32
 running on   12 nodes
 distr:  one band on    1 nodes,   12 groups
 vasp.5.2.2 15Apr09 complex 
 POSCAR found type information on POSCAR  Al Mg
 POSCAR found :  2 types and   31 ions

 ----------------------------------------------------------------------------- 
|                                                                             |
|  ADVICE TO THIS USER RUNNING 'VASP/VAMP'   (HEAR YOUR MASTER'S VOICE ...):  |
|                                                                             |
|      You have a (more or less) 'large supercell' and for larger cells       |
|      it might be more efficient to use real space projection operators      |
|      So try LREAL= Auto  in the INCAR   file.                               |
|      Mind: If you want to do a very accurate calculations keep the          |
|      reciprocal projection scheme          (i.e. LREAL=.FALSE.)             |
|                                                                             |
 ----------------------------------------------------------------------------- 

 LDA part: xc-table for Pade appr. of Perdew
 POSCAR, INCAR and KPOINTS ok, starting setup
 FFT: planning ...(           1 )
 reading WAVECAR
 WARNING: random wavefunctions but no delay for mixing, default for NELMDL
 entering main loop
       N       E                     dE             d eps       ncg     rms          rms(c)
RMM:   1     0.232475734202E+03    0.23248E+03   -0.15502E+04   144   0.531E+02
RMM:   2    -0.388940816193E+02   -0.27137E+03   -0.26025E+03   144   0.110E+02
RMM:   3    -0.946011798683E+02   -0.55707E+02   -0.54438E+02   144   0.361E+01
RMM:   4    -0.107013633375E+03   -0.12412E+02   -0.10879E+02   144   0.195E+01
RMM:   5    -0.111194523675E+03   -0.41809E+01   -0.31340E+01   144   0.979E+00
RMM:   6    -0.112523533709E+03   -0.13290E+01   -0.99378E+00   144   0.540E+00
RMM:   7    -0.112975034870E+03   -0.45150E+00   -0.34826E+00   144   0.303E+00
RMM:   8    -0.113141851162E+03   -0.16682E+00   -0.13252E+00   144   0.178E+00
RMM:   9    -0.113230748550E+03   -0.88897E-01   -0.79459E-01   332   0.104E+00
RMM:  10    -0.113242298194E+03   -0.11550E-01   -0.76697E-02   345   0.270E-01
RMM:  11    -0.113242762477E+03   -0.46428E-03   -0.28179E-03   294   0.512E-02
RMM:  12    -0.113242781463E+03   -0.18986E-04   -0.17534E-04   261   0.143E-02    0.547E+00
RMM:  13    -0.112416206242E+03    0.82658E+00   -0.10639E+00   288   0.134E+00    0.330E+00
RMM:  14    -0.112177335216E+03    0.23887E+00   -0.16696E-01   288   0.759E-01    0.156E+00
RMM:  15    -0.112110857722E+03    0.66477E-01   -0.52552E-02   288   0.493E-01    0.194E-01
RMM:  16    -0.112108885304E+03    0.19724E-02   -0.37962E-03   290   0.125E-01    0.541E-02
RMM:  17    -0.112108834000E+03    0.51305E-04   -0.51926E-04   288   0.481E-02    0.139E-02
RMM:  18    -0.112108835399E+03   -0.13990E-05   -0.48486E-05   303   0.160E-02    0.639E-03
RMM:  19    -0.112108842049E+03   -0.66505E-05   -0.39526E-06   225   0.549E-03    0.129E-03
RMM:  20    -0.112108842477E+03   -0.42724E-06   -0.73965E-07   181   0.273E-03
   1 F= -.11210884E+03 E0= -.11210701E+03  d E =-.549514E-02

 ----------------------------------------------------------------------------- 
|                                                                             |
|           W    W    AA    RRRRR   N    N  II  N    N   GGGG   !!!           |
|           W    W   A  A   R    R  NN   N  II  NN   N  G    G  !!!           |
|           W    W  A    A  R    R  N N  N  II  N N  N  G       !!!           |
|           W WW W  AAAAAA  RRRRR   N  N N  II  N  N N  G  GGG   !            |
|           WW  WW  A    A  R   R   N   NN  II  N   NN  G    G                |
|           W    W  A    A  R    R  N    N  II  N    N   GGGG   !!!           |
|                                                                             |
|      Your timestep is larger than 0.1 Angst.                                |
|      For finite differences this really does not make sense. I will         |
|      reset POTIM to 0.015. I recommend to use 0.01 to 0.02 for finite       |
|      differences.                                                           |
|                                                                             |
 ----------------------------------------------------------------------------- 

 Finite differences POTIM= 0.01500 DOF=   3
 bond charge predicted
       N       E                     dE             d eps       ncg     rms          rms(c)
RMM:   1    -0.112108627858E+03    0.21419E-03   -0.92484E-03   288   0.260E-01    0.222E-02
RMM:   2    -0.112108623177E+03    0.46813E-05   -0.15674E-04   305   0.315E-02    0.119E-02
RMM:   3    -0.112108624160E+03   -0.98378E-06   -0.19602E-05   281   0.108E-02    0.535E-03
RMM:   4    -0.112108625325E+03   -0.11647E-05   -0.26974E-06   208   0.461E-03    0.221E-03
RMM:   5    -0.112108625603E+03   -0.27783E-06   -0.54764E-07   177   0.259E-03
   2 F= -.11210863E+03 E0= -.11210679E+03  d E =-.550044E-02
 Finite differences progress:
  Degree of freedom:   1/  3
  Displacement:        1/  2
  Total:               1/  6
 bond charge predicted
       N       E                     dE             d eps       ncg     rms          rms(c)
RMM:   1    -0.112108634639E+03   -0.93138E-05   -0.36948E-02   288   0.519E-01    0.443E-02
RMM:   2    -0.112108615605E+03    0.19034E-04   -0.61631E-04   303   0.625E-02    0.239E-02
RMM:   3    -0.112108619701E+03   -0.40960E-05   -0.78789E-05   292   0.216E-02    0.106E-02
RMM:   4    -0.112108624547E+03   -0.48455E-05   -0.11828E-05   271   0.897E-03    0.439E-03
RMM:   5    -0.112108625652E+03   -0.11054E-05   -0.15981E-06   189   0.399E-03    0.105E-03
RMM:   6    -0.112108625705E+03   -0.53167E-07   -0.31898E-07   173   0.201E-03
   3 F= -.11210863E+03 E0= -.11210679E+03  d E =-.550042E-02
 Finite differences progress:
  Degree of freedom:   1/  3
  Displacement:        2/  2
  Total:               2/  6
 bond charge predicted
       N       E                     dE             d eps       ncg     rms          rms(c)
RMM:   1    -0.112107937914E+03    0.68774E-03   -0.21080E-02   288   0.381E-01    0.338E-02
RMM:   2    -0.112107918673E+03    0.19242E-04   -0.41009E-04   306   0.477E-02    0.185E-02
RMM:   3    -0.112107909771E+03    0.89013E-05   -0.45664E-05   291   0.155E-02    0.839E-03
RMM:   4    -0.112107906476E+03    0.32949E-05   -0.90252E-06   256   0.672E-03    0.342E-03
RMM:   5    -0.112107904232E+03    0.22445E-05   -0.36488E-06   223   0.370E-03    0.747E-04
RMM:   6    -0.112107903510E+03    0.72209E-06   -0.89841E-07   177   0.192E-03
   4 F= -.11210790E+03 E0= -.11210607E+03  d E =-.550535E-02
 Finite differences progress:
  Degree of freedom:   2/  3
  Displacement:        1/  2
  Total:               3/  6
 bond charge predicted
       N       E                     dE             d eps       ncg     rms          rms(c)
RMM:   1    -0.112108035244E+03   -0.13101E-03   -0.46326E-02   288   0.556E-01    0.576E-02
RMM:   2    -0.112107913875E+03    0.12137E-03   -0.10129E-03   303   0.729E-02    0.289E-02
RMM:   3    -0.112107900383E+03    0.13492E-04   -0.11411E-04   291   0.230E-02    0.126E-02
RMM:   4    -0.112107902472E+03   -0.20891E-05   -0.13792E-05   278   0.878E-03    0.554E-03
RMM:   5    -0.112107903154E+03   -0.68223E-06   -0.14269E-06   181   0.347E-03
   5 F= -.11210790E+03 E0= -.11210607E+03  d E =-.550558E-02
 Finite differences progress:
  Degree of freedom:   2/  3
  Displacement:        2/  2
  Total:               4/  6
 bond charge predicted
       N       E                     dE             d eps       ncg     rms          rms(c)
RMM:   1    -0.112108651228E+03   -0.74876E-03   -0.20684E-02   288   0.379E-01    0.304E-02
RMM:   2    -0.112108649451E+03    0.17769E-05   -0.38093E-04   314   0.467E-02    0.181E-02
RMM:   3    -0.112108634454E+03    0.14998E-04   -0.44405E-05   289   0.151E-02    0.810E-03
RMM:   4    -0.112108628214E+03    0.62399E-05   -0.14082E-05   271   0.734E-03    0.260E-03
RMM:   5    -0.112108626180E+03    0.20338E-05   -0.50994E-06   236   0.387E-03    0.786E-04
RMM:   6    -0.112108625779E+03    0.40093E-06   -0.11152E-06   181   0.196E-03
   6 F= -.11210863E+03 E0= -.11210679E+03  d E =-.550036E-02
 Finite differences progress:
  Degree of freedom:   3/  3
  Displacement:        1/  2
  Total:               5/  6
 bond charge predicted
       N       E                     dE             d eps       ncg     rms          rms(c)
RMM:   1    -0.112108633593E+03   -0.74126E-05   -0.36929E-02   288   0.519E-01    0.442E-02
RMM:   2    -0.112108615357E+03    0.18236E-04   -0.62275E-04   302   0.629E-02    0.238E-02
RMM:   3    -0.112108619692E+03   -0.43347E-05   -0.78575E-05   294   0.217E-02    0.108E-02
RMM:   4    -0.112108624616E+03   -0.49243E-05   -0.12034E-05   268   0.906E-03    0.444E-03
RMM:   5    -0.112108625701E+03   -0.10850E-05   -0.16521E-06   189   0.404E-03    0.106E-03
RMM:   6    -0.112108625740E+03   -0.39215E-07   -0.33215E-07   174   0.204E-03
   7 F= -.11210863E+03 E0= -.11210679E+03  d E =-.550041E-02
 Finite differences progress:
  Degree of freedom:   3/  3
  Displacement:        2/  2
  Total:               6/  6
 Finite differences POTIM=  1.500000000000000E-002
