<?xml version="1.0" encoding="ISO-8859-1"?>
<modeling>
 <generator>
  <i name="program" type="string">vasp </i>
  <i name="version" type="string">5.2.2  </i>
  <i name="subversion" type="string">15Apr09 complex  parallel </i>
  <i name="platform" type="string">LinuxIFC </i>
  <i name="date" type="string">2017 03 17 </i>
  <i name="time" type="string">11:40:27 </i>
 </generator>
 <incar>
  <i type="string" name="PREC">accurate</i>
  <i type="int" name="IALGO">    48</i>
  <i type="int" name="IBRION">     5</i>
  <i name="EDIFFG">      0.05000000</i>
  <i type="int" name="NSW">   191</i>
  <i type="int" name="ISIF">     2</i>
  <i name="ENCUT">    300.00000000</i>
  <i name="NELECT">     92.00000000</i>
  <i type="int" name="ISMEAR">     1</i>
  <i name="SIGMA">      0.20000000</i>
  <i type="logical" name="LWAVE"> F  </i>
  <i type="logical" name="LCHARG"> F  </i>
  <i type="logical" name="LPEAD"> F  </i>
  <i type="logical" name="LCALCPOL"> F  </i>
  <i type="logical" name="LCALCEPS"> F  </i>
  <v name="EFIELD_PEAD">      0.00000000      0.00000000      0.00000000</v>
  <i type="logical" name="LEFG"> F  </i>
 </incar>
 <kpoints>
  <generation param="Monkhorst-Pack">
   <v type="int" name="divisions">       2        2        2 </v>
   <v name="usershift">      0.00000000       0.00000000       0.00000000 </v>
   <v name="genvec1">      0.50000000       0.00000000       0.00000000 </v>
   <v name="genvec2">      0.00000000       0.50000000       0.00000000 </v>
   <v name="genvec3">      0.00000000       0.00000000       0.50000000 </v>
   <v name="shift">      0.50000000       0.50000000       0.50000000 </v>
  </generation>
  <varray name="kpointlist" >
   <v>       0.25000000       0.25000000       0.25000000 </v>
   <v>      -0.25000000       0.25000000       0.25000000 </v>
  </varray>
  <varray name="weights" >
   <v>       0.50000000 </v>
   <v>       0.50000000 </v>
  </varray>
 </kpoints>
 <parameters>
  <separator name="general" >
   <i type="string" name="SYSTEM">unknown system</i>
   <i type="logical" name="LCOMPAT"> F  </i>
  </separator>
  <separator name="electronic" >
   <i type="string" name="PREC">accura</i>
   <i name="ENMAX">    300.00000000</i>
   <i name="ENAUG">    291.05200000</i>
   <i name="EDIFF">      0.00000100</i>
   <i type="int" name="IALGO">    48</i>
   <i type="int" name="IWAVPR">    11</i>
   <i type="int" name="NBANDS">    72</i>
   <i name="NELECT">     92.00000000</i>
   <separator name="electronic smearing" >
    <i type="int" name="ISMEAR">     1</i>
    <i name="SIGMA">      0.20000000</i>
   </separator>
   <separator name="electronic projectors" >
    <i type="logical" name="LREAL"> F  </i>
    <v name="ROPT">      0.00000000      0.00000000</v>
    <i type="int" name="LMAXPAW">  -100</i>
    <i type="int" name="LMAXMIX">     2</i>
   </separator>
   <separator name="electronic startup" >
    <i type="int" name="ISTART">     0</i>
    <i type="int" name="ICHARG">     2</i>
    <i type="int" name="INIWAV">     1</i>
   </separator>
   <separator name="electronic spin" >
    <i type="int" name="ISPIN">     1</i>
    <i type="logical" name="LNONCOLLINEAR"> F  </i>
    <v name="MAGMOM">      1.00000000      1.00000000      1.00000000      1.00000000      1.00000000      1.00000000      1.00000000      1.00000000      1.00000000      1.00000000      1.00000000      1.00000000      1.00000000      1.00000000      1.00000000      1.00000000      1.00000000      1.00000000      1.00000000      1.00000000
      1.00000000      1.00000000      1.00000000      1.00000000      1.00000000      1.00000000      1.00000000      1.00000000      1.00000000      1.00000000      1.00000000</v>
    <i name="NUPDOWN">     -1.00000000</i>
    <i type="logical" name="LSORBIT"> F  </i>
    <v name="SAXIS">      0.00000000      0.00000000      1.00000000</v>
    <i type="logical" name="LSPIRAL"> F  </i>
    <v name="QSPIRAL">      0.00000000      0.00000000      0.00000000</v>
    <i type="logical" name="LZEROZ"> F  </i>
   </separator>
   <separator name="electronic exchange-correlation" >
    <i type="logical" name="LASPH"> F  </i>
    <i type="logical" name="LMETAGGA"> F  </i>
   </separator>
   <separator name="electronic convergence" >
    <i type="int" name="NELM">    60</i>
    <i type="int" name="NELMDL">     0</i>
    <i type="int" name="NELMIN">     2</i>
    <i name="ENINI">    300.00000000</i>
    <separator name="electronic convergence detail" >
     <i type="logical" name="LDIAG"> T  </i>
     <i name="WEIMIN">      0.00100000</i>
     <i name="EBREAK">      0.00000000</i>
     <i name="DEPER">      0.30000000</i>
     <i type="int" name="NRMM">     4</i>
     <i name="TIME">      0.40000000</i>
    </separator>
   </separator>
   <separator name="electronic mixer" >
    <i name="AMIX">      0.40000000</i>
    <i name="BMIX">      1.00000000</i>
    <i name="AMIN">      0.10000000</i>
    <i name="AMIX_MAG">      1.60000000</i>
    <i name="BMIX_MAG">      1.00000000</i>
    <separator name="electronic mixer details" >
     <i type="int" name="IMIX">     4</i>
     <i type="int" name="MAXMIX">   -45</i>
     <i name="WC">    100.00000000</i>
     <i type="int" name="INIMIX">     1</i>
     <i type="int" name="MIXPRE">     1</i>
     <i type="int" name="MREMOVE">     5</i>
    </separator>
   </separator>
   <separator name="electronic dipolcorrection" >
    <i type="logical" name="LDIPOL"> F  </i>
    <i type="logical" name="LMONO"> F  </i>
    <i type="int" name="IDIPOL">     0</i>
    <i name="EPSILON">      1.00000000</i>
    <v name="DIPOL">   -100.00000000   -100.00000000   -100.00000000</v>
    <i name="EFIELD">      0.00000000</i>
   </separator>
  </separator>
  <separator name="grids" >
   <i type="int" name="NGX">    48</i>
   <i type="int" name="NGY">    48</i>
   <i type="int" name="NGZ">    48</i>
   <i type="int" name="NGXF">    96</i>
   <i type="int" name="NGYF">    96</i>
   <i type="int" name="NGZF">    96</i>
   <i type="logical" name="ADDGRID"> F  </i>
  </separator>
  <separator name="ionic" >
   <i type="int" name="NSW">   382</i>
   <i type="int" name="IBRION">     5</i>
   <i type="int" name="ISIF">     2</i>
   <i name="PSTRESS">      0.00000000</i>
   <i name="EDIFFG">      0.05000000</i>
   <i type="int" name="NFREE">     2</i>
   <i name="POTIM">      0.50000000</i>
   <i name="SMASS">     -3.00000000</i>
  </separator>
  <separator name="ionic md" >
   <i name="TEBEG">      0.00010000</i>
   <i name="TEEND">      0.00010000</i>
   <i type="int" name="NBLOCK">     1</i>
   <i type="int" name="KBLOCK">   191</i>
   <i type="int" name="NPACO">   256</i>
   <i name="APACO">     16.00000000</i>
  </separator>
  <separator name="symmetry" >
   <i type="int" name="ISYM">     2</i>
   <i name="SYMPREC">      0.00001000</i>
  </separator>
  <separator name="dos" >
   <i type="logical" name="LORBIT"> F  </i>
   <v name="RWIGS">     -1.00000000     -1.00000000</v>
   <i type="int" name="NEDOS">   301</i>
   <i name="EMIN">     10.00000000</i>
   <i name="EMAX">    -10.00000000</i>
   <i name="EFERMI">      0.00000000</i>
  </separator>
  <separator name="writing" >
   <i type="int" name="NWRITE">     2</i>
   <i type="logical" name="LWAVE"> F  </i>
   <i type="logical" name="LCHARG"> F  </i>
   <i type="logical" name="LPARD"> F  </i>
   <i type="logical" name="LVTOT"> F  </i>
   <i type="logical" name="LELF"> F  </i>
   <i type="logical" name="LOPTICS"> F  </i>
   <v name="STM">      0.00000000      0.00000000      0.00000000      0.00000000      0.00000000</v>
  </separator>
  <separator name="performance" >
   <i type="int" name="NPAR">    12</i>
   <i type="int" name="NSIM">     4</i>
   <i type="int" name="NBLK">    32</i>
   <i type="logical" name="LPLANE"> T  </i>
   <i type="logical" name="LSCALAPACK"> F  </i>
   <i type="logical" name="LSCAAWARE"> F  </i>
   <i type="logical" name="LSCALU"> F  </i>
   <i type="logical" name="LASYNC"> F  </i>
  </separator>
  <separator name="miscellaneous" >
   <i type="int" name="IDIOT">     3</i>
   <i type="logical" name="LMUSIC"> F  </i>
   <v name="POMASS">     26.98200000     24.30500000</v>
   <i type="logical" name="LCORR"> T  </i>
  </separator>
  <i type="logical" name="LREAL_COMPAT"> F  </i>
  <i type="logical" name="GGA_COMPAT"> T  </i>
  <i type="logical" name="LBERRY"> F  </i>
  <i type="int" name="ICORELEVEL">     0</i>
  <i type="logical" name="LDAU"> F  </i>
  <i type="int" name="I_CONSTRAINED_M">     0</i>
  <separator name="electronic exchange-correlation" >
   <i type="string" name="GGA">--</i>
   <i type="int" name="VOSKOWN">     0</i>
   <i type="logical" name="LHFCALC"> F  </i>
   <i type="logical" name="LHFONE"> F  </i>
   <i type="logical" name="LRHFCALC"> F  </i>
   <i type="logical" name="LTHOMAS"> F  </i>
   <i type="logical" name="LMODELHF"> F  </i>
   <i name="ENCUTFOCK">      0.00000000</i>
   <i name="ENCUT4O">     -1.00000000</i>
   <i type="int" name="EXXOEP">     0</i>
   <i type="int" name="FOURORBIT">     0</i>
   <i name="AEXX">      0.00000000</i>
   <i name="HFALPHA">      0.00000000</i>
   <i name="ALDAX">      1.00000000</i>
   <i name="AGGAX">      1.00000000</i>
   <i name="ALDAC">      1.00000000</i>
   <i name="AGGAC">      1.00000000</i>
   <i type="int" name="NKREDX">     1</i>
   <i type="int" name="NKREDY">     1</i>
   <i type="int" name="NKREDZ">     1</i>
   <i type="logical" name="SHIFTRED"> F  </i>
   <i type="logical" name="ODDONLY"> F  </i>
   <i type="logical" name="EVENONLY"> F  </i>
   <i type="int" name="LMAXFOCK">     0</i>
   <i type="int" name="NMAXFOCKAE">     0</i>
   <i name="HFSCREEN">      0.00000000</i>
   <i name="HFSCREENC">      0.00000000</i>
  </separator>
  <separator name="model GW" >
   <i type="int" name="MODEL_GW">     0</i>
   <i name="MODEL_EPS0">     10.23670678</i>
   <i name="MODEL_ALPHA">      1.00000000</i>
  </separator>
  <separator name="linear response parameters" >
   <i type="logical" name="LEPSILON"> F  </i>
   <i type="logical" name="LRPA"> F  </i>
   <i type="logical" name="LNABLA"> F  </i>
   <i type="logical" name="LVEL"> F  </i>
   <i type="int" name="KINTER">     0</i>
   <i name="CSHIFT">      0.10000000</i>
   <i name="OMEGAMAX">     -1.00000000</i>
  </separator>
  <separator name="orbital magnetization" >
   <i type="logical" name="ORBITALMAG"> F  </i>
   <i type="logical" name="LMAGBLOCH"> F  </i>
   <i type="logical" name="LCHIMAG"> F  </i>
   <i type="logical" name="LGAUGE"> T  </i>
   <i type="int" name="MAGATOM">     0</i>
   <v name="MAGDIPOL">      0.00000000      0.00000000      0.00000000</v>
   <v name="AVECCONST">      0.00000000      0.00000000      0.00000000</v>
  </separator>
  <separator name="response functions" >
   <i type="logical" name="LRPA"> T  </i>
   <i type="logical" name="LTCTE"> F  </i>
   <i type="logical" name="LTETE"> F  </i>
   <i type="logical" name="L2ORDER"> F  </i>
   <i type="logical" name="LGWLF"> F  </i>
   <i name="ENCUTGW">    200.00000000</i>
   <i name="ENCUTGWSOFT">     -2.00000000</i>
   <i name="ENCUTLF">     -1.00000000</i>
   <i type="int" name="LMAXMP2">    -1</i>
   <i name="SCISSOR">      0.00000000</i>
   <i type="int" name="NOMEGA">     0</i>
   <i type="int" name="NOMEGAR">     0</i>
   <i type="int" name="NBANDSGW">    -1</i>
   <i type="int" name="NBANDSLF">    -1</i>
   <i type="int" name="NELM">     1</i>
   <i type="int" name="DIM">     3</i>
   <i type="int" name="ANTIRES">     0</i>
   <i type="logical" name="LUSEW"> F  </i>
   <i name="OMEGAMAX">    -30.00000000</i>
   <i name="OMEGATL">   -200.00000000</i>
   <i type="int" name="OMEGAGRID">     0</i>
   <i name="CSHIFT">     -0.10000000</i>
   <i type="logical" name="SELFENERGY"> F  </i>
   <i type="logical" name="LSPECTRAL"> F  </i>
   <i type="logical" name="ODDONLYGW"> F  </i>
   <i type="logical" name="EVENONLYGW"> F  </i>
   <i type="int" name="NKREDLFX">     1</i>
   <i type="int" name="NKREDLFY">     1</i>
   <i type="int" name="NKREDLFZ">     1</i>
   <i type="int" name="MAXMEM">  1024</i>
   <i type="int" name="TELESCOPE">     0</i>
  </separator>
 </parameters>
 <atominfo>
  <atoms>      31 </atoms>
  <types>       2 </types>
  <array name="atoms" >
   <dimension dim="1">ion</dimension>
   <field type="string">element</field>
   <field type="int">atomtype</field>
   <set>
    <rc><c>Al</c><c>   1</c></rc>
    <rc><c>Al</c><c>   1</c></rc>
    <rc><c>Al</c><c>   1</c></rc>
    <rc><c>Al</c><c>   1</c></rc>
    <rc><c>Al</c><c>   1</c></rc>
    <rc><c>Al</c><c>   1</c></rc>
    <rc><c>Al</c><c>   1</c></rc>
    <rc><c>Al</c><c>   1</c></rc>
    <rc><c>Al</c><c>   1</c></rc>
    <rc><c>Al</c><c>   1</c></rc>
    <rc><c>Al</c><c>   1</c></rc>
    <rc><c>Al</c><c>   1</c></rc>
    <rc><c>Al</c><c>   1</c></rc>
    <rc><c>Al</c><c>   1</c></rc>
    <rc><c>Al</c><c>   1</c></rc>
    <rc><c>Al</c><c>   1</c></rc>
    <rc><c>Al</c><c>   1</c></rc>
    <rc><c>Al</c><c>   1</c></rc>
    <rc><c>Al</c><c>   1</c></rc>
    <rc><c>Al</c><c>   1</c></rc>
    <rc><c>Al</c><c>   1</c></rc>
    <rc><c>Al</c><c>   1</c></rc>
    <rc><c>Al</c><c>   1</c></rc>
    <rc><c>Al</c><c>   1</c></rc>
    <rc><c>Al</c><c>   1</c></rc>
    <rc><c>Al</c><c>   1</c></rc>
    <rc><c>Al</c><c>   1</c></rc>
    <rc><c>Al</c><c>   1</c></rc>
    <rc><c>Al</c><c>   1</c></rc>
    <rc><c>Al</c><c>   1</c></rc>
    <rc><c>Mg</c><c>   2</c></rc>
   </set>
  </array>
  <array name="atomtypes" >
   <dimension dim="1">type</dimension>
   <field type="int">atomspertype</field>
   <field type="string">element</field>
   <field>mass</field>
   <field>valence</field>
   <field type="string">pseudopotential</field>
   <set>
    <rc><c>  30</c><c>Al</c><c>     26.98200000</c><c>      3.00000000</c><c> PAW_PBE Al 04Jan2001                   </c></rc>
    <rc><c>   1</c><c>Mg</c><c>     24.30500000</c><c>      2.00000000</c><c> PAW_PBE Mg 05Jan2001                   </c></rc>
   </set>
  </array>
 </atominfo>
 <structure name="initialpos" >
  <crystal>
   <varray name="basis" >
    <v>       8.08705200       0.00000000       0.00000000 </v>
    <v>       0.00000000       8.08705200       0.00000000 </v>
    <v>       0.00000000       0.00000000       8.08705200 </v>
   </varray>
   <i name="volume">    528.89651690 </i>
   <varray name="rec_basis" >
    <v>       0.12365445       0.00000000       0.00000000 </v>
    <v>       0.00000000       0.12365445       0.00000000 </v>
    <v>       0.00000000       0.00000000       0.12365445 </v>
   </varray>
  </crystal>
  <varray name="positions" >
   <v>       0.00090600       0.00000000       0.00090600 </v>
   <v>       0.24684900       0.00000000       0.24684900 </v>
   <v>       0.24947500       0.25556300       0.00486800 </v>
   <v>       0.00486800       0.25556300       0.24947500 </v>
   <v>       0.50022800       0.00000000       0.98624300 </v>
   <v>       0.76375700       0.00000000       0.24977300 </v>
   <v>       0.75355500       0.24728000       0.99644600 </v>
   <v>       0.51143300       0.22809400       0.23856800 </v>
   <v>       0.99998300       0.50000000       0.99998300 </v>
   <v>       0.24947500       0.74443700       0.00486800 </v>
   <v>       0.00486800       0.74443700       0.24947500 </v>
   <v>       0.49876600       0.50000000       0.00318600 </v>
   <v>       0.74681300       0.50000000       0.25123200 </v>
   <v>       0.75355500       0.75272100       0.99644600 </v>
   <v>       0.51143300       0.77190600       0.23856800 </v>
   <v>       0.98624300       0.00000000       0.50022800 </v>
   <v>       0.24977300       0.00000000       0.76375700 </v>
   <v>       0.23856800       0.22809400       0.51143300 </v>
   <v>       0.99644600       0.24728000       0.75355500 </v>
   <v>       0.50315100       0.00000000       0.50315100 </v>
   <v>       0.74909400       0.00000000       0.74909400 </v>
   <v>       0.74513100       0.25556300       0.50052600 </v>
   <v>       0.50052600       0.25556300       0.74513100 </v>
   <v>       0.00318600       0.50000000       0.49876600 </v>
   <v>       0.25123200       0.50000000       0.74681300 </v>
   <v>       0.23856800       0.77190600       0.51143300 </v>
   <v>       0.99644600       0.75272100       0.75355500 </v>
   <v>       0.75001800       0.50000000       0.75001800 </v>
   <v>       0.74513100       0.74443700       0.50052600 </v>
   <v>       0.50052600       0.74443700       0.74513100 </v>
   <v>       0.37500000       0.50000000       0.37500000 </v>
  </varray>
  <varray name="selective"  type="logical" >
   <v type="logical" >  F  F  F </v>
   <v type="logical" >  F  F  F </v>
   <v type="logical" >  F  F  F </v>
   <v type="logical" >  F  F  F </v>
   <v type="logical" >  F  F  F </v>
   <v type="logical" >  F  F  F </v>
   <v type="logical" >  F  F  F </v>
   <v type="logical" >  F  F  F </v>
   <v type="logical" >  F  F  F </v>
   <v type="logical" >  F  F  F </v>
   <v type="logical" >  F  F  F </v>
   <v type="logical" >  F  F  F </v>
   <v type="logical" >  F  F  F </v>
   <v type="logical" >  F  F  F </v>
   <v type="logical" >  F  F  F </v>
   <v type="logical" >  F  F  F </v>
   <v type="logical" >  F  F  F </v>
   <v type="logical" >  F  F  F </v>
   <v type="logical" >  F  F  F </v>
   <v type="logical" >  F  F  F </v>
   <v type="logical" >  F  F  F </v>
   <v type="logical" >  F  F  F </v>
   <v type="logical" >  F  F  F </v>
   <v type="logical" >  F  F  F </v>
   <v type="logical" >  F  F  F </v>
   <v type="logical" >  F  F  F </v>
   <v type="logical" >  F  F  F </v>
   <v type="logical" >  F  F  F </v>
   <v type="logical" >  F  F  F </v>
   <v type="logical" >  F  F  F </v>
   <v type="logical" >  T  T  T </v>
  </varray>
  <nose>
   <v>      -3.00000000       0.00000000       0.00010000       0.00010000 </v>
  </nose>
 </structure>
 <calculation>
  <scstep>
   <time name="diag">    0.30    0.30</time>
   <time name="diis">    0.68    0.68</time>
   <time name="orth">    0.02    0.02</time>
   <time name="total">    1.17    1.17</time>
   <energy>
    <i name="alphaZ">     -7.38313139 </i>
    <i name="ewald">  -2176.46779687 </i>
    <i name="hartreedc">    -27.65180422 </i>
    <i name="XCdc">   -796.31441840 </i>
    <i name="pawpsdc">   1078.21717227 </i>
    <i name="pawaedc">   -108.50372521 </i>
    <i name="eentropy">     -0.00632502 </i>
    <i name="bandstr">    641.45432194 </i>
    <i name="atom">   1629.13144109 </i>
    <i name="e_fr_energy">    232.47573420 </i>
    <i name="e_wo_entrp">    232.48205922 </i>
    <i name="e_0_energy">    232.47784254 </i>
   </energy>
  </scstep>
  <scstep>
   <time name="diag">    0.30    0.30</time>
   <time name="diis">    0.68    0.68</time>
   <time name="orth">    0.02    0.02</time>
   <time name="total">    1.00    1.01</time>
   <energy>
    <i name="e_fr_energy">    -38.89408162 </i>
    <i name="e_wo_entrp">    -38.85340500 </i>
    <i name="e_0_energy">    -38.88052275 </i>
   </energy>
  </scstep>
  <scstep>
   <time name="diag">    0.30    0.30</time>
   <time name="diis">    0.69    0.69</time>
   <time name="orth">    0.02    0.02</time>
   <time name="total">    1.01    1.01</time>
   <energy>
    <i name="e_fr_energy">    -94.60117987 </i>
    <i name="e_wo_entrp">    -94.54713576 </i>
    <i name="e_0_energy">    -94.58316516 </i>
   </energy>
  </scstep>
  <scstep>
   <time name="diag">    0.30    0.30</time>
   <time name="diis">    0.68    0.68</time>
   <time name="orth">    0.02    0.02</time>
   <time name="total">    1.00    1.01</time>
   <energy>
    <i name="e_fr_energy">   -107.01363338 </i>
    <i name="e_wo_entrp">   -107.10558761 </i>
    <i name="e_0_energy">   -107.04428479 </i>
   </energy>
  </scstep>
  <scstep>
   <time name="diag">    0.30    0.30</time>
   <time name="diis">    0.69    0.69</time>
   <time name="orth">    0.02    0.02</time>
   <time name="total">    1.01    1.01</time>
   <energy>
    <i name="e_fr_energy">   -111.19452368 </i>
    <i name="e_wo_entrp">   -111.22463709 </i>
    <i name="e_0_energy">   -111.20456148 </i>
   </energy>
  </scstep>
  <scstep>
   <time name="diag">    0.30    0.30</time>
   <time name="diis">    0.69    0.69</time>
   <time name="orth">    0.02    0.02</time>
   <time name="total">    1.01    1.01</time>
   <energy>
    <i name="e_fr_energy">   -112.52353371 </i>
    <i name="e_wo_entrp">   -112.52666372 </i>
    <i name="e_0_energy">   -112.52457704 </i>
   </energy>
  </scstep>
  <scstep>
   <time name="diag">    0.30    0.30</time>
   <time name="diis">    0.69    0.69</time>
   <time name="orth">    0.02    0.02</time>
   <time name="total">    1.01    1.01</time>
   <energy>
    <i name="e_fr_energy">   -112.97503487 </i>
    <i name="e_wo_entrp">   -112.96330073 </i>
    <i name="e_0_energy">   -112.97112349 </i>
   </energy>
  </scstep>
  <scstep>
   <time name="diag">    0.30    0.30</time>
   <time name="diis">    0.70    0.70</time>
   <time name="orth">    0.02    0.02</time>
   <time name="total">    1.02    1.03</time>
   <energy>
    <i name="e_fr_energy">   -113.14185116 </i>
    <i name="e_wo_entrp">   -113.13089653 </i>
    <i name="e_0_energy">   -113.13819962 </i>
   </energy>
  </scstep>
  <scstep>
   <time name="diag">    0.30    0.30</time>
   <time name="diis">    1.42    1.42</time>
   <time name="orth">    0.02    0.02</time>
   <time name="total">    1.74    1.74</time>
   <energy>
    <i name="e_fr_energy">   -113.23074855 </i>
    <i name="e_wo_entrp">   -113.22329969 </i>
    <i name="e_0_energy">   -113.22826560 </i>
   </energy>
  </scstep>
  <scstep>
   <time name="diag">    0.30    0.30</time>
   <time name="diis">    1.48    1.48</time>
   <time name="orth">    0.02    0.02</time>
   <time name="total">    1.80    1.80</time>
   <energy>
    <i name="e_fr_energy">   -113.24229819 </i>
    <i name="e_wo_entrp">   -113.23541037 </i>
    <i name="e_0_energy">   -113.24000225 </i>
   </energy>
  </scstep>
  <scstep>
   <time name="diag">    0.30    0.30</time>
   <time name="diis">    1.22    1.22</time>
   <time name="orth">    0.02    0.02</time>
   <time name="total">    1.54    1.54</time>
   <energy>
    <i name="e_fr_energy">   -113.24276248 </i>
    <i name="e_wo_entrp">   -113.23585384 </i>
    <i name="e_0_energy">   -113.24045960 </i>
   </energy>
  </scstep>
  <scstep>
   <time name="diag">    0.30    0.30</time>
   <time name="diis">    1.14    1.14</time>
   <time name="orth">    0.02    0.02</time>
   <time name="total">    1.66    1.66</time>
   <energy>
    <i name="e_fr_energy">   -113.24278146 </i>
    <i name="e_wo_entrp">   -113.23587421 </i>
    <i name="e_0_energy">   -113.24047905 </i>
   </energy>
  </scstep>
  <scstep>
   <time name="diag">    0.30    0.30</time>
   <time name="diis">    1.21    1.21</time>
   <time name="orth">    0.02    0.02</time>
   <time name="total">    1.88    1.89</time>
   <energy>
    <i name="e_fr_energy">   -112.41620624 </i>
    <i name="e_wo_entrp">   -112.41277422 </i>
    <i name="e_0_energy">   -112.41506224 </i>
   </energy>
  </scstep>
  <scstep>
   <time name="diag">    0.30    0.30</time>
   <time name="diis">    1.19    1.19</time>
   <time name="orth">    0.02    0.02</time>
   <time name="total">    1.86    1.86</time>
   <energy>
    <i name="e_fr_energy">   -112.17733522 </i>
    <i name="e_wo_entrp">   -112.17212731 </i>
    <i name="e_0_energy">   -112.17559925 </i>
   </energy>
  </scstep>
  <scstep>
   <time name="diag">    0.30    0.30</time>
   <time name="diis">    1.21    1.21</time>
   <time name="orth">    0.02    0.02</time>
   <time name="total">    1.88    1.88</time>
   <energy>
    <i name="e_fr_energy">   -112.11085772 </i>
    <i name="e_wo_entrp">   -112.10500867 </i>
    <i name="e_0_energy">   -112.10890804 </i>
   </energy>
  </scstep>
  <scstep>
   <time name="diag">    0.30    0.30</time>
   <time name="diis">    1.22    1.22</time>
   <time name="orth">    0.02    0.02</time>
   <time name="total">    1.89    1.89</time>
   <energy>
    <i name="e_fr_energy">   -112.10888530 </i>
    <i name="e_wo_entrp">   -112.10320464 </i>
    <i name="e_0_energy">   -112.10699175 </i>
   </energy>
  </scstep>
  <scstep>
   <time name="diag">    0.30    0.30</time>
   <time name="diis">    1.20    1.20</time>
   <time name="orth">    0.02    0.02</time>
   <time name="total">    1.87    1.87</time>
   <energy>
    <i name="e_fr_energy">   -112.10883400 </i>
    <i name="e_wo_entrp">   -112.10341619 </i>
    <i name="e_0_energy">   -112.10702806 </i>
   </energy>
  </scstep>
  <scstep>
   <time name="diag">    0.30    0.30</time>
   <time name="diis">    1.29    1.29</time>
   <time name="orth">    0.02    0.02</time>
   <time name="total">    1.97    1.97</time>
   <energy>
    <i name="e_fr_energy">   -112.10883540 </i>
    <i name="e_wo_entrp">   -112.10333293 </i>
    <i name="e_0_energy">   -112.10700124 </i>
   </energy>
  </scstep>
  <scstep>
   <time name="diag">    0.30    0.30</time>
   <time name="diis">    1.01    1.01</time>
   <time name="orth">    0.02    0.02</time>
   <time name="total">    1.68    1.68</time>
   <energy>
    <i name="e_fr_energy">   -112.10884205 </i>
    <i name="e_wo_entrp">   -112.10334368 </i>
    <i name="e_0_energy">   -112.10700926 </i>
   </energy>
  </scstep>
  <scstep>
   <time name="diag">    0.30    0.30</time>
   <time name="diis">    0.83    0.84</time>
   <time name="orth">    0.02    0.02</time>
   <time name="total">    1.31    1.32</time>
   <energy>
    <i name="alphaZ">     -7.38313139 </i>
    <i name="ewald">  -2176.46779687 </i>
    <i name="hartreedc">    -32.05978548 </i>
    <i name="XCdc">   -792.80010513 </i>
    <i name="pawpsdc">   1084.36307285 </i>
    <i name="pawaedc">   -115.13979528 </i>
    <i name="eentropy">     -0.00549514 </i>
    <i name="bandstr">    298.25275287 </i>
    <i name="atom">   1629.13144109 </i>
    <i name="e_fr_energy">   -112.10884248 </i>
    <i name="e_wo_entrp">   -112.10334734 </i>
    <i name="e_0_energy">   -112.10701076 </i>
   </energy>
  </scstep>
  <structure>
   <crystal>
    <varray name="basis" >
     <v>       8.08705200       0.00000000       0.00000000 </v>
     <v>       0.00000000       8.08705200       0.00000000 </v>
     <v>       0.00000000       0.00000000       8.08705200 </v>
    </varray>
    <i name="volume">    528.89651690 </i>
    <varray name="rec_basis" >
     <v>       0.12365445       0.00000000       0.00000000 </v>
     <v>       0.00000000       0.12365445       0.00000000 </v>
     <v>       0.00000000       0.00000000       0.12365445 </v>
    </varray>
   </crystal>
   <varray name="positions" >
    <v>       0.00090600       0.00000000       0.00090600 </v>
    <v>       0.24684900       0.00000000       0.24684900 </v>
    <v>       0.24947500       0.25556300       0.00486800 </v>
    <v>       0.00486800       0.25556300       0.24947500 </v>
    <v>       0.50022800       0.00000000       0.98624300 </v>
    <v>       0.76375700       0.00000000       0.24977300 </v>
    <v>       0.75355500       0.24728000       0.99644600 </v>
    <v>       0.51143300       0.22809400       0.23856800 </v>
    <v>       0.99998300       0.50000000       0.99998300 </v>
    <v>       0.24947500       0.74443700       0.00486800 </v>
    <v>       0.00486800       0.74443700       0.24947500 </v>
    <v>       0.49876600       0.50000000       0.00318600 </v>
    <v>       0.74681300       0.50000000       0.25123200 </v>
    <v>       0.75355500       0.75272100       0.99644600 </v>
    <v>       0.51143300       0.77190600       0.23856800 </v>
    <v>       0.98624300       0.00000000       0.50022800 </v>
    <v>       0.24977300       0.00000000       0.76375700 </v>
    <v>       0.23856800       0.22809400       0.51143300 </v>
    <v>       0.99644600       0.24728000       0.75355500 </v>
    <v>       0.50315100       0.00000000       0.50315100 </v>
    <v>       0.74909400       0.00000000       0.74909400 </v>
    <v>       0.74513100       0.25556300       0.50052600 </v>
    <v>       0.50052600       0.25556300       0.74513100 </v>
    <v>       0.00318600       0.50000000       0.49876600 </v>
    <v>       0.25123200       0.50000000       0.74681300 </v>
    <v>       0.23856800       0.77190600       0.51143300 </v>
    <v>       0.99644600       0.75272100       0.75355500 </v>
    <v>       0.75001800       0.50000000       0.75001800 </v>
    <v>       0.74513100       0.74443700       0.50052600 </v>
    <v>       0.50052600       0.74443700       0.74513100 </v>
    <v>       0.37500000       0.50000000       0.37500000 </v>
   </varray>
  </structure>
  <varray name="forces" >
   <v>      -0.01654684       0.00000000      -0.01654684 </v>
   <v>       0.02087540       0.00000000       0.02087540 </v>
   <v>       0.04932645       0.07090632       0.04327384 </v>
   <v>       0.04327384       0.07090632       0.04932645 </v>
   <v>       0.02628482       0.00000000       0.04871504 </v>
   <v>      -0.04871504       0.00000000      -0.02628482 </v>
   <v>      -0.01427799       0.05488252       0.01427799 </v>
   <v>      -0.00022065      -0.02367657       0.00022065 </v>
   <v>       0.02983251       0.00000000       0.02983251 </v>
   <v>       0.04932645      -0.07090632       0.04327384 </v>
   <v>       0.04327384      -0.07090632       0.04932645 </v>
   <v>      -0.01811845       0.00000000       0.05179276 </v>
   <v>      -0.05179276       0.00000000       0.01811845 </v>
   <v>      -0.01427799      -0.05488252       0.01427799 </v>
   <v>      -0.00022065       0.02367657       0.00022065 </v>
   <v>       0.04871504       0.00000000       0.02628482 </v>
   <v>      -0.02628482       0.00000000      -0.04871504 </v>
   <v>       0.00022065      -0.02367657      -0.00022065 </v>
   <v>       0.01427799       0.05488252      -0.01427799 </v>
   <v>      -0.02087540       0.00000000      -0.02087540 </v>
   <v>       0.01654684       0.00000000       0.01654684 </v>
   <v>      -0.04327384       0.07090632      -0.04932645 </v>
   <v>      -0.04932645       0.07090632      -0.04327384 </v>
   <v>       0.05179276       0.00000000      -0.01811845 </v>
   <v>       0.01811845       0.00000000      -0.05179276 </v>
   <v>       0.00022065       0.02367657      -0.00022065 </v>
   <v>       0.01427799      -0.05488252      -0.01427799 </v>
   <v>      -0.02983251       0.00000000      -0.02983251 </v>
   <v>      -0.04327384      -0.07090632      -0.04932645 </v>
   <v>      -0.04932645      -0.07090632      -0.04327384 </v>
   <v>       0.00000000       0.00000000       0.00000000 </v>
  </varray>
  <varray name="stress" >
   <v>      -2.91732124       0.00000000       2.59834693 </v>
   <v>       0.00000000      18.38297244       0.00000000 </v>
   <v>       2.59834693       0.00000000      -2.91732124 </v>
  </varray>
  <energy>
   <i name="e_fr_energy">   -112.10884248 </i>
   <i name="e_wo_entrp">   -112.10701076 </i>
   <i name="e_0_energy">     -0.00549514 </i>
  </energy>
  <kpoints>
   <generation param="Monkhorst-Pack">
    <v type="int" name="divisions">       2        2        2 </v>
    <v name="usershift">      0.00000000       0.00000000       0.00000000 </v>
    <v name="genvec1">      0.50000000       0.00000000       0.00000000 </v>
    <v name="genvec2">      0.00000000       0.50000000       0.00000000 </v>
    <v name="genvec3">      0.00000000       0.00000000       0.50000000 </v>
    <v name="shift">      0.50000000       0.50000000       0.50000000 </v>
   </generation>
   <varray name="kpointlist" >
    <v>       0.25000000       0.25000000       0.25000000 </v>
    <v>      -0.25000000       0.25000000       0.25000000 </v>
   </varray>
   <varray name="weights" >
    <v>       0.50000000 </v>
    <v>       0.50000000 </v>
   </varray>
  </kpoints>
  <time name="totalsc">   31.67   31.75</time>
 </calculation>
 <calculation>
  <scstep>
   <time name="diag">    0.30    0.30</time>
   <time name="diis">    1.21    1.22</time>
   <time name="orth">    0.02    0.02</time>
   <time name="total">    1.90    1.90</time>
   <energy>
    <i name="alphaZ">     -7.38313139 </i>
    <i name="ewald">  -2176.46593798 </i>
    <i name="hartreedc">    -32.06180354 </i>
    <i name="XCdc">   -792.80014374 </i>
    <i name="pawpsdc">   1084.35820967 </i>
    <i name="pawaedc">   -115.13486617 </i>
    <i name="eentropy">     -0.00550242 </i>
    <i name="bandstr">    298.25310662 </i>
    <i name="atom">   1629.13144109 </i>
    <i name="e_fr_energy">   -112.10862786 </i>
    <i name="e_wo_entrp">   -112.10312543 </i>
    <i name="e_0_energy">   -112.10679372 </i>
   </energy>
  </scstep>
  <scstep>
   <time name="diag">    0.30    0.30</time>
   <time name="diis">    1.28    1.28</time>
   <time name="orth">    0.02    0.02</time>
   <time name="total">    1.97    1.97</time>
   <energy>
    <i name="e_fr_energy">   -112.10862318 </i>
    <i name="e_wo_entrp">   -112.10312112 </i>
    <i name="e_0_energy">   -112.10678916 </i>
   </energy>
  </scstep>
  <scstep>
   <time name="diag">    0.30    0.30</time>
   <time name="diis">    1.19    1.20</time>
   <time name="orth">    0.02    0.02</time>
   <time name="total">    1.88    1.88</time>
   <energy>
    <i name="e_fr_energy">   -112.10862416 </i>
    <i name="e_wo_entrp">   -112.10312398 </i>
    <i name="e_0_energy">   -112.10679077 </i>
   </energy>
  </scstep>
  <scstep>
   <time name="diag">    0.30    0.30</time>
   <time name="diis">    0.97    0.97</time>
   <time name="orth">    0.02    0.02</time>
   <time name="total">    1.66    1.66</time>
   <energy>
    <i name="e_fr_energy">   -112.10862533 </i>
    <i name="e_wo_entrp">   -112.10312485 </i>
    <i name="e_0_energy">   -112.10679183 </i>
   </energy>
  </scstep>
  <scstep>
   <time name="diag">    0.30    0.30</time>
   <time name="diis">    0.84    0.84</time>
   <time name="orth">    0.02    0.02</time>
   <time name="total">    1.32    1.33</time>
   <energy>
    <i name="alphaZ">     -7.38313139 </i>
    <i name="ewald">  -2176.46593798 </i>
    <i name="hartreedc">    -32.06170068 </i>
    <i name="XCdc">   -792.80024324 </i>
    <i name="pawpsdc">   1084.35389625 </i>
    <i name="pawaedc">   -115.13048418 </i>
    <i name="eentropy">     -0.00550044 </i>
    <i name="bandstr">    298.25303497 </i>
    <i name="atom">   1629.13144109 </i>
    <i name="e_fr_energy">   -112.10862560 </i>
    <i name="e_wo_entrp">   -112.10312516 </i>
    <i name="e_0_energy">   -112.10679212 </i>
   </energy>
  </scstep>
  <structure>
   <crystal>
    <varray name="basis" >
     <v>       8.08705200       0.00000000       0.00000000 </v>
     <v>       0.00000000       8.08705200       0.00000000 </v>
     <v>       0.00000000       0.00000000       8.08705200 </v>
    </varray>
    <i name="volume">    528.89651690 </i>
    <varray name="rec_basis" >
     <v>       0.12365445       0.00000000       0.00000000 </v>
     <v>       0.00000000       0.12365445       0.00000000 </v>
     <v>       0.00000000       0.00000000       0.12365445 </v>
    </varray>
   </crystal>
   <varray name="positions" >
    <v>       0.00090600       0.00000000       0.00090600 </v>
    <v>       0.24684900       0.00000000       0.24684900 </v>
    <v>       0.24947500       0.25556300       0.00486800 </v>
    <v>       0.00486800       0.25556300       0.24947500 </v>
    <v>       0.50022800       0.00000000       0.98624300 </v>
    <v>       0.76375700       0.00000000       0.24977300 </v>
    <v>       0.75355500       0.24728000       0.99644600 </v>
    <v>       0.51143300       0.22809400       0.23856800 </v>
    <v>       0.99998300       0.50000000       0.99998300 </v>
    <v>       0.24947500       0.74443700       0.00486800 </v>
    <v>       0.00486800       0.74443700       0.24947500 </v>
    <v>       0.49876600       0.50000000       0.00318600 </v>
    <v>       0.74681300       0.50000000       0.25123200 </v>
    <v>       0.75355500       0.75272100       0.99644600 </v>
    <v>       0.51143300       0.77190600       0.23856800 </v>
    <v>       0.98624300       0.00000000       0.50022800 </v>
    <v>       0.24977300       0.00000000       0.76375700 </v>
    <v>       0.23856800       0.22809400       0.51143300 </v>
    <v>       0.99644600       0.24728000       0.75355500 </v>
    <v>       0.50315100       0.00000000       0.50315100 </v>
    <v>       0.74909400       0.00000000       0.74909400 </v>
    <v>       0.74513100       0.25556300       0.50052600 </v>
    <v>       0.50052600       0.25556300       0.74513100 </v>
    <v>       0.00318600       0.50000000       0.49876600 </v>
    <v>       0.25123200       0.50000000       0.74681300 </v>
    <v>       0.23856800       0.77190600       0.51143300 </v>
    <v>       0.99644600       0.75272100       0.75355500 </v>
    <v>       0.75001800       0.50000000       0.75001800 </v>
    <v>       0.74513100       0.74443700       0.50052600 </v>
    <v>       0.50052600       0.74443700       0.74513100 </v>
    <v>       0.37685482       0.50000000       0.37500000 </v>
   </varray>
  </structure>
  <varray name="forces" >
   <v>      -0.01728098       0.00000000      -0.01624418 </v>
   <v>       0.02163150       0.00000000       0.02064971 </v>
   <v>       0.04940427       0.07067462       0.04366210 </v>
   <v>       0.04312860       0.07152424       0.05026087 </v>
   <v>       0.02617416       0.00000000       0.04756037 </v>
   <v>      -0.04832041       0.00000000      -0.02570782 </v>
   <v>      -0.01437438       0.05434227       0.01328806 </v>
   <v>       0.00361414      -0.04039808      -0.00776588 </v>
   <v>       0.02974070       0.00000000       0.02998037 </v>
   <v>       0.04940427      -0.07067462       0.04366210 </v>
   <v>       0.04312860      -0.07152424       0.05026087 </v>
   <v>      -0.01710976       0.00000000       0.04859810 </v>
   <v>      -0.04580823       0.00000000       0.01498144 </v>
   <v>      -0.01437438      -0.05434227       0.01328806 </v>
   <v>       0.00361414       0.04039808      -0.00776588 </v>
   <v>       0.04912901       0.00000000       0.02688508 </v>
   <v>      -0.02638683       0.00000000      -0.04989369 </v>
   <v>       0.00424507      -0.00700942      -0.00815592 </v>
   <v>       0.01419133       0.05545331      -0.01527954 </v>
   <v>      -0.02016214       0.00000000      -0.02110332 </v>
   <v>       0.01581612       0.00000000       0.01683987 </v>
   <v>      -0.04343368       0.07036322      -0.04840808 </v>
   <v>      -0.04928667       0.07120119      -0.04292898 </v>
   <v>       0.05742520       0.00000000      -0.02110075 </v>
   <v>       0.01915959       0.00000000      -0.05504409 </v>
   <v>       0.00424507       0.00700942      -0.00815592 </v>
   <v>       0.01419133      -0.05545331      -0.01527954 </v>
   <v>      -0.02996183       0.00000000      -0.02972126 </v>
   <v>      -0.04343368      -0.07036322      -0.04840808 </v>
   <v>      -0.04928667      -0.07120119      -0.04292898 </v>
   <v>      -0.02902345       0.00000000       0.04397489 </v>
  </varray>
  <varray name="stress" >
   <v>      -2.91946998       0.00000000       2.59851359 </v>
   <v>       0.00000000      18.38156089       0.00000000 </v>
   <v>       2.59850835       0.00000000      -2.91961265 </v>
  </varray>
  <energy>
   <i name="e_fr_energy">   -112.10862560 </i>
   <i name="e_wo_entrp">   -112.10679212 </i>
   <i name="e_0_energy">     -0.00550044 </i>
  </energy>
  <kpoints>
   <generation param="Monkhorst-Pack">
    <v type="int" name="divisions">       2        2        2 </v>
    <v name="usershift">      0.00000000       0.00000000       0.00000000 </v>
    <v name="genvec1">      0.50000000       0.00000000       0.00000000 </v>
    <v name="genvec2">      0.00000000       0.50000000       0.00000000 </v>
    <v name="genvec3">      0.00000000       0.00000000       0.50000000 </v>
    <v name="shift">      0.50000000       0.50000000       0.50000000 </v>
   </generation>
   <varray name="kpointlist" >
    <v>       0.25000000       0.25000000       0.25000000 </v>
    <v>      -0.25000000       0.25000000       0.25000000 </v>
   </varray>
   <varray name="weights" >
    <v>       0.50000000 </v>
    <v>       0.50000000 </v>
   </varray>
  </kpoints>
  <time name="totalsc">   11.10   11.15</time>
 </calculation>
 <calculation>
  <scstep>
   <time name="diag">    0.30    0.30</time>
   <time name="diis">    1.24    1.24</time>
   <time name="orth">    0.02    0.02</time>
   <time name="total">    1.92    1.92</time>
   <energy>
    <i name="alphaZ">     -7.38313139 </i>
    <i name="ewald">  -2176.46594018 </i>
    <i name="hartreedc">    -32.06151353 </i>
    <i name="XCdc">   -792.80021043 </i>
    <i name="pawpsdc">   1084.35378461 </i>
    <i name="pawaedc">   -115.13037088 </i>
    <i name="eentropy">     -0.00550368 </i>
    <i name="bandstr">    298.25280976 </i>
    <i name="atom">   1629.13144109 </i>
    <i name="e_fr_energy">   -112.10863464 </i>
    <i name="e_wo_entrp">   -112.10313096 </i>
    <i name="e_0_energy">   -112.10680008 </i>
   </energy>
  </scstep>
  <scstep>
   <time name="diag">    0.30    0.30</time>
   <time name="diis">    1.27    1.28</time>
   <time name="orth">    0.02    0.02</time>
   <time name="total">    1.95    1.95</time>
   <energy>
    <i name="e_fr_energy">   -112.10861561 </i>
    <i name="e_wo_entrp">   -112.10310932 </i>
    <i name="e_0_energy">   -112.10678018 </i>
   </energy>
  </scstep>
  <scstep>
   <time name="diag">    0.30    0.30</time>
   <time name="diis">    1.25    1.25</time>
   <time name="orth">    0.02    0.02</time>
   <time name="total">    1.92    1.92</time>
   <energy>
    <i name="e_fr_energy">   -112.10861970 </i>
    <i name="e_wo_entrp">   -112.10312096 </i>
    <i name="e_0_energy">   -112.10678679 </i>
   </energy>
  </scstep>
  <scstep>
   <time name="diag">    0.30    0.30</time>
   <time name="diis">    1.18    1.18</time>
   <time name="orth">    0.02    0.02</time>
   <time name="total">    1.85    1.85</time>
   <energy>
    <i name="e_fr_energy">   -112.10862455 </i>
    <i name="e_wo_entrp">   -112.10312429 </i>
    <i name="e_0_energy">   -112.10679113 </i>
   </energy>
  </scstep>
  <scstep>
   <time name="diag">    0.30    0.30</time>
   <time name="diis">    0.89    0.89</time>
   <time name="orth">    0.02    0.02</time>
   <time name="total">    1.56    1.56</time>
   <energy>
    <i name="e_fr_energy">   -112.10862565 </i>
    <i name="e_wo_entrp">   -112.10312522 </i>
    <i name="e_0_energy">   -112.10679218 </i>
   </energy>
  </scstep>
  <scstep>
   <time name="diag">    0.30    0.30</time>
   <time name="diis">    0.83    0.83</time>
   <time name="orth">    0.02    0.02</time>
   <time name="total">    1.31    1.31</time>
   <energy>
    <i name="alphaZ">     -7.38313139 </i>
    <i name="ewald">  -2176.46594018 </i>
    <i name="hartreedc">    -32.06169914 </i>
    <i name="XCdc">   -792.80024606 </i>
    <i name="pawpsdc">   1084.35373459 </i>
    <i name="pawaedc">   -115.13032067 </i>
    <i name="eentropy">     -0.00550042 </i>
    <i name="bandstr">    298.25303647 </i>
    <i name="atom">   1629.13144109 </i>
    <i name="e_fr_energy">   -112.10862571 </i>
    <i name="e_wo_entrp">   -112.10312528 </i>
    <i name="e_0_energy">   -112.10679223 </i>
   </energy>
  </scstep>
  <structure>
   <crystal>
    <varray name="basis" >
     <v>       8.08705200       0.00000000       0.00000000 </v>
     <v>       0.00000000       8.08705200       0.00000000 </v>
     <v>       0.00000000       0.00000000       8.08705200 </v>
    </varray>
    <i name="volume">    528.89651690 </i>
    <varray name="rec_basis" >
     <v>       0.12365445       0.00000000       0.00000000 </v>
     <v>       0.00000000       0.12365445       0.00000000 </v>
     <v>       0.00000000       0.00000000       0.12365445 </v>
    </varray>
   </crystal>
   <varray name="positions" >
    <v>       0.00090600       0.00000000       0.00090600 </v>
    <v>       0.24684900       0.00000000       0.24684900 </v>
    <v>       0.24947500       0.25556300       0.00486800 </v>
    <v>       0.00486800       0.25556300       0.24947500 </v>
    <v>       0.50022800       0.00000000       0.98624300 </v>
    <v>       0.76375700       0.00000000       0.24977300 </v>
    <v>       0.75355500       0.24728000       0.99644600 </v>
    <v>       0.51143300       0.22809400       0.23856800 </v>
    <v>       0.99998300       0.50000000       0.99998300 </v>
    <v>       0.24947500       0.74443700       0.00486800 </v>
    <v>       0.00486800       0.74443700       0.24947500 </v>
    <v>       0.49876600       0.50000000       0.00318600 </v>
    <v>       0.74681300       0.50000000       0.25123200 </v>
    <v>       0.75355500       0.75272100       0.99644600 </v>
    <v>       0.51143300       0.77190600       0.23856800 </v>
    <v>       0.98624300       0.00000000       0.50022800 </v>
    <v>       0.24977300       0.00000000       0.76375700 </v>
    <v>       0.23856800       0.22809400       0.51143300 </v>
    <v>       0.99644600       0.24728000       0.75355500 </v>
    <v>       0.50315100       0.00000000       0.50315100 </v>
    <v>       0.74909400       0.00000000       0.74909400 </v>
    <v>       0.74513100       0.25556300       0.50052600 </v>
    <v>       0.50052600       0.25556300       0.74513100 </v>
    <v>       0.00318600       0.50000000       0.49876600 </v>
    <v>       0.25123200       0.50000000       0.74681300 </v>
    <v>       0.23856800       0.77190600       0.51143300 </v>
    <v>       0.99644600       0.75272100       0.75355500 </v>
    <v>       0.75001800       0.50000000       0.75001800 </v>
    <v>       0.74513100       0.74443700       0.50052600 </v>
    <v>       0.50052600       0.74443700       0.74513100 </v>
    <v>       0.37314518       0.50000000       0.37500000 </v>
   </varray>
  </structure>
  <varray name="forces" >
   <v>      -0.01578859       0.00000000      -0.01682826 </v>
   <v>       0.02016025       0.00000000       0.02110372 </v>
   <v>       0.04926518       0.07117666       0.04297498 </v>
   <v>       0.04348249       0.07032772       0.04838294 </v>
   <v>       0.02637366       0.00000000       0.04991272 </v>
   <v>      -0.04910370       0.00000000      -0.02689073 </v>
   <v>      -0.01421769       0.05545329       0.01525217 </v>
   <v>      -0.00428007      -0.00700172       0.00812109 </v>
   <v>       0.02996534       0.00000000       0.02970818 </v>
   <v>       0.04926518      -0.07117666       0.04297498 </v>
   <v>       0.04348249      -0.07032772       0.04838294 </v>
   <v>      -0.01910667       0.00000000       0.05504948 </v>
   <v>      -0.05743989       0.00000000       0.02116727 </v>
   <v>      -0.01421769      -0.05545329       0.01525217 </v>
   <v>      -0.00428007       0.00700172       0.00812109 </v>
   <v>       0.04834537       0.00000000       0.02570157 </v>
   <v>      -0.02618812       0.00000000      -0.04754273 </v>
   <v>      -0.00364787      -0.04040541       0.00773085 </v>
   <v>       0.01434735       0.05434280      -0.01331533 </v>
   <v>      -0.02163359       0.00000000      -0.02065011 </v>
   <v>       0.01730868       0.00000000       0.01625478 </v>
   <v>      -0.04308002       0.07155878      -0.05028606 </v>
   <v>      -0.04942550       0.07069905      -0.04361643 </v>
   <v>       0.04579345       0.00000000      -0.01491488 </v>
   <v>       0.01716236       0.00000000      -0.04859208 </v>
   <v>      -0.00364787       0.04040541       0.00773085 </v>
   <v>       0.01434735      -0.05434280      -0.01331533 </v>
   <v>      -0.02973736       0.00000000      -0.02999204 </v>
   <v>      -0.04308002      -0.07155878      -0.05028606 </v>
   <v>      -0.04942550      -0.07069905      -0.04361643 </v>
   <v>       0.02900107       0.00000000      -0.04397533 </v>
  </varray>
  <varray name="stress" >
   <v>      -2.91951583       0.00000000       2.59840940 </v>
   <v>       0.00000000      18.38151835       0.00000000 </v>
   <v>       2.59843861       0.00000000      -2.91961505 </v>
  </varray>
  <energy>
   <i name="e_fr_energy">   -112.10862571 </i>
   <i name="e_wo_entrp">   -112.10679223 </i>
   <i name="e_0_energy">     -0.00550042 </i>
  </energy>
  <kpoints>
   <generation param="Monkhorst-Pack">
    <v type="int" name="divisions">       2        2        2 </v>
    <v name="usershift">      0.00000000       0.00000000       0.00000000 </v>
    <v name="genvec1">      0.50000000       0.00000000       0.00000000 </v>
    <v name="genvec2">      0.00000000       0.50000000       0.00000000 </v>
    <v name="genvec3">      0.00000000       0.00000000       0.50000000 </v>
    <v name="shift">      0.50000000       0.50000000       0.50000000 </v>
   </generation>
   <varray name="kpointlist" >
    <v>       0.25000000       0.25000000       0.25000000 </v>
    <v>      -0.25000000       0.25000000       0.25000000 </v>
   </varray>
   <varray name="weights" >
    <v>       0.50000000 </v>
    <v>       0.50000000 </v>
   </varray>
  </kpoints>
  <time name="totalsc">   12.91   12.92</time>
 </calculation>
 <calculation>
  <scstep>
   <time name="diag">    0.30    0.30</time>
   <time name="diis">    1.23    1.23</time>
   <time name="orth">    0.02    0.02</time>
   <time name="total">    1.91    1.91</time>
   <energy>
    <i name="alphaZ">     -7.38313139 </i>
    <i name="ewald">  -2176.46458429 </i>
    <i name="hartreedc">    -32.06196506 </i>
    <i name="XCdc">   -792.80027925 </i>
    <i name="pawpsdc">   1084.35373406 </i>
    <i name="pawaedc">   -115.13031998 </i>
    <i name="eentropy">     -0.00551602 </i>
    <i name="bandstr">    298.25268292 </i>
    <i name="atom">   1629.13144109 </i>
    <i name="e_fr_energy">   -112.10793791 </i>
    <i name="e_wo_entrp">   -112.10242189 </i>
    <i name="e_0_energy">   -112.10609924 </i>
   </energy>
  </scstep>
  <scstep>
   <time name="diag">    0.30    0.30</time>
   <time name="diis">    1.28    1.30</time>
   <time name="orth">    0.02    0.02</time>
   <time name="total">    1.95    1.98</time>
   <energy>
    <i name="e_fr_energy">   -112.10791867 </i>
    <i name="e_wo_entrp">   -112.10240756 </i>
    <i name="e_0_energy">   -112.10608164 </i>
   </energy>
  </scstep>
  <scstep>
   <time name="diag">    0.30    0.30</time>
   <time name="diis">    1.22    1.22</time>
   <time name="orth">    0.02    0.02</time>
   <time name="total">    1.90    1.90</time>
   <energy>
    <i name="e_fr_energy">   -112.10790977 </i>
    <i name="e_wo_entrp">   -112.10240511 </i>
    <i name="e_0_energy">   -112.10607488 </i>
   </energy>
  </scstep>
  <scstep>
   <time name="diag">    0.30    0.30</time>
   <time name="diis">    1.13    1.13</time>
   <time name="orth">    0.02    0.02</time>
   <time name="total">    1.80    1.81</time>
   <energy>
    <i name="e_fr_energy">   -112.10790648 </i>
    <i name="e_wo_entrp">   -112.10240094 </i>
    <i name="e_0_energy">   -112.10607130 </i>
   </energy>
  </scstep>
  <scstep>
   <time name="diag">    0.30    0.30</time>
   <time name="diis">    0.99    0.99</time>
   <time name="orth">    0.02    0.02</time>
   <time name="total">    1.66    1.66</time>
   <energy>
    <i name="e_fr_energy">   -112.10790423 </i>
    <i name="e_wo_entrp">   -112.10239864 </i>
    <i name="e_0_energy">   -112.10606903 </i>
   </energy>
  </scstep>
  <scstep>
   <time name="diag">    0.30    0.30</time>
   <time name="diis">    0.81    0.82</time>
   <time name="orth">    0.02    0.02</time>
   <time name="total">    1.30    1.30</time>
   <energy>
    <i name="alphaZ">     -7.38313139 </i>
    <i name="ewald">  -2176.46458429 </i>
    <i name="hartreedc">    -32.06228246 </i>
    <i name="XCdc">   -792.80023723 </i>
    <i name="pawpsdc">   1084.35423503 </i>
    <i name="pawaedc">   -115.13086068 </i>
    <i name="eentropy">     -0.00550535 </i>
    <i name="bandstr">    298.25302177 </i>
    <i name="atom">   1629.13144109 </i>
    <i name="e_fr_energy">   -112.10790351 </i>
    <i name="e_wo_entrp">   -112.10239816 </i>
    <i name="e_0_energy">   -112.10606839 </i>
   </energy>
  </scstep>
  <structure>
   <crystal>
    <varray name="basis" >
     <v>       8.08705200       0.00000000       0.00000000 </v>
     <v>       0.00000000       8.08705200       0.00000000 </v>
     <v>       0.00000000       0.00000000       8.08705200 </v>
    </varray>
    <i name="volume">    528.89651690 </i>
    <varray name="rec_basis" >
     <v>       0.12365445       0.00000000       0.00000000 </v>
     <v>       0.00000000       0.12365445       0.00000000 </v>
     <v>       0.00000000       0.00000000       0.12365445 </v>
    </varray>
   </crystal>
   <varray name="positions" >
    <v>       0.00090600       0.00000000       0.00090600 </v>
    <v>       0.24684900       0.00000000       0.24684900 </v>
    <v>       0.24947500       0.25556300       0.00486800 </v>
    <v>       0.00486800       0.25556300       0.24947500 </v>
    <v>       0.50022800       0.00000000       0.98624300 </v>
    <v>       0.76375700       0.00000000       0.24977300 </v>
    <v>       0.75355500       0.24728000       0.99644600 </v>
    <v>       0.51143300       0.22809400       0.23856800 </v>
    <v>       0.99998300       0.50000000       0.99998300 </v>
    <v>       0.24947500       0.74443700       0.00486800 </v>
    <v>       0.00486800       0.74443700       0.24947500 </v>
    <v>       0.49876600       0.50000000       0.00318600 </v>
    <v>       0.74681300       0.50000000       0.25123200 </v>
    <v>       0.75355500       0.75272100       0.99644600 </v>
    <v>       0.51143300       0.77190600       0.23856800 </v>
    <v>       0.98624300       0.00000000       0.50022800 </v>
    <v>       0.24977300       0.00000000       0.76375700 </v>
    <v>       0.23856800       0.22809400       0.51143300 </v>
    <v>       0.99644600       0.24728000       0.75355500 </v>
    <v>       0.50315100       0.00000000       0.50315100 </v>
    <v>       0.74909400       0.00000000       0.74909400 </v>
    <v>       0.74513100       0.25556300       0.50052600 </v>
    <v>       0.50052600       0.25556300       0.74513100 </v>
    <v>       0.00318600       0.50000000       0.49876600 </v>
    <v>       0.25123200       0.50000000       0.74681300 </v>
    <v>       0.23856800       0.77190600       0.51143300 </v>
    <v>       0.99644600       0.75272100       0.75355500 </v>
    <v>       0.75001800       0.50000000       0.75001800 </v>
    <v>       0.74513100       0.74443700       0.50052600 </v>
    <v>       0.50052600       0.74443700       0.74513100 </v>
    <v>       0.37500000       0.50185482       0.37500000 </v>
   </varray>
  </structure>
  <varray name="forces" >
   <v>      -0.01654636      -0.00155443      -0.01654636 </v>
   <v>       0.02086437       0.00239567       0.02086437 </v>
   <v>       0.04903473       0.07154836       0.04358319 </v>
   <v>       0.04358319       0.07154836       0.04903473 </v>
   <v>       0.02628600      -0.00071433       0.04872234 </v>
   <v>      -0.04872234      -0.00071433      -0.02628600 </v>
   <v>      -0.01509273       0.05595260       0.01509273 </v>
   <v>      -0.01767201       0.00688261       0.01767201 </v>
   <v>       0.02986646      -0.00173234       0.02986646 </v>
   <v>       0.04961420      -0.07034809       0.04300397 </v>
   <v>       0.04300397      -0.07034809       0.04961420 </v>
   <v>      -0.01812324      -0.00080085       0.05183387 </v>
   <v>      -0.05183387      -0.00080085       0.01812324 </v>
   <v>      -0.01347900      -0.05387133       0.01347900 </v>
   <v>       0.01794822       0.05518627      -0.01794822 </v>
   <v>       0.04872234      -0.00071433       0.02628600 </v>
   <v>      -0.02628600      -0.00071433      -0.04872234 </v>
   <v>       0.01767201       0.00688261      -0.01767201 </v>
   <v>       0.01509273       0.05595260      -0.01509273 </v>
   <v>      -0.02086437       0.00239567      -0.02086437 </v>
   <v>       0.01654636      -0.00155443       0.01654636 </v>
   <v>      -0.04358319       0.07154836      -0.04903473 </v>
   <v>      -0.04903473       0.07154836      -0.04358319 </v>
   <v>       0.05183387      -0.00080085      -0.01812324 </v>
   <v>       0.01812324      -0.00080085      -0.05183387 </v>
   <v>      -0.01794822       0.05518627       0.01794822 </v>
   <v>       0.01347900      -0.05387133      -0.01347900 </v>
   <v>      -0.02986646      -0.00173234      -0.02986646 </v>
   <v>      -0.04300397      -0.07034809      -0.04961420 </v>
   <v>      -0.04961420      -0.07034809      -0.04300397 </v>
   <v>       0.00000000      -0.12525847       0.00000000 </v>
  </varray>
  <varray name="stress" >
   <v>      -2.91582388       0.00000000       2.59147457 </v>
   <v>       0.00000000      18.38691474       0.00000000 </v>
   <v>       2.59147457       0.00000000      -2.91582388 </v>
  </varray>
  <energy>
   <i name="e_fr_energy">   -112.10790351 </i>
   <i name="e_wo_entrp">   -112.10606839 </i>
   <i name="e_0_energy">     -0.00550535 </i>
  </energy>
  <kpoints>
   <generation param="Monkhorst-Pack">
    <v type="int" name="divisions">       2        2        2 </v>
    <v name="usershift">      0.00000000       0.00000000       0.00000000 </v>
    <v name="genvec1">      0.50000000       0.00000000       0.00000000 </v>
    <v name="genvec2">      0.00000000       0.50000000       0.00000000 </v>
    <v name="genvec3">      0.00000000       0.00000000       0.50000000 </v>
    <v name="shift">      0.50000000       0.50000000       0.50000000 </v>
   </generation>
   <varray name="kpointlist" >
    <v>       0.25000000       0.25000000       0.25000000 </v>
    <v>      -0.25000000       0.25000000       0.25000000 </v>
   </varray>
   <varray name="weights" >
    <v>       0.50000000 </v>
    <v>       0.50000000 </v>
   </varray>
  </kpoints>
  <time name="totalsc">   12.90   12.94</time>
 </calculation>
 <calculation>
  <scstep>
   <time name="diag">    0.30    0.30</time>
   <time name="diis">    1.21    1.21</time>
   <time name="orth">    0.02    0.02</time>
   <time name="total">    1.89    1.89</time>
   <energy>
    <i name="alphaZ">     -7.38313139 </i>
    <i name="ewald">  -2176.46458425 </i>
    <i name="hartreedc">    -32.06191611 </i>
    <i name="XCdc">   -792.80030400 </i>
    <i name="pawpsdc">   1084.35422723 </i>
    <i name="pawaedc">   -115.13085202 </i>
    <i name="eentropy">     -0.00552020 </i>
    <i name="bandstr">    298.25260440 </i>
    <i name="atom">   1629.13144109 </i>
    <i name="e_fr_energy">   -112.10803524 </i>
    <i name="e_wo_entrp">   -112.10251504 </i>
    <i name="e_0_energy">   -112.10619518 </i>
   </energy>
  </scstep>
  <scstep>
   <time name="diag">    0.30    0.30</time>
   <time name="diis">    1.24    1.24</time>
   <time name="orth">    0.02    0.02</time>
   <time name="total">    1.91    1.91</time>
   <energy>
    <i name="e_fr_energy">   -112.10791387 </i>
    <i name="e_wo_entrp">   -112.10239490 </i>
    <i name="e_0_energy">   -112.10607422 </i>
   </energy>
  </scstep>
  <scstep>
   <time name="diag">    0.30    0.30</time>
   <time name="diis">    1.22    1.22</time>
   <time name="orth">    0.02    0.02</time>
   <time name="total">    1.90    1.90</time>
   <energy>
    <i name="e_fr_energy">   -112.10790038 </i>
    <i name="e_wo_entrp">   -112.10239672 </i>
    <i name="e_0_energy">   -112.10606583 </i>
   </energy>
  </scstep>
  <scstep>
   <time name="diag">    0.30    0.30</time>
   <time name="diis">    1.15    1.15</time>
   <time name="orth">    0.02    0.02</time>
   <time name="total">    1.83    1.83</time>
   <energy>
    <i name="e_fr_energy">   -112.10790247 </i>
    <i name="e_wo_entrp">   -112.10239735 </i>
    <i name="e_0_energy">   -112.10606743 </i>
   </energy>
  </scstep>
  <scstep>
   <time name="diag">    0.30    0.30</time>
   <time name="diis">    0.84    0.84</time>
   <time name="orth">    0.02    0.02</time>
   <time name="total">    1.32    1.32</time>
   <energy>
    <i name="alphaZ">     -7.38313139 </i>
    <i name="ewald">  -2176.46458425 </i>
    <i name="hartreedc">    -32.06230376 </i>
    <i name="XCdc">   -792.80024086 </i>
    <i name="pawpsdc">   1084.35422572 </i>
    <i name="pawaedc">   -115.13085167 </i>
    <i name="eentropy">     -0.00550558 </i>
    <i name="bandstr">    298.25304754 </i>
    <i name="atom">   1629.13144109 </i>
    <i name="e_fr_energy">   -112.10790315 </i>
    <i name="e_wo_entrp">   -112.10239758 </i>
    <i name="e_0_energy">   -112.10606796 </i>
   </energy>
  </scstep>
  <structure>
   <crystal>
    <varray name="basis" >
     <v>       8.08705200       0.00000000       0.00000000 </v>
     <v>       0.00000000       8.08705200       0.00000000 </v>
     <v>       0.00000000       0.00000000       8.08705200 </v>
    </varray>
    <i name="volume">    528.89651690 </i>
    <varray name="rec_basis" >
     <v>       0.12365445       0.00000000       0.00000000 </v>
     <v>       0.00000000       0.12365445       0.00000000 </v>
     <v>       0.00000000       0.00000000       0.12365445 </v>
    </varray>
   </crystal>
   <varray name="positions" >
    <v>       0.00090600       0.00000000       0.00090600 </v>
    <v>       0.24684900       0.00000000       0.24684900 </v>
    <v>       0.24947500       0.25556300       0.00486800 </v>
    <v>       0.00486800       0.25556300       0.24947500 </v>
    <v>       0.50022800       0.00000000       0.98624300 </v>
    <v>       0.76375700       0.00000000       0.24977300 </v>
    <v>       0.75355500       0.24728000       0.99644600 </v>
    <v>       0.51143300       0.22809400       0.23856800 </v>
    <v>       0.99998300       0.50000000       0.99998300 </v>
    <v>       0.24947500       0.74443700       0.00486800 </v>
    <v>       0.00486800       0.74443700       0.24947500 </v>
    <v>       0.49876600       0.50000000       0.00318600 </v>
    <v>       0.74681300       0.50000000       0.25123200 </v>
    <v>       0.75355500       0.75272100       0.99644600 </v>
    <v>       0.51143300       0.77190600       0.23856800 </v>
    <v>       0.98624300       0.00000000       0.50022800 </v>
    <v>       0.24977300       0.00000000       0.76375700 </v>
    <v>       0.23856800       0.22809400       0.51143300 </v>
    <v>       0.99644600       0.24728000       0.75355500 </v>
    <v>       0.50315100       0.00000000       0.50315100 </v>
    <v>       0.74909400       0.00000000       0.74909400 </v>
    <v>       0.74513100       0.25556300       0.50052600 </v>
    <v>       0.50052600       0.25556300       0.74513100 </v>
    <v>       0.00318600       0.50000000       0.49876600 </v>
    <v>       0.25123200       0.50000000       0.74681300 </v>
    <v>       0.23856800       0.77190600       0.51143300 </v>
    <v>       0.99644600       0.75272100       0.75355500 </v>
    <v>       0.75001800       0.50000000       0.75001800 </v>
    <v>       0.74513100       0.74443700       0.50052600 </v>
    <v>       0.50052600       0.74443700       0.74513100 </v>
    <v>       0.37500000       0.49814518       0.37500000 </v>
   </varray>
  </structure>
  <varray name="forces" >
   <v>      -0.01654630       0.00153053      -0.01654630 </v>
   <v>       0.02086720      -0.00233086       0.02086720 </v>
   <v>       0.04964847       0.07033038       0.04302108 </v>
   <v>       0.04302108       0.07033038       0.04964847 </v>
   <v>       0.02628571       0.00073852       0.04872422 </v>
   <v>      -0.04872422       0.00073852      -0.02628571 </v>
   <v>      -0.01350061       0.05385341       0.01350061 </v>
   <v>       0.01796681      -0.05521452      -0.01796681 </v>
   <v>       0.02986758       0.00178853       0.02986758 </v>
   <v>       0.04900200      -0.07156951       0.04357135 </v>
   <v>       0.04357135      -0.07156951       0.04900200 </v>
   <v>      -0.01812336       0.00079050       0.05183698 </v>
   <v>      -0.05183698       0.00079050       0.01812336 </v>
   <v>      -0.01507289      -0.05597180       0.01507289 </v>
   <v>      -0.01769426      -0.00691152       0.01769426 </v>
   <v>       0.04872422       0.00073852       0.02628571 </v>
   <v>      -0.02628571       0.00073852      -0.04872422 </v>
   <v>      -0.01796681      -0.05521452       0.01796681 </v>
   <v>       0.01350061       0.05385341      -0.01350061 </v>
   <v>      -0.02086720      -0.00233086      -0.02086720 </v>
   <v>       0.01654630       0.00153053       0.01654630 </v>
   <v>      -0.04302108       0.07033038      -0.04964847 </v>
   <v>      -0.04964847       0.07033038      -0.04302108 </v>
   <v>       0.05183698       0.00079050      -0.01812336 </v>
   <v>       0.01812336       0.00079050      -0.05183698 </v>
   <v>       0.01769426      -0.00691152      -0.01769426 </v>
   <v>       0.01507289      -0.05597180      -0.01507289 </v>
   <v>      -0.02986758       0.00178853      -0.02986758 </v>
   <v>      -0.04357135      -0.07156951      -0.04900200 </v>
   <v>      -0.04900200      -0.07156951      -0.04357135 </v>
   <v>       0.00000000       0.12535289       0.00000000 </v>
  </varray>
  <varray name="stress" >
   <v>      -2.91588884       0.00000000       2.59132965 </v>
   <v>       0.00000000      18.38692736       0.00000000 </v>
   <v>       2.59132965       0.00000000      -2.91588884 </v>
  </varray>
  <energy>
   <i name="e_fr_energy">   -112.10790315 </i>
   <i name="e_wo_entrp">   -112.10606796 </i>
   <i name="e_0_energy">     -0.00550558 </i>
  </energy>
  <kpoints>
   <generation param="Monkhorst-Pack">
    <v type="int" name="divisions">       2        2        2 </v>
    <v name="usershift">      0.00000000       0.00000000       0.00000000 </v>
    <v name="genvec1">      0.50000000       0.00000000       0.00000000 </v>
    <v name="genvec2">      0.00000000       0.50000000       0.00000000 </v>
    <v name="genvec3">      0.00000000       0.00000000       0.50000000 </v>
    <v name="shift">      0.50000000       0.50000000       0.50000000 </v>
   </generation>
   <varray name="kpointlist" >
    <v>       0.25000000       0.25000000       0.25000000 </v>
    <v>      -0.25000000       0.25000000       0.25000000 </v>
   </varray>
   <varray name="weights" >
    <v>       0.50000000 </v>
    <v>       0.50000000 </v>
   </varray>
  </kpoints>
  <time name="totalsc">   11.22   11.23</time>
 </calculation>
 <calculation>
  <scstep>
   <time name="diag">    0.30    0.30</time>
   <time name="diis">    1.23    1.24</time>
   <time name="orth">    0.02    0.02</time>
   <time name="total">    1.91    1.91</time>
   <energy>
    <i name="alphaZ">     -7.38313139 </i>
    <i name="ewald">  -2176.46593798 </i>
    <i name="hartreedc">    -32.06173201 </i>
    <i name="XCdc">   -792.80021939 </i>
    <i name="pawpsdc">   1084.35423330 </i>
    <i name="pawaedc">   -115.13085871 </i>
    <i name="eentropy">     -0.00549773 </i>
    <i name="bandstr">    298.25305158 </i>
    <i name="atom">   1629.13144109 </i>
    <i name="e_fr_energy">   -112.10865123 </i>
    <i name="e_wo_entrp">   -112.10315350 </i>
    <i name="e_0_energy">   -112.10681865 </i>
   </energy>
  </scstep>
  <scstep>
   <time name="diag">    0.30    0.30</time>
   <time name="diis">    1.34    1.34</time>
   <time name="orth">    0.02    0.02</time>
   <time name="total">    2.02    2.02</time>
   <energy>
    <i name="e_fr_energy">   -112.10864945 </i>
    <i name="e_wo_entrp">   -112.10314553 </i>
    <i name="e_0_energy">   -112.10681481 </i>
   </energy>
  </scstep>
  <scstep>
   <time name="diag">    0.30    0.30</time>
   <time name="diis">    1.25    1.25</time>
   <time name="orth">    0.02    0.02</time>
   <time name="total">    1.93    1.93</time>
   <energy>
    <i name="e_fr_energy">   -112.10863445 </i>
    <i name="e_wo_entrp">   -112.10313590 </i>
    <i name="e_0_energy">   -112.10680160 </i>
   </energy>
  </scstep>
  <scstep>
   <time name="diag">    0.31    0.31</time>
   <time name="diis">    1.15    1.15</time>
   <time name="orth">    0.02    0.02</time>
   <time name="total">    1.83    1.83</time>
   <energy>
    <i name="e_fr_energy">   -112.10862821 </i>
    <i name="e_wo_entrp">   -112.10312823 </i>
    <i name="e_0_energy">   -112.10679489 </i>
   </energy>
  </scstep>
  <scstep>
   <time name="diag">    0.31    0.31</time>
   <time name="diis">    1.06    1.06</time>
   <time name="orth">    0.02    0.02</time>
   <time name="total">    1.75    1.75</time>
   <energy>
    <i name="e_fr_energy">   -112.10862618 </i>
    <i name="e_wo_entrp">   -112.10312576 </i>
    <i name="e_0_energy">   -112.10679271 </i>
   </energy>
  </scstep>
  <scstep>
   <time name="diag">    0.30    0.30</time>
   <time name="diis">    0.82    0.83</time>
   <time name="orth">    0.02    0.02</time>
   <time name="total">    1.31    1.32</time>
   <energy>
    <i name="alphaZ">     -7.38313139 </i>
    <i name="ewald">  -2176.46593798 </i>
    <i name="hartreedc">    -32.06168855 </i>
    <i name="XCdc">   -792.80024626 </i>
    <i name="pawpsdc">   1084.35373198 </i>
    <i name="pawaedc">   -115.13031758 </i>
    <i name="eentropy">     -0.00550036 </i>
    <i name="bandstr">    298.25302327 </i>
    <i name="atom">   1629.13144109 </i>
    <i name="e_fr_energy">   -112.10862578 </i>
    <i name="e_wo_entrp">   -112.10312542 </i>
    <i name="e_0_energy">   -112.10679233 </i>
   </energy>
  </scstep>
  <structure>
   <crystal>
    <varray name="basis" >
     <v>       8.08705200       0.00000000       0.00000000 </v>
     <v>       0.00000000       8.08705200       0.00000000 </v>
     <v>       0.00000000       0.00000000       8.08705200 </v>
    </varray>
    <i name="volume">    528.89651690 </i>
    <varray name="rec_basis" >
     <v>       0.12365445       0.00000000       0.00000000 </v>
     <v>       0.00000000       0.12365445       0.00000000 </v>
     <v>       0.00000000       0.00000000       0.12365445 </v>
    </varray>
   </crystal>
   <varray name="positions" >
    <v>       0.00090600       0.00000000       0.00090600 </v>
    <v>       0.24684900       0.00000000       0.24684900 </v>
    <v>       0.24947500       0.25556300       0.00486800 </v>
    <v>       0.00486800       0.25556300       0.24947500 </v>
    <v>       0.50022800       0.00000000       0.98624300 </v>
    <v>       0.76375700       0.00000000       0.24977300 </v>
    <v>       0.75355500       0.24728000       0.99644600 </v>
    <v>       0.51143300       0.22809400       0.23856800 </v>
    <v>       0.99998300       0.50000000       0.99998300 </v>
    <v>       0.24947500       0.74443700       0.00486800 </v>
    <v>       0.00486800       0.74443700       0.24947500 </v>
    <v>       0.49876600       0.50000000       0.00318600 </v>
    <v>       0.74681300       0.50000000       0.25123200 </v>
    <v>       0.75355500       0.75272100       0.99644600 </v>
    <v>       0.51143300       0.77190600       0.23856800 </v>
    <v>       0.98624300       0.00000000       0.50022800 </v>
    <v>       0.24977300       0.00000000       0.76375700 </v>
    <v>       0.23856800       0.22809400       0.51143300 </v>
    <v>       0.99644600       0.24728000       0.75355500 </v>
    <v>       0.50315100       0.00000000       0.50315100 </v>
    <v>       0.74909400       0.00000000       0.74909400 </v>
    <v>       0.74513100       0.25556300       0.50052600 </v>
    <v>       0.50052600       0.25556300       0.74513100 </v>
    <v>       0.00318600       0.50000000       0.49876600 </v>
    <v>       0.25123200       0.50000000       0.74681300 </v>
    <v>       0.23856800       0.77190600       0.51143300 </v>
    <v>       0.99644600       0.75272100       0.75355500 </v>
    <v>       0.75001800       0.50000000       0.75001800 </v>
    <v>       0.74513100       0.74443700       0.50052600 </v>
    <v>       0.50052600       0.74443700       0.74513100 </v>
    <v>       0.37500000       0.50000000       0.37685482 </v>
   </varray>
  </structure>
  <varray name="forces" >
   <v>      -0.01621631       0.00000000      -0.01729406 </v>
   <v>       0.02065221       0.00000000       0.02161864 </v>
   <v>       0.05026177       0.07154706       0.04312712 </v>
   <v>       0.04367661       0.07068092       0.04939931 </v>
   <v>       0.02686682       0.00000000       0.04912538 </v>
   <v>      -0.04988278       0.00000000      -0.02636724 </v>
   <v>      -0.01527843       0.05546099       0.01417220 </v>
   <v>      -0.00816868      -0.00698945       0.00424181 </v>
   <v>       0.03000966       0.00000000       0.02973218 </v>
   <v>       0.05026177      -0.07154706       0.04312712 </v>
   <v>       0.04367661      -0.07068092       0.04939931 </v>
   <v>      -0.02111708       0.00000000       0.05747888 </v>
   <v>      -0.05506572       0.00000000       0.01913913 </v>
   <v>      -0.01527843      -0.05546099       0.01417220 </v>
   <v>      -0.00816868       0.00698945       0.00424181 </v>
   <v>       0.04757244       0.00000000       0.02619443 </v>
   <v>      -0.02572457       0.00000000      -0.04832362 </v>
   <v>      -0.00777914      -0.04042052       0.00361095 </v>
   <v>       0.01328888       0.05433452      -0.01439216 </v>
   <v>      -0.02110092       0.00000000      -0.02017430 </v>
   <v>       0.01686651       0.00000000       0.01580420 </v>
   <v>      -0.04291399       0.07119470      -0.04929079 </v>
   <v>      -0.04840630       0.07033909      -0.04343505 </v>
   <v>       0.04857556       0.00000000      -0.01713018 </v>
   <v>       0.01496274       0.00000000      -0.04575274 </v>
   <v>      -0.00777914       0.04042052       0.00361095 </v>
   <v>       0.01328888      -0.05433452      -0.01439216 </v>
   <v>      -0.02969099       0.00000000      -0.02996960 </v>
   <v>      -0.04291399      -0.07119470      -0.04929079 </v>
   <v>      -0.04840630      -0.07033909      -0.04343505 </v>
   <v>       0.04393097       0.00000000      -0.02894787 </v>
  </varray>
  <varray name="stress" >
   <v>      -2.91961823       0.00000000       2.59846416 </v>
   <v>       0.00000000      18.38153045       0.00000000 </v>
   <v>       2.59846248       0.00000000      -2.91949583 </v>
  </varray>
  <energy>
   <i name="e_fr_energy">   -112.10862578 </i>
   <i name="e_wo_entrp">   -112.10679233 </i>
   <i name="e_0_energy">     -0.00550036 </i>
  </energy>
  <kpoints>
   <generation param="Monkhorst-Pack">
    <v type="int" name="divisions">       2        2        2 </v>
    <v name="usershift">      0.00000000       0.00000000       0.00000000 </v>
    <v name="genvec1">      0.50000000       0.00000000       0.00000000 </v>
    <v name="genvec2">      0.00000000       0.50000000       0.00000000 </v>
    <v name="genvec3">      0.00000000       0.00000000       0.50000000 </v>
    <v name="shift">      0.50000000       0.50000000       0.50000000 </v>
   </generation>
   <varray name="kpointlist" >
    <v>       0.25000000       0.25000000       0.25000000 </v>
    <v>      -0.25000000       0.25000000       0.25000000 </v>
   </varray>
   <varray name="weights" >
    <v>       0.50000000 </v>
    <v>       0.50000000 </v>
   </varray>
  </kpoints>
  <time name="totalsc">   13.14   13.17</time>
 </calculation>
 <calculation>
  <scstep>
   <time name="diag">    0.30    0.30</time>
   <time name="diis">    1.25    1.25</time>
   <time name="orth">    0.02    0.02</time>
   <time name="total">    1.93    1.94</time>
   <energy>
    <i name="alphaZ">     -7.38313139 </i>
    <i name="ewald">  -2176.46594018 </i>
    <i name="hartreedc">    -32.06151705 </i>
    <i name="XCdc">   -792.80021125 </i>
    <i name="pawpsdc">   1084.35373781 </i>
    <i name="pawaedc">   -115.13032362 </i>
    <i name="eentropy">     -0.00550360 </i>
    <i name="bandstr">    298.25281459 </i>
    <i name="atom">   1629.13144109 </i>
    <i name="e_fr_energy">   -112.10863359 </i>
    <i name="e_wo_entrp">   -112.10313000 </i>
    <i name="e_0_energy">   -112.10679906 </i>
   </energy>
  </scstep>
  <scstep>
   <time name="diag">    0.30    0.30</time>
   <time name="diis">    1.28    1.28</time>
   <time name="orth">    0.02    0.02</time>
   <time name="total">    1.96    1.96</time>
   <energy>
    <i name="e_fr_energy">   -112.10861536 </i>
    <i name="e_wo_entrp">   -112.10311020 </i>
    <i name="e_0_energy">   -112.10678031 </i>
   </energy>
  </scstep>
  <scstep>
   <time name="diag">    0.30    0.30</time>
   <time name="diis">    1.29    1.29</time>
   <time name="orth">    0.02    0.02</time>
   <time name="total">    1.97    1.98</time>
   <energy>
    <i name="e_fr_energy">   -112.10861969 </i>
    <i name="e_wo_entrp">   -112.10312055 </i>
    <i name="e_0_energy">   -112.10678664 </i>
   </energy>
  </scstep>
  <scstep>
   <time name="diag">    0.30    0.31</time>
   <time name="diis">    1.16    1.16</time>
   <time name="orth">    0.02    0.02</time>
   <time name="total">    1.84    1.84</time>
   <energy>
    <i name="e_fr_energy">   -112.10862462 </i>
    <i name="e_wo_entrp">   -112.10312422 </i>
    <i name="e_0_energy">   -112.10679115 </i>
   </energy>
  </scstep>
  <scstep>
   <time name="diag">    0.30    0.30</time>
   <time name="diis">    0.86    0.86</time>
   <time name="orth">    0.02    0.02</time>
   <time name="total">    1.55    1.55</time>
   <energy>
    <i name="e_fr_energy">   -112.10862570 </i>
    <i name="e_wo_entrp">   -112.10312534 </i>
    <i name="e_0_energy">   -112.10679225 </i>
   </energy>
  </scstep>
  <scstep>
   <time name="diag">    0.30    0.30</time>
   <time name="diis">    0.81    0.81</time>
   <time name="orth">    0.02    0.02</time>
   <time name="total">    1.29    1.30</time>
   <energy>
    <i name="alphaZ">     -7.38313139 </i>
    <i name="ewald">  -2176.46594018 </i>
    <i name="hartreedc">    -32.06169782 </i>
    <i name="XCdc">   -792.80024605 </i>
    <i name="pawpsdc">   1084.35373342 </i>
    <i name="pawaedc">   -115.13031950 </i>
    <i name="eentropy">     -0.00550041 </i>
    <i name="bandstr">    298.25303510 </i>
    <i name="atom">   1629.13144109 </i>
    <i name="e_fr_energy">   -112.10862574 </i>
    <i name="e_wo_entrp">   -112.10312533 </i>
    <i name="e_0_energy">   -112.10679227 </i>
   </energy>
  </scstep>
  <structure>
   <crystal>
    <varray name="basis" >
     <v>       8.08705200       0.00000000       0.00000000 </v>
     <v>       0.00000000       8.08705200       0.00000000 </v>
     <v>       0.00000000       0.00000000       8.08705200 </v>
    </varray>
    <i name="volume">    528.89651690 </i>
    <varray name="rec_basis" >
     <v>       0.12365445       0.00000000       0.00000000 </v>
     <v>       0.00000000       0.12365445       0.00000000 </v>
     <v>       0.00000000       0.00000000       0.12365445 </v>
    </varray>
   </crystal>
   <varray name="positions" >
    <v>       0.00090600       0.00000000       0.00090600 </v>
    <v>       0.24684900       0.00000000       0.24684900 </v>
    <v>       0.24947500       0.25556300       0.00486800 </v>
    <v>       0.00486800       0.25556300       0.24947500 </v>
    <v>       0.50022800       0.00000000       0.98624300 </v>
    <v>       0.76375700       0.00000000       0.24977300 </v>
    <v>       0.75355500       0.24728000       0.99644600 </v>
    <v>       0.51143300       0.22809400       0.23856800 </v>
    <v>       0.99998300       0.50000000       0.99998300 </v>
    <v>       0.24947500       0.74443700       0.00486800 </v>
    <v>       0.00486800       0.74443700       0.24947500 </v>
    <v>       0.49876600       0.50000000       0.00318600 </v>
    <v>       0.74681300       0.50000000       0.25123200 </v>
[...]
       <r>   -2.9858    1.0000 </r>
       <r>   -1.9504    1.0000 </r>
       <r>   -1.8155    1.0000 </r>
       <r>   -1.7220    1.0000 </r>
       <r>   -0.8253    1.0000 </r>
       <r>   -0.6096    1.0000 </r>
       <r>   -0.5484    1.0000 </r>
       <r>    0.2618    1.0000 </r>
       <r>    0.3986    1.0000 </r>
       <r>    0.4416    1.0000 </r>
       <r>    0.6993    1.0000 </r>
       <r>    1.3934    1.0000 </r>
       <r>    1.4284    1.0000 </r>
       <r>    1.4924    1.0000 </r>
       <r>    1.4938    1.0000 </r>
       <r>    1.7684    1.0000 </r>
       <r>    1.8428    1.0000 </r>
       <r>    2.6213    1.0000 </r>
       <r>    2.7731    1.0000 </r>
       <r>    2.8394    1.0000 </r>
       <r>    3.5379    1.0000 </r>
       <r>    3.5882    1.0000 </r>
       <r>    3.6344    1.0000 </r>
       <r>    3.6814    1.0000 </r>
       <r>    3.8117    1.0000 </r>
       <r>    3.9636    1.0000 </r>
       <r>    4.5979    1.0000 </r>
       <r>    4.6514    1.0000 </r>
       <r>    4.6783    1.0000 </r>
       <r>    4.6987    1.0000 </r>
       <r>    4.7166    1.0000 </r>
       <r>    4.9495    1.0000 </r>
       <r>    4.9735    1.0000 </r>
       <r>    5.0596    1.0000 </r>
       <r>    5.1749    1.0000 </r>
       <r>    5.7463    1.0000 </r>
       <r>    6.1170    1.0000 </r>
       <r>    6.1779    1.0000 </r>
       <r>    6.7064    1.0000 </r>
       <r>    6.7470    1.0000 </r>
       <r>    6.9175    1.0000 </r>
       <r>    7.0238    1.0000 </r>
       <r>    7.0334    1.0000 </r>
       <r>    7.0705    1.0000 </r>
       <r>    7.1414    1.0000 </r>
       <r>    7.8379    0.6435 </r>
       <r>    7.9569    0.1753 </r>
       <r>    7.9946    0.0750 </r>
       <r>    8.0671   -0.0222 </r>
       <r>    8.1490   -0.0324 </r>
       <r>    8.1721   -0.0277 </r>
       <r>    8.1882   -0.0240 </r>
       <r>    8.2171   -0.0175 </r>
       <r>    8.2640   -0.0091 </r>
       <r>    9.0954    0.0000 </r>
       <r>    9.1469    0.0000 </r>
       <r>    9.2733    0.0000 </r>
       <r>    9.3782    0.0000 </r>
       <r>    9.4079    0.0000 </r>
       <r>    9.4878    0.0000 </r>
       <r>    9.9683    0.0000 </r>
       <r>    9.9795    0.0000 </r>
       <r>   10.0423    0.0000 </r>
       <r>   10.0516    0.0000 </r>
       <r>   10.1424    0.0000 </r>
       <r>   10.2312    0.0000 </r>
       <r>   10.5555    0.0000 </r>
       <r>   10.5655    0.0000 </r>
       <r>   10.6811    0.0000 </r>
       <r>   10.9511    0.0000 </r>
       <r>   11.2449    0.0000 </r>
       <r>   11.2839    0.0000 </r>
      </set>
     </set>
    </set>
   </array>
  </eigenvalues>
  <separator name="orbital magnetization" >
   <v name="MAGDIPOLOUT">      0.00000000      0.00000000      0.00000000</v>
  </separator>
  <dos>
   <i name="efermi">      7.87236498 </i>
   <total>
    <array>
     <dimension dim="1">gridpoints</dimension>
     <dimension dim="2">spin</dimension>
     <field>energy</field>
     <field>total</field>
     <field>integrated</field>
     <set>
      <set comment="spin 1">
       <r>  -4.9858   0.0000   0.0000 </r>
       <r>  -4.9249   0.0000   0.0000 </r>
       <r>  -4.8640   0.0000   0.0000 </r>
       <r>  -4.8031   0.0000   0.0000 </r>
       <r>  -4.7422   0.0000   0.0000 </r>
       <r>  -4.6813   0.0000   0.0000 </r>
       <r>  -4.6204   0.0000   0.0000 </r>
       <r>  -4.5595   0.0000   0.0000 </r>
       <r>  -4.4986   0.0000   0.0000 </r>
       <r>  -4.4377   0.0000   0.0000 </r>
       <r>  -4.3768   0.0000   0.0000 </r>
       <r>  -4.3159   0.0000   0.0000 </r>
       <r>  -4.2550   0.0000   0.0000 </r>
       <r>  -4.1941   0.0000   0.0000 </r>
       <r>  -4.1332   0.0000   0.0000 </r>
       <r>  -4.0723   0.0000   0.0000 </r>
       <r>  -4.0114   0.0000   0.0000 </r>
       <r>  -3.9505   0.0000   0.0000 </r>
       <r>  -3.8896   0.0000   0.0000 </r>
       <r>  -3.8287   0.0000   0.0000 </r>
       <r>  -3.7678   0.0000   0.0000 </r>
       <r>  -3.7069  -0.0001   0.0000 </r>
       <r>  -3.6460  -0.0004   0.0000 </r>
       <r>  -3.5851  -0.0025  -0.0002 </r>
       <r>  -3.5242  -0.0119  -0.0009 </r>
       <r>  -3.4633  -0.0451  -0.0037 </r>
       <r>  -3.4024  -0.1339  -0.0118 </r>
       <r>  -3.3415  -0.2979  -0.0300 </r>
       <r>  -3.2806  -0.4430  -0.0569 </r>
       <r>  -3.2197  -0.2171  -0.0701 </r>
       <r>  -3.1588   0.9439  -0.0127 </r>
       <r>  -3.0979   3.3232   0.1897 </r>
       <r>  -3.0370   6.2552   0.5706 </r>
       <r>  -2.9761   8.1864   1.0692 </r>
       <r>  -2.9152   7.8577   1.5477 </r>
       <r>  -2.8543   5.4934   1.8823 </r>
       <r>  -2.7934   2.5806   2.0394 </r>
       <r>  -2.7325   0.5114   2.0706 </r>
       <r>  -2.6716  -0.3455   2.0495 </r>
       <r>  -2.6107  -0.4208   2.0239 </r>
       <r>  -2.5498  -0.2514   2.0086 </r>
       <r>  -2.4889  -0.1175   2.0014 </r>
       <r>  -2.4280  -0.0892   1.9960 </r>
       <r>  -2.3671  -0.1792   1.9851 </r>
       <r>  -2.3062  -0.3962   1.9610 </r>
       <r>  -2.2453  -0.6444   1.9217 </r>
       <r>  -2.1844  -0.5311   1.8894 </r>
       <r>  -2.1235   0.6674   1.9300 </r>
       <r>  -2.0626   3.5678   2.1473 </r>
       <r>  -2.0017   7.9160   2.6294 </r>
       <r>  -1.9408  12.3332   3.3804 </r>
       <r>  -1.8799  15.1637   4.3039 </r>
       <r>  -1.8190  15.6954   5.2597 </r>
       <r>  -1.7581  14.4097   6.1373 </r>
       <r>  -1.6972  12.1320   6.8761 </r>
       <r>  -1.6363   9.3066   7.4429 </r>
       <r>  -1.5754   6.1676   7.8185 </r>
       <r>  -1.5145   3.1890   8.0127 </r>
       <r>  -1.4537   0.9879   8.0728 </r>
       <r>  -1.3928  -0.1536   8.0635 </r>
       <r>  -1.3319  -0.4677   8.0350 </r>
       <r>  -1.2710  -0.4278   8.0089 </r>
       <r>  -1.2101  -0.4124   7.9838 </r>
       <r>  -1.1492  -0.5532   7.9501 </r>
       <r>  -1.0883  -0.6594   7.9100 </r>
       <r>  -1.0274  -0.1506   7.9008 </r>
       <r>  -0.9665   1.7337   8.0064 </r>
       <r>  -0.9056   5.2229   8.3245 </r>
       <r>  -0.8447   9.3475   8.8937 </r>
       <r>  -0.7838  12.3582   9.6463 </r>
       <r>  -0.7229  13.1735  10.4486 </r>
       <r>  -0.6620  12.2153  11.1925 </r>
       <r>  -0.6011  10.6190  11.8392 </r>
       <r>  -0.5402   9.0506  12.3903 </r>
       <r>  -0.4793   7.6059  12.8535 </r>
       <r>  -0.4184   6.3156  13.2381 </r>
       <r>  -0.3575   5.1775  13.5534 </r>
       <r>  -0.2966   3.9785  13.7957 </r>
       <r>  -0.2357   2.5514  13.9511 </r>
       <r>  -0.1748   1.0818  14.0170 </r>
       <r>  -0.1139  -0.0882  14.0116 </r>
       <r>  -0.0530  -0.7975  13.9630 </r>
       <r>   0.0079  -0.9546  13.9049 </r>
       <r>   0.0688  -0.1602  13.8952 </r>
       <r>   0.1297   2.2354  14.0313 </r>
       <r>   0.1906   6.4047  14.4213 </r>
       <r>   0.2515  11.3754  15.1141 </r>
       <r>   0.3124  15.3918  16.0514 </r>
       <r>   0.3733  17.1715  17.0971 </r>
       <r>   0.4342  16.7761  18.1188 </r>
       <r>   0.4951  15.2568  19.0479 </r>
       <r>   0.5560  13.5968  19.8759 </r>
       <r>   0.6169  12.0055  20.6071 </r>
       <r>   0.6778  10.0650  21.2200 </r>
       <r>   0.7387   7.4443  21.6734 </r>
       <r>   0.7996   4.4404  21.9438 </r>
       <r>   0.8605   1.8013  22.0535 </r>
       <r>   0.9214   0.0644  22.0574 </r>
       <r>   0.9823  -0.8415  22.0062 </r>
       <r>   1.0432  -1.3266  21.9254 </r>
       <r>   1.1041  -1.4607  21.8364 </r>
       <r>   1.1650  -0.4549  21.8087 </r>
       <r>   1.2259   3.0934  21.9971 </r>
       <r>   1.2868   9.9353  22.6021 </r>
       <r>   1.3477  18.6856  23.7401 </r>
       <r>   1.4086  25.8020  25.3114 </r>
       <r>   1.4695  27.7445  27.0010 </r>
       <r>   1.5304  23.7154  28.4452 </r>
       <r>   1.5913  16.4850  29.4492 </r>
       <r>   1.6522  10.4678  30.0866 </r>
       <r>   1.7131   8.5747  30.6088 </r>
       <r>   1.7740  10.3490  31.2391 </r>
       <r>   1.8349  12.8205  32.0198 </r>
       <r>   1.8958  13.1537  32.8209 </r>
       <r>   1.9567  10.6507  33.4695 </r>
       <r>   2.0176   6.6323  33.8734 </r>
       <r>   2.0785   2.9209  34.0513 </r>
       <r>   2.1394   0.5548  34.0851 </r>
       <r>   2.2003  -0.4742  34.0562 </r>
       <r>   2.2612  -0.7480  34.0106 </r>
       <r>   2.3221  -0.8192  33.9607 </r>
       <r>   2.3830  -0.8187  33.9109 </r>
       <r>   2.4439  -0.3304  33.8908 </r>
       <r>   2.5048   1.4145  33.9769 </r>
       <r>   2.5657   4.9548  34.2786 </r>
       <r>   2.6266   9.8971  34.8814 </r>
       <r>   2.6875  14.7684  35.7807 </r>
       <r>   2.7484  17.7740  36.8632 </r>
       <r>   2.8093  17.8662  37.9512 </r>
       <r>   2.8702  15.2084  38.8774 </r>
       <r>   2.9311  10.8680  39.5392 </r>
       <r>   2.9920   6.2341  39.9189 </r>
       <r>   3.0529   2.4815  40.0700 </r>
       <r>   3.1138   0.1380  40.0784 </r>
       <r>   3.1747  -1.0255  40.0159 </r>
       <r>   3.2356  -1.5739  39.9201 </r>
       <r>   3.2965  -1.6513  39.8195 </r>
       <r>   3.3574  -0.4386  39.7928 </r>
       <r>   3.4183   3.5584  40.0095 </r>
       <r>   3.4792  11.1666  40.6896 </r>
       <r>   3.5401  20.9935  41.9680 </r>
       <r>   3.6010  29.3694  43.7566 </r>
       <r>   3.6619  32.5179  45.7369 </r>
       <r>   3.7228  29.3122  47.5220 </r>
       <r>   3.7837  22.0583  48.8653 </r>
       <r>   3.8446  14.6428  49.7570 </r>
       <r>   3.9055   9.8337  50.3559 </r>
       <r>   3.9664   7.8974  50.8368 </r>
       <r>   4.0273   7.2300  51.2771 </r>
       <r>   4.0882   6.0989  51.6486 </r>
       <r>   4.1491   3.9491  51.8891 </r>
       <r>   4.2099   1.3933  51.9739 </r>
       <r>   4.2708  -0.6094  51.9368 </r>
       <r>   4.3317  -1.2385  51.8614 </r>
       <r>   4.3926   0.3263  51.8812 </r>
       <r>   4.4535   4.8559  52.1770 </r>
       <r>   4.5144  12.2609  52.9236 </r>
       <r>   4.5753  20.7620  54.1880 </r>
       <r>   4.6362  27.4048  55.8569 </r>
       <r>   4.6971  30.0626  57.6877 </r>
       <r>   4.7580  29.1211  59.4612 </r>
       <r>   4.8189  26.8826  61.0983 </r>
       <r>   4.8798  25.2172  62.6340 </r>
       <r>   4.9407  24.1732  64.1061 </r>
       <r>   5.0016  22.8730  65.4990 </r>
       <r>   5.0625  20.9340  66.7739 </r>
       <r>   5.1234  18.4693  67.8987 </r>
       <r>   5.1843  15.3323  68.8324 </r>
       <r>   5.2452  11.2438  69.5171 </r>
       <r>   5.3061   6.5881  69.9183 </r>
       <r>   5.3670   2.4611  70.0682 </r>
       <r>   5.4279  -0.1721  70.0577 </r>
       <r>   5.4888  -1.0175  69.9958 </r>
       <r>   5.5497  -0.1733  69.9852 </r>
       <r>   5.6106   2.1714  70.1174 </r>
       <r>   5.6715   5.4458  70.4491 </r>
       <r>   5.7324   8.4212  70.9619 </r>
       <r>   5.7933   9.7680  71.5568 </r>
       <r>   5.8542   9.0719  72.1092 </r>
       <r>   5.9151   7.1985  72.5476 </r>
       <r>   5.9760   5.6500  72.8917 </r>
       <r>   6.0369   5.4947  73.2263 </r>
       <r>   6.0978   6.6255  73.6298 </r>
       <r>   6.1587   7.9277  74.1126 </r>
       <r>   6.2196   8.2987  74.6180 </r>
       <r>   6.2805   7.4811  75.0736 </r>
       <r>   6.3414   5.8545  75.4301 </r>
       <r>   6.4023   3.8337  75.6636 </r>
       <r>   6.4632   1.9716  75.7836 </r>
       <r>   6.5241   1.4546  75.8722 </r>
       <r>   6.5850   3.7182  76.0987 </r>
       <r>   6.6459   8.9894  76.6461 </r>
       <r>   6.7068  15.3570  77.5813 </r>
       <r>   6.7677  20.0323  78.8013 </r>
       <r>   6.8286  21.9935  80.1407 </r>
       <r>   6.8895  22.9302  81.5371 </r>
       <r>   6.9504  25.0073  83.0600 </r>
       <r>   7.0113  27.9981  84.7651 </r>
       <r>   7.0722  29.2115  86.5440 </r>
       <r>   7.1331  26.1806  88.1384 </r>
       <r>   7.1940  19.0802  89.3003 </r>
       <r>   7.2549  10.5919  89.9454 </r>
       <r>   7.3158   3.7396  90.1731 </r>
       <r>   7.3767  -0.0940  90.1674 </r>
       <r>   7.4376  -1.4289  90.0804 </r>
       <r>   7.4985  -1.5423  89.9864 </r>
       <r>   7.5594  -1.2394  89.9110 </r>
       <r>   7.6203  -0.4109  89.8859 </r>
       <r>   7.6812   1.5876  89.9826 </r>
       <r>   7.7421   5.1746  90.2978 </r>
       <r>   7.8030  10.0387  90.9091 </r>
       <r>   7.8639  15.3593  91.8445 </r>
       <r>   7.9248  20.5147  93.0938 </r>
       <r>   7.9857  25.5272  94.6484 </r>
       <r>   8.0466  30.7170  96.5190 </r>
       <r>   8.1075  35.6617  98.6908 </r>
       <r>   8.1684  38.4338 101.0313 </r>
       <r>   8.2293  36.5638 103.2580 </r>
       <r>   8.2902  29.5107 105.0552 </r>
       <r>   8.3511  19.8799 106.2659 </r>
       <r>   8.4120  11.5291 106.9680 </r>
       <r>   8.4729   6.5633 107.3677 </r>
       <r>   8.5338   4.4061 107.6360 </r>
       <r>   8.5947   3.2885 107.8363 </r>
       <r>   8.6556   2.0371 107.9603 </r>
       <r>   8.7165   0.5642 107.9947 </r>
       <r>   8.7774  -0.6706 107.9538 </r>
       <r>   8.8383  -1.1077 107.8864 </r>
       <r>   8.8992  -0.0416 107.8839 </r>
       <r>   8.9601   3.2638 108.0826 </r>
       <r>   9.0210   8.7798 108.6173 </r>
       <r>   9.0819  15.0193 109.5320 </r>
       <r>   9.1428  19.7825 110.7367 </r>
       <r>   9.2037  22.0597 112.0801 </r>
       <r>   9.2646  22.8479 113.4715 </r>
       <r>   9.3255  23.5917 114.9082 </r>
       <r>   9.3864  24.1310 116.3778 </r>
       <r>   9.4473  22.8140 117.7671 </r>
       <r>   9.5082  18.5157 118.8947 </r>
       <r>   9.5691  11.9926 119.6250 </r>
       <r>   9.6300   5.2881 119.9471 </r>
       <r>   9.6909   0.3657 119.9694 </r>
       <r>   9.7518  -1.4528 119.8809 </r>
       <r>   9.8127   0.7657 119.9275 </r>
       <r>   9.8736   7.3907 120.3776 </r>
       <r>   9.9344  17.2231 121.4265 </r>
       <r>   9.9953  27.1373 123.0791 </r>
       <r>  10.0562  33.6172 125.1264 </r>
       <r>  10.1171  34.8230 127.2470 </r>
       <r>  10.1780  31.0079 129.1354 </r>
       <r>  10.2389  23.6346 130.5747 </r>
       <r>  10.2998  14.9928 131.4877 </r>
       <r>  10.3607   8.1612 131.9848 </r>
       <r>  10.4216   5.8262 132.3396 </r>
       <r>  10.4825   8.3583 132.8486 </r>
       <r>  10.5434  13.2986 133.6585 </r>
       <r>  10.6043  17.1280 134.7015 </r>
       <r>  10.6652  17.7409 135.7819 </r>
       <r>  10.7261  15.5203 136.7271 </r>
       <r>  10.7870  12.4746 137.4868 </r>
       <r>  10.8479  10.4739 138.1246 </r>
       <r>  10.9088   9.9792 138.7324 </r>
       <r>  10.9697  10.1482 139.3504 </r>
       <r>  11.0306  10.1311 139.9673 </r>
       <r>  11.0915  10.1384 140.5848 </r>
       <r>  11.1524  10.9400 141.2510 </r>
       <r>  11.2133  12.3608 142.0038 </r>
       <r>  11.2742  12.8539 142.7865 </r>
       <r>  11.3351  10.9982 143.4563 </r>
       <r>  11.3960   7.1343 143.8908 </r>
       <r>  11.4569   3.0832 144.0785 </r>
       <r>  11.5178   0.4236 144.1043 </r>
       <r>  11.5787  -0.5816 144.0689 </r>
       <r>  11.6396  -0.5992 144.0324 </r>
       <r>  11.7005  -0.3389 144.0118 </r>
       <r>  11.7614  -0.1375 144.0034 </r>
       <r>  11.8223  -0.0430 144.0008 </r>
       <r>  11.8832  -0.0106 144.0002 </r>
       <r>  11.9441  -0.0021 144.0000 </r>
       <r>  12.0050  -0.0003 144.0000 </r>
       <r>  12.0659   0.0000 144.0000 </r>
       <r>  12.1268   0.0000 144.0000 </r>
       <r>  12.1877   0.0000 144.0000 </r>
       <r>  12.2486   0.0000 144.0000 </r>
       <r>  12.3095   0.0000 144.0000 </r>
       <r>  12.3704   0.0000 144.0000 </r>
       <r>  12.4313   0.0000 144.0000 </r>
       <r>  12.4922   0.0000 144.0000 </r>
       <r>  12.5531   0.0000 144.0000 </r>
       <r>  12.6140   0.0000 144.0000 </r>
       <r>  12.6749   0.0000 144.0000 </r>
       <r>  12.7358   0.0000 144.0000 </r>
       <r>  12.7967   0.0000 144.0000 </r>
       <r>  12.8576   0.0000 144.0000 </r>
       <r>  12.9185   0.0000 144.0000 </r>
       <r>  12.9794   0.0000 144.0000 </r>
       <r>  13.0403   0.0000 144.0000 </r>
       <r>  13.1012   0.0000 144.0000 </r>
       <r>  13.1621   0.0000 144.0000 </r>
       <r>  13.2230   0.0000 144.0000 </r>
       <r>  13.2839   0.0000 144.0000 </r>
      </set>
     </set>
    </array>
   </total>
  </dos>
 </calculation>
 <structure name="finalpos" >
  <crystal>
   <varray name="basis" >
    <v>       8.08705200       0.00000000       0.00000000 </v>
    <v>       0.00000000       8.08705200       0.00000000 </v>
    <v>       0.00000000       0.00000000       8.08705200 </v>
   </varray>
   <i name="volume">    528.89651690 </i>
   <varray name="rec_basis" >
    <v>       0.12365445       0.00000000       0.00000000 </v>
    <v>       0.00000000       0.12365445       0.00000000 </v>
    <v>       0.00000000       0.00000000       0.12365445 </v>
   </varray>
  </crystal>
  <varray name="positions" >
   <v>       0.00090600       0.00000000       0.00090600 </v>
   <v>       0.24684900       0.00000000       0.24684900 </v>
   <v>       0.24947500       0.25556300       0.00486800 </v>
   <v>       0.00486800       0.25556300       0.24947500 </v>
   <v>       0.50022800       0.00000000       0.98624300 </v>
   <v>       0.76375700       0.00000000       0.24977300 </v>
   <v>       0.75355500       0.24728000       0.99644600 </v>
   <v>       0.51143300       0.22809400       0.23856800 </v>
   <v>       0.99998300       0.50000000       0.99998300 </v>
   <v>       0.24947500       0.74443700       0.00486800 </v>
   <v>       0.00486800       0.74443700       0.24947500 </v>
   <v>       0.49876600       0.50000000       0.00318600 </v>
   <v>       0.74681300       0.50000000       0.25123200 </v>
   <v>       0.75355500       0.75272100       0.99644600 </v>
   <v>       0.51143300       0.77190600       0.23856800 </v>
   <v>       0.98624300       0.00000000       0.50022800 </v>
   <v>       0.24977300       0.00000000       0.76375700 </v>
   <v>       0.23856800       0.22809400       0.51143300 </v>
   <v>       0.99644600       0.24728000       0.75355500 </v>
   <v>       0.50315100       0.00000000       0.50315100 </v>
   <v>       0.74909400       0.00000000       0.74909400 </v>
   <v>       0.74513100       0.25556300       0.50052600 </v>
   <v>       0.50052600       0.25556300       0.74513100 </v>
   <v>       0.00318600       0.50000000       0.49876600 </v>
   <v>       0.25123200       0.50000000       0.74681300 </v>
   <v>       0.23856800       0.77190600       0.51143300 </v>
   <v>       0.99644600       0.75272100       0.75355500 </v>
   <v>       0.75001800       0.50000000       0.75001800 </v>
   <v>       0.74513100       0.74443700       0.50052600 </v>
   <v>       0.50052600       0.74443700       0.74513100 </v>
   <v>       0.37500000       0.50000000       0.37314518 </v>
  </varray>
  <varray name="selective"  type="logical" >
   <v type="logical" >  F  F  F </v>
   <v type="logical" >  F  F  F </v>
   <v type="logical" >  F  F  F </v>
   <v type="logical" >  F  F  F </v>
   <v type="logical" >  F  F  F </v>
   <v type="logical" >  F  F  F </v>
   <v type="logical" >  F  F  F </v>
   <v type="logical" >  F  F  F </v>
   <v type="logical" >  F  F  F </v>
   <v type="logical" >  F  F  F </v>
   <v type="logical" >  F  F  F </v>
   <v type="logical" >  F  F  F </v>
   <v type="logical" >  F  F  F </v>
   <v type="logical" >  F  F  F </v>
   <v type="logical" >  F  F  F </v>
   <v type="logical" >  F  F  F </v>
   <v type="logical" >  F  F  F </v>
   <v type="logical" >  F  F  F </v>
   <v type="logical" >  F  F  F </v>
   <v type="logical" >  F  F  F </v>
   <v type="logical" >  F  F  F </v>
   <v type="logical" >  F  F  F </v>
   <v type="logical" >  F  F  F </v>
   <v type="logical" >  F  F  F </v>
   <v type="logical" >  F  F  F </v>
   <v type="logical" >  F  F  F </v>
   <v type="logical" >  F  F  F </v>
   <v type="logical" >  F  F  F </v>
   <v type="logical" >  F  F  F </v>
   <v type="logical" >  F  F  F </v>
   <v type="logical" >  T  T  T </v>
  </varray>
  <nose>
   <v>      -3.00000000       0.00000000       0.00010000       0.00010000 </v>
  </nose>
 </structure>
</modeling>
