    3    3    1    1
  0.1535906E+02  0.3585051E-09  0.3585051E-09  0.3585051E-09  0.5000000E-15
  1.000000000000000E-004
  CAR 
 unknown system                          
   24    1   16
 
  0.0000000E+00  0.0000000E+00  0.0000000E+00  0.1000000E+01
   1       -3.646361
   2        0.068352
   3        1.456735
   4        1.456736
   5        1.456736
   6        1.750725
   7        1.750726
   8        4.502954
   9        4.502954
  10        4.502955
  11        4.865278
  12        4.865279
  13        5.582044
  14        5.582045
  15        5.582045
  16        5.672633
