  31  31   0   0
  0.1706118E+02  0.8087052E-09  0.8087052E-09  0.8087052E-09  0.5000000E-15
  1.000000000000000E-004
  CAR 
 unknown system                          
     12.42777224     -5.39958090  301      7.87149271      1.00000000
     -5.400  0.0000E+00  0.0000E+00
     -5.340  0.0000E+00  0.0000E+00
     -5.281  0.0000E+00  0.0000E+00
     -5.221  0.0000E+00  0.0000E+00
     -5.162  0.0000E+00  0.0000E+00
     -5.102  0.0000E+00  0.0000E+00
     -5.043 -0.1932E-29 -0.1148E-30
     -4.984 -0.2232E-27 -0.1338E-28
     -4.924 -0.2173E-25 -0.1305E-26
     -4.865 -0.1770E-23 -0.1065E-24
     -4.805 -0.1205E-21 -0.7270E-23
     -4.746 -0.6867E-20 -0.4153E-21
     -4.686 -0.3270E-18 -0.1985E-19
     -4.627 -0.1302E-16 -0.7934E-18
     -4.568 -0.4231E-15 -0.2593E-16
     -4.508 -0.1163E-13 -0.7170E-15
     -4.449 -0.2687E-12 -0.1668E-13
     -4.389 -0.5171E-11 -0.3240E-12
     -4.330 -0.8289E-10 -0.5250E-11
     -4.271 -0.1105E-08 -0.7093E-10
     -4.211 -0.1224E-07 -0.7982E-09
     -4.152 -0.1123E-06 -0.7474E-08
     -4.092 -0.8525E-06 -0.5813E-07
     -4.033 -0.5328E-05 -0.3747E-06
     -3.973 -0.2728E-04 -0.1996E-05
     -3.914 -0.1135E-03 -0.8740E-05
     -3.855 -0.3786E-03 -0.3124E-04
     -3.795 -0.9874E-03 -0.8991E-04
     -3.736 -0.1906E-02 -0.2032E-03
     -3.676 -0.2283E-02 -0.3389E-03
     -3.617  0.7723E-04 -0.3343E-03
     -3.557  0.7875E-02  0.1337E-03
     -3.498  0.2141E-01  0.1406E-02
     -3.439  0.3597E-01  0.3544E-02
     -3.379  0.4362E-01  0.6136E-02
     -3.320  0.3946E-01  0.8481E-02
     -3.260  0.2621E-01  0.1004E-01
     -3.201  0.1160E-01  0.1073E-01
     -3.141  0.1833E-02  0.1084E-01
     -3.082 -0.1976E-02  0.1072E-01
     -3.023 -0.2157E-02  0.1059E-01
     -2.963 -0.1258E-02  0.1052E-01
     -2.904 -0.5252E-03  0.1048E-01
     -2.844 -0.1694E-03  0.1047E-01
     -2.785 -0.4356E-04  0.1047E-01
     -2.725 -0.9067E-05  0.1047E-01
     -2.666 -0.1543E-05  0.1047E-01
     -2.607 -0.2159E-06  0.1047E-01
     -2.547 -0.2496E-07  0.1047E-01
     -2.488 -0.2389E-08  0.1047E-01
     -2.428 -0.1899E-09  0.1047E-01
     -2.369 -0.1282E-10  0.1047E-01
     -2.310 -0.6269E-11  0.1047E-01
     -2.250 -0.9325E-10  0.1047E-01
     -2.191 -0.1297E-08  0.1047E-01
     -2.131 -0.1501E-07  0.1047E-01
     -2.072 -0.1443E-06  0.1047E-01
     -2.012 -0.1150E-05  0.1047E-01
     -1.953 -0.7585E-05  0.1047E-01
     -1.894 -0.4124E-04  0.1047E-01
     -1.834 -0.1840E-03  0.1046E-01
     -1.775 -0.6683E-03  0.1042E-01
     -1.715 -0.1951E-02  0.1030E-01
     -1.656 -0.4455E-02  0.1004E-01
     -1.596 -0.7455E-02  0.9594E-02
     -1.537 -0.7130E-02  0.9170E-02
     -1.478  0.4356E-02  0.9429E-02
     -1.418  0.3553E-01  0.1154E-01
     -1.359  0.8744E-01  0.1674E-01
     -1.299  0.1465E+00  0.2545E-01
     -1.240  0.1877E+00  0.3660E-01
     -1.180  0.1892E+00  0.4784E-01
     -1.121  0.1493E+00  0.5671E-01
     -1.062  0.8829E-01  0.6196E-01
     -1.002  0.3324E-01  0.6393E-01
     -0.943  0.2421E-03  0.6395E-01
     -0.883 -0.1012E-01  0.6334E-01
     -0.824 -0.4810E-02  0.6306E-01
     -0.764  0.9546E-02  0.6363E-01
     -0.705  0.2710E-01  0.6524E-01
     -0.646  0.4046E-01  0.6764E-01
     -0.586  0.4291E-01  0.7019E-01
     -0.527  0.3362E-01  0.7219E-01
     -0.467  0.1871E-01  0.7330E-01
     -0.408  0.6009E-02  0.7366E-01
     -0.348 -0.6768E-03  0.7362E-01
     -0.289 -0.2336E-02  0.7348E-01
     -0.230 -0.1740E-02  0.7337E-01
     -0.170 -0.8485E-03  0.7332E-01
     -0.111 -0.3105E-03  0.7331E-01
     -0.051 -0.8935E-04  0.7330E-01
      0.008 -0.2069E-04  0.7330E-01
      0.067 -0.4030E-05  0.7330E-01
      0.127 -0.1719E-05  0.7330E-01
      0.186 -0.7733E-05  0.7330E-01
      0.246 -0.4330E-04  0.7330E-01
      0.305 -0.2010E-03  0.7328E-01
      0.365 -0.7614E-03  0.7324E-01
      0.424 -0.2326E-02  0.7310E-01
      0.483 -0.5605E-02  0.7277E-01
      0.543 -0.1014E-01  0.7216E-01
      0.602 -0.1167E-01  0.7147E-01
      0.662 -0.1466E-03  0.7146E-01
      0.721  0.3743E-01  0.7369E-01
      0.781  0.1071E+00  0.8005E-01
      0.840  0.1967E+00  0.9174E-01
      0.899  0.2734E+00  0.1080E+00
      0.959  0.3000E+00  0.1258E+00
      1.018  0.2603E+00  0.1413E+00
      1.078  0.1760E+00  0.1517E+00
      1.137  0.9547E-01  0.1574E+00
      1.197  0.5968E-01  0.1610E+00
      1.256  0.7368E-01  0.1653E+00
      1.315  0.1068E+00  0.1717E+00
      1.375  0.1208E+00  0.1789E+00
      1.434  0.1003E+00  0.1848E+00
      1.494  0.5873E-01  0.1883E+00
      1.553  0.2037E-01  0.1895E+00
      1.613 -0.1159E-02  0.1895E+00
      1.672 -0.7395E-02  0.1890E+00
      1.731 -0.6552E-02  0.1886E+00
      1.791 -0.4748E-02  0.1883E+00
      1.850 -0.3252E-02  0.1882E+00
      1.910  0.2644E-03  0.1882E+00
      1.969  0.8914E-02  0.1887E+00
      2.028  0.2291E-01  0.1901E+00
      2.088  0.3716E-01  0.1923E+00
      2.147  0.4375E-01  0.1949E+00
      2.207  0.3845E-01  0.1972E+00
      2.266  0.2470E-01  0.1986E+00
      2.326  0.1036E-01  0.1992E+00
      2.385  0.1211E-02  0.1993E+00
      2.444 -0.2137E-02  0.1992E+00
      2.504 -0.2209E-02  0.1991E+00
      2.563 -0.1576E-02  0.1990E+00
      2.623 -0.1526E-02  0.1989E+00
      2.682 -0.2175E-02  0.1987E+00
      2.742 -0.2581E-02  0.1986E+00
      2.801 -0.7525E-03  0.1985E+00
      2.860  0.5165E-02  0.1988E+00
      2.920  0.1444E-01  0.1997E+00
      2.979  0.2365E-01  0.2011E+00
      3.039  0.3292E-01  0.2031E+00
      3.098  0.5325E-01  0.2062E+00
      3.158  0.1006E+00  0.2122E+00
      3.217  0.1740E+00  0.2226E+00
      3.276  0.2410E+00  0.2369E+00
      3.336  0.2573E+00  0.2522E+00
      3.395  0.2079E+00  0.2645E+00
      3.455  0.1213E+00  0.2717E+00
      3.514  0.4305E-01  0.2743E+00
      3.574 -0.9464E-03  0.2742E+00
      3.633 -0.1366E-01  0.2734E+00
      3.692 -0.1106E-01  0.2728E+00
      3.752 -0.5725E-02  0.2724E+00
      3.811 -0.2436E-02  0.2723E+00
      3.871 -0.1445E-02  0.2722E+00
      3.930 -0.1837E-02  0.2721E+00
      3.989 -0.2367E-02  0.2719E+00
      4.049 -0.8958E-03  0.2719E+00
      4.108  0.5431E-02  0.2722E+00
      4.168  0.1782E-01  0.2733E+00
      4.227  0.3282E-01  0.2752E+00
      4.287  0.4274E-01  0.2778E+00
      4.346  0.4126E-01  0.2802E+00
      4.405  0.2894E-01  0.2819E+00
      4.465  0.1240E-01  0.2827E+00
      4.524 -0.1441E-02  0.2826E+00
      4.584 -0.8520E-02  0.2821E+00
      4.643 -0.5062E-02  0.2818E+00
      4.703  0.1454E-01  0.2826E+00
      4.762  0.5239E-01  0.2858E+00
      4.821  0.9786E-01  0.2916E+00
      4.881  0.1282E+00  0.2992E+00
      4.940  0.1247E+00  0.3066E+00
      5.000  0.8984E-01  0.3119E+00
      5.059  0.4480E-01  0.3146E+00
      5.119  0.1098E-01  0.3152E+00
      5.178 -0.4455E-02  0.3150E+00
      5.237 -0.6880E-02  0.3146E+00
      5.297 -0.4471E-02  0.3143E+00
      5.356 -0.2008E-02  0.3142E+00
      5.416 -0.6889E-03  0.3142E+00
      5.475 -0.1924E-03  0.3141E+00
      5.535 -0.7168E-04  0.3141E+00
      5.594 -0.1455E-03  0.3141E+00
      5.653 -0.5018E-03  0.3141E+00
      5.713 -0.1435E-02  0.3140E+00
      5.772 -0.3124E-02  0.3138E+00
      5.832 -0.4640E-02  0.3135E+00
      5.891 -0.2601E-02  0.3134E+00
      5.951  0.8461E-02  0.3139E+00
      6.010  0.3161E-01  0.3158E+00
      6.069  0.6110E-01  0.3194E+00
      6.129  0.8214E-01  0.3243E+00
      6.188  0.8162E-01  0.3291E+00
      6.248  0.6054E-01  0.3327E+00
      6.307  0.3392E-01  0.3348E+00
      6.366  0.1778E-01  0.3358E+00
      6.426  0.1938E-01  0.3370E+00
      6.485  0.4124E-01  0.3394E+00
      6.545  0.8762E-01  0.3446E+00
      6.604  0.1567E+00  0.3539E+00
      6.664  0.2254E+00  0.3673E+00
      6.723  0.2555E+00  0.3825E+00
      6.782  0.2277E+00  0.3960E+00
      6.842  0.1662E+00  0.4059E+00
      6.901  0.1175E+00  0.4129E+00
      6.961  0.1049E+00  0.4191E+00
      7.020  0.1109E+00  0.4257E+00
      7.080  0.1050E+00  0.4320E+00
      7.139  0.8071E-01  0.4368E+00
      7.198  0.6034E-01  0.4403E+00
      7.258  0.6652E-01  0.4443E+00
      7.317  0.9596E-01  0.4500E+00
      7.377  0.1227E+00  0.4573E+00
      7.436  0.1247E+00  0.4647E+00
      7.496  0.1025E+00  0.4708E+00
      7.555  0.7210E-01  0.4751E+00
      7.614  0.4608E-01  0.4778E+00
      7.674  0.2717E-01  0.4794E+00
      7.733  0.1779E-01  0.4805E+00
      7.793  0.2569E-01  0.4820E+00
      7.852  0.5535E-01  0.4853E+00
      7.912  0.9669E-01  0.4911E+00
      7.971  0.1289E+00  0.4987E+00
      8.030  0.1385E+00  0.5069E+00
      8.090  0.1295E+00  0.5146E+00
      8.149  0.1136E+00  0.5214E+00
      8.209  0.9473E-01  0.5270E+00
      8.268  0.6920E-01  0.5311E+00
      8.327  0.3666E-01  0.5333E+00
      8.387  0.4272E-02  0.5336E+00
      8.446 -0.1783E-01  0.5325E+00
      8.506 -0.1771E-01  0.5315E+00
      8.565  0.2082E-01  0.5327E+00
      8.625  0.1104E+00  0.5392E+00
      8.684  0.2386E+00  0.5534E+00
      8.743  0.3567E+00  0.5746E+00
      8.803  0.4024E+00  0.5985E+00
      8.862  0.3480E+00  0.6192E+00
      8.922  0.2262E+00  0.6327E+00
      8.981  0.1069E+00  0.6390E+00
      9.041  0.4830E-01  0.6419E+00
      9.100  0.6221E-01  0.6456E+00
      9.159  0.1148E+00  0.6524E+00
      9.219  0.1542E+00  0.6616E+00
      9.278  0.1487E+00  0.6704E+00
      9.338  0.1089E+00  0.6769E+00
      9.397  0.7512E-01  0.6813E+00
      9.457  0.7983E-01  0.6861E+00
      9.516  0.1186E+00  0.6931E+00
      9.575  0.1559E+00  0.7024E+00
      9.635  0.1577E+00  0.7118E+00
      9.694  0.1193E+00  0.7188E+00
      9.754  0.6409E-01  0.7227E+00
      9.813  0.1920E-01  0.7238E+00
      9.873 -0.4257E-02  0.7235E+00
      9.932 -0.1127E-01  0.7229E+00
      9.991 -0.1115E-01  0.7222E+00
     10.051 -0.7805E-02  0.7217E+00
     10.110  0.2101E-02  0.7219E+00
     10.170  0.2411E-01  0.7233E+00
     10.229  0.5786E-01  0.7267E+00
     10.288  0.9269E-01  0.7323E+00
     10.348  0.1127E+00  0.7390E+00
     10.407  0.1082E+00  0.7454E+00
     10.467  0.8275E-01  0.7503E+00
     10.526  0.4917E-01  0.7532E+00
     10.586  0.2053E-01  0.7544E+00
     10.645  0.3231E-02  0.7546E+00
     10.704 -0.3509E-02  0.7544E+00
     10.764 -0.4068E-02  0.7542E+00
     10.823 -0.2569E-02  0.7540E+00
     10.883 -0.1181E-02  0.7540E+00
     10.942 -0.4240E-03  0.7539E+00
     11.002 -0.1222E-03  0.7539E+00
     11.061 -0.2864E-04  0.7539E+00
     11.120 -0.5503E-05  0.7539E+00
     11.180 -0.8712E-06  0.7539E+00
     11.239 -0.1140E-06  0.7539E+00
     11.299 -0.1236E-07  0.7539E+00
     11.358 -0.1113E-08  0.7539E+00
     11.418 -0.8327E-10  0.7539E+00
     11.477 -0.5187E-11  0.7539E+00
     11.536 -0.2692E-12  0.7539E+00
     11.596 -0.1166E-13  0.7539E+00
     11.655 -0.4304E-15  0.7539E+00
     11.715  0.0000E+00  0.7539E+00
     11.774  0.0000E+00  0.7539E+00
     11.834  0.0000E+00  0.7539E+00
     11.893  0.0000E+00  0.7539E+00
     11.952  0.0000E+00  0.7539E+00
     12.012  0.0000E+00  0.7539E+00
     12.071  0.0000E+00  0.7539E+00
     12.131  0.0000E+00  0.7539E+00
     12.190  0.0000E+00  0.7539E+00
     12.249  0.0000E+00  0.7539E+00
     12.309  0.0000E+00  0.7539E+00
     12.368  0.0000E+00  0.7539E+00
     12.428  0.0000E+00  0.7539E+00
