   31   31  191    1
  0.1706118E+02  0.8087052E-09  0.8087052E-09  0.8087052E-09  0.5000000E-15
  1.000000000000000E-004
  CAR 
 unknown system                          
   93    1   72
 
  0.0000000E+00  0.0000000E+00  0.0000000E+00  0.1000000E+01
   1       -3.399581
   2       -1.306912
   3       -1.306912
   4       -1.196322
   5       -1.196322
   6       -1.196322
   7       -0.635812
   8        0.845085
   9        0.845085
  10        0.845086
  11        0.960171
  12        0.960171
  13        0.970904
  14        0.970904
  15        0.970904
  16        1.330673
  17        1.330673
  18        1.330673
  19        2.121053
  20        3.014510
  21        3.281626
  22        3.281626
  23        3.281626
  24        3.304000
  25        3.304000
  26        3.304000
  27        4.280356
  28        4.875175
  29        4.875175
  30        4.875175
  31        6.130065
  32        6.130065
  33        6.470115
  34        6.686259
  35        6.686259
  36        6.686259
  37        6.713190
  38        6.713190
  39        6.713190
  40        7.014479
  41        7.014479
  42        7.014479
  43        7.363875
  44        7.363875
  45        7.363875
  46        7.595512
  47        7.957145
  48        7.957145
  49        7.957145
  50        8.181342
  51        8.181343
  52        8.706259
  53        8.706259
  54        8.762269
  55        8.762269
  56        8.762269
  57        8.766981
  58        8.766981
  59        8.829421
  60        8.829421
  61        8.829421
  62        9.193712
  63        9.211571
  64        9.211578
  65        9.211578
  66        9.558251
  67        9.558252
  68        9.558256
  69        9.621660
  70       10.297428
  71       10.305926
  72       10.427772
