       N       E                     dE             d eps       ncg     rms          rms(c)
RMM:   1     0.239559184936E+03    0.23956E+03   -0.15705E+04    72   0.538E+02
RMM:   2    -0.258077094351E+02   -0.26537E+03   -0.25782E+03    72   0.112E+02
RMM:   3    -0.743368679536E+02   -0.48529E+02   -0.47672E+02    72   0.355E+01
RMM:   4    -0.900780424054E+02   -0.15741E+02   -0.11547E+02    72   0.198E+01
RMM:   5    -0.969922769815E+02   -0.69142E+01   -0.46242E+01    72   0.114E+01
RMM:   6    -0.994244634131E+02   -0.24322E+01   -0.18100E+01    72   0.678E+00
RMM:   7    -0.100294302631E+03   -0.86984E+00   -0.71655E+00    72   0.396E+00
RMM:   8    -0.100654187223E+03   -0.35988E+00   -0.31330E+00    72   0.243E+00
RMM:   9    -0.100940387018E+03   -0.28620E+00   -0.26477E+00   168   0.155E+00
RMM:  10    -0.100975231453E+03   -0.34844E-01   -0.23387E-01   152   0.350E-01
RMM:  11    -0.100977432745E+03   -0.22013E-02   -0.11946E-02   128   0.761E-02
RMM:  12    -0.100977502717E+03   -0.69973E-04   -0.29253E-04    96   0.193E-02    0.651E+00
RMM:  13    -0.999047780942E+02    0.10727E+01   -0.22798E+00   145   0.188E+00    0.390E+00
RMM:  14    -0.996426485863E+02    0.26213E+00   -0.21228E-01   144   0.808E-01    0.232E+00
RMM:  15    -0.995135443980E+02    0.12910E+00   -0.11158E-01   146   0.652E-01    0.569E-01
RMM:  16    -0.995032165220E+02    0.10328E-01   -0.10889E-02   144   0.198E-01    0.143E-01
RMM:  17    -0.995024830528E+02    0.73347E-03   -0.21719E-03   145   0.842E-02    0.455E-02
RMM:  18    -0.995025047368E+02   -0.21684E-04   -0.25274E-04   101   0.335E-02
   1 F= -.99502505E+02 E0= -.99452358E+02  d E =-.995025E+02
       N       E                     dE             d eps       ncg     rms          rms(c)
RMM:   1    -0.995496843207E+02   -0.47201E-01   -0.25569E-01   144   0.125E+00    0.291E-01
RMM:   2    -0.995422137711E+02    0.74705E-02   -0.17284E-02   144   0.232E-01    0.704E-02
RMM:   3    -0.995419246610E+02    0.28911E-03   -0.71222E-04   130   0.539E-02    0.356E-02
RMM:   4    -0.995418996465E+02    0.25014E-04   -0.78167E-05    92   0.204E-02
   2 F= -.99541900E+02 E0= -.99503307E+02  d E =-.393949E-01
       N       E                     dE             d eps       ncg     rms          rms(c)
RMM:   1    -0.996876093174E+02   -0.14568E+00   -0.22464E+00   144   0.373E+00    0.635E-01
RMM:   2    -0.996481275869E+02    0.39482E-01   -0.10489E-01   144   0.607E-01    0.240E-01
RMM:   3    -0.996433150523E+02    0.48125E-02   -0.10475E-02   147   0.175E-01    0.111E-01
RMM:   4    -0.996429541861E+02    0.36087E-03   -0.97706E-04   140   0.615E-02    0.521E-02
RMM:   5    -0.996429587904E+02   -0.46043E-05   -0.16882E-04    86   0.285E-02
   3 F= -.99642959E+02 E0= -.99631779E+02  d E =-.140454E+00
       N       E                     dE             d eps       ncg     rms          rms(c)
RMM:   1    -0.996599142057E+02   -0.16960E-01   -0.10958E-01   144   0.824E-01    0.123E-01
RMM:   2    -0.996584838960E+02    0.14303E-02   -0.46069E-03   144   0.129E-01    0.447E-02
RMM:   3    -0.996582940331E+02    0.18986E-03   -0.38332E-04   118   0.360E-02    0.188E-02
RMM:   4    -0.996582899069E+02    0.41262E-05   -0.32541E-05    80   0.151E-02
   4 F= -.99658290E+02 E0= -.99650061E+02  d E =-.153311E-01
       N       E                     dE             d eps       ncg     rms          rms(c)
RMM:   1    -0.996929020033E+02   -0.34608E-01   -0.97032E-01   144   0.247E+00    0.344E-01
RMM:   2    -0.996831945453E+02    0.97075E-02   -0.39605E-02   144   0.375E-01    0.139E-01
RMM:   3    -0.996812161621E+02    0.19784E-02   -0.34499E-03   145   0.106E-01    0.571E-02
RMM:   4    -0.996811560868E+02    0.60075E-04   -0.41476E-04   112   0.386E-02
   5 F= -.99681156E+02 E0= -.99673319E+02  d E =-.381973E-01
