 vasp.5.2.2 15Apr09 complex 
 executed on             LinuxIFC date 2017.03.17  11:23:25
 running on   12 nodes
 distr:  one band on    1 nodes,   12 groups


--------------------------------------------------------------------------------------------------------


 INCAR:
 POTCAR:   PAW_PBE Al 04Jan2001                   
 POTCAR:   PAW_PBE Al 04Jan2001                   
   VRHFIN =Al: s2p1                                                             
   LEXCH  = PE                                                                  
   EATOM  =    53.5387 eV,    3.9350 Ry                                         
                                                                                
   TITEL  = PAW_PBE Al 04Jan2001                                                
   LULTRA =        F    use ultrasoft PP ?                                      
   IUNSCR =        1    unscreen: 0-lin 1-nonlin 2-no                           
   RPACOR =    1.500    partial core radius                                     
   POMASS =   26.982; ZVAL   =    3.000    mass and valenz                      
   RCORE  =    1.900    outmost cutoff radius                                   
   RWIGS  =    2.650; RWIGS  =    1.402    wigner-seitz radius (au A)           
   ENMAX  =  240.300; ENMIN  =  180.225 eV                                      
   ICORE  =        2    local potential                                         
   LCOR   =        T    correct aug charges                                     
   LPAW   =        T    paw PP                                                  
   EAUG   =  291.052                                                            
   DEXC   =    -.041                                                            
   RMAX   =    2.974    core radius for proj-oper                               
   RAUG   =    1.300    factor for augmentation sphere                          
   RDEP   =    1.966    radius for radial grids                                 
   QCUT   =   -4.203; QGAM   =    8.405    optimization parameters              
                                                                                
   Description                                                                  
     l     E      TYP  RCUT    TYP  RCUT                                        
     0   .000     23  1.900                                                     
     0   .000     23  1.900                                                     
     1   .000     23  1.900                                                     
     1  1.000     23  1.900                                                     
     2   .000      7  1.900                                                     
  local pseudopotential read in
  partial core-charges read in
  atomic valenz-charges read in
  non local Contribution for L=           0  read in
    real space projection operators read in
  non local Contribution for L=           0  read in
    real space projection operators read in
  non local Contribution for L=           1  read in
    real space projection operators read in
  non local Contribution for L=           1  read in
    real space projection operators read in
    PAW grid and wavefunctions read in
 
   number of l-projection  operators is LMAX  =           4
   number of lm-projection operators is LMMAX =           8
 

 ----------------------------------------------------------------------------- 
|                                                                             |
|  ADVICE TO THIS USER RUNNING 'VASP/VAMP'   (HEAR YOUR MASTER'S VOICE ...):  |
|                                                                             |
|      You have a (more or less) 'large supercell' and for larger cells       |
|      it might be more efficient to use real space projection operators      |
|      So try LREAL= Auto  in the INCAR   file.                               |
|      Mind: If you want to do a very accurate calculations keep the          |
|      reciprocal projection scheme          (i.e. LREAL=.FALSE.)             |
|                                                                             |
 ----------------------------------------------------------------------------- 

 PAW_PBE Al 04Jan2001                   :
 energy of atom  1       EATOM=  -53.5387
 kinetic energy error for atom=    0.0011 (will be added to EATOM!!)
 
 
 POSCAR: Al31                                    
  positions in direct lattice
  velocities in cartesian coordinates
 exchange correlation table for  LEXCH =        8
   RHO(1)=    0.500       N(1)  =     2000
   RHO(2)=  100.500       N(2)  =     4000

 VTST: version 2.03d, (02/18/09)

 CHAIN: initializing optimizer
 
 OPT: Using VASP Conjugate-Gradient optimizer
 CHAIN: Read ICHAIN            0
 


--------------------------------------------------------------------------------------------------------


 ion  position               nearest neighbor table
   1  0.000  0.000  0.000-   2 2.86   3 2.86   4 2.86   6 2.86   7 2.86  10 2.86  11 2.86  14 2.86
                            17 2.86  19 2.86  21 2.86  27 2.86
   2  0.250  0.000  0.250-   1 2.86   3 2.86   4 2.86   5 2.86   8 2.86  10 2.86  11 2.86  15 2.86
                            16 2.86  18 2.86  20 2.86  26 2.86
   3  0.250  0.250  0.000-   1 2.86   2 2.86   4 2.86   5 2.86   8 2.86   9 2.86  12 2.86  17 2.86
                            19 2.86  23 2.86  25 2.86
   4  0.000  0.250  0.250-   1 2.86   2 2.86   3 2.86   6 2.86   7 2.86   9 2.86  13 2.86  16 2.86
                            18 2.86  22 2.86  24 2.86
   5  0.500  0.000  0.000-   2 2.86   3 2.86   6 2.86   7 2.86   8 2.86  10 2.86  14 2.86  15 2.86
                            17 2.86  21 2.86  23 2.86  31 2.86
   6  0.750  0.000  0.250-   1 2.86   4 2.86   5 2.86   7 2.86   8 2.86  11 2.86  14 2.86  15 2.86
                            16 2.86  20 2.86  22 2.86  30 2.86
   7  0.750  0.250  0.000-   1 2.86   4 2.86   5 2.86   6 2.86   8 2.86   9 2.86  12 2.86  13 2.86
                            19 2.86  21 2.86  23 2.86  29 2.86
   8  0.500  0.250  0.250-   2 2.86   3 2.86   5 2.86   6 2.86   7 2.86  12 2.86  13 2.86  18 2.86
                            20 2.86  22 2.86  28 2.86
   9  0.000  0.500  0.000-   3 2.86   4 2.86   7 2.86  10 2.86  11 2.86  13 2.86  14 2.86  19 2.86
                            25 2.86  27 2.86  29 2.86
  10  0.250  0.750  0.000-   1 2.86   2 2.86   5 2.86   9 2.86  11 2.86  12 2.86  15 2.86  17 2.86
                            25 2.86  27 2.86  31 2.86
  11  0.000  0.750  0.250-   1 2.86   2 2.86   6 2.86   9 2.86  10 2.86  13 2.86  14 2.86  16 2.86
                            24 2.86  26 2.86  30 2.86
  12  0.500  0.500  0.000-   3 2.86   7 2.86   8 2.86  10 2.86  13 2.86  14 2.86  15 2.86  23 2.86
                            25 2.86  29 2.86  31 2.86
  13  0.750  0.500  0.250-   4 2.86   7 2.86   8 2.86   9 2.86  11 2.86  12 2.86  14 2.86  15 2.86
                            22 2.86  24 2.86  28 2.86  30 2.86
  14  0.750  0.750  0.000-   1 2.86   5 2.86   6 2.86   9 2.86  11 2.86  12 2.86  13 2.86  15 2.86
                            21 2.86  27 2.86  29 2.86  31 2.86
  15  0.500  0.750  0.250-   2 2.86   5 2.86   6 2.86  10 2.86  12 2.86  13 2.86  14 2.86  20 2.86
                            26 2.86  28 2.86  30 2.86
  16  0.000  0.000  0.500-   2 2.86   4 2.86   6 2.86  11 2.86  17 2.86  18 2.86  19 2.86  21 2.86
                            22 2.86  26 2.86  27 2.86  30 2.86
  17  0.250  0.000  0.750-   1 2.86   3 2.86   5 2.86  10 2.86  16 2.86  18 2.86  19 2.86  20 2.86
                            23 2.86  26 2.86  27 2.86  31 2.86
  18  0.250  0.250  0.500-   2 2.86   4 2.86   8 2.86  16 2.86  17 2.86  19 2.86  20 2.86  23 2.86
                            24 2.86  25 2.86  28 2.86
  19  0.000  0.250  0.750-   1 2.86   3 2.86   7 2.86   9 2.86  16 2.86  17 2.86  18 2.86  21 2.86
                            22 2.86  24 2.86  25 2.86  29 2.86
  20  0.500  0.000  0.500-   2 2.86   6 2.86   8 2.86  15 2.86  17 2.86  18 2.86  21 2.86  22 2.86
                            23 2.86  26 2.86  30 2.86  31 2.86
  21  0.750  0.000  0.750-   1 2.86   5 2.86   7 2.86  14 2.86  16 2.86  19 2.86  20 2.86  22 2.86
                            23 2.86  27 2.86  30 2.86  31 2.86
  22  0.750  0.250  0.500-   4 2.86   6 2.86   8 2.86  13 2.86  16 2.86  19 2.86  20 2.86  21 2.86
                            23 2.86  24 2.86  28 2.86  29 2.86
  23  0.500  0.250  0.750-   3 2.86   5 2.86   7 2.86  12 2.86  17 2.86  18 2.86  20 2.86  21 2.86
                            22 2.86  25 2.86  28 2.86  29 2.86
  24  0.000  0.500  0.500-   4 2.86  11 2.86  13 2.86  18 2.86  19 2.86  22 2.86  25 2.86  26 2.86
                            27 2.86  29 2.86  30 2.86
  25  0.250  0.500  0.750-   3 2.86   9 2.86  10 2.86  12 2.86  18 2.86  19 2.86  23 2.86  24 2.86
                            26 2.86  27 2.86  28 2.86  31 2.86
  26  0.250  0.750  0.500-   2 2.86  11 2.86  15 2.86  16 2.86  17 2.86  20 2.86  24 2.86  25 2.86
                            27 2.86  28 2.86  31 2.86
  27  0.000  0.750  0.750-   1 2.86   9 2.86  10 2.86  14 2.86  16 2.86  17 2.86  21 2.86  24 2.86
                            25 2.86  26 2.86  29 2.86  30 2.86
  28  0.500  0.500  0.500-   8 2.86  13 2.86  15 2.86  18 2.86  22 2.86  23 2.86  25 2.86  26 2.86
                            29 2.86  30 2.86  31 2.86
  29  0.750  0.500  0.750-   7 2.86   9 2.86  12 2.86  14 2.86  19 2.86  22 2.86  23 2.86  24 2.86
                            27 2.86  28 2.86  30 2.86  31 2.86
  30  0.750  0.750  0.500-   6 2.86  11 2.86  13 2.86  15 2.86  16 2.86  20 2.86  21 2.86  24 2.86
                            27 2.86  28 2.86  29 2.86  31 2.86
  31  0.500  0.750  0.750-   5 2.86  10 2.86  12 2.86  14 2.86  17 2.86  20 2.86  21 2.86  25 2.86
                            26 2.86  28 2.86  29 2.86  30 2.86
 
  LATTYP: Found a simple cubic cell.
 ALAT       =     8.0870520000
  
  Lattice vectors:
  
 A1 = (   8.0870520000,   0.0000000000,   0.0000000000)
 A2 = (   0.0000000000,   8.0870520000,   0.0000000000)
 A3 = (   0.0000000000,   0.0000000000,   8.0870520000)
 Subroutine PRICEL returns:
 Original cell was already a primitive cell.
 

Analysis of symmetry for initial positions (statically):

 Routine SETGRP: Setting up the symmetry group for a 
 simple cubic supercell.


 Subroutine GETGRP returns: Found 48 space group operations
 (whereof  4 operations were pure point group operations)
 out of a pool of 48 trial point group operations.


The static configuration has the point symmetry C_2v.
 The point group associated with its full space group is O_h .

Analysis of symmetry for dynamics (positions and initial velocities):

 Subroutine DYNSYM returns: Found 48 space group operations
 (whereof  4 operations were pure point group operations)
 out of a pool of 48 trial space group operations
 (whereof  4 operations were pure point group operations)
 and found also     1 'primitive' translations


The dynamic configuration has the point symmetry C_2v.
 The point group associated with its full space group is O_h .
 
 
 KPOINTS: Automatic kpoint scheme                 

Automatic generation of k-mesh.
 
 Subroutine IBZKPT returns following result:
 ===========================================
 
 Found      1 irreducible k-points:
 
 Following reciprocal coordinates:
            Coordinates               Weight
  0.000000  0.000000  0.000000      1.000000
 
 Following cartesian coordinates:
            Coordinates               Weight
  0.000000  0.000000  0.000000      1.000000
 


--------------------------------------------------------------------------------------------------------




 Dimension of arrays:
   k-points           NKPTS =      1   k-points in BZ     NKDIM =      1   number of bands    NBANDS=     72
   number of dos      NEDOS =    301   number of ions     NIONS =     31
   non local maximal  LDIM  =      4   non local SUM 2l+1 LMDIM =      8
   total plane-waves  NPLWV = 110592
   max r-space proj   IRMAX =      1   max aug-charges    IRDMAX=   8337
   dimension x,y,z NGX =    48 NGY =   48 NGZ =   48
   dimension x,y,z NGXF=    96 NGYF=   96 NGZF=   96
   support grid    NGXF=    96 NGYF=   96 NGZF=   96
   ions per type =              31
 NGX,Y,Z   is equivalent  to a cutoff of   9.87,  9.87,  9.87 a.u.
 NGXF,Y,Z  is equivalent  to a cutoff of  19.73, 19.73, 19.73 a.u.


 I would recommend the setting:
   dimension x,y,z NGX =    46 NGY =   46 NGZ =   46
 SYSTEM =  unknown system                          
 POSCAR =  Al31                                    

 Startparameter for this run:
   NWRITE =      2    write-flag & timer
   PREC   = accura    medium, high low
   ISTART =      0    job   : 0-new  1-cont  2-samecut
   ICHARG =      2    charge: 1-file 2-atom 10-const
   ISPIN  =      1    spin polarized calculation?
   LNONCOLLINEAR =      F non collinear calculations
   LSORBIT =      F    spin-orbit coupling
   INIWAV =      1    electr: 0-lowe 1-rand  2-diag
   LASPH  =      F    aspherical Exc in radial PAW
   METAGGA=      F    non-selfconsistent MetaGGA calc.

 Electronic Relaxation 1
   ENCUT  =  300.0 eV  22.05 Ry    4.70 a.u.  11.42 11.42 11.42*2*pi/ulx,y,z
   ENINI  =  300.0     initial cutoff
   ENAUG  =  291.1 eV  augmentation charge cutoff
   NELM   =     60;   NELMIN=  2; NELMDL=-12     # of ELM steps 
   EDIFF  = 0.1E-03   stopping-criterion for ELM
   LREAL  =      F    real-space projection
   LCOMPAT=      F    compatible to vasp.4.4
   LREAL_COMPAT= F    compatible to vasp.4.5.1-3
   GGA_COMPAT  = T    GGA compatible to vasp.4.4-vasp.4.6
   LMAXPAW     = -100 max onsite density
   LMAXMIX     =    2 max onsite mixed and CHGCAR
   VOSKOWN=      0    Vosko Wilk Nusair interpolation
   ROPT   =    0.00000
 Ionic relaxation
   EDIFFG = 0.5E-01   stopping-criterion for IOM
   NSW    =    191    number of steps for IOM
   NBLOCK =      1;   KBLOCK =    191    inner block; outer block 
   IBRION =      2    ionic relax: 0-MD 1-quasi-New 2-CG
   NFREE  =      1    steps in history (QN), initial steepest desc. (CG)
   ISIF   =      2    stress and relaxation
   IWAVPR =     11    prediction:  0-non 1-charg 2-wave 3-comb
   ISYM   =      2    0-nonsym 1-usesym 2-fastsym
   LCORR  =      T    Harris-Foulkes like correction to forces

   POTIM  = 0.5000    time-step for ionic-motion
   TEIN   =    0.0    initial temperature
   TEBEG  =    0.0;   TEEND  =   0.0 temperature during run
   SMASS  =  -3.00    Nose mass-parameter (am)
   estimated Nose-frequenzy (Omega)   =  0.10E-29 period in steps =****** mass=  -0.149E-26a.u.
   NPACO  =    256;   APACO  = 16.0  distance and # of slots for P.C.
   PSTRESS=    0.0 pullay stress

  Mass of Ions in am
   POMASS =  26.98
  Ionic Valenz
   ZVAL   =   3.00
  Atomic Wigner-Seitz radii
   RWIGS  =  -1.00
   NELECT =      93.0000    total number of electrons
   NUPDOWN=      -1.0000    fix difference up-down

 DOS related values:
   EMIN   =  10.00;   EMAX   =-10.00  energy-range for DOS
   EFERMI =   0.00
   ISMEAR =     1;   SIGMA  =   0.20  broadening in eV -4-tet -1-fermi 0-gaus

 Electronic relaxation 2 (details)
   IALGO  =     48    algorithm
   LDIAG  =      T    sub-space diagonalisation
   IMIX   =      4    mixing-type and parameters
     AMIX     =   0.40;   BMIX     =  1.00
     AMIX_MAG =   1.60;   BMIX_MAG =  1.00
     AMIN     =   0.10
     WC   =   100.;   INIMIX=   1;  MIXPRE=   1

 Intra band minimization:
   WEIMIN = 0.0010     energy-eigenvalue tresh-hold
   EBREAK =  0.40E-06  absolut break condition
   DEPER  =   0.30     relativ break condition  

   TIME   =   0.40     timestep for ELM

  volume/ion in A,a.u.               =      17.06       115.13
  Fermi-wavevector in a.u.,A,eV,Ry     =   0.917161  1.733183 11.445007  0.841184
  Thomas-Fermi vector in A             =   2.042098
 
 Write flags
   LWAVE  =      F    write WAVECAR
   LCHARG =      F    write CHGCAR
   LVTOT  =      F    write LOCPOT, local potential
   LELF   =      F    write electronic localiz. function (ELF)
   LORBIT =      0    0 simple, 1 ext, 2 COOP (PROOUT)


 Dipole corrections
   LMONO  =      F    monopole corrections only (constant potential shift)
   LDIPOL =      F    correct potential (dipole corrections)
   IDIPOL =      0    1-x, 2-y, 3-z, 4-all directions 
   EPSILON=  1.0000000 bulk dielectric constant

 Exchange correlation treatment:
   GGA     =    --    GGA type
   LEXCH   =     8    internal setting for exchange type
   VOSKOWN=      0    Vosko Wilk Nusair interpolation
   LHFCALC =     F    Hartree Fock is set to
   LHFONE  =     F    Hartree Fock one center treatment
   AEXX    =    0.0000 exact exchange contribution

 Linear response parameters
   LEPSILON=     F    determine dielectric tensor
   LRPA    =     F    only Hartree local field effects (RPA)
   LNABLA  =     F    use nabla operator in PAW spheres
   LVEL    =     F    velocity operator in full k-point grid
   LINTERFAST=   F  fast interpolation
   KINTER  =     0    interpolate to denser k-point grid
   CSHIFT  =0.1000    complex shift for real part using Kramers Kronig
   OMEGAMAX=  -1.0    maximum frequency

 Orbital magnetization related:
   ORBITALMAG=     F  switch on orbital magnetization
   LCHIMAG   =     F  perturbation theory with respect to B field



--------------------------------------------------------------------------------------------------------


 conjugate gradient relaxation of ions
 charge density and potential will be updated during run
 non-spin polarized calculation
 RMM-DIIS sequential band-by-band
 perform sub-space diagonalisation
    before iterative eigenvector-optimisation
 modified Broyden-mixing scheme, WC =      100.0
 initial mixing is a Kerker type mixing with AMIX =  0.4000 and BMIX =      1.0000
 Hartree-type preconditioning will be used
 using additional bands           25
 reciprocal scheme for non local part
 use partial core corrections
 calculate Harris-corrections to forces 
   (improved forces if not selfconsistent)
 use gradient corrections 
 use of overlap-Matrix (Vanderbilt PP)
 Methfessel and Paxton  Order N= 1 SIGMA  =   0.20


--------------------------------------------------------------------------------------------------------


  energy-cutoff  :      300.00
  volume of cell :      528.90
      direct lattice vectors                 reciprocal lattice vectors
     8.087052000  0.000000000  0.000000000     0.123654454  0.000000000  0.000000000
     0.000000000  8.087052000  0.000000000     0.000000000  0.123654454  0.000000000
     0.000000000  0.000000000  8.087052000     0.000000000  0.000000000  0.123654454

  length of vectors
     8.087052000  8.087052000  8.087052000     0.123654454  0.123654454  0.123654454


 
 k-points in units of 2pi/SCALE and weight: Automatic kpoint scheme                 
   0.00000000  0.00000000  0.00000000       1.000
 
 k-points in reciprocal lattice and weights: Automatic kpoint scheme                 
   0.00000000  0.00000000  0.00000000       1.000
 
 position of ions in fractional coordinates (direct lattice) 
   0.00000000  0.00000000  0.00000000
   0.25000000  0.00000000  0.25000000
   0.25000000  0.25000000  0.00000000
   0.00000000  0.25000000  0.25000000
   0.50000000  0.00000000  0.00000000
   0.75000000  0.00000000  0.25000000
   0.75000000  0.25000000  0.00000000
   0.50000000  0.25000000  0.25000000
   0.00000000  0.50000000  0.00000000
   0.25000000  0.75000000  0.00000000
   0.00000000  0.75000000  0.25000000
   0.50000000  0.50000000  0.00000000
   0.75000000  0.50000000  0.25000000
   0.75000000  0.75000000  0.00000000
   0.50000000  0.75000000  0.25000000
   0.00000000  0.00000000  0.50000000
   0.25000000  0.00000000  0.75000000
   0.25000000  0.25000000  0.50000000
   0.00000000  0.25000000  0.75000000
   0.50000000  0.00000000  0.50000000
   0.75000000  0.00000000  0.75000000
   0.75000000  0.25000000  0.50000000
   0.50000000  0.25000000  0.75000000
   0.00000000  0.50000000  0.50000000
   0.25000000  0.50000000  0.75000000
   0.25000000  0.75000000  0.50000000
   0.00000000  0.75000000  0.75000000
   0.50000000  0.50000000  0.50000000
   0.75000000  0.50000000  0.75000000
   0.75000000  0.75000000  0.50000000
   0.50000000  0.75000000  0.75000000
 
 position of ions in cartesian coordinates  (Angst):
   0.00000000  0.00000000  0.00000000
   2.02176300  0.00000000  2.02176300
   2.02176300  2.02176300  0.00000000
   0.00000000  2.02176300  2.02176300
   4.04352600  0.00000000  0.00000000
   6.06528900  0.00000000  2.02176300
   6.06528900  2.02176300  0.00000000
   4.04352600  2.02176300  2.02176300
   0.00000000  4.04352600  0.00000000
   2.02176300  6.06528900  0.00000000
   0.00000000  6.06528900  2.02176300
   4.04352600  4.04352600  0.00000000
   6.06528900  4.04352600  2.02176300
   6.06528900  6.06528900  0.00000000
   4.04352600  6.06528900  2.02176300
   0.00000000  0.00000000  4.04352600
   2.02176300  0.00000000  6.06528900
   2.02176300  2.02176300  4.04352600
   0.00000000  2.02176300  6.06528900
   4.04352600  0.00000000  4.04352600
   6.06528900  0.00000000  6.06528900
   6.06528900  2.02176300  4.04352600
   4.04352600  2.02176300  6.06528900
   0.00000000  4.04352600  4.04352600
   2.02176300  4.04352600  6.06528900
   2.02176300  6.06528900  4.04352600
   0.00000000  6.06528900  6.06528900
   4.04352600  4.04352600  4.04352600
   6.06528900  4.04352600  6.06528900
   6.06528900  6.06528900  4.04352600
   4.04352600  6.06528900  6.06528900
 


--------------------------------------------------------------------------------------------------------


 k-point  1 :  0.00000.00000.0000  plane waves:    6235

 maximum and minimum number of plane-waves per node :    6235   6235

 maximum number of plane-waves:    6235
 maximal index in each direction: 
   IXMAX= 11   IYMAX= 11   IZMAX= 11
   IXMIN=-11   IYMIN=-11   IZMIN=-11

 NGX is ok and might be reduce to  46
 NGY is ok and might be reduce to  46
 NGZ is ok and might be reduce to  46

 serial   3D FFT for wavefunctions
 parallel 3D FFT for charge:
    minimum data exchange during FFTs selected (reduces bandwidth)


 total amount of memory used by VASP on root node  58219. kBytes
========================================================================

   base      :    30000. kBytes
   nonl-proj :     3494. kBytes
   fftplans  :     2983. kBytes
   grid      :    21024. kBytes
   one-center:       95. kBytes
   wavefun   :      623. kBytes
 
 Broyden mixing: mesh for mixing (old mesh)
   NGX = 23   NGY = 23   NGZ = 23
  (NGX  = 96   NGY  = 96   NGZ  = 96)
  gives a total of  12167 points

 initial charge density was supplied:
 charge density of overlapping atoms calculated
 number of electron   93.0000000 magnetization 
 keeping initial charge density in first step


--------------------------------------------------------------------------------------------------------


 Maximum index for augmentation-charges          531 (set IRDMAX)


--------------------------------------------------------------------------------------------------------


 First call to EWALD:  gamma=   0.219
 Maximum number of real-space cells 3x 3x 3
 Maximum number of reciprocal cells 3x 3x 3

    FEWALD:  cpu time    0.01: real time    0.01
   RESPFUN:  cpu time    0.00: real time    0.00


----------------------------------------- Iteration    1(   1)  ---------------------------------------


    POTLOK:  cpu time    0.15: real time    0.15
    SETDIJ:  cpu time    0.01: real time    0.01
    EDDIAG:  cpu time    0.15: real time    0.15
  RMM-DIIS:  cpu time    0.34: real time    0.34
    ORTHCH:  cpu time    0.01: real time    0.01
       DOS:  cpu time    0.00: real time    0.00
    --------------------------------------------
      LOOP:  cpu time    0.66: real time    0.66

 eigenvalue-minimisations  :    72
 total energy-change (2. order) : 0.2395592E+03  (-0.1570476E+04)
 number of electron   93.0000000 magnetization 
 augmentation part    93.0000000 magnetization 

 Free energy of the ion-electron system (eV)
  ---------------------------------------------------
  alpha Z        PSCENC =        -6.10292983
  Ewald energy   TEWEN  =     -2226.95940862
  -1/2 Hartree   DENC   =       -20.94821856
  -exchange  EXHF       =         0.00000000
  -V(xc)+E(xc)   XCENC  =      -814.77440339
  PAW double counting   =      1102.18190231     -111.56847430
  entropy T*S    EENTRO =        -0.03505111
  eigenvalues    EBANDS =       658.09942437
  atomic energy  EATOM  =      1659.66634407
  ---------------------------------------------------
  free energy    TOTEN  =       239.55918494 eV

  energy without entropy =      239.59423605  energy(sigma->0) =      239.57086864


--------------------------------------------------------------------------------------------------------




----------------------------------------- Iteration    1(   2)  ---------------------------------------


    EDDIAG:  cpu time    0.15: real time    0.15
  RMM-DIIS:  cpu time    0.33: real time    0.33
    ORTHCH:  cpu time    0.01: real time    0.01
       DOS:  cpu time    0.00: real time    0.00
    --------------------------------------------
      LOOP:  cpu time    0.49: real time    0.49

 eigenvalue-minimisations  :    72
 total energy-change (2. order) :-0.2653669E+03  (-0.2578188E+03)
 number of electron   93.0000000 magnetization 
 augmentation part    93.0000000 magnetization 

 Free energy of the ion-electron system (eV)
  ---------------------------------------------------
  alpha Z        PSCENC =        -6.10292983
  Ewald energy   TEWEN  =     -2226.95940862
  -1/2 Hartree   DENC   =       -20.94821856
  -exchange  EXHF       =         0.00000000
  -V(xc)+E(xc)   XCENC  =      -814.77440339
  PAW double counting   =      1102.18190231     -111.56847430
  entropy T*S    EENTRO =        -0.00695465
  eigenvalues    EBANDS =       392.70443354
  atomic energy  EATOM  =      1659.66634407
  ---------------------------------------------------
  free energy    TOTEN  =       -25.80770944 eV

  energy without entropy =      -25.80075478  energy(sigma->0) =      -25.80539122


--------------------------------------------------------------------------------------------------------




----------------------------------------- Iteration    1(   3)  ---------------------------------------


    EDDIAG:  cpu time    0.15: real time    0.15
  RMM-DIIS:  cpu time    0.33: real time    0.33
    ORTHCH:  cpu time    0.01: real time    0.01
       DOS:  cpu time    0.00: real time    0.00
    --------------------------------------------
      LOOP:  cpu time    0.49: real time    0.50

 eigenvalue-minimisations  :    72
 total energy-change (2. order) :-0.4852916E+02  (-0.4767229E+02)
 number of electron   93.0000000 magnetization 
 augmentation part    93.0000000 magnetization 

 Free energy of the ion-electron system (eV)
  ---------------------------------------------------
  alpha Z        PSCENC =        -6.10292983
  Ewald energy   TEWEN  =     -2226.95940862
  -1/2 Hartree   DENC   =       -20.94821856
  -exchange  EXHF       =         0.00000000
  -V(xc)+E(xc)   XCENC  =      -814.77440339
  PAW double counting   =      1102.18190231     -111.56847430
  entropy T*S    EENTRO =        -0.00872828
  eigenvalues    EBANDS =       344.17704865
  atomic energy  EATOM  =      1659.66634407
  ---------------------------------------------------
  free energy    TOTEN  =       -74.33686795 eV

  energy without entropy =      -74.32813967  energy(sigma->0) =      -74.33395853


--------------------------------------------------------------------------------------------------------




----------------------------------------- Iteration    1(   4)  ---------------------------------------


    EDDIAG:  cpu time    0.15: real time    0.15
  RMM-DIIS:  cpu time    0.34: real time    0.34
    ORTHCH:  cpu time    0.01: real time    0.01
       DOS:  cpu time    0.00: real time    0.00
    --------------------------------------------
      LOOP:  cpu time    0.50: real time    0.50

 eigenvalue-minimisations  :    72
 total energy-change (2. order) :-0.1574117E+02  (-0.1154697E+02)
 number of electron   93.0000000 magnetization 
 augmentation part    93.0000000 magnetization 

 Free energy of the ion-electron system (eV)
  ---------------------------------------------------
  alpha Z        PSCENC =        -6.10292983
  Ewald energy   TEWEN  =     -2226.95940862
  -1/2 Hartree   DENC   =       -20.94821856
  -exchange  EXHF       =         0.00000000
  -V(xc)+E(xc)   XCENC  =      -814.77440339
  PAW double counting   =      1102.18190231     -111.56847430
  entropy T*S    EENTRO =        -0.03759171
  eigenvalues    EBANDS =       328.46473763
  atomic energy  EATOM  =      1659.66634407
  ---------------------------------------------------
  free energy    TOTEN  =       -90.07804241 eV

  energy without entropy =      -90.04045070  energy(sigma->0) =      -90.06551184


--------------------------------------------------------------------------------------------------------




----------------------------------------- Iteration    1(   5)  ---------------------------------------


    EDDIAG:  cpu time    0.15: real time    0.15
  RMM-DIIS:  cpu time    0.34: real time    0.34
    ORTHCH:  cpu time    0.01: real time    0.01
       DOS:  cpu time    0.00: real time    0.00
    --------------------------------------------
      LOOP:  cpu time    0.50: real time    0.50

 eigenvalue-minimisations  :    72
 total energy-change (2. order) :-0.6914235E+01  (-0.4624193E+01)
 number of electron   93.0000000 magnetization 
 augmentation part    93.0000000 magnetization 

 Free energy of the ion-electron system (eV)
  ---------------------------------------------------
  alpha Z        PSCENC =        -6.10292983
  Ewald energy   TEWEN  =     -2226.95940862
  -1/2 Hartree   DENC   =       -20.94821856
  -exchange  EXHF       =         0.00000000
  -V(xc)+E(xc)   XCENC  =      -814.77440339
  PAW double counting   =      1102.18190231     -111.56847430
  entropy T*S    EENTRO =         0.00895160
  eigenvalues    EBANDS =       321.50395974
  atomic energy  EATOM  =      1659.66634407
  ---------------------------------------------------
  free energy    TOTEN  =       -96.99227698 eV

  energy without entropy =      -97.00122858  energy(sigma->0) =      -96.99526085


--------------------------------------------------------------------------------------------------------




----------------------------------------- Iteration    1(   6)  ---------------------------------------


    EDDIAG:  cpu time    0.15: real time    0.15
  RMM-DIIS:  cpu time    0.34: real time    0.34
    ORTHCH:  cpu time    0.01: real time    0.01
       DOS:  cpu time    0.00: real time    0.00
    --------------------------------------------
      LOOP:  cpu time    0.50: real time    0.50

 eigenvalue-minimisations  :    72
 total energy-change (2. order) :-0.2432186E+01  (-0.1810026E+01)
 number of electron   93.0000000 magnetization 
 augmentation part    93.0000000 magnetization 

 Free energy of the ion-electron system (eV)
  ---------------------------------------------------
  alpha Z        PSCENC =        -6.10292983
  Ewald energy   TEWEN  =     -2226.95940862
  -1/2 Hartree   DENC   =       -20.94821856
  -exchange  EXHF       =         0.00000000
  -V(xc)+E(xc)   XCENC  =      -814.77440339
  PAW double counting   =      1102.18190231     -111.56847430
  entropy T*S    EENTRO =        -0.00832271
  eigenvalues    EBANDS =       319.08904762
  atomic energy  EATOM  =      1659.66634407
  ---------------------------------------------------
  free energy    TOTEN  =       -99.42446341 eV

  energy without entropy =      -99.41614070  energy(sigma->0) =      -99.42168918


--------------------------------------------------------------------------------------------------------




----------------------------------------- Iteration    1(   7)  ---------------------------------------


    EDDIAG:  cpu time    0.15: real time    0.15
  RMM-DIIS:  cpu time    0.34: real time    0.34
    ORTHCH:  cpu time    0.01: real time    0.01
       DOS:  cpu time    0.00: real time    0.00
    --------------------------------------------
      LOOP:  cpu time    0.50: real time    0.50

 eigenvalue-minimisations  :    72
 total energy-change (2. order) :-0.8698392E+00  (-0.7165482E+00)
 number of electron   93.0000000 magnetization 
 augmentation part    93.0000000 magnetization 

 Free energy of the ion-electron system (eV)
  ---------------------------------------------------
  alpha Z        PSCENC =        -6.10292983
  Ewald energy   TEWEN  =     -2226.95940862
  -1/2 Hartree   DENC   =       -20.94821856
  -exchange  EXHF       =         0.00000000
  -V(xc)+E(xc)   XCENC  =      -814.77440339
  PAW double counting   =      1102.18190231     -111.56847430
  entropy T*S    EENTRO =        -0.01003572
  eigenvalues    EBANDS =       318.22092141
  atomic energy  EATOM  =      1659.66634407
  ---------------------------------------------------
  free energy    TOTEN  =      -100.29430263 eV

  energy without entropy =     -100.28426691  energy(sigma->0) =     -100.29095739


--------------------------------------------------------------------------------------------------------




----------------------------------------- Iteration    1(   8)  ---------------------------------------


    EDDIAG:  cpu time    0.15: real time    0.15
  RMM-DIIS:  cpu time    0.34: real time    0.34
    ORTHCH:  cpu time    0.01: real time    0.01
       DOS:  cpu time    0.00: real time    0.00
    --------------------------------------------
      LOOP:  cpu time    0.49: real time    0.50

 eigenvalue-minimisations  :    72
 total energy-change (2. order) :-0.3598846E+00  (-0.3132977E+00)
 number of electron   93.0000000 magnetization 
 augmentation part    93.0000000 magnetization 

 Free energy of the ion-electron system (eV)
  ---------------------------------------------------
  alpha Z        PSCENC =        -6.10292983
  Ewald energy   TEWEN  =     -2226.95940862
  -1/2 Hartree   DENC   =       -20.94821856
  -exchange  EXHF       =         0.00000000
  -V(xc)+E(xc)   XCENC  =      -814.77440339
  PAW double counting   =      1102.18190231     -111.56847430
  entropy T*S    EENTRO =        -0.01654027
  eigenvalues    EBANDS =       317.86754137
  atomic energy  EATOM  =      1659.66634407
  ---------------------------------------------------
  free energy    TOTEN  =      -100.65418722 eV

  energy without entropy =     -100.63764695  energy(sigma->0) =     -100.64867380


--------------------------------------------------------------------------------------------------------




----------------------------------------- Iteration    1(   9)  ---------------------------------------


    EDDIAG:  cpu time    0.15: real time    0.15
  RMM-DIIS:  cpu time    0.71: real time    0.71
    ORTHCH:  cpu time    0.01: real time    0.01
       DOS:  cpu time    0.00: real time    0.00
    --------------------------------------------
      LOOP:  cpu time    0.87: real time    0.90

 eigenvalue-minimisations  :   168
 total energy-change (2. order) :-0.2861998E+00  (-0.2647731E+00)
 number of electron   93.0000000 magnetization 
 augmentation part    93.0000000 magnetization 

 Free energy of the ion-electron system (eV)
  ---------------------------------------------------
  alpha Z        PSCENC =        -6.10292983
  Ewald energy   TEWEN  =     -2226.95940862
  -1/2 Hartree   DENC   =       -20.94821856
  -exchange  EXHF       =         0.00000000
  -V(xc)+E(xc)   XCENC  =      -814.77440339
  PAW double counting   =      1102.18190231     -111.56847430
  entropy T*S    EENTRO =        -0.02932053
  eigenvalues    EBANDS =       317.59412184
  atomic energy  EATOM  =      1659.66634407
  ---------------------------------------------------
  free energy    TOTEN  =      -100.94038702 eV

  energy without entropy =     -100.91106649  energy(sigma->0) =     -100.93061351


--------------------------------------------------------------------------------------------------------




----------------------------------------- Iteration    1(  10)  ---------------------------------------


    EDDIAG:  cpu time    0.15: real time    0.15
  RMM-DIIS:  cpu time    0.68: real time    0.68
    ORTHCH:  cpu time    0.01: real time    0.01
       DOS:  cpu time    0.00: real time    0.00
    --------------------------------------------
      LOOP:  cpu time    0.84: real time    0.84

 eigenvalue-minimisations  :   152
 total energy-change (2. order) :-0.3484444E-01  (-0.2338689E-01)
 number of electron   93.0000000 magnetization 
 augmentation part    93.0000000 magnetization 

 Free energy of the ion-electron system (eV)
  ---------------------------------------------------
  alpha Z        PSCENC =        -6.10292983
  Ewald energy   TEWEN  =     -2226.95940862
  -1/2 Hartree   DENC   =       -20.94821856
  -exchange  EXHF       =         0.00000000
  -V(xc)+E(xc)   XCENC  =      -814.77440339
  PAW double counting   =      1102.18190231     -111.56847430
  entropy T*S    EENTRO =        -0.03217143
  eigenvalues    EBANDS =       317.56212830
  atomic energy  EATOM  =      1659.66634407
  ---------------------------------------------------
  free energy    TOTEN  =      -100.97523145 eV

  energy without entropy =     -100.94306002  energy(sigma->0) =     -100.96450764


--------------------------------------------------------------------------------------------------------




----------------------------------------- Iteration    1(  11)  ---------------------------------------


    EDDIAG:  cpu time    0.15: real time    0.15
  RMM-DIIS:  cpu time    0.55: real time    0.55
    ORTHCH:  cpu time    0.01: real time    0.01
       DOS:  cpu time    0.00: real time    0.00
    --------------------------------------------
      LOOP:  cpu time    0.71: real time    0.71

 eigenvalue-minimisations  :   128
 total energy-change (2. order) :-0.2201291E-02  (-0.1194627E-02)
 number of electron   93.0000000 magnetization 
 augmentation part    93.0000000 magnetization 

 Free energy of the ion-electron system (eV)
  ---------------------------------------------------
  alpha Z        PSCENC =        -6.10292983
  Ewald energy   TEWEN  =     -2226.95940862
  -1/2 Hartree   DENC   =       -20.94821856
  -exchange  EXHF       =         0.00000000
  -V(xc)+E(xc)   XCENC  =      -814.77440339
  PAW double counting   =      1102.18190231     -111.56847430
  entropy T*S    EENTRO =        -0.03248574
  eigenvalues    EBANDS =       317.56024131
  atomic energy  EATOM  =      1659.66634407
  ---------------------------------------------------
  free energy    TOTEN  =      -100.97743274 eV

  energy without entropy =     -100.94494701  energy(sigma->0) =     -100.96660417


--------------------------------------------------------------------------------------------------------




----------------------------------------- Iteration    1(  12)  ---------------------------------------


    EDDIAG:  cpu time    0.15: real time    0.15
  RMM-DIIS:  cpu time    0.45: real time    0.45
    ORTHCH:  cpu time    0.01: real time    0.01
       DOS:  cpu time    0.00: real time    0.00
    CHARGE:  cpu time    0.13: real time    0.13
    MIXING:  cpu time    0.00: real time    0.00
    --------------------------------------------
      LOOP:  cpu time    0.75: real time    0.75

 eigenvalue-minimisations  :    96
 total energy-change (2. order) :-0.6997271E-04  (-0.2925309E-04)
 number of electron   92.9999993 magnetization 
 augmentation part    -0.9391305 magnetization 

 Broyden mixing:
  rms(total) = 0.65131E+00    rms(broyden)= 0.65130E+00
  rms(prec ) = 0.11843E+01
  weight for this iteration     100.00

 Free energy of the ion-electron system (eV)
  ---------------------------------------------------
  alpha Z        PSCENC =        -6.10292983
  Ewald energy   TEWEN  =     -2226.95940862
  -1/2 Hartree   DENC   =       -20.94821856
  -exchange  EXHF       =         0.00000000
  -V(xc)+E(xc)   XCENC  =      -814.77440339
  PAW double counting   =      1102.18190231     -111.56847430
  entropy T*S    EENTRO =        -0.03250478
  eigenvalues    EBANDS =       317.56019038
  atomic energy  EATOM  =      1659.66634407
  ---------------------------------------------------
  free energy    TOTEN  =      -100.97750272 eV

  energy without entropy =     -100.94499794  energy(sigma->0) =     -100.96666779


--------------------------------------------------------------------------------------------------------




----------------------------------------- Iteration    1(  13)  ---------------------------------------


    POTLOK:  cpu time    0.14: real time    0.14
    SETDIJ:  cpu time    0.01: real time    0.01
    EDDIAG:  cpu time    0.15: real time    0.15
  RMM-DIIS:  cpu time    0.59: real time    0.59
    ORTHCH:  cpu time    0.01: real time    0.01
       DOS:  cpu time    0.00: real time    0.00
    CHARGE:  cpu time    0.13: real time    0.13
    MIXING:  cpu time    0.00: real time    0.00
    --------------------------------------------
      LOOP:  cpu time    1.05: real time    1.05

 eigenvalue-minimisations  :   145
 total energy-change (2. order) : 0.1072725E+01  (-0.2279778E+00)
 number of electron   92.9999993 magnetization 
 augmentation part    -0.9558756 magnetization 

 Broyden mixing:
  rms(total) = 0.38957E+00    rms(broyden)= 0.38957E+00
  rms(prec ) = 0.60073E+00
  weight for this iteration     100.00

 eigenvalues of (default mixing * dielectric matrix)
  average eigenvalue GAMMA=   1.9668
  1.9668

 Free energy of the ion-electron system (eV)
  ---------------------------------------------------
  alpha Z        PSCENC =        -6.10292983
  Ewald energy   TEWEN  =     -2226.95940862
  -1/2 Hartree   DENC   =       -23.06922774
  -exchange  EXHF       =         0.00000000
  -V(xc)+E(xc)   XCENC  =      -813.55654387
  PAW double counting   =      1101.09807182     -110.49735469
  entropy T*S    EENTRO =        -0.13248641
  eigenvalues    EBANDS =       319.64875719
  atomic energy  EATOM  =      1659.66634407
  ---------------------------------------------------
  free energy    TOTEN  =       -99.90477809 eV

  energy without entropy =      -99.77229169  energy(sigma->0) =      -99.86061596


--------------------------------------------------------------------------------------------------------




----------------------------------------- Iteration    1(  14)  ---------------------------------------


    POTLOK:  cpu time    0.14: real time    0.14
    SETDIJ:  cpu time    0.01: real time    0.01
    EDDIAG:  cpu time    0.15: real time    0.15
  RMM-DIIS:  cpu time    0.60: real time    0.60
    ORTHCH:  cpu time    0.01: real time    0.01
       DOS:  cpu time    0.00: real time    0.00
    CHARGE:  cpu time    0.13: real time    0.13
    MIXING:  cpu time    0.00: real time    0.01
    --------------------------------------------
      LOOP:  cpu time    1.06: real time    1.06

 eigenvalue-minimisations  :   144
 total energy-change (2. order) : 0.2621295E+00  (-0.2122775E-01)
 number of electron   92.9999993 magnetization 
 augmentation part    -0.9664407 magnetization 

 Broyden mixing:
  rms(total) = 0.23213E+00    rms(broyden)= 0.23213E+00
  rms(prec ) = 0.34986E+00
  weight for this iteration     100.00

 eigenvalues of (default mixing * dielectric matrix)
  average eigenvalue GAMMA=   1.6621
  2.5118  0.8124

 Free energy of the ion-electron system (eV)
  ---------------------------------------------------
  alpha Z        PSCENC =        -6.10292983
  Ewald energy   TEWEN  =     -2226.95940862
  -1/2 Hartree   DENC   =       -23.41454739
  -exchange  EXHF       =         0.00000000
  -V(xc)+E(xc)   XCENC  =      -812.61372109
  PAW double counting   =      1100.38298610     -109.81027309
  entropy T*S    EENTRO =        -0.15893305
  eigenvalues    EBANDS =       319.36783432
  atomic energy  EATOM  =      1659.66634407
  ---------------------------------------------------
  free energy    TOTEN  =       -99.64264859 eV

  energy without entropy =      -99.48371553  energy(sigma->0) =      -99.58967090


--------------------------------------------------------------------------------------------------------




----------------------------------------- Iteration    1(  15)  ---------------------------------------


    POTLOK:  cpu time    0.14: real time    0.14
    SETDIJ:  cpu time    0.01: real time    0.01
    EDDIAG:  cpu time    0.15: real time    0.15
  RMM-DIIS:  cpu time    0.63: real time    0.63
    ORTHCH:  cpu time    0.01: real time    0.01
       DOS:  cpu time    0.00: real time    0.00
    CHARGE:  cpu time    0.13: real time    0.13
    MIXING:  cpu time    0.00: real time    0.00
    --------------------------------------------
      LOOP:  cpu time    1.09: real time    1.09

 eigenvalue-minimisations  :   146
 total energy-change (2. order) : 0.1291042E+00  (-0.1115848E-01)
 number of electron   92.9999993 magnetization 
 augmentation part    -0.9807845 magnetization 

 Broyden mixing:
  rms(total) = 0.56866E-01    rms(broyden)= 0.56866E-01
  rms(prec ) = 0.96087E-01
  weight for this iteration     100.00

 eigenvalues of (default mixing * dielectric matrix)
  average eigenvalue GAMMA=   1.4103
  2.5936  0.8872  0.7501

 Free energy of the ion-electron system (eV)
  ---------------------------------------------------
  alpha Z        PSCENC =        -6.10292983
  Ewald energy   TEWEN  =     -2226.95940862
  -1/2 Hartree   DENC   =       -24.62312937
  -exchange  EXHF       =         0.00000000
  -V(xc)+E(xc)   XCENC  =      -811.35008248
  PAW double counting   =      1099.57437813     -109.05629183
  entropy T*S    EENTRO =        -0.14178161
  eigenvalues    EBANDS =       319.47935715
  atomic energy  EATOM  =      1659.66634407
  ---------------------------------------------------
  free energy    TOTEN  =       -99.51354440 eV

  energy without entropy =      -99.37176279  energy(sigma->0) =      -99.46628386


--------------------------------------------------------------------------------------------------------




----------------------------------------- Iteration    1(  16)  ---------------------------------------


    POTLOK:  cpu time    0.14: real time    0.15
    SETDIJ:  cpu time    0.01: real time    0.01
    EDDIAG:  cpu time    0.15: real time    0.15
  RMM-DIIS:  cpu time    0.61: real time    0.61
    ORTHCH:  cpu time    0.01: real time    0.01
       DOS:  cpu time    0.00: real time    0.00
    CHARGE:  cpu time    0.13: real time    0.13
    MIXING:  cpu time    0.00: real time    0.00
    --------------------------------------------
      LOOP:  cpu time    1.07: real time    1.07

 eigenvalue-minimisations  :   144
 total energy-change (2. order) : 0.1032788E-01  (-0.1088860E-02)
 number of electron   92.9999993 magnetization 
 augmentation part    -0.9860048 magnetization 

 Broyden mixing:
  rms(total) = 0.14264E-01    rms(broyden)= 0.14264E-01
  rms(prec ) = 0.24716E-01
  weight for this iteration     100.00

 eigenvalues of (default mixing * dielectric matrix)
  average eigenvalue GAMMA=   1.4646
  2.6148  1.6736  0.8767  0.6933

 Free energy of the ion-electron system (eV)
  ---------------------------------------------------
  alpha Z        PSCENC =        -6.10292983
  Ewald energy   TEWEN  =     -2226.95940862
  -1/2 Hartree   DENC   =       -24.93035174
  -exchange  EXHF       =         0.00000000
  -V(xc)+E(xc)   XCENC  =      -810.98580844
  PAW double counting   =      1099.57342424     -109.08634809
  entropy T*S    EENTRO =        -0.15307014
  eigenvalues    EBANDS =       319.47493204
  atomic energy  EATOM  =      1659.66634407
  ---------------------------------------------------
  free energy    TOTEN  =       -99.50321652 eV

  energy without entropy =      -99.35014638  energy(sigma->0) =      -99.45219314


--------------------------------------------------------------------------------------------------------




----------------------------------------- Iteration    1(  17)  ---------------------------------------


    POTLOK:  cpu time    0.15: real time    0.15
    SETDIJ:  cpu time    0.01: real time    0.01
    EDDIAG:  cpu time    0.15: real time    0.15
  RMM-DIIS:  cpu time    0.65: real time    0.65
    ORTHCH:  cpu time    0.01: real time    0.01
       DOS:  cpu time    0.00: real time    0.00
    CHARGE:  cpu time    0.13: real time    0.13
    MIXING:  cpu time    0.00: real time    0.00
    --------------------------------------------
      LOOP:  cpu time    1.11: real time    1.11

 eigenvalue-minimisations  :   145
 total energy-change (2. order) : 0.7334692E-03  (-0.2171938E-03)
 number of electron   92.9999993 magnetization 
 augmentation part    -0.9876196 magnetization 

 Broyden mixing:
  rms(total) = 0.45459E-02    rms(broyden)= 0.45459E-02
  rms(prec ) = 0.72118E-02
  weight for this iteration     100.00

 eigenvalues of (default mixing * dielectric matrix)
  average eigenvalue GAMMA=   1.5469
  2.6637  2.0987  1.3783  0.6932  0.9008

 Free energy of the ion-electron system (eV)
  ---------------------------------------------------
  alpha Z        PSCENC =        -6.10292983
  Ewald energy   TEWEN  =     -2226.95940862
  -1/2 Hartree   DENC   =       -24.93461633
  -exchange  EXHF       =         0.00000000
  -V(xc)+E(xc)   XCENC  =      -810.90941955
  PAW double counting   =      1099.83817926     -109.37610868
  entropy T*S    EENTRO =        -0.15054956
  eigenvalues    EBANDS =       319.42602620
  atomic energy  EATOM  =      1659.66634407
  ---------------------------------------------------
  free energy    TOTEN  =       -99.50248305 eV

  energy without entropy =      -99.35193350  energy(sigma->0) =      -99.45229987


--------------------------------------------------------------------------------------------------------




----------------------------------------- Iteration    1(  18)  ---------------------------------------


    POTLOK:  cpu time    0.14: real time    0.15
    SETDIJ:  cpu time    0.01: real time    0.01
    EDDIAG:  cpu time    0.15: real time    0.15
  RMM-DIIS:  cpu time    0.47: real time    0.47
    ORTHCH:  cpu time    0.01: real time    0.01
       DOS:  cpu time    0.00: real time    0.00
    --------------------------------------------
      LOOP:  cpu time    0.79: real time    0.79

 eigenvalue-minimisations  :   101
 total energy-change (2. order) :-0.2168403E-04  (-0.2527421E-04)
 number of electron   92.9999993 magnetization 
 augmentation part    -0.9876196 magnetization 

 Free energy of the ion-electron system (eV)
  ---------------------------------------------------
  alpha Z        PSCENC =        -6.10292983
  Ewald energy   TEWEN  =     -2226.95940862
  -1/2 Hartree   DENC   =       -24.94415021
  -exchange  EXHF       =         0.00000000
  -V(xc)+E(xc)   XCENC  =      -810.88779443
  PAW double counting   =      1099.95906236     -109.50892904
  entropy T*S    EENTRO =        -0.15044075
  eigenvalues    EBANDS =       319.42574173
  atomic energy  EATOM  =      1659.66634407
  ---------------------------------------------------
  free energy    TOTEN  =       -99.50250474 eV

  energy without entropy =      -99.35206399  energy(sigma->0) =      -99.45235782


--------------------------------------------------------------------------------------------------------




 average (electrostatic) potential at core
  the test charge radii are     1.0406
  (the norm of the test charge is              1.0000)
       1 -73.1142       2 -73.1462       3 -73.1860       4 -73.1860       5 -73.1142
       6 -72.7374       7 -73.1142       8 -73.1860       9 -73.1860      10 -73.1860
      11 -73.1860      12 -73.1860      13 -73.1462      14 -73.1142      15 -73.1860
      16 -73.1142      17 -72.7374      18 -73.1860      19 -73.1142      20 -73.1142
      21 -72.9598      22 -73.1142      23 -73.1142      24 -73.1860      25 -73.1462
      26 -73.1860      27 -73.1142      28 -73.1860      29 -72.7374      30 -73.1142
      31 -73.1142
 
 
 
 E-fermi :   7.9265     XC(G=0): -10.0446     alpha+bet :-14.3870
   add alpha+bet to get absolut eigen values

 k-point   1 :       0.0000    0.0000    0.0000
  band No.  band energies     occupation 
      1      -3.3521      2.00000
      2      -1.1971      2.00000
      3      -1.1971      2.00000
      4      -1.1595      2.00000
      5      -1.1595      2.00000
      6      -1.1595      2.00000
      7      -0.7459      2.00000
      8       0.9971      2.00000
      9       0.9971      2.00000
     10       0.9971      2.00000
     11       0.9977      2.00000
     12       0.9977      2.00000
     13       0.9977      2.00000
     14       1.0328      2.00000
     15       1.0328      2.00000
     16       1.2324      2.00000
     17       1.2324      2.00000
     18       1.2324      2.00000
     19       2.0299      2.00000
     20       3.0425      2.00000
     21       3.2779      2.00000
     22       3.2779      2.00000
     23       3.2779      2.00000
     24       3.3262      2.00000
     25       3.3262      2.00000
     26       3.3262      2.00000
     27       4.1329      2.00000
     28       4.9040      2.00000
     29       4.9040      2.00000
     30       4.9040      2.00000
     31       6.1583      2.00000
     32       6.1583      2.00000
     33       6.4532      2.00000
     34       6.7893      2.00000
     35       6.7893      2.00000
     36       6.7893      2.00000
     37       6.8392      2.00000
     38       6.8392      2.00000
     39       6.8392      2.00000
     40       6.9468      2.00000
     41       6.9468      2.00000
     42       6.9468      2.00000
     43       7.2716      2.00004
     44       7.2716      2.00004
     45       7.2716      2.00004
     46       7.8625      1.51193
     47       7.9946      0.45909
     48       7.9946      0.45909
     49       7.9946      0.45909
     50       8.0740      0.05535
     51       8.0740      0.05535
     52       8.7693      0.00000
     53       8.7693      0.00000
     54       8.7693      0.00000
     55       8.8095      0.00000
     56       8.8096      0.00000
     57       8.8593      0.00000
     58       8.8594      0.00000
     59       8.8859      0.00000
     60       8.8859      0.00000
     61       8.8863      0.00000
     62       8.9455      0.00000
     63       9.1797      0.00000
     64       9.1802      0.00000
     65       9.1812      0.00000
     66       9.5002      0.00000
     67       9.5015      0.00000
     68       9.5127      0.00000
     69       9.5537      0.00000
     70      10.4596      0.00000
     71      10.4651      0.00000
     72      10.5052      0.00000


--------------------------------------------------------------------------------------------------------


 soft charge-density along one line, spin component           1
         0         1         2         3         4         5         6         7         8         9
 total charge-density along one line
 
 pseudopotential strength for first ion, spin component:           1
  8.457  -0.005   0.000   0.000   0.000   0.000   0.000   0.000
 -0.005   0.000   0.000   0.000   0.000   0.000   0.000   0.000
  0.000   0.000   1.986   0.000   0.000  -0.025   0.000   0.000
  0.000   0.000   0.000   1.985   0.000   0.000  -0.025   0.000
  0.000   0.000   0.000   0.000   1.985   0.000   0.000  -0.025
  0.000   0.000  -0.025   0.000   0.000  -0.012   0.000   0.000
  0.000   0.000   0.000  -0.025   0.000   0.000  -0.012   0.000
  0.000   0.000   0.000   0.000  -0.025   0.000   0.000  -0.012
 total augmentation occupancy for first ion, spin component:           1
  1.153  -0.552   0.000   0.000   0.000   0.000   0.001   0.001
 -0.552   0.469   0.000   0.002   0.002   0.000  -0.001  -0.001
  0.000   0.000   0.773   0.000   0.000  -0.176   0.000   0.000
  0.000   0.002   0.000   0.799   0.003   0.000  -0.180   0.000
  0.000   0.002   0.000   0.003   0.799   0.000   0.000  -0.180
  0.000   0.000  -0.176   0.000   0.000   0.048   0.000   0.000
  0.001  -0.001   0.000  -0.180   0.000   0.000   0.048   0.000
  0.001  -0.001   0.000   0.000  -0.180   0.000   0.000   0.048


------------------------ aborting loop because EDIFF is reached ----------------------------------------




--------------------------------------------------------------------------------------------------------



  FREE ENERGIE OF THE ION-ELECTRON SYSTEM (eV)
  ---------------------------------------------------
  free  energy   TOTEN  =       -99.502505 eV

  energy  without entropy=      -99.352064  energy(sigma->0) =      -99.452358
 
    CHARGE:  cpu time    0.13: real time    0.13
    FORLOC:  cpu time    0.03: real time    0.03
    FORNL :  cpu time    0.24: real time    0.24
    STRESS:  cpu time    0.39: real time    0.39
    FORCOR:  cpu time    0.17: real time    0.17
    FORHAR:  cpu time    0.06: real time    0.06
    MIXING:  cpu time    0.01: real time    0.00

  FORCE on cell =-STRESS in cart. coord.  units (eV):
  Direction    XX          YY          ZZ          XY          YZ          ZX
  --------------------------------------------------------------------------------------
  Alpha Z    -6.10293    -6.10293    -6.10293
  Ewald    -742.32286  -742.32286  -742.32286     0.00000     0.00000     0.00000
  Hartree     8.32735     8.32735     8.32735     0.00000     0.00000     0.00000
  E(xc)    -262.94502  -262.94502  -262.94503     0.00000     0.00000     0.00000
  Local      -6.76400    -6.76400    -6.76400     0.00000     0.00000     0.00000
  n-local   553.30120   553.30074   553.30083    -0.00006    -0.00010    -0.00006
  augment   -26.39091   -26.39091   -26.39090    -0.00001     0.00001     0.00000
  Kinetic   474.40552   474.40620   474.40589     0.00040    -0.00037    -0.00072
  Fock        0.00000     0.00000     0.00000     0.00000     0.00000     0.00000
  -------------------------------------------------------------------------------------
  Total      -8.49159    -8.49159    -8.49159     0.00000     0.00000     0.00000
  in kB     -25.72342   -25.72342   -25.72342     0.00000     0.00000     0.00000
  external pressure =      -25.72 kB  Pullay stress =        0.00 kB


 VOLUME and BASIS-vectors are now :
 -----------------------------------------------------------------------------
  energy-cutoff  :      300.00
  volume of cell :      528.90
      direct lattice vectors                 reciprocal lattice vectors
     8.087052000  0.000000000  0.000000000     0.123654454  0.000000000  0.000000000
     0.000000000  8.087052000  0.000000000     0.000000000  0.123654454  0.000000000
     0.000000000  0.000000000  8.087052000     0.000000000  0.000000000  0.123654454

  length of vectors
     8.087052000  8.087052000  8.087052000     0.123654454  0.123654454  0.123654454


 FORCES acting on ions
    electron-ion (+dipol)            ewald-force                    non-local-force                 convergence-correction
 -----------------------------------------------------------------------------------------------
   -.215E+01 0.118E-14 -.215E+01   0.211E+01 0.239E-14 0.211E+01   0.474E-01 0.000E+00 0.474E-01   0.242E-02 -.100E-13 0.242E-02
   -.278E-14 -.562E-13 0.961E-13   0.588E-14 -.999E-15 -.118E-13   -.212E-21 -.508E-20 0.180E-20   -.223E-13 -.185E-13 0.292E-13
   -.336E-14 -.961E+01 -.961E+01   0.278E-14 0.936E+01 0.936E+01   0.582E-20 0.630E-01 0.630E-01   -.966E-14 0.727E-02 0.727E-02
   -.961E+01 -.961E+01 0.500E-14   0.936E+01 0.936E+01 0.947E-15   0.630E-01 0.630E-01 0.169E-20   0.727E-02 0.727E-02 0.310E-13
   0.215E+01 -.134E-12 -.215E+01   -.211E+01 -.111E-14 0.211E+01   -.474E-01 -.424E-20 0.474E-01   -.242E-02 -.145E-13 0.242E-02
   -.834E-14 -.814E-13 0.987E-13   -.278E-14 0.255E-14 -.147E-13   0.127E-20 0.000E+00 0.678E-20   0.240E-13 -.251E-13 0.498E-13
   -.975E-14 -.215E+01 -.215E+01   0.144E-14 0.211E+01 0.211E+01   0.254E-20 0.474E-01 0.474E-01   0.115E-13 0.242E-02 0.242E-02
   0.961E+01 -.961E+01 0.338E-12   -.936E+01 0.936E+01 0.107E-13   -.630E-01 0.630E-01 -.847E-20   -.727E-02 0.727E-02 0.397E-13
   -.961E+01 -.632E-14 -.961E+01   0.936E+01 -.167E-15 0.936E+01   0.630E-01 0.169E-20 0.630E-01   0.727E-02 0.899E-14 0.727E-02
   -.508E-14 0.961E+01 -.961E+01   0.117E-14 -.936E+01 0.936E+01   0.106E-21 -.630E-01 0.630E-01   -.609E-14 -.727E-02 0.727E-02
   -.961E+01 0.961E+01 -.445E-14   0.936E+01 -.936E+01 0.110E-14   0.630E-01 -.630E-01 0.169E-20   0.727E-02 -.727E-02 0.306E-13
   0.961E+01 0.142E-12 -.961E+01   -.936E+01 -.422E-14 0.936E+01   -.630E-01 0.508E-20 0.630E-01   -.727E-02 0.114E-13 0.727E-02
   -.651E-14 -.761E-13 -.473E-13   -.500E-14 -.389E-14 0.658E-14   -.275E-20 0.000E+00 0.000E+00   0.188E-14 0.219E-13 0.347E-13
   -.977E-14 0.215E+01 -.215E+01   0.239E-14 -.211E+01 0.211E+01   0.339E-20 -.474E-01 0.474E-01   0.807E-14 -.242E-02 0.242E-02
   0.961E+01 0.961E+01 0.730E-13   -.936E+01 -.936E+01 0.998E-15   -.630E-01 -.630E-01 0.000E+00   -.727E-02 -.727E-02 0.390E-13
   -.215E+01 -.151E-14 0.215E+01   0.211E+01 0.216E-14 -.211E+01   0.474E-01 -.450E-21 -.474E-01   0.242E-02 -.964E-14 -.242E-02
   -.332E-14 0.168E-13 -.354E-13   -.611E-15 0.611E-15 -.367E-14   -.296E-20 0.000E+00 0.000E+00   0.300E-14 -.166E-14 -.261E-13
   -.133E-14 -.961E+01 0.961E+01   -.144E-14 0.936E+01 -.936E+01   0.339E-20 0.630E-01 -.630E-01   -.230E-14 0.727E-02 -.727E-02
   -.215E+01 -.215E+01 -.914E-14   0.211E+01 0.211E+01 0.499E-14   0.474E-01 0.474E-01 0.296E-20   0.242E-02 0.242E-02 -.295E-13
   0.215E+01 -.381E-13 0.215E+01   -.211E+01 0.244E-14 -.211E+01   -.474E-01 0.000E+00 -.474E-01   -.242E-02 -.139E-13 -.242E-02
   -.796E-14 0.554E-13 -.170E-12   -.827E-14 0.239E-14 -.472E-14   -.106E-21 0.000E+00 -.212E-20   -.136E-14 -.291E-14 -.467E-13
   -.754E-14 -.215E+01 0.215E+01   -.144E-14 0.211E+01 -.211E+01   -.212E-20 0.474E-01 -.474E-01   0.412E-14 0.242E-02 -.242E-02
   0.215E+01 -.215E+01 0.419E-13   -.211E+01 0.211E+01 -.167E-14   -.474E-01 0.474E-01 0.678E-20   -.242E-02 0.242E-02 -.355E-13
   -.961E+01 -.102E-13 0.961E+01   0.936E+01 0.183E-14 -.936E+01   0.630E-01 0.148E-20 -.630E-01   0.727E-02 0.917E-14 -.727E-02
   -.439E-14 -.576E-13 -.107E-13   -.611E-15 -.611E-15 0.388E-14   0.212E-21 0.169E-20 0.508E-20   0.257E-14 0.117E-14 -.257E-13
   -.229E-14 0.961E+01 0.961E+01   -.594E-14 -.936E+01 -.936E+01   0.678E-20 -.630E-01 -.630E-01   0.134E-14 -.727E-02 -.727E-02
   -.215E+01 0.215E+01 -.132E-13   0.211E+01 -.211E+01 -.650E-14   0.474E-01 -.474E-01 -.169E-20   0.242E-02 -.242E-02 -.298E-13
   0.961E+01 -.696E-13 0.961E+01   -.936E+01 0.111E-14 -.936E+01   -.630E-01 0.000E+00 -.630E-01   -.727E-02 0.119E-13 -.727E-02
   -.780E-14 0.468E-13 0.117E-12   -.100E-13 -.239E-14 0.771E-14   0.000E+00 -.169E-20 -.254E-20   -.680E-15 0.107E-14 -.331E-13
   -.649E-14 0.215E+01 0.215E+01   -.472E-14 -.211E+01 -.211E+01   0.847E-21 -.474E-01 -.474E-01   0.699E-15 -.242E-02 -.242E-02
   0.215E+01 0.215E+01 0.594E-13   -.211E+01 -.211E+01 0.624E-15   -.474E-01 -.474E-01 -.169E-20   -.242E-02 -.242E-02 -.362E-13
 -----------------------------------------------------------------------------------------------
   0.795E-13 -.482E-13 0.284E-12   -.444E-15 -.444E-15 -.305E-13   -.694E-17 -.555E-16 -.416E-16   0.455E-15 -.171E-13 -.273E-13
 
 
 POSITION                                       TOTAL-FORCE (eV/Angst)
 -----------------------------------------------------------------------------------
      0.00000      0.00000      0.00000         0.011824      0.000000      0.011824
      2.02176      0.00000      2.02176         0.000000      0.000000      0.000000
      2.02176      2.02176      0.00000         0.000000     -0.185247     -0.185247
      0.00000      2.02176      2.02176        -0.185247     -0.185247      0.000000
      4.04353      0.00000      0.00000        -0.011824      0.000000      0.011824
      6.06529      0.00000      2.02176         0.000000      0.000000      0.000000
      6.06529      2.02176      0.00000         0.000000      0.011824      0.011824
      4.04353      2.02176      2.02176         0.185247     -0.185247      0.000000
      0.00000      4.04353      0.00000        -0.185247      0.000000     -0.185247
      2.02176      6.06529      0.00000         0.000000      0.185247     -0.185247
      0.00000      6.06529      2.02176        -0.185247      0.185247      0.000000
      4.04353      4.04353      0.00000         0.185247      0.000000     -0.185247
      6.06529      4.04353      2.02176         0.000000      0.000000      0.000000
      6.06529      6.06529      0.00000         0.000000     -0.011824      0.011824
      4.04353      6.06529      2.02176         0.185247      0.185247      0.000000
      0.00000      0.00000      4.04353         0.011824      0.000000     -0.011824
      2.02176      0.00000      6.06529         0.000000      0.000000      0.000000
      2.02176      2.02176      4.04353         0.000000     -0.185247      0.185247
      0.00000      2.02176      6.06529         0.011824      0.011824      0.000000
      4.04353      0.00000      4.04353        -0.011824      0.000000     -0.011824
      6.06529      0.00000      6.06529         0.000000      0.000000      0.000000
      6.06529      2.02176      4.04353         0.000000      0.011824     -0.011824
      4.04353      2.02176      6.06529        -0.011824      0.011824      0.000000
      0.00000      4.04353      4.04353        -0.185247      0.000000      0.185247
      2.02176      4.04353      6.06529         0.000000      0.000000      0.000000
      2.02176      6.06529      4.04353         0.000000      0.185247      0.185247
      0.00000      6.06529      6.06529         0.011824     -0.011824      0.000000
      4.04353      4.04353      4.04353         0.185247      0.000000      0.185247
      6.06529      4.04353      6.06529         0.000000      0.000000      0.000000
      6.06529      6.06529      4.04353         0.000000     -0.011824     -0.011824
      4.04353      6.06529      6.06529        -0.011824     -0.011824      0.000000
 -----------------------------------------------------------------------------------
    total drift:                                0.000000      0.000000      0.000000


--------------------------------------------------------------------------------------------------------


    POTLOK:  cpu time    0.16: real time    0.16


--------------------------------------------------------------------------------------------------------


  FORCES: max atom, RMS     0.261979    0.163328
  FORCE total and by dimension    0.909370    0.185247


--------------------------------------------------------------------------------------------------------


    WAVPRE:  cpu time    0.04: real time    0.04
    FEWALD:  cpu time    0.01: real time    0.01
    ORTHCH:  cpu time    0.05: real time    0.05
     LOOP+:  cpu time   14.79: real time   14.85
   RESPFUN:  cpu time    0.00: real time    0.00


----------------------------------------- Iteration    2(   1)  ---------------------------------------


    POTLOK:  cpu time    0.15: real time    0.15
    SETDIJ:  cpu time    0.01: real time    0.01
    EDDIAG:  cpu time    0.15: real time    0.15
  RMM-DIIS:  cpu time    0.60: real time    0.61
    ORTHCH:  cpu time    0.01: real time    0.01
       DOS:  cpu time    0.00: real time    0.00
    CHARGE:  cpu time    0.13: real time    0.13
    MIXING:  cpu time    0.00: real time    0.00
    --------------------------------------------
      LOOP:  cpu time    1.07: real time    1.07

 eigenvalue-minimisations  :   144
 total energy-change (2. order) :-0.4720127E-01  (-0.2556861E-01)
 number of electron   92.9999993 magnetization 
 augmentation part    -0.9876897 magnetization 

 Broyden mixing:
  rms(total) = 0.29058E-01    rms(broyden)= 0.29057E-01
  rms(prec ) = 0.83250E-01
  weight for this iteration     100.00

 Free energy of the ion-electron system (eV)
  ---------------------------------------------------
  alpha Z        PSCENC =        -6.10292983
  Ewald energy   TEWEN  =     -2224.91933289
  -1/2 Hartree   DENC   =       -26.63949087
  -exchange  EXHF       =         0.00000000
  -V(xc)+E(xc)   XCENC  =      -810.84549026
  PAW double counting   =      1099.98472933     -109.53759750
  entropy T*S    EENTRO =        -0.09251431
  eigenvalues    EBANDS =       318.93659795
  atomic energy  EATOM  =      1659.66634407
  ---------------------------------------------------
  free energy    TOTEN  =       -99.54968432 eV

  energy without entropy =      -99.45717001  energy(sigma->0) =      -99.51884622


--------------------------------------------------------------------------------------------------------




----------------------------------------- Iteration    2(   2)  ---------------------------------------


    POTLOK:  cpu time    0.15: real time    0.15
    SETDIJ:  cpu time    0.01: real time    0.01
    EDDIAG:  cpu time    0.15: real time    0.15
  RMM-DIIS:  cpu time    0.61: real time    0.61
    ORTHCH:  cpu time    0.01: real time    0.01
       DOS:  cpu time    0.00: real time    0.00
    CHARGE:  cpu time    0.13: real time    0.13
    MIXING:  cpu time    0.00: real time    0.00
    --------------------------------------------
      LOOP:  cpu time    1.08: real time    1.08

 eigenvalue-minimisations  :   144
 total energy-change (2. order) : 0.7470550E-02  (-0.1728353E-02)
 number of electron   92.9999993 magnetization 
 augmentation part    -0.9879297 magnetization 

 Broyden mixing:
  rms(total) = 0.70439E-02    rms(broyden)= 0.70436E-02
  rms(prec ) = 0.18269E-01
  weight for this iteration     100.00

 eigenvalues of (default mixing * dielectric matrix)
  average eigenvalue GAMMA=   0.9831
  0.9831

 Free energy of the ion-electron system (eV)
  ---------------------------------------------------
  alpha Z        PSCENC =        -6.10292983
  Ewald energy   TEWEN  =     -2224.91933289
  -1/2 Hartree   DENC   =       -26.85428785
  -exchange  EXHF       =         0.00000000
  -V(xc)+E(xc)   XCENC  =      -810.84210591
  PAW double counting   =      1099.98608138     -109.53977687
  entropy T*S    EENTRO =        -0.11556327
  eigenvalues    EBANDS =       319.17935739
  atomic energy  EATOM  =      1659.66634407
  ---------------------------------------------------
  free energy    TOTEN  =       -99.54221377 eV

  energy without entropy =      -99.42665050  energy(sigma->0) =      -99.50369268


--------------------------------------------------------------------------------------------------------




----------------------------------------- Iteration    2(   3)  ---------------------------------------


    POTLOK:  cpu time    0.15: real time    0.15
    SETDIJ:  cpu time    0.01: real time    0.01
    EDDIAG:  cpu time    0.15: real time    0.15
  RMM-DIIS:  cpu time    0.56: real time    0.56
    ORTHCH:  cpu time    0.01: real time    0.01
       DOS:  cpu time    0.00: real time    0.00
    CHARGE:  cpu time    0.13: real time    0.13
    MIXING:  cpu time    0.00: real time    0.00
    --------------------------------------------
      LOOP:  cpu time    1.02: real time    1.02

 eigenvalue-minimisations  :   130
 total energy-change (2. order) : 0.2891102E-03  (-0.7122153E-04)
 number of electron   92.9999993 magnetization 
 augmentation part    -0.9879427 magnetization 

 Broyden mixing:
  rms(total) = 0.35597E-02    rms(broyden)= 0.35596E-02
  rms(prec ) = 0.66429E-02
  weight for this iteration     100.00

 eigenvalues of (default mixing * dielectric matrix)
  average eigenvalue GAMMA=   1.1893
  0.8780  1.5005

 Free energy of the ion-electron system (eV)
  ---------------------------------------------------
  alpha Z        PSCENC =        -6.10292983
  Ewald energy   TEWEN  =     -2224.91933289
  -1/2 Hartree   DENC   =       -26.83145723
  -exchange  EXHF       =         0.00000000
  -V(xc)+E(xc)   XCENC  =      -810.84181959
  PAW double counting   =      1099.99513356     -109.54968475
  entropy T*S    EENTRO =        -0.11602625
  eigenvalues    EBANDS =       319.15784825
  atomic energy  EATOM  =      1659.66634407
  ---------------------------------------------------
  free energy    TOTEN  =       -99.54192466 eV

  energy without entropy =      -99.42589841  energy(sigma->0) =      -99.50324924


--------------------------------------------------------------------------------------------------------




----------------------------------------- Iteration    2(   4)  ---------------------------------------


    POTLOK:  cpu time    0.15: real time    0.15
    SETDIJ:  cpu time    0.01: real time    0.01
    EDDIAG:  cpu time    0.15: real time    0.15
  RMM-DIIS:  cpu time    0.42: real time    0.42
    ORTHCH:  cpu time    0.01: real time    0.01
       DOS:  cpu time    0.00: real time    0.00
    --------------------------------------------
      LOOP:  cpu time    0.74: real time    0.74

 eigenvalue-minimisations  :    92
 total energy-change (2. order) : 0.2501442E-04  (-0.7816711E-05)
 number of electron   92.9999993 magnetization 
 augmentation part    -0.9879427 magnetization 

 Free energy of the ion-electron system (eV)
  ---------------------------------------------------
  alpha Z        PSCENC =        -6.10292983
  Ewald energy   TEWEN  =     -2224.91933289
  -1/2 Hartree   DENC   =       -26.83572384
  -exchange  EXHF       =         0.00000000
  -V(xc)+E(xc)   XCENC  =      -810.84153456
  PAW double counting   =      1100.00058678     -109.55576103
  entropy T*S    EENTRO =        -0.11577677
  eigenvalues    EBANDS =       319.16222843
  atomic energy  EATOM  =      1659.66634407
  ---------------------------------------------------
  free energy    TOTEN  =       -99.54189965 eV

  energy without entropy =      -99.42612288  energy(sigma->0) =      -99.50330739


--------------------------------------------------------------------------------------------------------




 average (electrostatic) potential at core
  the test charge radii are     1.0406
  (the norm of the test charge is              1.0000)
       1 -73.1090       2 -73.1573       3 -73.1932       4 -73.1932       5 -73.1090
       6 -72.7152       7 -73.1090       8 -73.1932       9 -73.1932      10 -73.1932
      11 -73.1932      12 -73.1932      13 -73.1573      14 -73.1090      15 -73.1932
      16 -73.1090      17 -72.7152      18 -73.1932      19 -73.1090      20 -73.1090
      21 -72.9624      22 -73.1090      23 -73.1090      24 -73.1932      25 -73.1573
      26 -73.1932      27 -73.1090      28 -73.1932      29 -72.7152      30 -73.1090
      31 -73.1090
 
 
 
 E-fermi :   7.9184     XC(G=0): -10.0429     alpha+bet :-14.3870
   add alpha+bet to get absolut eigen values

 k-point   1 :       0.0000    0.0000    0.0000
  band No.  band energies     occupation 
      1      -3.3577      2.00000
      2      -1.2098      2.00000
      3      -1.2098      2.00000
      4      -1.1639      2.00000
      5      -1.1639      2.00000
      6      -1.1639      2.00000
      7      -0.7325      2.00000
      8       0.9787      2.00000
      9       0.9787      2.00000
     10       0.9787      2.00000
     11       0.9941      2.00000
     12       0.9941      2.00000
     13       0.9941      2.00000
     14       1.0248      2.00000
     15       1.0248      2.00000
     16       1.2451      2.00000
     17       1.2451      2.00000
     18       1.2451      2.00000
     19       2.0440      2.00000
     20       3.0383      2.00000
     21       3.2787      2.00000
     22       3.2787      2.00000
     23       3.2787      2.00000
     24       3.3237      2.00000
     25       3.3237      2.00000
     26       3.3237      2.00000
     27       4.1535      2.00000
     28       4.9006      2.00000
     29       4.9006      2.00000
     30       4.9006      2.00000
     31       6.1554      2.00000
     32       6.1554      2.00000
     33       6.4558      2.00000
     34       6.7752      2.00000
     35       6.7752      2.00000
     36       6.7752      2.00000
     37       6.8238      2.00000
     38       6.8238      2.00000
     39       6.8238      2.00000
     40       6.9556      2.00000
     41       6.9556      2.00000
     42       6.9556      2.00000
     43       7.2849      2.00007
     44       7.2849      2.00007
     45       7.2849      2.00007
     46       7.8297      1.67541
     47       7.9886      0.44510
     48       7.9886      0.44510
     49       7.9886      0.44510
     50       8.0894     -0.00546
     51       8.0894     -0.00546
     52       8.7687      0.00000
     53       8.7687      0.00000
     54       8.7687      0.00000
     55       8.8051      0.00000
     56       8.8051      0.00000
     57       8.8376      0.00000
     58       8.8376      0.00000
     59       8.8782      0.00000
     60       8.8782      0.00000
     61       8.8782      0.00000
     62       8.9793      0.00000
     63       9.1849      0.00000
     64       9.1849      0.00000
     65       9.1849      0.00000
     66       9.5082      0.00000
     67       9.5083      0.00000
     68       9.5091      0.00000
     69       9.5551      0.00000
     70      10.4388      0.00000
     71      10.4494      0.00000
     72      10.4631      0.00000


--------------------------------------------------------------------------------------------------------


 soft charge-density along one line, spin component           1
         0         1         2         3         4         5         6         7         8         9
 total charge-density along one line
 
 pseudopotential strength for first ion, spin component:           1
  8.457  -0.005   0.000   0.000   0.000   0.000   0.000   0.000
 -0.005   0.000   0.000   0.000   0.000   0.000   0.000   0.000
  0.000   0.000   1.986   0.000   0.000  -0.025   0.000   0.000
  0.000   0.000   0.000   1.985   0.000   0.000  -0.025   0.000
  0.000   0.000   0.000   0.000   1.985   0.000   0.000  -0.025
  0.000   0.000  -0.025   0.000   0.000  -0.012   0.000   0.000
  0.000   0.000   0.000  -0.025   0.000   0.000  -0.012   0.000
  0.000   0.000   0.000   0.000  -0.025   0.000   0.000  -0.012
 total augmentation occupancy for first ion, spin component:           1
  1.152  -0.549   0.000  -0.001  -0.001   0.000   0.000   0.000
 -0.549   0.467   0.000   0.001   0.001   0.000   0.000   0.000
  0.000   0.000   0.773   0.000   0.000  -0.177   0.000   0.000
 -0.001   0.001   0.000   0.801   0.000   0.000  -0.180   0.001
 -0.001   0.001   0.000   0.000   0.801   0.000   0.001  -0.180
  0.000   0.000  -0.177   0.000   0.000   0.048   0.000   0.000
  0.000   0.000   0.000  -0.180   0.001   0.000   0.048   0.000
  0.000   0.000   0.000   0.001  -0.180   0.000   0.000   0.048


------------------------ aborting loop because EDIFF is reached ----------------------------------------




--------------------------------------------------------------------------------------------------------



  FREE ENERGIE OF THE ION-ELECTRON SYSTEM (eV)
  ---------------------------------------------------
  free  energy   TOTEN  =       -99.541900 eV

  energy  without entropy=      -99.426123  energy(sigma->0) =      -99.503307
 
    CHARGE:  cpu time    0.13: real time    0.13
    FORLOC:  cpu time    0.03: real time    0.03
    FORNL :  cpu time    0.24: real time    0.24
    STRESS:  cpu time    0.39: real time    0.39
    FORCOR:  cpu time    0.17: real time    0.17
    FORHAR:  cpu time    0.06: real time    0.07
    MIXING:  cpu time    0.00: real time    0.01

  FORCE on cell =-STRESS in cart. coord.  units (eV):
  Direction    XX          YY          ZZ          XY          YZ          ZX
  --------------------------------------------------------------------------------------
[...]


    POTLOK:  cpu time    0.14: real time    0.14
    SETDIJ:  cpu time    0.01: real time    0.01
    EDDIAG:  cpu time    0.15: real time    0.15
  RMM-DIIS:  cpu time    0.60: real time    0.60
    ORTHCH:  cpu time    0.01: real time    0.01
       DOS:  cpu time    0.00: real time    0.00
    CHARGE:  cpu time    0.13: real time    0.13
    MIXING:  cpu time    0.00: real time    0.00
    --------------------------------------------
      LOOP:  cpu time    1.05: real time    1.05

 eigenvalue-minimisations  :   145
 total energy-change (2. order) : 0.1978383E-02  (-0.3449938E-03)
 number of electron   92.9999995 magnetization 
 augmentation part    -0.9860924 magnetization 

 Broyden mixing:
  rms(total) = 0.57075E-02    rms(broyden)= 0.57075E-02
  rms(prec ) = 0.97802E-02
  weight for this iteration     100.00

 eigenvalues of (default mixing * dielectric matrix)
  average eigenvalue GAMMA=   1.1286
  0.6994  1.5579

 Free energy of the ion-electron system (eV)
  ---------------------------------------------------
  alpha Z        PSCENC =        -6.10292983
  Ewald energy   TEWEN  =     -2211.10019818
  -1/2 Hartree   DENC   =       -39.01981515
  -exchange  EXHF       =         0.00000000
  -V(xc)+E(xc)   XCENC  =      -810.56841602
  PAW double counting   =      1100.48352884     -110.06459437
  entropy T*S    EENTRO =        -0.02400209
  eigenvalues    EBANDS =       317.04886657
  atomic energy  EATOM  =      1659.66634407
  ---------------------------------------------------
  free energy    TOTEN  =       -99.68121616 eV

  energy without entropy =      -99.65721407  energy(sigma->0) =      -99.67321546


--------------------------------------------------------------------------------------------------------




----------------------------------------- Iteration    5(   4)  ---------------------------------------


    POTLOK:  cpu time    0.14: real time    0.14
    SETDIJ:  cpu time    0.01: real time    0.01
    EDDIAG:  cpu time    0.15: real time    0.15
  RMM-DIIS:  cpu time    0.49: real time    0.49
    ORTHCH:  cpu time    0.01: real time    0.01
       DOS:  cpu time    0.00: real time    0.00
    --------------------------------------------
      LOOP:  cpu time    0.80: real time    0.81

 eigenvalue-minimisations  :   112
 total energy-change (2. order) : 0.6007531E-04  (-0.4147578E-04)
 number of electron   92.9999995 magnetization 
 augmentation part    -0.9860924 magnetization 

 Free energy of the ion-electron system (eV)
  ---------------------------------------------------
  alpha Z        PSCENC =        -6.10292983
  Ewald energy   TEWEN  =     -2211.10019818
  -1/2 Hartree   DENC   =       -39.03637459
  -exchange  EXHF       =         0.00000000
  -V(xc)+E(xc)   XCENC  =      -810.56665573
  PAW double counting   =      1100.55472763     -110.13921550
  entropy T*S    EENTRO =        -0.02351181
  eigenvalues    EBANDS =       317.06665786
  atomic energy  EATOM  =      1659.66634407
  ---------------------------------------------------
  free energy    TOTEN  =       -99.68115609 eV

  energy without entropy =      -99.65764428  energy(sigma->0) =      -99.67331882


--------------------------------------------------------------------------------------------------------




 average (electrostatic) potential at core
  the test charge radii are     1.0406
  (the norm of the test charge is              1.0000)
       1 -73.0804       2 -73.2325       3 -73.2295       4 -73.2295       5 -73.0804
       6 -72.6025       7 -73.0804       8 -73.2295       9 -73.2295      10 -73.2295
      11 -73.2295      12 -73.2295      13 -73.2325      14 -73.0804      15 -73.2295
      16 -73.0804      17 -72.6025      18 -73.2295      19 -73.0804      20 -73.0804
      21 -72.9771      22 -73.0804      23 -73.0804      24 -73.2295      25 -73.2325
      26 -73.2295      27 -73.0804      28 -73.2295      29 -72.6025      30 -73.0804
      31 -73.0804
 
 
 
 E-fermi :   7.8715     XC(G=0): -10.0323     alpha+bet :-14.3870
   add alpha+bet to get absolut eigen values

 k-point   1 :       0.0000    0.0000    0.0000
  band No.  band energies     occupation 
      1      -3.3996      2.00000
      2      -1.3069      2.00000
      3      -1.3069      2.00000
      4      -1.1963      2.00000
      5      -1.1963      2.00000
      6      -1.1963      2.00000
      7      -0.6358      2.00000
      8       0.8451      2.00000
      9       0.8451      2.00000
     10       0.8451      2.00000
     11       0.9602      2.00000
     12       0.9602      2.00000
     13       0.9709      2.00000
     14       0.9709      2.00000
     15       0.9709      2.00000
     16       1.3307      2.00000
     17       1.3307      2.00000
     18       1.3307      2.00000
     19       2.1211      2.00000
     20       3.0145      2.00000
     21       3.2816      2.00000
     22       3.2816      2.00000
     23       3.2816      2.00000
     24       3.3040      2.00000
     25       3.3040      2.00000
     26       3.3040      2.00000
     27       4.2804      2.00000
     28       4.8752      2.00000
     29       4.8752      2.00000
     30       4.8752      2.00000
     31       6.1301      2.00000
     32       6.1301      2.00000
     33       6.4701      2.00000
     34       6.6863      2.00000
     35       6.6863      2.00000
     36       6.6863      2.00000
     37       6.7132      2.00000
     38       6.7132      2.00000
     39       6.7132      2.00000
     40       7.0145      2.00000
     41       7.0145      2.00000
     42       7.0145      2.00000
     43       7.3639      2.00195
     44       7.3639      2.00195
     45       7.3639      2.00195
     46       7.5955      2.06496
     47       7.9571      0.34361
     48       7.9571      0.34361
     49       7.9571      0.34361
     50       8.1813     -0.05083
     51       8.1813     -0.05083
     52       8.7063      0.00000
     53       8.7063      0.00000
     54       8.7623      0.00000
     55       8.7623      0.00000
     56       8.7623      0.00000
     57       8.7670      0.00000
     58       8.7670      0.00000
     59       8.8294      0.00000
     60       8.8294      0.00000
     61       8.8294      0.00000
     62       9.1937      0.00000
     63       9.2116      0.00000
     64       9.2116      0.00000
     65       9.2116      0.00000
     66       9.5583      0.00000
     67       9.5583      0.00000
     68       9.5583      0.00000
     69       9.6217      0.00000
     70      10.2974      0.00000
     71      10.3059      0.00000
     72      10.4278      0.00000


--------------------------------------------------------------------------------------------------------


 soft charge-density along one line, spin component           1
         0         1         2         3         4         5         6         7         8         9
 total charge-density along one line
 
 pseudopotential strength for first ion, spin component:           1
  8.457  -0.005   0.000   0.000   0.000   0.000   0.000   0.000
 -0.005   0.000   0.000   0.000   0.000   0.000   0.000   0.000
  0.000   0.000   1.986   0.000   0.000  -0.025   0.000   0.000
  0.000   0.000   0.000   1.986   0.000   0.000  -0.025   0.000
  0.000   0.000   0.000   0.000   1.986   0.000   0.000  -0.025
  0.000   0.000  -0.025   0.000   0.000  -0.012   0.000   0.000
  0.000   0.000   0.000  -0.025   0.000   0.000  -0.012   0.000
  0.000   0.000   0.000   0.000  -0.025   0.000   0.000  -0.012
 total augmentation occupancy for first ion, spin component:           1
  1.148  -0.560   0.000   0.003   0.003   0.000  -0.003  -0.003
 -0.560   0.481   0.000  -0.005  -0.005   0.000   0.003   0.003
  0.000   0.000   0.773   0.000   0.000  -0.180   0.000   0.000
  0.003  -0.005   0.000   0.816   0.000   0.000  -0.185   0.001
  0.003  -0.005   0.000   0.000   0.816   0.000   0.001  -0.185
  0.000   0.000  -0.180   0.000   0.000   0.049   0.000   0.000
 -0.003   0.003   0.000  -0.185   0.001   0.000   0.050   0.000
 -0.003   0.003   0.000   0.001  -0.185   0.000   0.000   0.050


------------------------ aborting loop because EDIFF is reached ----------------------------------------




--------------------------------------------------------------------------------------------------------



  FREE ENERGIE OF THE ION-ELECTRON SYSTEM (eV)
  ---------------------------------------------------
  free  energy   TOTEN  =       -99.681156 eV

  energy  without entropy=      -99.657644  energy(sigma->0) =      -99.673319
 
    CHARGE:  cpu time    0.13: real time    0.13
    FORLOC:  cpu time    0.03: real time    0.03
    FORNL :  cpu time    0.24: real time    0.24
    STRESS:  cpu time    0.39: real time    0.39
    FORCOR:  cpu time    0.17: real time    0.17
    FORHAR:  cpu time    0.06: real time    0.06
    MIXING:  cpu time    0.01: real time    0.00

  FORCE on cell =-STRESS in cart. coord.  units (eV):
  Direction    XX          YY          ZZ          XY          YZ          ZX
  --------------------------------------------------------------------------------------
  Alpha Z    -6.10293    -6.10293    -6.10293
  Ewald    -737.03638  -737.03638  -737.03638     0.00000     0.00000     0.00000
  Hartree    13.01005    13.01005    13.01005     0.00000     0.00000     0.00000
  E(xc)    -263.43364  -263.43364  -263.43364     0.00000     0.00000     0.00000
  Local     -17.45279   -17.45279   -17.45279     0.00000     0.00000     0.00000
  n-local   554.46418   554.46416   554.46420     0.00002    -0.00005     0.00002
  augment   -26.33342   -26.33342   -26.33342     0.00000     0.00000     0.00000
  Kinetic   475.66474   475.66470   475.66472     0.00000     0.00001     0.00001
  Fock        0.00000     0.00000     0.00000     0.00000     0.00000     0.00000
  -------------------------------------------------------------------------------------
  Total      -7.22021    -7.22021    -7.22021     0.00000     0.00000     0.00000
  in kB     -21.87205   -21.87205   -21.87205     0.00000     0.00000     0.00000
  external pressure =      -21.87 kB  Pullay stress =        0.00 kB


 VOLUME and BASIS-vectors are now :
 -----------------------------------------------------------------------------
  energy-cutoff  :      300.00
  volume of cell :      528.90
      direct lattice vectors                 reciprocal lattice vectors
     8.087052000  0.000000000  0.000000000     0.123654454  0.000000000  0.000000000
     0.000000000  8.087052000  0.000000000     0.000000000  0.123654454  0.000000000
     0.000000000  0.000000000  8.087052000     0.000000000  0.000000000  0.123654454

  length of vectors
     8.087052000  8.087052000  8.087052000     0.123654454  0.123654454  0.123654454


 FORCES acting on ions
    electron-ion (+dipol)            ewald-force                    non-local-force                 convergence-correction
 -----------------------------------------------------------------------------------------------
   -.215E+01 -.128E-13 -.215E+01   0.222E+01 0.716E-14 0.222E+01   -.148E+00 -.529E-22 -.148E+00   0.298E-02 0.275E-13 0.298E-02
   -.505E-14 -.530E-13 0.729E-13   0.555E-14 -.305E-14 0.831E-15   0.529E-22 -.106E-21 0.794E-22   0.109E-12 0.356E-13 0.242E-13
   -.285E-14 -.141E+02 -.141E+02   0.661E-14 0.131E+02 0.131E+02   -.357E-21 0.102E+01 0.102E+01   0.654E-14 0.161E-02 0.161E-02
   -.141E+02 -.141E+02 -.228E-06   0.131E+02 0.131E+02 0.485E-14   0.102E+01 0.102E+01 0.529E-22   0.161E-02 0.161E-02 0.660E-14
   0.215E+01 -.131E-12 -.215E+01   -.222E+01 0.134E-13 0.222E+01   0.148E+00 0.172E-21 -.148E+00   -.298E-02 0.883E-13 0.298E-02
   -.771E-14 0.541E-13 0.172E-12   -.333E-15 0.333E-15 0.925E-14   0.132E-21 0.106E-21 0.265E-22   -.111E-12 0.428E-13 0.608E-14
   -.744E-14 -.215E+01 -.215E+01   -.477E-14 0.222E+01 0.222E+01   0.106E-21 -.148E+00 -.148E+00   -.104E-13 0.298E-02 0.298E-02
   0.141E+02 -.141E+02 -.765E-13   -.131E+02 0.131E+02 0.911E-14   -.102E+01 0.102E+01 -.106E-21   -.161E-02 0.161E-02 -.459E-14
   -.141E+02 0.114E-13 -.141E+02   0.131E+02 -.255E-14 0.131E+02   0.102E+01 0.000E+00 0.102E+01   0.161E-02 -.166E-13 0.161E-02
   -.240E-14 0.141E+02 -.141E+02   -.189E-14 -.131E+02 0.131E+02   -.318E-21 -.102E+01 0.102E+01   -.443E-13 -.161E-02 0.161E-02
   -.141E+02 0.141E+02 -.353E-13   0.131E+02 -.131E+02 -.388E-14   0.102E+01 -.102E+01 -.529E-22   0.161E-02 -.161E-02 0.989E-14
   0.141E+02 -.178E-13 -.141E+02   -.131E+02 0.694E-14 0.131E+02   -.102E+01 -.318E-21 0.102E+01   -.161E-02 -.591E-13 0.161E-02
   -.358E-14 -.347E-13 -.795E-13   -.888E-15 -.361E-14 0.971E-14   0.106E-21 0.106E-21 0.106E-21   0.230E-13 -.270E-13 0.611E-14
   -.846E-14 0.215E+01 -.215E+01   0.272E-14 -.222E+01 0.222E+01   0.529E-22 0.148E+00 -.148E+00   0.419E-13 -.298E-02 0.298E-02
   0.141E+02 0.141E+02 0.228E-06   -.131E+02 -.131E+02 -.247E-15   -.102E+01 -.102E+01 0.424E-21   -.161E-02 -.161E-02 0.161E-13
   -.215E+01 0.115E-13 0.215E+01   0.222E+01 0.516E-14 -.222E+01   -.148E+00 -.228E-21 0.148E+00   0.298E-02 0.162E-13 -.298E-02
   -.344E-14 0.350E-13 -.731E-14   0.933E-14 -.416E-14 0.921E-14   0.529E-22 0.132E-22 -.132E-22   -.854E-13 0.436E-13 -.404E-13
   -.352E-14 -.141E+02 0.141E+02   -.400E-14 0.131E+02 -.131E+02   0.529E-22 0.102E+01 -.102E+01   0.192E-13 0.161E-02 -.161E-02
   -.215E+01 -.215E+01 -.883E-07   0.222E+01 0.222E+01 0.156E-13   -.148E+00 -.148E+00 0.424E-21   0.298E-02 0.298E-02 -.107E-13
   0.215E+01 -.118E-13 0.215E+01   -.222E+01 0.450E-14 -.222E+01   0.148E+00 0.291E-21 0.148E+00   -.298E-02 0.595E-13 -.298E-02
   -.630E-14 0.107E-12 -.205E-12   -.616E-14 0.266E-14 -.439E-14   0.000E+00 -.529E-22 0.529E-22   0.838E-13 0.590E-13 -.204E-13
   -.751E-14 -.215E+01 0.215E+01   -.383E-14 0.222E+01 -.222E+01   -.212E-21 -.148E+00 0.148E+00   -.204E-13 0.298E-02 -.298E-02
   0.215E+01 -.215E+01 -.229E-12   -.222E+01 0.222E+01 0.150E-13   0.148E+00 -.148E+00 -.106E-21   -.298E-02 0.298E-02 -.448E-13
   -.141E+02 -.364E-13 0.141E+02   0.131E+02 -.977E-14 -.131E+02   0.102E+01 0.344E-21 -.102E+01   0.161E-02 -.180E-13 -.161E-02
   -.330E-14 -.747E-13 -.519E-13   -.461E-14 -.994E-14 -.500E-15   0.529E-22 0.318E-21 0.529E-22   -.365E-13 -.375E-13 -.131E-13
   -.330E-14 0.141E+02 0.141E+02   -.372E-14 -.131E+02 -.131E+02   0.371E-21 -.102E+01 -.102E+01   -.212E-13 -.161E-02 -.161E-02
   -.215E+01 0.215E+01 -.212E-13   0.222E+01 -.222E+01 0.271E-14   -.148E+00 0.148E+00 -.106E-21   0.298E-02 -.298E-02 -.175E-13
   0.141E+02 -.134E-12 0.141E+02   -.131E+02 -.372E-14 -.131E+02   -.102E+01 0.331E-22 -.102E+01   -.161E-02 -.558E-13 -.161E-02
   -.774E-14 0.185E-12 0.200E-12   0.477E-14 0.555E-15 0.477E-14   -.106E-21 -.529E-22 -.529E-22   0.356E-13 -.387E-13 -.351E-13
   -.742E-14 0.215E+01 0.215E+01   -.439E-14 -.222E+01 -.222E+01   -.529E-22 0.148E+00 0.148E+00   0.199E-13 -.298E-02 -.298E-02
   0.215E+01 0.215E+01 0.883E-07   -.222E+01 -.222E+01 -.970E-14   0.148E+00 0.148E+00 -.212E-21   -.298E-02 -.298E-02 -.569E-13
 -----------------------------------------------------------------------------------------------
   -.213E-12 -.217E-13 -.345E-12   -.666E-14 -.373E-13 0.289E-13   -.194E-15 -.278E-16 0.305E-15   0.114E-13 0.444E-13 0.937E-14
 
 
 POSITION                                       TOTAL-FORCE (eV/Angst)
 -----------------------------------------------------------------------------------
      0.00352      0.00000      0.00352        -0.074263      0.000000     -0.074263
      2.02176      0.00000      2.02176         0.000000      0.000000      0.000000
      2.02176      1.96238     -0.05939         0.000000     -0.011875     -0.011875
     -0.05939      1.96238      2.02176        -0.011875     -0.011875      0.000000
      4.04001      0.00000      0.00352         0.074263      0.000000     -0.074263
      6.06529      0.00000      2.02176         0.000000      0.000000      0.000000
      6.06529      2.02528      0.00352         0.000000     -0.074263     -0.074263
      4.10291      1.96238      2.02176         0.011875     -0.011875      0.000000
     -0.05939      4.04353     -0.05939        -0.011875      0.000000     -0.011875
      2.02176      6.12468     -0.05939         0.000000      0.011875     -0.011875
     -0.05939      6.12468      2.02176        -0.011875      0.011875      0.000000
      4.10291      4.04353     -0.05939         0.011875      0.000000     -0.011875
      6.06529      4.04353      2.02176         0.000000      0.000000      0.000000
      6.06529      6.06177      0.00352         0.000000      0.074263     -0.074263
      4.10291      6.12468      2.02176         0.011875      0.011875      0.000000
      0.00352      0.00000      4.04001        -0.074263      0.000000      0.074263
      2.02176      0.00000      6.06529         0.000000      0.000000      0.000000
      2.02176      1.96238      4.10291         0.000000     -0.011875      0.011875
      0.00352      2.02528      6.06529        -0.074263     -0.074263      0.000000
      4.04001      0.00000      4.04001         0.074263      0.000000      0.074263
      6.06529      0.00000      6.06529         0.000000      0.000000      0.000000
      6.06529      2.02528      4.04001         0.000000     -0.074263      0.074263
      4.04001      2.02528      6.06529         0.074263     -0.074263      0.000000
     -0.05939      4.04353      4.10291        -0.011875      0.000000      0.011875
      2.02176      4.04353      6.06529         0.000000      0.000000      0.000000
      2.02176      6.12468      4.10291         0.000000      0.011875      0.011875
      0.00352      6.06177      6.06529        -0.074263      0.074263      0.000000
      4.10291      4.04353      4.10291         0.011875      0.000000      0.011875
      6.06529      4.04353      6.06529         0.000000      0.000000      0.000000
      6.06529      6.06177      4.04001         0.000000      0.074263      0.074263
      4.04001      6.06177      6.06529         0.074263      0.074263      0.000000
 -----------------------------------------------------------------------------------
    total drift:                                0.000000      0.000000      0.000000
 d Force = 0.2212623E-01[ 0.340E-02, 0.409E-01]  d Energy = 0.2286618E-01-0.740E-03
 d Force =-0.5298455E+01[-0.553E+01,-0.506E+01]  d Ewald  =-0.5299129E+01 0.674E-03


--------------------------------------------------------------------------------------------------------


    POTLOK:  cpu time    0.16: real time    0.16


--------------------------------------------------------------------------------------------------------


  FORCES: max atom, RMS     0.105023    0.066172
  FORCE total and by dimension    0.368433    0.074263


--------------------------------------------------------------------------------------------------------


  
 reached required accuracy - stopping structural energy minimisation
     LOOP+:  cpu time    5.18: real time    5.19
    4ORBIT:  cpu time    0.00: real time    0.00

 total amount of memory used by VASP on root node  58219. kBytes
========================================================================

   base      :    30000. kBytes
   nonl-proj :     3494. kBytes
   fftplans  :     2983. kBytes
   grid      :    21024. kBytes
   one-center:       95. kBytes
   wavefun   :      623. kBytes
 
  
  
 General timing and accounting informations for this job:
 ========================================================
  
                  Total CPU time used (sec):       37.217
                            User time (sec):       37.078
                          System time (sec):        0.139
                         Elapsed time (sec):       37.504
  
                   Maximum memory used (kb):           0.
                   Average memory used (kb):           0.
  
                          Minor page faults:        22449
                          Major page faults:           26
                 Voluntary context switches:         2688
