<?xml version="1.0" encoding="ISO-8859-1"?>
<modeling>
 <generator>
  <i name="program" type="string">vasp </i>
  <i name="version" type="string">5.2.2  </i>
  <i name="subversion" type="string">15Apr09 complex  parallel </i>
  <i name="platform" type="string">LinuxIFC </i>
  <i name="date" type="string">2017 03 17 </i>
  <i name="time" type="string">11:23:25 </i>
 </generator>
 <incar>
  <i type="string" name="PREC">accurate</i>
  <i type="int" name="IALGO">    48</i>
  <i type="int" name="IBRION">     2</i>
  <i name="EDIFFG">      0.05000000</i>
  <i type="int" name="NSW">   191</i>
  <i type="int" name="ISIF">     2</i>
  <i name="ENCUT">    300.00000000</i>
  <i name="NELECT">     93.00000000</i>
  <i type="int" name="ISMEAR">     1</i>
  <i name="SIGMA">      0.20000000</i>
  <i type="logical" name="LWAVE"> F  </i>
  <i type="logical" name="LCHARG"> F  </i>
  <i type="logical" name="LPEAD"> F  </i>
  <i type="logical" name="LCALCPOL"> F  </i>
  <i type="logical" name="LCALCEPS"> F  </i>
  <v name="EFIELD_PEAD">      0.00000000      0.00000000      0.00000000</v>
  <i type="logical" name="LEFG"> F  </i>
 </incar>
 <kpoints>
  <generation param="Gamma">
   <v type="int" name="divisions">       1        1        1 </v>
   <v name="usershift">      0.00000000       0.00000000       0.00000000 </v>
   <v name="genvec1">      1.00000000       0.00000000       0.00000000 </v>
   <v name="genvec2">      0.00000000       1.00000000       0.00000000 </v>
   <v name="genvec3">      0.00000000       0.00000000       1.00000000 </v>
   <v name="shift">      0.00000000       0.00000000       0.00000000 </v>
  </generation>
  <varray name="kpointlist" >
   <v>       0.00000000       0.00000000       0.00000000 </v>
  </varray>
  <varray name="weights" >
   <v>       1.00000000 </v>
  </varray>
 </kpoints>
 <parameters>
  <separator name="general" >
   <i type="string" name="SYSTEM">unknown system</i>
   <i type="logical" name="LCOMPAT"> F  </i>
  </separator>
  <separator name="electronic" >
   <i type="string" name="PREC">accura</i>
   <i name="ENMAX">    300.00000000</i>
   <i name="ENAUG">    291.05200000</i>
   <i name="EDIFF">      0.00010000</i>
   <i type="int" name="IALGO">    48</i>
   <i type="int" name="IWAVPR">    11</i>
   <i type="int" name="NBANDS">    72</i>
   <i name="NELECT">     93.00000000</i>
   <separator name="electronic smearing" >
    <i type="int" name="ISMEAR">     1</i>
    <i name="SIGMA">      0.20000000</i>
   </separator>
   <separator name="electronic projectors" >
    <i type="logical" name="LREAL"> F  </i>
    <v name="ROPT">      0.00000000</v>
    <i type="int" name="LMAXPAW">  -100</i>
    <i type="int" name="LMAXMIX">     2</i>
   </separator>
   <separator name="electronic startup" >
    <i type="int" name="ISTART">     0</i>
    <i type="int" name="ICHARG">     2</i>
    <i type="int" name="INIWAV">     1</i>
   </separator>
   <separator name="electronic spin" >
    <i type="int" name="ISPIN">     1</i>
    <i type="logical" name="LNONCOLLINEAR"> F  </i>
    <v name="MAGMOM">      1.00000000      1.00000000      1.00000000      1.00000000      1.00000000      1.00000000      1.00000000      1.00000000      1.00000000      1.00000000      1.00000000      1.00000000      1.00000000      1.00000000      1.00000000      1.00000000      1.00000000      1.00000000      1.00000000      1.00000000
      1.00000000      1.00000000      1.00000000      1.00000000      1.00000000      1.00000000      1.00000000      1.00000000      1.00000000      1.00000000      1.00000000</v>
    <i name="NUPDOWN">     -1.00000000</i>
    <i type="logical" name="LSORBIT"> F  </i>
    <v name="SAXIS">      0.00000000      0.00000000      1.00000000</v>
    <i type="logical" name="LSPIRAL"> F  </i>
    <v name="QSPIRAL">      0.00000000      0.00000000      0.00000000</v>
    <i type="logical" name="LZEROZ"> F  </i>
   </separator>
   <separator name="electronic exchange-correlation" >
    <i type="logical" name="LASPH"> F  </i>
    <i type="logical" name="LMETAGGA"> F  </i>
   </separator>
   <separator name="electronic convergence" >
    <i type="int" name="NELM">    60</i>
    <i type="int" name="NELMDL">   -12</i>
    <i type="int" name="NELMIN">     2</i>
    <i name="ENINI">    300.00000000</i>
    <separator name="electronic convergence detail" >
     <i type="logical" name="LDIAG"> T  </i>
     <i name="WEIMIN">      0.00100000</i>
     <i name="EBREAK">      0.00000040</i>
     <i name="DEPER">      0.30000000</i>
     <i type="int" name="NRMM">     4</i>
     <i name="TIME">      0.40000000</i>
    </separator>
   </separator>
   <separator name="electronic mixer" >
    <i name="AMIX">      0.40000000</i>
    <i name="BMIX">      1.00000000</i>
    <i name="AMIN">      0.10000000</i>
    <i name="AMIX_MAG">      1.60000000</i>
    <i name="BMIX_MAG">      1.00000000</i>
    <separator name="electronic mixer details" >
     <i type="int" name="IMIX">     4</i>
     <i type="int" name="MAXMIX">   -45</i>
     <i name="WC">    100.00000000</i>
     <i type="int" name="INIMIX">     1</i>
     <i type="int" name="MIXPRE">     1</i>
     <i type="int" name="MREMOVE">     5</i>
    </separator>
   </separator>
   <separator name="electronic dipolcorrection" >
    <i type="logical" name="LDIPOL"> F  </i>
    <i type="logical" name="LMONO"> F  </i>
    <i type="int" name="IDIPOL">     0</i>
    <i name="EPSILON">      1.00000000</i>
    <v name="DIPOL">   -100.00000000   -100.00000000   -100.00000000</v>
    <i name="EFIELD">      0.00000000</i>
   </separator>
  </separator>
  <separator name="grids" >
   <i type="int" name="NGX">    48</i>
   <i type="int" name="NGY">    48</i>
   <i type="int" name="NGZ">    48</i>
   <i type="int" name="NGXF">    96</i>
   <i type="int" name="NGYF">    96</i>
   <i type="int" name="NGZF">    96</i>
   <i type="logical" name="ADDGRID"> F  </i>
  </separator>
  <separator name="ionic" >
   <i type="int" name="NSW">   191</i>
   <i type="int" name="IBRION">     2</i>
   <i type="int" name="ISIF">     2</i>
   <i name="PSTRESS">      0.00000000</i>
   <i name="EDIFFG">      0.05000000</i>
   <i type="int" name="NFREE">     1</i>
   <i name="POTIM">      0.50000000</i>
   <i name="SMASS">     -3.00000000</i>
  </separator>
  <separator name="ionic md" >
   <i name="TEBEG">      0.00010000</i>
   <i name="TEEND">      0.00010000</i>
   <i type="int" name="NBLOCK">     1</i>
   <i type="int" name="KBLOCK">   191</i>
   <i type="int" name="NPACO">   256</i>
   <i name="APACO">     16.00000000</i>
  </separator>
  <separator name="symmetry" >
   <i type="int" name="ISYM">     2</i>
   <i name="SYMPREC">      0.00001000</i>
  </separator>
  <separator name="dos" >
   <i type="logical" name="LORBIT"> F  </i>
   <v name="RWIGS">     -1.00000000</v>
   <i type="int" name="NEDOS">   301</i>
   <i name="EMIN">     10.00000000</i>
   <i name="EMAX">    -10.00000000</i>
   <i name="EFERMI">      0.00000000</i>
  </separator>
  <separator name="writing" >
   <i type="int" name="NWRITE">     2</i>
   <i type="logical" name="LWAVE"> F  </i>
   <i type="logical" name="LCHARG"> F  </i>
   <i type="logical" name="LPARD"> F  </i>
   <i type="logical" name="LVTOT"> F  </i>
   <i type="logical" name="LELF"> F  </i>
   <i type="logical" name="LOPTICS"> F  </i>
   <v name="STM">      0.00000000      0.00000000      0.00000000      0.00000000      0.00000000</v>
  </separator>
  <separator name="performance" >
   <i type="int" name="NPAR">    12</i>
   <i type="int" name="NSIM">     4</i>
   <i type="int" name="NBLK">    32</i>
   <i type="logical" name="LPLANE"> T  </i>
   <i type="logical" name="LSCALAPACK"> F  </i>
   <i type="logical" name="LSCAAWARE"> F  </i>
   <i type="logical" name="LSCALU"> F  </i>
   <i type="logical" name="LASYNC"> F  </i>
  </separator>
  <separator name="miscellaneous" >
   <i type="int" name="IDIOT">     3</i>
   <i type="logical" name="LMUSIC"> F  </i>
   <v name="POMASS">     26.98200000</v>
   <i type="logical" name="LCORR"> T  </i>
  </separator>
  <i type="logical" name="LREAL_COMPAT"> F  </i>
  <i type="logical" name="GGA_COMPAT"> T  </i>
  <i type="logical" name="LBERRY"> F  </i>
  <i type="int" name="ICORELEVEL">     0</i>
  <i type="logical" name="LDAU"> F  </i>
  <i type="int" name="I_CONSTRAINED_M">     0</i>
  <separator name="electronic exchange-correlation" >
   <i type="string" name="GGA">--</i>
   <i type="int" name="VOSKOWN">     0</i>
   <i type="logical" name="LHFCALC"> F  </i>
   <i type="logical" name="LHFONE"> F  </i>
   <i type="logical" name="LRHFCALC"> F  </i>
   <i type="logical" name="LTHOMAS"> F  </i>
   <i type="logical" name="LMODELHF"> F  </i>
   <i name="ENCUTFOCK">      0.00000000</i>
   <i name="ENCUT4O">     -1.00000000</i>
   <i type="int" name="EXXOEP">     0</i>
   <i type="int" name="FOURORBIT">     0</i>
   <i name="AEXX">      0.00000000</i>
   <i name="HFALPHA">      0.00000000</i>
   <i name="ALDAX">      1.00000000</i>
   <i name="AGGAX">      1.00000000</i>
   <i name="ALDAC">      1.00000000</i>
   <i name="AGGAC">      1.00000000</i>
   <i type="int" name="NKREDX">     1</i>
   <i type="int" name="NKREDY">     1</i>
   <i type="int" name="NKREDZ">     1</i>
   <i type="logical" name="SHIFTRED"> F  </i>
   <i type="logical" name="ODDONLY"> F  </i>
   <i type="logical" name="EVENONLY"> F  </i>
   <i type="int" name="LMAXFOCK">     0</i>
   <i type="int" name="NMAXFOCKAE">     0</i>
   <i name="HFSCREEN">      0.00000000</i>
   <i name="HFSCREENC">      0.00000000</i>
  </separator>
  <separator name="model GW" >
   <i type="int" name="MODEL_GW">     0</i>
   <i name="MODEL_EPS0">     10.23670678</i>
   <i name="MODEL_ALPHA">      1.00000000</i>
  </separator>
  <separator name="linear response parameters" >
   <i type="logical" name="LEPSILON"> F  </i>
   <i type="logical" name="LRPA"> F  </i>
   <i type="logical" name="LNABLA"> F  </i>
   <i type="logical" name="LVEL"> F  </i>
   <i type="int" name="KINTER">     0</i>
   <i name="CSHIFT">      0.10000000</i>
   <i name="OMEGAMAX">     -1.00000000</i>
  </separator>
  <separator name="orbital magnetization" >
   <i type="logical" name="ORBITALMAG"> F  </i>
   <i type="logical" name="LMAGBLOCH"> F  </i>
   <i type="logical" name="LCHIMAG"> F  </i>
   <i type="logical" name="LGAUGE"> T  </i>
   <i type="int" name="MAGATOM">     0</i>
   <v name="MAGDIPOL">      0.00000000      0.00000000      0.00000000</v>
   <v name="AVECCONST">      0.00000000      0.00000000      0.00000000</v>
  </separator>
  <separator name="response functions" >
   <i type="logical" name="LRPA"> T  </i>
   <i type="logical" name="LTCTE"> F  </i>
   <i type="logical" name="LTETE"> F  </i>
   <i type="logical" name="L2ORDER"> F  </i>
   <i type="logical" name="LGWLF"> F  </i>
   <i name="ENCUTGW">    200.00000000</i>
   <i name="ENCUTGWSOFT">     -2.00000000</i>
   <i name="ENCUTLF">     -1.00000000</i>
   <i type="int" name="LMAXMP2">    -1</i>
   <i name="SCISSOR">      0.00000000</i>
   <i type="int" name="NOMEGA">     0</i>
   <i type="int" name="NOMEGAR">     0</i>
   <i type="int" name="NBANDSGW">    -1</i>
   <i type="int" name="NBANDSLF">    -1</i>
   <i type="int" name="NELM">     1</i>
   <i type="int" name="DIM">     3</i>
   <i type="int" name="ANTIRES">     0</i>
   <i type="logical" name="LUSEW"> F  </i>
   <i name="OMEGAMAX">    -30.00000000</i>
   <i name="OMEGATL">   -200.00000000</i>
   <i type="int" name="OMEGAGRID">     0</i>
   <i name="CSHIFT">     -0.10000000</i>
   <i type="logical" name="SELFENERGY"> F  </i>
   <i type="logical" name="LSPECTRAL"> F  </i>
   <i type="logical" name="ODDONLYGW"> F  </i>
   <i type="logical" name="EVENONLYGW"> F  </i>
   <i type="int" name="NKREDLFX">     1</i>
   <i type="int" name="NKREDLFY">     1</i>
   <i type="int" name="NKREDLFZ">     1</i>
   <i type="int" name="MAXMEM">  1024</i>
   <i type="int" name="TELESCOPE">     0</i>
  </separator>
 </parameters>
 <atominfo>
  <atoms>      31 </atoms>
  <types>       1 </types>
  <array name="atoms" >
   <dimension dim="1">ion</dimension>
   <field type="string">element</field>
   <field type="int">atomtype</field>
   <set>
    <rc><c>Al</c><c>   1</c></rc>
    <rc><c>Al</c><c>   1</c></rc>
    <rc><c>Al</c><c>   1</c></rc>
    <rc><c>Al</c><c>   1</c></rc>
    <rc><c>Al</c><c>   1</c></rc>
    <rc><c>Al</c><c>   1</c></rc>
    <rc><c>Al</c><c>   1</c></rc>
    <rc><c>Al</c><c>   1</c></rc>
    <rc><c>Al</c><c>   1</c></rc>
    <rc><c>Al</c><c>   1</c></rc>
    <rc><c>Al</c><c>   1</c></rc>
    <rc><c>Al</c><c>   1</c></rc>
    <rc><c>Al</c><c>   1</c></rc>
    <rc><c>Al</c><c>   1</c></rc>
    <rc><c>Al</c><c>   1</c></rc>
    <rc><c>Al</c><c>   1</c></rc>
    <rc><c>Al</c><c>   1</c></rc>
    <rc><c>Al</c><c>   1</c></rc>
    <rc><c>Al</c><c>   1</c></rc>
    <rc><c>Al</c><c>   1</c></rc>
    <rc><c>Al</c><c>   1</c></rc>
    <rc><c>Al</c><c>   1</c></rc>
    <rc><c>Al</c><c>   1</c></rc>
    <rc><c>Al</c><c>   1</c></rc>
    <rc><c>Al</c><c>   1</c></rc>
    <rc><c>Al</c><c>   1</c></rc>
    <rc><c>Al</c><c>   1</c></rc>
    <rc><c>Al</c><c>   1</c></rc>
    <rc><c>Al</c><c>   1</c></rc>
    <rc><c>Al</c><c>   1</c></rc>
    <rc><c>Al</c><c>   1</c></rc>
   </set>
  </array>
  <array name="atomtypes" >
   <dimension dim="1">type</dimension>
   <field type="int">atomspertype</field>
   <field type="string">element</field>
   <field>mass</field>
   <field>valence</field>
   <field type="string">pseudopotential</field>
   <set>
    <rc><c>  31</c><c>Al</c><c>     26.98200000</c><c>      3.00000000</c><c> PAW_PBE Al 04Jan2001                   </c></rc>
   </set>
  </array>
 </atominfo>
 <structure name="initialpos" >
  <crystal>
   <varray name="basis" >
    <v>       8.08705200       0.00000000       0.00000000 </v>
    <v>       0.00000000       8.08705200       0.00000000 </v>
    <v>       0.00000000       0.00000000       8.08705200 </v>
   </varray>
   <i name="volume">    528.89651690 </i>
   <varray name="rec_basis" >
    <v>       0.12365445       0.00000000       0.00000000 </v>
    <v>       0.00000000       0.12365445       0.00000000 </v>
    <v>       0.00000000       0.00000000       0.12365445 </v>
   </varray>
  </crystal>
  <varray name="positions" >
   <v>       0.00000000       0.00000000       0.00000000 </v>
   <v>       0.25000000       0.00000000       0.25000000 </v>
   <v>       0.25000000       0.25000000       0.00000000 </v>
   <v>       0.00000000       0.25000000       0.25000000 </v>
   <v>       0.50000000       0.00000000       0.00000000 </v>
   <v>       0.75000000       0.00000000       0.25000000 </v>
   <v>       0.75000000       0.25000000       0.00000000 </v>
   <v>       0.50000000       0.25000000       0.25000000 </v>
   <v>       0.00000000       0.50000000       0.00000000 </v>
   <v>       0.25000000       0.75000000       0.00000000 </v>
   <v>       0.00000000       0.75000000       0.25000000 </v>
   <v>       0.50000000       0.50000000       0.00000000 </v>
   <v>       0.75000000       0.50000000       0.25000000 </v>
   <v>       0.75000000       0.75000000       0.00000000 </v>
   <v>       0.50000000       0.75000000       0.25000000 </v>
   <v>       0.00000000       0.00000000       0.50000000 </v>
   <v>       0.25000000       0.00000000       0.75000000 </v>
   <v>       0.25000000       0.25000000       0.50000000 </v>
   <v>       0.00000000       0.25000000       0.75000000 </v>
   <v>       0.50000000       0.00000000       0.50000000 </v>
   <v>       0.75000000       0.00000000       0.75000000 </v>
   <v>       0.75000000       0.25000000       0.50000000 </v>
   <v>       0.50000000       0.25000000       0.75000000 </v>
   <v>       0.00000000       0.50000000       0.50000000 </v>
   <v>       0.25000000       0.50000000       0.75000000 </v>
   <v>       0.25000000       0.75000000       0.50000000 </v>
   <v>       0.00000000       0.75000000       0.75000000 </v>
   <v>       0.50000000       0.50000000       0.50000000 </v>
   <v>       0.75000000       0.50000000       0.75000000 </v>
   <v>       0.75000000       0.75000000       0.50000000 </v>
   <v>       0.50000000       0.75000000       0.75000000 </v>
  </varray>
 </structure>
 <calculation>
  <scstep>
   <time name="diag">    0.15    0.15</time>
   <time name="diis">    0.34    0.34</time>
   <time name="orth">    0.01    0.01</time>
   <time name="total">    0.66    0.66</time>
   <energy>
    <i name="alphaZ">     -6.10292983 </i>
    <i name="ewald">  -2226.95940862 </i>
    <i name="hartreedc">    -20.94821856 </i>
    <i name="XCdc">   -814.77440339 </i>
    <i name="pawpsdc">   1102.18190231 </i>
    <i name="pawaedc">   -111.56847430 </i>
    <i name="eentropy">     -0.03505111 </i>
    <i name="bandstr">    658.09942437 </i>
    <i name="atom">   1659.66634407 </i>
    <i name="e_fr_energy">    239.55918494 </i>
    <i name="e_wo_entrp">    239.59423605 </i>
    <i name="e_0_energy">    239.57086864 </i>
   </energy>
  </scstep>
  <scstep>
   <time name="diag">    0.15    0.15</time>
   <time name="diis">    0.33    0.33</time>
   <time name="orth">    0.01    0.01</time>
   <time name="total">    0.49    0.49</time>
   <energy>
    <i name="e_fr_energy">    -25.80770944 </i>
    <i name="e_wo_entrp">    -25.80075478 </i>
    <i name="e_0_energy">    -25.80539122 </i>
   </energy>
  </scstep>
  <scstep>
   <time name="diag">    0.15    0.15</time>
   <time name="diis">    0.33    0.33</time>
   <time name="orth">    0.01    0.01</time>
   <time name="total">    0.49    0.50</time>
   <energy>
    <i name="e_fr_energy">    -74.33686795 </i>
    <i name="e_wo_entrp">    -74.32813967 </i>
    <i name="e_0_energy">    -74.33395853 </i>
   </energy>
  </scstep>
  <scstep>
   <time name="diag">    0.15    0.15</time>
   <time name="diis">    0.34    0.34</time>
   <time name="orth">    0.01    0.01</time>
   <time name="total">    0.50    0.50</time>
   <energy>
    <i name="e_fr_energy">    -90.07804241 </i>
    <i name="e_wo_entrp">    -90.04045070 </i>
    <i name="e_0_energy">    -90.06551184 </i>
   </energy>
  </scstep>
  <scstep>
   <time name="diag">    0.15    0.15</time>
   <time name="diis">    0.34    0.34</time>
   <time name="orth">    0.01    0.01</time>
   <time name="total">    0.50    0.50</time>
   <energy>
    <i name="e_fr_energy">    -96.99227698 </i>
    <i name="e_wo_entrp">    -97.00122858 </i>
    <i name="e_0_energy">    -96.99526085 </i>
   </energy>
  </scstep>
  <scstep>
   <time name="diag">    0.15    0.15</time>
   <time name="diis">    0.34    0.34</time>
   <time name="orth">    0.01    0.01</time>
   <time name="total">    0.50    0.50</time>
   <energy>
    <i name="e_fr_energy">    -99.42446341 </i>
    <i name="e_wo_entrp">    -99.41614070 </i>
    <i name="e_0_energy">    -99.42168918 </i>
   </energy>
  </scstep>
  <scstep>
   <time name="diag">    0.15    0.15</time>
   <time name="diis">    0.34    0.34</time>
   <time name="orth">    0.01    0.01</time>
   <time name="total">    0.50    0.50</time>
   <energy>
    <i name="e_fr_energy">   -100.29430263 </i>
    <i name="e_wo_entrp">   -100.28426691 </i>
    <i name="e_0_energy">   -100.29095739 </i>
   </energy>
  </scstep>
  <scstep>
   <time name="diag">    0.15    0.15</time>
   <time name="diis">    0.34    0.34</time>
   <time name="orth">    0.01    0.01</time>
   <time name="total">    0.49    0.50</time>
   <energy>
    <i name="e_fr_energy">   -100.65418722 </i>
    <i name="e_wo_entrp">   -100.63764695 </i>
    <i name="e_0_energy">   -100.64867380 </i>
   </energy>
  </scstep>
  <scstep>
   <time name="diag">    0.15    0.15</time>
   <time name="diis">    0.71    0.71</time>
   <time name="orth">    0.01    0.01</time>
   <time name="total">    0.87    0.90</time>
   <energy>
    <i name="e_fr_energy">   -100.94038702 </i>
    <i name="e_wo_entrp">   -100.91106649 </i>
    <i name="e_0_energy">   -100.93061351 </i>
   </energy>
  </scstep>
  <scstep>
   <time name="diag">    0.15    0.15</time>
   <time name="diis">    0.68    0.68</time>
   <time name="orth">    0.01    0.01</time>
   <time name="total">    0.84    0.84</time>
   <energy>
    <i name="e_fr_energy">   -100.97523145 </i>
    <i name="e_wo_entrp">   -100.94306002 </i>
    <i name="e_0_energy">   -100.96450764 </i>
   </energy>
  </scstep>
  <scstep>
   <time name="diag">    0.15    0.15</time>
   <time name="diis">    0.55    0.55</time>
   <time name="orth">    0.01    0.01</time>
   <time name="total">    0.71    0.71</time>
   <energy>
    <i name="e_fr_energy">   -100.97743274 </i>
    <i name="e_wo_entrp">   -100.94494701 </i>
    <i name="e_0_energy">   -100.96660417 </i>
   </energy>
  </scstep>
  <scstep>
   <time name="diag">    0.15    0.15</time>
   <time name="diis">    0.45    0.45</time>
   <time name="orth">    0.01    0.01</time>
   <time name="total">    0.75    0.75</time>
   <energy>
    <i name="e_fr_energy">   -100.97750272 </i>
    <i name="e_wo_entrp">   -100.94499794 </i>
    <i name="e_0_energy">   -100.96666779 </i>
   </energy>
  </scstep>
  <scstep>
   <time name="diag">    0.15    0.15</time>
   <time name="diis">    0.59    0.59</time>
   <time name="orth">    0.01    0.01</time>
   <time name="total">    1.05    1.05</time>
   <energy>
    <i name="e_fr_energy">    -99.90477809 </i>
    <i name="e_wo_entrp">    -99.77229169 </i>
    <i name="e_0_energy">    -99.86061596 </i>
   </energy>
  </scstep>
  <scstep>
   <time name="diag">    0.15    0.15</time>
   <time name="diis">    0.60    0.60</time>
   <time name="orth">    0.01    0.01</time>
   <time name="total">    1.06    1.06</time>
   <energy>
    <i name="e_fr_energy">    -99.64264859 </i>
    <i name="e_wo_entrp">    -99.48371553 </i>
    <i name="e_0_energy">    -99.58967090 </i>
   </energy>
  </scstep>
  <scstep>
   <time name="diag">    0.15    0.15</time>
   <time name="diis">    0.63    0.63</time>
   <time name="orth">    0.01    0.01</time>
   <time name="total">    1.09    1.09</time>
   <energy>
    <i name="e_fr_energy">    -99.51354440 </i>
    <i name="e_wo_entrp">    -99.37176279 </i>
    <i name="e_0_energy">    -99.46628386 </i>
   </energy>
  </scstep>
  <scstep>
   <time name="diag">    0.15    0.15</time>
   <time name="diis">    0.61    0.61</time>
   <time name="orth">    0.01    0.01</time>
   <time name="total">    1.07    1.07</time>
   <energy>
    <i name="e_fr_energy">    -99.50321652 </i>
    <i name="e_wo_entrp">    -99.35014638 </i>
    <i name="e_0_energy">    -99.45219314 </i>
   </energy>
  </scstep>
  <scstep>
   <time name="diag">    0.15    0.15</time>
   <time name="diis">    0.65    0.65</time>
   <time name="orth">    0.01    0.01</time>
   <time name="total">    1.11    1.11</time>
   <energy>
    <i name="e_fr_energy">    -99.50248305 </i>
    <i name="e_wo_entrp">    -99.35193350 </i>
    <i name="e_0_energy">    -99.45229987 </i>
   </energy>
  </scstep>
  <scstep>
   <time name="diag">    0.15    0.15</time>
   <time name="diis">    0.47    0.47</time>
   <time name="orth">    0.01    0.01</time>
   <time name="total">    0.79    0.79</time>
   <energy>
    <i name="alphaZ">     -6.10292983 </i>
    <i name="ewald">  -2226.95940862 </i>
    <i name="hartreedc">    -24.94415021 </i>
    <i name="XCdc">   -810.88779443 </i>
    <i name="pawpsdc">   1099.95906236 </i>
    <i name="pawaedc">   -109.50892904 </i>
    <i name="eentropy">     -0.15044075 </i>
    <i name="bandstr">    319.42574173 </i>
    <i name="atom">   1659.66634407 </i>
    <i name="e_fr_energy">    -99.50250474 </i>
    <i name="e_wo_entrp">    -99.35206399 </i>
    <i name="e_0_energy">    -99.45235782 </i>
   </energy>
  </scstep>
  <structure>
   <crystal>
    <varray name="basis" >
     <v>       8.08705200       0.00000000       0.00000000 </v>
     <v>       0.00000000       8.08705200       0.00000000 </v>
     <v>       0.00000000       0.00000000       8.08705200 </v>
    </varray>
    <i name="volume">    528.89651690 </i>
    <varray name="rec_basis" >
     <v>       0.12365445       0.00000000       0.00000000 </v>
     <v>       0.00000000       0.12365445       0.00000000 </v>
     <v>       0.00000000       0.00000000       0.12365445 </v>
    </varray>
   </crystal>
   <varray name="positions" >
    <v>       0.00000000       0.00000000       0.00000000 </v>
    <v>       0.25000000       0.00000000       0.25000000 </v>
    <v>       0.25000000       0.25000000       0.00000000 </v>
    <v>       0.00000000       0.25000000       0.25000000 </v>
    <v>       0.50000000       0.00000000       0.00000000 </v>
    <v>       0.75000000       0.00000000       0.25000000 </v>
    <v>       0.75000000       0.25000000       0.00000000 </v>
    <v>       0.50000000       0.25000000       0.25000000 </v>
    <v>       0.00000000       0.50000000       0.00000000 </v>
    <v>       0.25000000       0.75000000       0.00000000 </v>
    <v>       0.00000000       0.75000000       0.25000000 </v>
    <v>       0.50000000       0.50000000       0.00000000 </v>
    <v>       0.75000000       0.50000000       0.25000000 </v>
    <v>       0.75000000       0.75000000       0.00000000 </v>
    <v>       0.50000000       0.75000000       0.25000000 </v>
    <v>       0.00000000       0.00000000       0.50000000 </v>
    <v>       0.25000000       0.00000000       0.75000000 </v>
    <v>       0.25000000       0.25000000       0.50000000 </v>
    <v>       0.00000000       0.25000000       0.75000000 </v>
    <v>       0.50000000       0.00000000       0.50000000 </v>
    <v>       0.75000000       0.00000000       0.75000000 </v>
    <v>       0.75000000       0.25000000       0.50000000 </v>
    <v>       0.50000000       0.25000000       0.75000000 </v>
    <v>       0.00000000       0.50000000       0.50000000 </v>
    <v>       0.25000000       0.50000000       0.75000000 </v>
    <v>       0.25000000       0.75000000       0.50000000 </v>
    <v>       0.00000000       0.75000000       0.75000000 </v>
    <v>       0.50000000       0.50000000       0.50000000 </v>
    <v>       0.75000000       0.50000000       0.75000000 </v>
    <v>       0.75000000       0.75000000       0.50000000 </v>
    <v>       0.50000000       0.75000000       0.75000000 </v>
   </varray>
  </structure>
  <varray name="forces" >
   <v>       0.01182364       0.00000000       0.01182364 </v>
   <v>       0.00000000       0.00000000       0.00000000 </v>
   <v>       0.00000000      -0.18524744      -0.18524744 </v>
   <v>      -0.18524744      -0.18524744       0.00000000 </v>
   <v>      -0.01182364       0.00000000       0.01182364 </v>
   <v>       0.00000000       0.00000000       0.00000000 </v>
   <v>       0.00000000       0.01182364       0.01182364 </v>
   <v>       0.18524744      -0.18524744       0.00000000 </v>
   <v>      -0.18524744       0.00000000      -0.18524744 </v>
   <v>       0.00000000       0.18524744      -0.18524744 </v>
   <v>      -0.18524744       0.18524744       0.00000000 </v>
   <v>       0.18524744       0.00000000      -0.18524744 </v>
   <v>       0.00000000       0.00000000       0.00000000 </v>
   <v>       0.00000000      -0.01182364       0.01182364 </v>
   <v>       0.18524744       0.18524744       0.00000000 </v>
   <v>       0.01182364       0.00000000      -0.01182364 </v>
   <v>       0.00000000       0.00000000       0.00000000 </v>
   <v>       0.00000000      -0.18524744       0.18524744 </v>
   <v>       0.01182364       0.01182364       0.00000000 </v>
   <v>      -0.01182364       0.00000000      -0.01182364 </v>
   <v>       0.00000000       0.00000000       0.00000000 </v>
   <v>       0.00000000       0.01182364      -0.01182364 </v>
   <v>      -0.01182364       0.01182364       0.00000000 </v>
   <v>      -0.18524744       0.00000000       0.18524744 </v>
   <v>       0.00000000       0.00000000       0.00000000 </v>
   <v>       0.00000000       0.18524744       0.18524744 </v>
   <v>       0.01182364      -0.01182364       0.00000000 </v>
   <v>       0.18524744       0.00000000       0.18524744 </v>
   <v>       0.00000000       0.00000000       0.00000000 </v>
   <v>       0.00000000      -0.01182364      -0.01182364 </v>
   <v>      -0.01182364      -0.01182364       0.00000000 </v>
  </varray>
  <varray name="stress" >
   <v>     -25.72342145       0.00000000       0.00000000 </v>
   <v>       0.00000000     -25.72342145       0.00000000 </v>
   <v>       0.00000000       0.00000000     -25.72342145 </v>
  </varray>
  <energy>
   <i name="e_fr_energy">    -99.50250474 </i>
   <i name="e_wo_entrp">    -99.45235782 </i>
   <i name="e_0_energy">     -0.15044075 </i>
  </energy>
  <time name="totalsc">   14.79   14.85</time>
 </calculation>
 <calculation>
  <scstep>
   <time name="diag">    0.15    0.15</time>
   <time name="diis">    0.60    0.61</time>
   <time name="orth">    0.01    0.01</time>
   <time name="total">    1.07    1.07</time>
   <energy>
    <i name="alphaZ">     -6.10292983 </i>
    <i name="ewald">  -2224.91933289 </i>
    <i name="hartreedc">    -26.63949087 </i>
    <i name="XCdc">   -810.84549026 </i>
    <i name="pawpsdc">   1099.98472933 </i>
    <i name="pawaedc">   -109.53759750 </i>
    <i name="eentropy">     -0.09251431 </i>
    <i name="bandstr">    318.93659795 </i>
    <i name="atom">   1659.66634407 </i>
    <i name="e_fr_energy">    -99.54968432 </i>
    <i name="e_wo_entrp">    -99.45717001 </i>
    <i name="e_0_energy">    -99.51884622 </i>
   </energy>
  </scstep>
  <scstep>
   <time name="diag">    0.15    0.15</time>
   <time name="diis">    0.61    0.61</time>
   <time name="orth">    0.01    0.01</time>
   <time name="total">    1.08    1.08</time>
   <energy>
    <i name="e_fr_energy">    -99.54221377 </i>
    <i name="e_wo_entrp">    -99.42665050 </i>
    <i name="e_0_energy">    -99.50369268 </i>
   </energy>
  </scstep>
  <scstep>
   <time name="diag">    0.15    0.15</time>
   <time name="diis">    0.56    0.56</time>
   <time name="orth">    0.01    0.01</time>
   <time name="total">    1.02    1.02</time>
   <energy>
    <i name="e_fr_energy">    -99.54192466 </i>
    <i name="e_wo_entrp">    -99.42589841 </i>
    <i name="e_0_energy">    -99.50324924 </i>
   </energy>
  </scstep>
  <scstep>
   <time name="diag">    0.15    0.15</time>
   <time name="diis">    0.42    0.42</time>
   <time name="orth">    0.01    0.01</time>
   <time name="total">    0.74    0.74</time>
   <energy>
    <i name="alphaZ">     -6.10292983 </i>
    <i name="ewald">  -2224.91933289 </i>
    <i name="hartreedc">    -26.83572384 </i>
    <i name="XCdc">   -810.84153456 </i>
    <i name="pawpsdc">   1100.00058678 </i>
    <i name="pawaedc">   -109.55576103 </i>
    <i name="eentropy">     -0.11577677 </i>
    <i name="bandstr">    319.16222843 </i>
    <i name="atom">   1659.66634407 </i>
    <i name="e_fr_energy">    -99.54189965 </i>
    <i name="e_wo_entrp">    -99.42612288 </i>
    <i name="e_0_energy">    -99.50330739 </i>
   </energy>
  </scstep>
  <structure>
   <crystal>
    <varray name="basis" >
     <v>       8.08705200       0.00000000       0.00000000 </v>
     <v>       0.00000000       8.08705200       0.00000000 </v>
     <v>       0.00000000       0.00000000       8.08705200 </v>
    </varray>
    <i name="volume">    528.89651690 </i>
    <varray name="rec_basis" >
     <v>       0.12365445       0.00000000       0.00000000 </v>
     <v>       0.00000000       0.12365445       0.00000000 </v>
     <v>       0.00000000       0.00000000       0.12365445 </v>
    </varray>
   </crystal>
   <varray name="positions" >
    <v>       0.00007053       0.00000000       0.00007053 </v>
    <v>       0.25000000       0.00000000       0.25000000 </v>
    <v>       0.25000000       0.24889492      -0.00110508 </v>
    <v>      -0.00110508       0.24889492       0.25000000 </v>
    <v>       0.49992947       0.00000000       0.00007053 </v>
    <v>       0.75000000       0.00000000       0.25000000 </v>
    <v>       0.75000000       0.25007053       0.00007053 </v>
    <v>       0.50110508       0.24889492       0.25000000 </v>
    <v>      -0.00110508       0.50000000      -0.00110508 </v>
    <v>       0.25000000       0.75110508      -0.00110508 </v>
    <v>      -0.00110508       0.75110508       0.25000000 </v>
    <v>       0.50110508       0.50000000      -0.00110508 </v>
    <v>       0.75000000       0.50000000       0.25000000 </v>
    <v>       0.75000000       0.74992947       0.00007053 </v>
    <v>       0.50110508       0.75110508       0.25000000 </v>
    <v>       0.00007053       0.00000000       0.49992947 </v>
    <v>       0.25000000       0.00000000       0.75000000 </v>
    <v>       0.25000000       0.24889492       0.50110508 </v>
    <v>       0.00007053       0.25007053       0.75000000 </v>
    <v>       0.49992947       0.00000000       0.49992947 </v>
    <v>       0.75000000       0.00000000       0.75000000 </v>
    <v>       0.75000000       0.25007053       0.49992947 </v>
    <v>       0.49992947       0.25007053       0.75000000 </v>
    <v>      -0.00110508       0.50000000       0.50110508 </v>
    <v>       0.25000000       0.50000000       0.75000000 </v>
    <v>       0.25000000       0.75110508       0.50110508 </v>
    <v>       0.00007053       0.74992947       0.75000000 </v>
    <v>       0.50110508       0.50000000       0.50110508 </v>
    <v>       0.75000000       0.50000000       0.75000000 </v>
    <v>       0.75000000       0.74992947       0.49992947 </v>
    <v>       0.49992947       0.74992947       0.75000000 </v>
   </varray>
  </structure>
  <varray name="forces" >
   <v>       0.02426581       0.00000000       0.02426581 </v>
   <v>       0.00000000       0.00000000       0.00000000 </v>
   <v>       0.00000000      -0.18005407      -0.18005407 </v>
   <v>      -0.18005407      -0.18005407       0.00000000 </v>
   <v>      -0.02426581       0.00000000       0.02426581 </v>
   <v>       0.00000000       0.00000000       0.00000000 </v>
   <v>       0.00000000       0.02426581       0.02426581 </v>
   <v>       0.18005407      -0.18005407       0.00000000 </v>
   <v>      -0.18005407       0.00000000      -0.18005407 </v>
   <v>       0.00000000       0.18005407      -0.18005407 </v>
   <v>      -0.18005407       0.18005407       0.00000000 </v>
   <v>       0.18005407       0.00000000      -0.18005407 </v>
   <v>       0.00000000       0.00000000       0.00000000 </v>
   <v>       0.00000000      -0.02426581       0.02426581 </v>
   <v>       0.18005407       0.18005407       0.00000000 </v>
   <v>       0.02426581       0.00000000      -0.02426581 </v>
   <v>       0.00000000       0.00000000       0.00000000 </v>
   <v>       0.00000000      -0.18005407       0.18005407 </v>
   <v>       0.02426581       0.02426581       0.00000000 </v>
   <v>      -0.02426581       0.00000000      -0.02426581 </v>
   <v>       0.00000000       0.00000000       0.00000000 </v>
   <v>       0.00000000       0.02426581      -0.02426581 </v>
   <v>      -0.02426581       0.02426581       0.00000000 </v>
   <v>      -0.18005407       0.00000000       0.18005407 </v>
   <v>       0.00000000       0.00000000       0.00000000 </v>
   <v>       0.00000000       0.18005407       0.18005407 </v>
   <v>       0.02426581      -0.02426581       0.00000000 </v>
   <v>       0.18005407       0.00000000       0.18005407 </v>
   <v>       0.00000000       0.00000000       0.00000000 </v>
   <v>       0.00000000      -0.02426581      -0.02426581 </v>
   <v>      -0.02426581      -0.02426581       0.00000000 </v>
  </varray>
  <varray name="stress" >
   <v>     -25.52210347       0.00000000       0.00000000 </v>
   <v>       0.00000000     -25.52210347       0.00000000 </v>
   <v>       0.00000000       0.00000000     -25.52210347 </v>
  </varray>
  <energy>
   <i name="e_fr_energy">    -99.54189965 </i>
   <i name="e_wo_entrp">    -99.50330739 </i>
   <i name="e_0_energy">     -0.11577677 </i>
  </energy>
  <time name="totalsc">    5.23    5.24</time>
 </calculation>
 <calculation>
  <scstep>
   <time name="diag">    0.15    0.15</time>
   <time name="diis">    0.61    0.61</time>
   <time name="orth">    0.01    0.01</time>
   <time name="total">    1.07    1.07</time>
   <energy>
    <i name="alphaZ">     -6.10292983 </i>
    <i name="ewald">  -2218.06137156 </i>
    <i name="hartreedc">    -32.40536276 </i>
    <i name="XCdc">   -810.71381424 </i>
    <i name="pawpsdc">   1100.00410964 </i>
    <i name="pawaedc">   -109.55978512 </i>
    <i name="eentropy">     -0.01656689 </i>
    <i name="bandstr">    317.50176738 </i>
    <i name="atom">   1659.66634407 </i>
    <i name="e_fr_energy">    -99.68760932 </i>
    <i name="e_wo_entrp">    -99.67104242 </i>
    <i name="e_0_energy">    -99.68208702 </i>
   </energy>
  </scstep>
  <scstep>
   <time name="diag">    0.15    0.15</time>
   <time name="diis">    0.60    0.60</time>
   <time name="orth">    0.01    0.01</time>
   <time name="total">    1.06    1.08</time>
   <energy>
    <i name="e_fr_energy">    -99.64812759 </i>
    <i name="e_wo_entrp">    -99.62326307 </i>
    <i name="e_0_energy">    -99.63983942 </i>
   </energy>
  </scstep>
  <scstep>
   <time name="diag">    0.15    0.15</time>
   <time name="diis">    0.64    0.64</time>
   <time name="orth">    0.01    0.01</time>
   <time name="total">    1.10    1.10</time>
   <energy>
    <i name="e_fr_energy">    -99.64331505 </i>
    <i name="e_wo_entrp">    -99.61159572 </i>
    <i name="e_0_energy">    -99.63274194 </i>
   </energy>
  </scstep>
  <scstep>
   <time name="diag">    0.15    0.15</time>
   <time name="diis">    0.59    0.59</time>
   <time name="orth">    0.01    0.01</time>
   <time name="total">    1.05    1.05</time>
   <energy>
    <i name="e_fr_energy">    -99.64295419 </i>
    <i name="e_wo_entrp">    -99.60962686 </i>
    <i name="e_0_energy">    -99.63184508 </i>
   </energy>
  </scstep>
  <scstep>
   <time name="diag">    0.15    0.15</time>
   <time name="diis">    0.40    0.40</time>
   <time name="orth">    0.01    0.01</time>
   <time name="total">    0.72    0.72</time>
   <energy>
    <i name="alphaZ">     -6.10292983 </i>
    <i name="ewald">  -2218.06137156 </i>
    <i name="hartreedc">    -32.98921273 </i>
    <i name="XCdc">   -810.70247987 </i>
    <i name="pawpsdc">   1100.23271133 </i>
    <i name="pawaedc">   -109.80069726 </i>
    <i name="eentropy">     -0.03353990 </i>
    <i name="bandstr">    318.14821696 </i>
    <i name="atom">   1659.66634407 </i>
    <i name="e_fr_energy">    -99.64295879 </i>
    <i name="e_wo_entrp">    -99.60941889 </i>
    <i name="e_0_energy">    -99.63177882 </i>
   </energy>
  </scstep>
  <structure>
   <crystal>
    <varray name="basis" >
     <v>       8.08705200       0.00000000       0.00000000 </v>
     <v>       0.00000000       8.08705200       0.00000000 </v>
     <v>       0.00000000       0.00000000       8.08705200 </v>
    </varray>
    <i name="volume">    528.89651690 </i>
    <varray name="rec_basis" >
     <v>       0.12365445       0.00000000       0.00000000 </v>
     <v>       0.00000000       0.12365445       0.00000000 </v>
     <v>       0.00000000       0.00000000       0.12365445 </v>
    </varray>
   </crystal>
   <varray name="positions" >
    <v>       0.00028213       0.00000000       0.00028213 </v>
    <v>       0.25000000       0.00000000       0.25000000 </v>
    <v>       0.25000000       0.24557969      -0.00442031 </v>
    <v>      -0.00442031       0.24557969       0.25000000 </v>
    <v>       0.49971787       0.00000000       0.00028213 </v>
    <v>       0.75000000       0.00000000       0.25000000 </v>
    <v>       0.75000000       0.25028213       0.00028213 </v>
    <v>       0.50442031       0.24557969       0.25000000 </v>
    <v>      -0.00442031       0.50000000      -0.00442031 </v>
    <v>       0.25000000       0.75442031      -0.00442031 </v>
    <v>      -0.00442031       0.75442031       0.25000000 </v>
    <v>       0.50442031       0.50000000      -0.00442031 </v>
    <v>       0.75000000       0.50000000       0.25000000 </v>
    <v>       0.75000000       0.74971787       0.00028213 </v>
    <v>       0.50442031       0.75442031       0.25000000 </v>
    <v>       0.00028213       0.00000000       0.49971787 </v>
    <v>       0.25000000       0.00000000       0.75000000 </v>
    <v>       0.25000000       0.24557969       0.50442031 </v>
    <v>       0.00028213       0.25028213       0.75000000 </v>
    <v>       0.49971787       0.00000000       0.49971787 </v>
    <v>       0.75000000       0.00000000       0.75000000 </v>
    <v>       0.75000000       0.25028213       0.49971787 </v>
    <v>       0.49971787       0.25028213       0.75000000 </v>
    <v>      -0.00442031       0.50000000       0.50442031 </v>
    <v>       0.25000000       0.50000000       0.75000000 </v>
    <v>       0.25000000       0.75442031       0.50442031 </v>
    <v>       0.00028213       0.74971787       0.75000000 </v>
    <v>       0.50442031       0.50000000       0.50442031 </v>
    <v>       0.75000000       0.50000000       0.75000000 </v>
    <v>       0.75000000       0.74971787       0.49971787 </v>
    <v>       0.49971787       0.74971787       0.75000000 </v>
   </varray>
  </structure>
  <varray name="forces" >
   <v>       0.00671566       0.00000000       0.00671566 </v>
   <v>       0.00000000       0.00000000       0.00000000 </v>
   <v>       0.00000000      -0.11910446      -0.11910446 </v>
   <v>      -0.11910446      -0.11910446       0.00000000 </v>
   <v>      -0.00671566       0.00000000       0.00671566 </v>
   <v>       0.00000000       0.00000000       0.00000000 </v>
   <v>       0.00000000       0.00671566       0.00671566 </v>
   <v>       0.11910446      -0.11910446       0.00000000 </v>
   <v>      -0.11910446       0.00000000      -0.11910446 </v>
   <v>       0.00000000       0.11910446      -0.11910446 </v>
   <v>      -0.11910446       0.11910446       0.00000000 </v>
   <v>       0.11910446       0.00000000      -0.11910446 </v>
   <v>       0.00000000       0.00000000       0.00000000 </v>
   <v>       0.00000000      -0.00671566       0.00671566 </v>
   <v>       0.11910446       0.11910446       0.00000000 </v>
   <v>       0.00671566       0.00000000      -0.00671566 </v>
   <v>       0.00000000       0.00000000       0.00000000 </v>
   <v>       0.00000000      -0.11910446       0.11910446 </v>
   <v>       0.00671566       0.00671566       0.00000000 </v>
   <v>      -0.00671566       0.00000000      -0.00671566 </v>
   <v>       0.00000000       0.00000000       0.00000000 </v>
   <v>       0.00000000       0.00671566      -0.00671566 </v>
   <v>      -0.00671566       0.00671566       0.00000000 </v>
   <v>      -0.11910446       0.00000000       0.11910446 </v>
   <v>       0.00000000       0.00000000       0.00000000 </v>
   <v>       0.00000000       0.11910446       0.11910446 </v>
   <v>       0.00671566      -0.00671566       0.00000000 </v>
   <v>       0.11910446       0.00000000       0.11910446 </v>
   <v>       0.00000000       0.00000000       0.00000000 </v>
   <v>       0.00000000      -0.00671566      -0.00671566 </v>
   <v>      -0.00671566      -0.00671566       0.00000000 </v>
  </varray>
  <varray name="stress" >
   <v>     -24.13215025       0.00000000       0.00000000 </v>
   <v>       0.00000000     -24.13215025       0.00000000 </v>
   <v>       0.00000000       0.00000000     -24.13215025 </v>
  </varray>
  <energy>
   <i name="e_fr_energy">    -99.64295879 </i>
   <i name="e_wo_entrp">    -99.63177882 </i>
   <i name="e_0_energy">     -0.03353990 </i>
  </energy>
  <time name="totalsc">    6.32    6.35</time>
 </calculation>
 <calculation>
  <scstep>
   <time name="diag">    0.15    0.15</time>
   <time name="diis">    0.60    0.60</time>
   <time name="orth">    0.01    0.01</time>
   <time name="total">    1.06    1.06</time>
   <energy>
    <i name="alphaZ">     -6.10292983 </i>
    <i name="ewald">  -2216.39932715 </i>
    <i name="hartreedc">    -34.33240003 </i>
    <i name="XCdc">   -810.67234056 </i>
    <i name="pawpsdc">   1100.25481876 </i>
    <i name="pawaedc">   -109.82381645 </i>
    <i name="eentropy">     -0.02183957 </i>
    <i name="bandstr">    317.77157656 </i>
    <i name="atom">   1659.66634407 </i>
    <i name="e_fr_energy">    -99.65991421 </i>
    <i name="e_wo_entrp">    -99.63807463 </i>
    <i name="e_0_energy">    -99.65263435 </i>
   </energy>
  </scstep>
  <scstep>
   <time name="diag">    0.15    0.15</time>
   <time name="diis">    0.60    0.60</time>
   <time name="orth">    0.01    0.01</time>
   <time name="total">    1.05    1.05</time>
   <energy>
    <i name="e_fr_energy">    -99.65848390 </i>
    <i name="e_wo_entrp">    -99.63500520 </i>
    <i name="e_0_energy">    -99.65065766 </i>
   </energy>
  </scstep>
  <scstep>
   <time name="diag">    0.15    0.15</time>
   <time name="diis">    0.53    0.53</time>
   <time name="orth">    0.01    0.01</time>
   <time name="total">    0.98    0.98</time>
   <energy>
    <i name="e_fr_energy">    -99.65829403 </i>
    <i name="e_wo_entrp">    -99.63382241 </i>
    <i name="e_0_energy">    -99.65013683 </i>
   </energy>
  </scstep>
  <scstep>
   <time name="diag">    0.15    0.15</time>
   <time name="diis">    0.38    0.38</time>
   <time name="orth">    0.01    0.01</time>
   <time name="total">    0.69    0.70</time>
   <energy>
    <i name="alphaZ">     -6.10292983 </i>
    <i name="ewald">  -2216.39932715 </i>
    <i name="hartreedc">    -34.44304760 </i>
    <i name="XCdc">   -810.66958549 </i>
    <i name="pawpsdc">   1100.31472406 </i>
    <i name="pawaedc">   -109.88682606 </i>
    <i name="eentropy">     -0.02468793 </i>
    <i name="bandstr">    317.88704604 </i>
    <i name="atom">   1659.66634407 </i>
    <i name="e_fr_energy">    -99.65828991 </i>
    <i name="e_wo_entrp">    -99.63360197 </i>
    <i name="e_0_energy">    -99.65006060 </i>
   </energy>
  </scstep>
  <structure>
   <crystal>
    <varray name="basis" >
     <v>       8.08705200       0.00000000       0.00000000 </v>
     <v>       0.00000000       8.08705200       0.00000000 </v>
     <v>       0.00000000       0.00000000       8.08705200 </v>
    </varray>
    <i name="volume">    528.89651690 </i>
    <varray name="rec_basis" >
     <v>       0.12365445       0.00000000       0.00000000 </v>
     <v>       0.00000000       0.12365445       0.00000000 </v>
     <v>       0.00000000       0.00000000       0.12365445 </v>
    </varray>
   </crystal>
   <varray name="positions" >
    <v>       0.00032032       0.00000000       0.00032032 </v>
    <v>       0.25000000       0.00000000       0.25000000 </v>
    <v>       0.25000000       0.24484889      -0.00515111 </v>
    <v>      -0.00515111       0.24484889       0.25000000 </v>
    <v>       0.49967968       0.00000000       0.00032032 </v>
    <v>       0.75000000       0.00000000       0.25000000 </v>
    <v>       0.75000000       0.25032032       0.00032032 </v>
    <v>       0.50515111       0.24484889       0.25000000 </v>
    <v>      -0.00515111       0.50000000      -0.00515111 </v>
    <v>       0.25000000       0.75515111      -0.00515111 </v>
    <v>      -0.00515111       0.75515111       0.25000000 </v>
    <v>       0.50515111       0.50000000      -0.00515111 </v>
    <v>       0.75000000       0.50000000       0.25000000 </v>
    <v>       0.75000000       0.74967968       0.00032032 </v>
    <v>       0.50515111       0.75515111       0.25000000 </v>
    <v>       0.00032032       0.00000000       0.49967968 </v>
    <v>       0.25000000       0.00000000       0.75000000 </v>
    <v>       0.25000000       0.24484889       0.50515111 </v>
    <v>       0.00032032       0.25032032       0.75000000 </v>
    <v>       0.49967968       0.00000000       0.49967968 </v>
    <v>       0.75000000       0.00000000       0.75000000 </v>
    <v>       0.75000000       0.25032032       0.49967968 </v>
    <v>       0.49967968       0.25032032       0.75000000 </v>
    <v>      -0.00515111       0.50000000       0.50515111 </v>
    <v>       0.25000000       0.50000000       0.75000000 </v>
    <v>       0.25000000       0.75515111       0.50515111 </v>
    <v>       0.00032032       0.74967968       0.75000000 </v>
    <v>       0.50515111       0.50000000       0.50515111 </v>
    <v>       0.75000000       0.50000000       0.75000000 </v>
    <v>       0.75000000       0.74967968       0.49967968 </v>
    <v>       0.49967968       0.74967968       0.75000000 </v>
   </varray>
  </structure>
  <varray name="forces" >
   <v>      -0.00824533       0.00000000      -0.00824533 </v>
   <v>       0.00000000       0.00000000       0.00000000 </v>
   <v>       0.00000000      -0.09643250      -0.09643250 </v>
   <v>      -0.09643250      -0.09643250       0.00000000 </v>
   <v>       0.00824533       0.00000000      -0.00824533 </v>
   <v>       0.00000000       0.00000000       0.00000000 </v>
   <v>       0.00000000      -0.00824533      -0.00824533 </v>
   <v>       0.09643250      -0.09643250       0.00000000 </v>
   <v>      -0.09643250       0.00000000      -0.09643250 </v>
   <v>       0.00000000       0.09643250      -0.09643250 </v>
   <v>      -0.09643250       0.09643250       0.00000000 </v>
   <v>       0.09643250       0.00000000      -0.09643250 </v>
   <v>       0.00000000       0.00000000       0.00000000 </v>
   <v>       0.00000000       0.00824533      -0.00824533 </v>
   <v>       0.09643250       0.09643250       0.00000000 </v>
   <v>      -0.00824533       0.00000000       0.00824533 </v>
   <v>       0.00000000       0.00000000       0.00000000 </v>
   <v>       0.00000000      -0.09643250       0.09643250 </v>
   <v>      -0.00824533      -0.00824533       0.00000000 </v>
   <v>       0.00824533       0.00000000       0.00824533 </v>
   <v>       0.00000000       0.00000000       0.00000000 </v>
   <v>       0.00000000      -0.00824533       0.00824533 </v>
   <v>       0.00824533      -0.00824533       0.00000000 </v>
   <v>      -0.09643250       0.00000000       0.09643250 </v>
   <v>       0.00000000       0.00000000       0.00000000 </v>
   <v>       0.00000000       0.09643250       0.09643250 </v>
   <v>      -0.00824533       0.00824533       0.00000000 </v>
   <v>       0.09643250       0.00000000       0.09643250 </v>
   <v>       0.00000000       0.00000000       0.00000000 </v>
   <v>       0.00000000       0.00824533       0.00824533 </v>
   <v>       0.00824533       0.00824533       0.00000000 </v>
  </varray>
  <varray name="stress" >
   <v>     -23.64572991       0.00000000       0.00000000 </v>
   <v>       0.00000000     -23.64572991       0.00000000 </v>
   <v>       0.00000000       0.00000000     -23.64572991 </v>
  </varray>
  <energy>
   <i name="e_fr_energy">    -99.65828991 </i>
   <i name="e_wo_entrp">    -99.65006060 </i>
   <i name="e_0_energy">     -0.02468793 </i>
  </energy>
  <time name="totalsc">    5.09    5.10</time>
 </calculation>
 <calculation>
  <scstep>
   <time name="diag">    0.15    0.15</time>
   <time name="diis">    0.62    0.62</time>
   <time name="orth">    0.01    0.01</time>
   <time name="total">    1.07    1.07</time>
   <energy>
    <i name="alphaZ">     -6.10292983 </i>
    <i name="ewald">  -2211.10019818 </i>
    <i name="hartreedc">    -38.70563458 </i>
    <i name="XCdc">   -810.57540301 </i>
    <i name="pawpsdc">   1100.32800637 </i>
    <i name="pawaedc">   -109.90075543 </i>
    <i name="eentropy">     -0.02700018 </i>
    <i name="bandstr">    316.72466878 </i>
    <i name="atom">   1659.66634407 </i>
    <i name="e_fr_energy">    -99.69290200 </i>
    <i name="e_wo_entrp">    -99.66590182 </i>
    <i name="e_0_energy">    -99.68390194 </i>
   </energy>
  </scstep>
  <scstep>
   <time name="diag">    0.15    0.15</time>
   <time name="diis">    0.59    0.59</time>
   <time name="orth">    0.01    0.01</time>
   <time name="total">    1.04    1.04</time>
   <energy>
    <i name="e_fr_energy">    -99.68319455 </i>
    <i name="e_wo_entrp">    -99.65828079 </i>
    <i name="e_0_energy">    -99.67488996 </i>
   </energy>
  </scstep>
  <scstep>
   <time name="diag">    0.15    0.15</time>
   <time name="diis">    0.60    0.60</time>
   <time name="orth">    0.01    0.01</time>
   <time name="total">    1.05    1.05</time>
   <energy>
    <i name="e_fr_energy">    -99.68121616 </i>
    <i name="e_wo_entrp">    -99.65721407 </i>
    <i name="e_0_energy">    -99.67321546 </i>
   </energy>
  </scstep>
  <scstep>
   <time name="diag">    0.15    0.15</time>
   <time name="diis">    0.49    0.49</time>
   <time name="orth">    0.01    0.01</time>
   <time name="total">    0.80    0.81</time>
   <energy>
    <i name="alphaZ">     -6.10292983 </i>
    <i name="ewald">  -2211.10019818 </i>
    <i name="hartreedc">    -39.03637459 </i>
    <i name="XCdc">   -810.56665573 </i>
    <i name="pawpsdc">   1100.55472763 </i>
    <i name="pawaedc">   -110.13921550 </i>
    <i name="eentropy">     -0.02351181 </i>
    <i name="bandstr">    317.06665786 </i>
    <i name="atom">   1659.66634407 </i>
    <i name="e_fr_energy">    -99.68115609 </i>
    <i name="e_wo_entrp">    -99.65764428 </i>
    <i name="e_0_energy">    -99.67331882 </i>
   </energy>
  </scstep>
  <structure>
   <crystal>
    <varray name="basis" >
     <v>       8.08705200       0.00000000       0.00000000 </v>
     <v>       0.00000000       8.08705200       0.00000000 </v>
     <v>       0.00000000       0.00000000       8.08705200 </v>
    </varray>
    <i name="volume">    528.89651690 </i>
    <varray name="rec_basis" >
     <v>       0.12365445       0.00000000       0.00000000 </v>
     <v>       0.00000000       0.12365445       0.00000000 </v>
     <v>       0.00000000       0.00000000       0.12365445 </v>
    </varray>
   </crystal>
   <varray name="positions" >
    <v>       0.00043487       0.00000000       0.00043487 </v>
    <v>       0.25000000       0.00000000       0.25000000 </v>
    <v>       0.25000000       0.24265649      -0.00734351 </v>
    <v>      -0.00734351       0.24265649       0.25000000 </v>
    <v>       0.49956513       0.00000000       0.00043487 </v>
    <v>       0.75000000       0.00000000       0.25000000 </v>
    <v>       0.75000000       0.25043487       0.00043487 </v>
    <v>       0.50734351       0.24265649       0.25000000 </v>
    <v>      -0.00734351       0.50000000      -0.00734351 </v>
    <v>       0.25000000       0.75734351      -0.00734351 </v>
    <v>      -0.00734351       0.75734351       0.25000000 </v>
    <v>       0.50734351       0.50000000      -0.00734351 </v>
    <v>       0.75000000       0.50000000       0.25000000 </v>
    <v>       0.75000000       0.74956513       0.00043487 </v>
    <v>       0.50734351       0.75734351       0.25000000 </v>
    <v>       0.00043487       0.00000000       0.49956513 </v>
    <v>       0.25000000       0.00000000       0.75000000 </v>
    <v>       0.25000000       0.24265649       0.50734351 </v>
    <v>       0.00043487       0.25043487       0.75000000 </v>
    <v>       0.49956513       0.00000000       0.49956513 </v>
    <v>       0.75000000       0.00000000       0.75000000 </v>
    <v>       0.75000000       0.25043487       0.49956513 </v>
    <v>       0.49956513       0.25043487       0.75000000 </v>
    <v>      -0.00734351       0.50000000       0.50734351 </v>
    <v>       0.25000000       0.50000000       0.75000000 </v>
    <v>       0.25000000       0.75734351       0.50734351 </v>
    <v>       0.00043487       0.74956513       0.75000000 </v>
    <v>       0.50734351       0.50000000       0.50734351 </v>
    <v>       0.75000000       0.50000000       0.75000000 </v>
    <v>       0.75000000       0.74956513       0.49956513 </v>
    <v>       0.49956513       0.74956513       0.75000000 </v>
   </varray>
  </structure>
  <varray name="forces" >
   <v>      -0.07426261       0.00000000      -0.07426261 </v>
   <v>       0.00000000       0.00000000       0.00000000 </v>
   <v>       0.00000000      -0.01187475      -0.01187475 </v>
   <v>      -0.01187475      -0.01187475       0.00000000 </v>
   <v>       0.07426261       0.00000000      -0.07426261 </v>
   <v>       0.00000000       0.00000000       0.00000000 </v>
   <v>       0.00000000      -0.07426261      -0.07426261 </v>
   <v>       0.01187475      -0.01187475       0.00000000 </v>
   <v>      -0.01187475       0.00000000      -0.01187475 </v>
   <v>       0.00000000       0.01187475      -0.01187475 </v>
   <v>      -0.01187475       0.01187475       0.00000000 </v>
   <v>       0.01187475       0.00000000      -0.01187475 </v>
   <v>       0.00000000       0.00000000       0.00000000 </v>
   <v>       0.00000000       0.07426261      -0.07426261 </v>
   <v>       0.01187475       0.01187475       0.00000000 </v>
   <v>      -0.07426261       0.00000000       0.07426261 </v>
   <v>       0.00000000       0.00000000       0.00000000 </v>
   <v>       0.00000000      -0.01187475       0.01187475 </v>
   <v>      -0.07426261      -0.07426261       0.00000000 </v>
   <v>       0.07426261       0.00000000       0.07426261 </v>
   <v>       0.00000000       0.00000000       0.00000000 </v>
   <v>       0.00000000      -0.07426261       0.07426261 </v>
   <v>       0.07426261      -0.07426261       0.00000000 </v>
   <v>      -0.01187475       0.00000000       0.01187475 </v>
   <v>       0.00000000       0.00000000       0.00000000 </v>
   <v>       0.00000000       0.01187475       0.01187475 </v>
   <v>      -0.07426261       0.07426261       0.00000000 </v>
   <v>       0.01187475       0.00000000       0.01187475 </v>
   <v>       0.00000000       0.00000000       0.00000000 </v>
   <v>       0.00000000       0.07426261       0.07426261 </v>
   <v>       0.07426261       0.07426261       0.00000000 </v>
  </varray>
  <varray name="stress" >
   <v>     -21.87204840       0.00000000       0.00000000 </v>
   <v>       0.00000000     -21.87204840       0.00000000 </v>
   <v>       0.00000000       0.00000000     -21.87204840 </v>
  </varray>
  <energy>
   <i name="e_fr_energy">    -99.68115609 </i>
   <i name="e_wo_entrp">    -99.67331882 </i>
   <i name="e_0_energy">     -0.02351181 </i>
  </energy>
  <time name="totalsc">    5.18    5.19</time>
  <eigenvalues>
   <array>
    <dimension dim="1">band</dimension>
    <dimension dim="2">kpoint</dimension>
    <dimension dim="3">spin</dimension>
    <field>eigene</field>
    <field>occ</field>
    <set>
     <set comment="spin 1">
      <set comment="kpoint 1">
       <r>   -3.3996    1.0000 </r>
       <r>   -1.3069    1.0000 </r>
       <r>   -1.3069    1.0000 </r>
       <r>   -1.1963    1.0000 </r>
       <r>   -1.1963    1.0000 </r>
       <r>   -1.1963    1.0000 </r>
       <r>   -0.6358    1.0000 </r>
       <r>    0.8451    1.0000 </r>
       <r>    0.8451    1.0000 </r>
       <r>    0.8451    1.0000 </r>
       <r>    0.9602    1.0000 </r>
       <r>    0.9602    1.0000 </r>
       <r>    0.9709    1.0000 </r>
       <r>    0.9709    1.0000 </r>
       <r>    0.9709    1.0000 </r>
       <r>    1.3307    1.0000 </r>
       <r>    1.3307    1.0000 </r>
       <r>    1.3307    1.0000 </r>
       <r>    2.1211    1.0000 </r>
       <r>    3.0145    1.0000 </r>
       <r>    3.2816    1.0000 </r>
       <r>    3.2816    1.0000 </r>
       <r>    3.2816    1.0000 </r>
       <r>    3.3040    1.0000 </r>
       <r>    3.3040    1.0000 </r>
       <r>    3.3040    1.0000 </r>
       <r>    4.2804    1.0000 </r>
       <r>    4.8752    1.0000 </r>
       <r>    4.8752    1.0000 </r>
       <r>    4.8752    1.0000 </r>
       <r>    6.1301    1.0000 </r>
       <r>    6.1301    1.0000 </r>
       <r>    6.4701    1.0000 </r>
       <r>    6.6863    1.0000 </r>
       <r>    6.6863    1.0000 </r>
       <r>    6.6863    1.0000 </r>
       <r>    6.7132    1.0000 </r>
       <r>    6.7132    1.0000 </r>
       <r>    6.7132    1.0000 </r>
       <r>    7.0145    1.0000 </r>
       <r>    7.0145    1.0000 </r>
       <r>    7.0145    1.0000 </r>
       <r>    7.3639    1.0010 </r>
       <r>    7.3639    1.0010 </r>
       <r>    7.3639    1.0010 </r>
       <r>    7.5955    1.0325 </r>
       <r>    7.9571    0.1718 </r>
       <r>    7.9571    0.1718 </r>
       <r>    7.9571    0.1718 </r>
       <r>    8.1813   -0.0254 </r>
       <r>    8.1813   -0.0254 </r>
       <r>    8.7063    0.0000 </r>
       <r>    8.7063    0.0000 </r>
       <r>    8.7623    0.0000 </r>
       <r>    8.7623    0.0000 </r>
       <r>    8.7623    0.0000 </r>
       <r>    8.7670    0.0000 </r>
       <r>    8.7670    0.0000 </r>
       <r>    8.8294    0.0000 </r>
       <r>    8.8294    0.0000 </r>
       <r>    8.8294    0.0000 </r>
       <r>    9.1937    0.0000 </r>
       <r>    9.2116    0.0000 </r>
       <r>    9.2116    0.0000 </r>
       <r>    9.2116    0.0000 </r>
       <r>    9.5583    0.0000 </r>
       <r>    9.5583    0.0000 </r>
       <r>    9.5583    0.0000 </r>
       <r>    9.6217    0.0000 </r>
       <r>   10.2974    0.0000 </r>
       <r>   10.3059    0.0000 </r>
       <r>   10.4278    0.0000 </r>
      </set>
     </set>
    </set>
   </array>
  </eigenvalues>
  <separator name="orbital magnetization" >
   <v name="MAGDIPOLOUT">      0.00000000      0.00000000      0.00000000</v>
  </separator>
  <dos>
   <i name="efermi">      7.87149271 </i>
   <total>
    <array>
     <dimension dim="1">gridpoints</dimension>
     <dimension dim="2">spin</dimension>
     <field>energy</field>
     <field>total</field>
     <field>integrated</field>
     <set>
      <set comment="spin 1">
       <r>  -5.3996   0.0000   0.0000 </r>
       <r>  -5.3402   0.0000   0.0000 </r>
       <r>  -5.2807   0.0000   0.0000 </r>
       <r>  -5.2213   0.0000   0.0000 </r>
       <r>  -5.1619   0.0000   0.0000 </r>
       <r>  -5.1025   0.0000   0.0000 </r>
       <r>  -5.0430   0.0000   0.0000 </r>
       <r>  -4.9836   0.0000   0.0000 </r>
       <r>  -4.9242   0.0000   0.0000 </r>
       <r>  -4.8648   0.0000   0.0000 </r>
       <r>  -4.8053   0.0000   0.0000 </r>
       <r>  -4.7459   0.0000   0.0000 </r>
       <r>  -4.6865   0.0000   0.0000 </r>
       <r>  -4.6271   0.0000   0.0000 </r>
       <r>  -4.5676   0.0000   0.0000 </r>
       <r>  -4.5082   0.0000   0.0000 </r>
       <r>  -4.4488   0.0000   0.0000 </r>
       <r>  -4.3894   0.0000   0.0000 </r>
       <r>  -4.3299   0.0000   0.0000 </r>
       <r>  -4.2705   0.0000   0.0000 </r>
       <r>  -4.2111   0.0000   0.0000 </r>
       <r>  -4.1517   0.0000   0.0000 </r>
       <r>  -4.0922  -0.0002   0.0000 </r>
       <r>  -4.0328  -0.0010  -0.0001 </r>
       <r>  -3.9734  -0.0052  -0.0004 </r>
       <r>  -3.9140  -0.0217  -0.0017 </r>
       <r>  -3.8545  -0.0723  -0.0060 </r>
       <r>  -3.7951  -0.1886  -0.0172 </r>
       <r>  -3.7357  -0.3640  -0.0388 </r>
       <r>  -3.6763  -0.4361  -0.0647 </r>
       <r>  -3.6168   0.0148  -0.0638 </r>
       <r>  -3.5574   1.5041   0.0255 </r>
       <r>  -3.4980   4.0898   0.2686 </r>
       <r>  -3.4386   6.8711   0.6769 </r>
       <r>  -3.3791   8.3306   1.1719 </r>
       <r>  -3.3197   7.5366   1.6198 </r>
       <r>  -3.2603   5.0054   1.9172 </r>
       <r>  -3.2009   2.2155   2.0489 </r>
       <r>  -3.1414   0.3501   2.0697 </r>
       <r>  -3.0820  -0.3775   2.0473 </r>
       <r>  -3.0226  -0.4121   2.0228 </r>
       <r>  -2.9632  -0.2402   2.0085 </r>
       <r>  -2.9038  -0.1003   2.0025 </r>
       <r>  -2.8443  -0.0324   2.0006 </r>
       <r>  -2.7849  -0.0083   2.0001 </r>
       <r>  -2.7255  -0.0017   2.0000 </r>
       <r>  -2.6661  -0.0003   2.0000 </r>
       <r>  -2.6066   0.0000   2.0000 </r>
       <r>  -2.5472   0.0000   2.0000 </r>
       <r>  -2.4878   0.0000   2.0000 </r>
       <r>  -2.4284   0.0000   2.0000 </r>
       <r>  -2.3689   0.0000   2.0000 </r>
       <r>  -2.3095   0.0000   2.0000 </r>
       <r>  -2.2501   0.0000   2.0000 </r>
       <r>  -2.1907   0.0000   2.0000 </r>
       <r>  -2.1312   0.0000   2.0000 </r>
       <r>  -2.0718   0.0000   2.0000 </r>
       <r>  -2.0124  -0.0002   2.0000 </r>
       <r>  -1.9530  -0.0014   1.9999 </r>
       <r>  -1.8935  -0.0079   1.9994 </r>
       <r>  -1.8341  -0.0351   1.9973 </r>
       <r>  -1.7747  -0.1276   1.9898 </r>
       <r>  -1.7153  -0.3726   1.9676 </r>
       <r>  -1.6558  -0.8509   1.9171 </r>
       <r>  -1.5964  -1.4239   1.8324 </r>
       <r>  -1.5370  -1.3618   1.7515 </r>
       <r>  -1.4776   0.8320   1.8010 </r>
       <r>  -1.4181   6.7861   2.2042 </r>
       <r>  -1.3587  16.7018   3.1967 </r>
       <r>  -1.2993  27.9907   4.8600 </r>
       <r>  -1.2399  35.8441   6.9901 </r>
       <r>  -1.1804  36.1288   9.1370 </r>
       <r>  -1.1210  28.5135  10.8314 </r>
       <r>  -1.0616  16.8638  11.8335 </r>
       <r>  -1.0022   6.3484  12.2108 </r>
       <r>  -0.9427   0.0462  12.2135 </r>
       <r>  -0.8833  -1.9325  12.0987 </r>
       <r>  -0.8239  -0.9187  12.0441 </r>
       <r>  -0.7645   1.8234  12.1524 </r>
       <r>  -0.7050   5.1752  12.4600 </r>
       <r>  -0.6456   7.7285  12.9192 </r>
       <r>  -0.5862   8.1967  13.4063 </r>
       <r>  -0.5268   6.4208  13.7879 </r>
       <r>  -0.4673   3.5729  14.0002 </r>
       <r>  -0.4079   1.1477  14.0684 </r>
       <r>  -0.3485  -0.1293  14.0607 </r>
       <r>  -0.2891  -0.4462  14.0342 </r>
       <r>  -0.2296  -0.3324  14.0145 </r>
       <r>  -0.1702  -0.1621  14.0048 </r>
       <r>  -0.1108  -0.0593  14.0013 </r>
       <r>  -0.0514  -0.0171  14.0003 </r>
       <r>   0.0080  -0.0040  14.0001 </r>
       <r>   0.0675  -0.0008  14.0000 </r>
       <r>   0.1269  -0.0003  14.0000 </r>
       <r>   0.1863  -0.0015  13.9999 </r>
       <r>   0.2457  -0.0083  13.9994 </r>
       <r>   0.3052  -0.0384  13.9971 </r>
       <r>   0.3646  -0.1454  13.9885 </r>
       <r>   0.4240  -0.4442  13.9621 </r>
       <r>   0.4834  -1.0706  13.8985 </r>
       <r>   0.5429  -1.9362  13.7834 </r>
       <r>   0.6023  -2.2285  13.6510 </r>
       <r>   0.6617  -0.0280  13.6493 </r>
       <r>   0.7211   7.1482  14.0741 </r>
       <r>   0.7806  20.4649  15.2902 </r>
       <r>   0.8400  37.5663  17.5226 </r>
       <r>   0.8994  52.2276  20.6262 </r>
       <r>   0.9588  57.3028  24.0314 </r>
       <r>   1.0183  49.7201  26.9860 </r>
       <r>   1.0777  33.6240  28.9840 </r>
       <r>   1.1371  18.2353  30.0677 </r>
       <r>   1.1965  11.3992  30.7451 </r>
       <r>   1.2560  14.0721  31.5813 </r>
       <r>   1.3154  20.3960  32.7933 </r>
       <r>   1.3748  23.0744  34.1645 </r>
       <r>   1.4342  19.1483  35.3024 </r>
       <r>   1.4937  11.2168  35.9689 </r>
       <r>   1.5531   3.8898  36.2001 </r>
       <r>   1.6125  -0.2213  36.1869 </r>
       <r>   1.6719  -1.4125  36.1030 </r>
       <r>   1.7314  -1.2515  36.0286 </r>
       <r>   1.7908  -0.9068  35.9747 </r>
       <r>   1.8502  -0.6211  35.9378 </r>
       <r>   1.9096   0.0505  35.9408 </r>
       <r>   1.9691   1.7026  36.0420 </r>
       <r>   2.0285   4.3750  36.3020 </r>
       <r>   2.0879   7.0970  36.7237 </r>
       <r>   2.1473   8.3559  37.2203 </r>
       <r>   2.2068   7.3442  37.6567 </r>
       <r>   2.2662   4.7171  37.9370 </r>
       <r>   2.3256   1.9796  38.0546 </r>
       <r>   2.3850   0.2313  38.0684 </r>
       <r>   2.4445  -0.4081  38.0441 </r>
       <r>   2.5039  -0.4219  38.0191 </r>
       <r>   2.5633  -0.3010  38.0012 </r>
       <r>   2.6227  -0.2914  37.9839 </r>
       <r>   2.6822  -0.4154  37.9592 </r>
       <r>   2.7416  -0.4930  37.9299 </r>
       <r>   2.8010  -0.1437  37.9213 </r>
       <r>   2.8604   0.9866  37.9800 </r>
       <r>   2.9199   2.7576  38.1438 </r>
       <r>   2.9793   4.5173  38.4123 </r>
       <r>   3.0387   6.2884  38.7860 </r>
       <r>   3.0981  10.1702  39.3903 </r>
       <r>   3.1575  19.2226  40.5326 </r>
       <r>   3.2170  33.2417  42.5080 </r>
       <r>   3.2764  46.0221  45.2428 </r>
       <r>   3.3358  49.1529  48.1637 </r>
       <r>   3.3952  39.7089  50.5234 </r>
       <r>   3.4547  23.1680  51.9002 </r>
       <r>   3.5141   8.2229  52.3888 </r>
       <r>   3.5735  -0.1808  52.3781 </r>
       <r>   3.6329  -2.6081  52.2231 </r>
       <r>   3.6924  -2.1122  52.0975 </r>
       <r>   3.7518  -1.0936  52.0326 </r>
       <r>   3.8112  -0.4652  52.0049 </r>
       <r>   3.8706  -0.2760  51.9885 </r>
       <r>   3.9301  -0.3508  51.9677 </r>
       <r>   3.9895  -0.4522  51.9408 </r>
       <r>   4.0489  -0.1711  51.9306 </r>
       <r>   4.1083   1.0374  51.9923 </r>
       <r>   4.1678   3.4045  52.1946 </r>
       <r>   4.2272   6.2683  52.5671 </r>
       <r>   4.2866   8.1631  53.0522 </r>
       <r>   4.3460   7.8808  53.5205 </r>
       <r>   4.4055   5.5281  53.8490 </r>
       <r>   4.4649   2.3693  53.9898 </r>
       <r>   4.5243  -0.2752  53.9734 </r>
       <r>   4.5837  -1.6274  53.8767 </r>
       <r>   4.6432  -0.9668  53.8193 </r>
       <r>   4.7026   2.7775  53.9843 </r>
       <r>   4.7620  10.0062  54.5789 </r>
       <r>   4.8214  18.6905  55.6896 </r>
       <r>   4.8809  24.4821  57.1444 </r>
       <r>   4.9403  23.8198  58.5599 </r>
       <r>   4.9997  17.1586  59.5796 </r>
       <r>   5.0591   8.5570  60.0881 </r>
       <r>   5.1186   2.0973  60.2127 </r>
       <r>   5.1780  -0.8509  60.1621 </r>
       <r>   5.2374  -1.3141  60.0840 </r>
       <r>   5.2968  -0.8541  60.0333 </r>
       <r>   5.3563  -0.3836  60.0105 </r>
       <r>   5.4157  -0.1316  60.0027 </r>
       <r>   5.4751  -0.0367  60.0005 </r>
       <r>   5.5345  -0.0137  59.9997 </r>
       <r>   5.5940  -0.0278  59.9980 </r>
       <r>   5.6534  -0.0958  59.9923 </r>
       <r>   5.7128  -0.2741  59.9760 </r>
       <r>   5.7722  -0.5966  59.9406 </r>
       <r>   5.8317  -0.8862  59.8879 </r>
       <r>   5.8911  -0.4967  59.8584 </r>
       <r>   5.9505   1.6161  59.9544 </r>
       <r>   6.0099   6.0377  60.3132 </r>
       <r>   6.0693  11.6696  61.0067 </r>
       <r>   6.1288  15.6895  61.9390 </r>
       <r>   6.1882  15.5886  62.8654 </r>
       <r>   6.2476  11.5626  63.5525 </r>
       <r>   6.3070   6.4795  63.9375 </r>
       <r>   6.3665   3.3954  64.1393 </r>
       <r>   6.4259   3.7015  64.3592 </r>
       <r>   6.4853   7.8771  64.8273 </r>
       <r>   6.5447  16.7355  65.8218 </r>
       <r>   6.6042  29.9305  67.6005 </r>
       <r>   6.6636  43.0536  70.1589 </r>
       <r>   6.7230  48.8021  73.0589 </r>
       <r>   6.7824  43.4975  75.6437 </r>
       <r>   6.8419  31.7434  77.5301 </r>
       <r>   6.9013  22.4400  78.8636 </r>
       <r>   6.9607  20.0404  80.0545 </r>
       <r>   7.0201  21.1866  81.3135 </r>
       <r>   7.0796  20.0512  82.5050 </r>
       <r>   7.1390  15.4150  83.4210 </r>
       <r>   7.1984  11.5242  84.1058 </r>
       <r>   7.2578  12.7055  84.8609 </r>
       <r>   7.3173  18.3291  85.9501 </r>
       <r>   7.3767  23.4426  87.3431 </r>
       <r>   7.4361  23.8192  88.7586 </r>
       <r>   7.4955  19.5706  89.9215 </r>
       <r>   7.5550  13.7717  90.7399 </r>
       <r>   7.6144   8.8015  91.2630 </r>
       <r>   7.6738   5.1897  91.5713 </r>
       <r>   7.7332   3.3977  91.7733 </r>
       <r>   7.7927   4.9074  92.0649 </r>
       <r>   7.8521  10.5725  92.6931 </r>
       <r>   7.9115  18.4678  93.7906 </r>
       <r>   7.9709  24.6271  95.2540 </r>
       <r>   8.0304  26.4576  96.8263 </r>
       <r>   8.0898  24.7375  98.2963 </r>
       <r>   8.1492  21.6974  99.5856 </r>
       <r>   8.2086  18.0934 100.6608 </r>
       <r>   8.2681  13.2166 101.4462 </r>
       <r>   8.3275   7.0026 101.8623 </r>
       <r>   8.3869   0.8160 101.9108 </r>
       <r>   8.4463  -3.4060 101.7084 </r>
       <r>   8.5058  -3.3828 101.5074 </r>
       <r>   8.5652   3.9767 101.7437 </r>
       <r>   8.6246  21.0783 102.9963 </r>
       <r>   8.6840  45.5755 105.7046 </r>
       <r>   8.7435  68.1234 109.7528 </r>
       <r>   8.8029  76.8587 114.3201 </r>
       <r>   8.8623  66.4752 118.2703 </r>
       <r>   8.9217  43.2040 120.8377 </r>
       <r>   8.9812  20.4267 122.0516 </r>
       <r>   9.0406   9.2260 122.5998 </r>
       <r>   9.1000  11.8816 123.3059 </r>
       <r>   9.1594  21.9173 124.6083 </r>
       <r>   9.2188  29.4480 126.3582 </r>
       <r>   9.2783  28.4044 128.0461 </r>
       <r>   9.3377  20.7990 129.2821 </r>
       <r>   9.3971  14.3471 130.1347 </r>
       <r>   9.4565  15.2467 131.0407 </r>
       <r>   9.5160  22.6580 132.3872 </r>
       <r>   9.5754  29.7798 134.1568 </r>
       <r>   9.6348  30.1116 135.9462 </r>
       <r>   9.6942  22.7810 137.2999 </r>
       <r>   9.7537  12.2420 138.0274 </r>
       <r>   9.8131   3.6680 138.2454 </r>
       <r>   9.8725  -0.8130 138.1970 </r>
       <r>   9.9319  -2.1519 138.0692 </r>
       <r>   9.9914  -2.1290 137.9427 </r>
       <r>  10.0508  -1.4908 137.8541 </r>
       <r>  10.1102   0.4012 137.8779 </r>
       <r>  10.1696   4.6052 138.1516 </r>
       <r>  10.2291  11.0517 138.8083 </r>
       <r>  10.2885  17.7032 139.8603 </r>
       <r>  10.3479  21.5271 141.1396 </r>
       <r>  10.4073  20.6752 142.3682 </r>
       <r>  10.4668  15.8060 143.3074 </r>
       <r>  10.5262   9.3911 143.8655 </r>
       <r>  10.5856   3.9209 144.0985 </r>
       <r>  10.6450   0.6172 144.1352 </r>
       <r>  10.7045  -0.6703 144.0953 </r>
       <r>  10.7639  -0.7770 144.0492 </r>
       <r>  10.8233  -0.4908 144.0200 </r>
       <r>  10.8827  -0.2256 144.0066 </r>
       <r>  10.9422  -0.0810 144.0018 </r>
       <r>  11.0016  -0.0233 144.0004 </r>
       <r>  11.0610  -0.0055 144.0001 </r>
       <r>  11.1204  -0.0011 144.0000 </r>
       <r>  11.1799  -0.0002 144.0000 </r>
       <r>  11.2393   0.0000 144.0000 </r>
       <r>  11.2987   0.0000 144.0000 </r>
       <r>  11.3581   0.0000 144.0000 </r>
       <r>  11.4176   0.0000 144.0000 </r>
       <r>  11.4770   0.0000 144.0000 </r>
       <r>  11.5364   0.0000 144.0000 </r>
       <r>  11.5958   0.0000 144.0000 </r>
       <r>  11.6553   0.0000 144.0000 </r>
       <r>  11.7147   0.0000 144.0000 </r>
       <r>  11.7741   0.0000 144.0000 </r>
       <r>  11.8335   0.0000 144.0000 </r>
       <r>  11.8930   0.0000 144.0000 </r>
       <r>  11.9524   0.0000 144.0000 </r>
       <r>  12.0118   0.0000 144.0000 </r>
       <r>  12.0712   0.0000 144.0000 </r>
       <r>  12.1306   0.0000 144.0000 </r>
       <r>  12.1901   0.0000 144.0000 </r>
       <r>  12.2495   0.0000 144.0000 </r>
       <r>  12.3089   0.0000 144.0000 </r>
       <r>  12.3683   0.0000 144.0000 </r>
       <r>  12.4278   0.0000 144.0000 </r>
      </set>
     </set>
    </array>
   </total>
  </dos>
 </calculation>
 <structure name="finalpos" >
  <crystal>
   <varray name="basis" >
    <v>       8.08705200       0.00000000       0.00000000 </v>
    <v>       0.00000000       8.08705200       0.00000000 </v>
    <v>       0.00000000       0.00000000       8.08705200 </v>
   </varray>
   <i name="volume">    528.89651690 </i>
   <varray name="rec_basis" >
    <v>       0.12365445       0.00000000       0.00000000 </v>
    <v>       0.00000000       0.12365445       0.00000000 </v>
    <v>       0.00000000       0.00000000       0.12365445 </v>
   </varray>
  </crystal>
  <varray name="positions" >
   <v>       0.00043487       0.00000000       0.00043487 </v>
   <v>       0.25000000       0.00000000       0.25000000 </v>
   <v>       0.25000000       0.24265649      -0.00734351 </v>
   <v>      -0.00734351       0.24265649       0.25000000 </v>
   <v>       0.49956513       0.00000000       0.00043487 </v>
   <v>       0.75000000       0.00000000       0.25000000 </v>
   <v>       0.75000000       0.25043487       0.00043487 </v>
   <v>       0.50734351       0.24265649       0.25000000 </v>
   <v>      -0.00734351       0.50000000      -0.00734351 </v>
   <v>       0.25000000       0.75734351      -0.00734351 </v>
   <v>      -0.00734351       0.75734351       0.25000000 </v>
   <v>       0.50734351       0.50000000      -0.00734351 </v>
   <v>       0.75000000       0.50000000       0.25000000 </v>
   <v>       0.75000000       0.74956513       0.00043487 </v>
   <v>       0.50734351       0.75734351       0.25000000 </v>
   <v>       0.00043487       0.00000000       0.49956513 </v>
   <v>       0.25000000       0.00000000       0.75000000 </v>
   <v>       0.25000000       0.24265649       0.50734351 </v>
   <v>       0.00043487       0.25043487       0.75000000 </v>
   <v>       0.49956513       0.00000000       0.49956513 </v>
   <v>       0.75000000       0.00000000       0.75000000 </v>
   <v>       0.75000000       0.25043487       0.49956513 </v>
   <v>       0.49956513       0.25043487       0.75000000 </v>
   <v>      -0.00734351       0.50000000       0.50734351 </v>
   <v>       0.25000000       0.50000000       0.75000000 </v>
   <v>       0.25000000       0.75734351       0.50734351 </v>
   <v>       0.00043487       0.74956513       0.75000000 </v>
   <v>       0.50734351       0.50000000       0.50734351 </v>
   <v>       0.75000000       0.50000000       0.75000000 </v>
   <v>       0.75000000       0.74956513       0.49956513 </v>
   <v>       0.49956513       0.74956513       0.75000000 </v>
  </varray>
 </structure>
</modeling>
