       N       E                     dE             d eps       ncg     rms          rms(c)
DAV:   1     0.105488884208E+03    0.10549E+03   -0.26141E+04   124   0.890E+02
DAV:   2    -0.858980714230E+02   -0.19139E+03   -0.17738E+03   144   0.128E+02
DAV:   3    -0.100924817429E+03   -0.15027E+02   -0.14419E+02   168   0.262E+01
DAV:   4    -0.101341528589E+03   -0.41671E+00   -0.41261E+00   168   0.490E+00
DAV:   5    -0.101347913886E+03   -0.63853E-02   -0.63640E-02   160   0.708E-01    0.686E+00
DAV:   6    -0.998483435035E+02    0.14996E+01   -0.70518E+00   152   0.564E+00    0.408E+00
DAV:   7    -0.995546308815E+02    0.29371E+00   -0.11099E+00   160   0.295E+00    0.264E+00
DAV:   8    -0.993942937668E+02    0.16034E+00   -0.28689E-01   168   0.139E+00    0.751E-01
DAV:   9    -0.993800874586E+02    0.14206E-01   -0.32475E-02   168   0.518E-01    0.193E-01
DAV:  10    -0.993786768158E+02    0.14106E-02   -0.46119E-03   160   0.201E-01    0.849E-02
DAV:  11    -0.993784712542E+02    0.20556E-03   -0.12306E-03   160   0.913E-02    0.315E-02
DAV:  12    -0.993784823014E+02   -0.11047E-04   -0.10520E-04   104   0.326E-02
   1 F= -.99378482E+02 E0= -.99352947E+02  d E =-.993785E+02
       N       E                     dE             d eps       ncg     rms          rms(c)
DAV:   1    -0.994773065551E+02   -0.98835E-01   -0.10590E+00   152   0.303E+00    0.348E-01
DAV:   2    -0.994697186341E+02    0.75879E-02   -0.80613E-02   144   0.856E-01    0.111E-01
DAV:   3    -0.994692106756E+02    0.50796E-03   -0.52800E-03   160   0.220E-01    0.516E-02
DAV:   4    -0.994691469474E+02    0.63728E-04   -0.58813E-04   152   0.708E-02
   2 F= -.99469147E+02 E0= -.99449732E+02  d E =-.906646E-01
       N       E                     dE             d eps       ncg     rms          rms(c)
DAV:   1    -0.995446560738E+02   -0.75445E-01   -0.12757E+00   144   0.331E+00    0.444E-01
DAV:   2    -0.995324372838E+02    0.12219E-01   -0.12301E-01   154   0.958E-01    0.149E-01
DAV:   3    -0.995313972241E+02    0.10401E-02   -0.88301E-03   152   0.279E-01    0.737E-02
DAV:   4    -0.995312893650E+02    0.10786E-03   -0.11038E-03   154   0.947E-02    0.327E-02
DAV:   5    -0.995312925246E+02   -0.31596E-05   -0.86271E-05    88   0.312E-02
   3 F= -.99531293E+02 E0= -.99517367E+02  d E =-.621456E-01
       N       E                     dE             d eps       ncg     rms          rms(c)
DAV:   1    -0.995601142824E+02   -0.28825E-01   -0.32022E-01   132   0.162E+00    0.271E-01
DAV:   2    -0.995557578587E+02    0.43564E-02   -0.41956E-02   144   0.511E-01    0.856E-02
DAV:   3    -0.995553587863E+02    0.39907E-03   -0.29626E-03   152   0.161E-01    0.420E-02
DAV:   4    -0.995553262970E+02    0.32489E-04   -0.40152E-04   144   0.546E-02
   4 F= -.99555326E+02 E0= -.99542997E+02  d E =-.240338E-01
       N       E                     dE             d eps       ncg     rms          rms(c)
DAV:   1    -0.996299838417E+02   -0.74625E-01   -0.20460E+00   124   0.413E+00    0.699E-01
DAV:   2    -0.995992072672E+02    0.30777E-01   -0.25328E-01   124   0.135E+00    0.212E-01
DAV:   3    -0.995971213807E+02    0.20859E-02   -0.16612E-02   152   0.400E-01    0.106E-01
DAV:   4    -0.995968889066E+02    0.23247E-03   -0.25003E-03   146   0.133E-01    0.438E-02
DAV:   5    -0.995968997946E+02   -0.10888E-04   -0.15523E-04   120   0.409E-02
   5 F= -.99596900E+02 E0= -.99589791E+02  d E =-.415735E-01
       N       E                     dE             d eps       ncg     rms          rms(c)
DAV:   1    -0.996072304358E+02   -0.10342E-01   -0.12637E-01   136   0.102E+00    0.188E-01
DAV:   2    -0.996049468594E+02    0.22836E-02   -0.17787E-02   152   0.345E-01    0.496E-02
DAV:   3    -0.996048359465E+02    0.11091E-03   -0.96778E-04   144   0.102E-01    0.262E-02
DAV:   4    -0.996048247777E+02    0.11169E-04   -0.10156E-04   104   0.315E-02
   6 F= -.99604825E+02 E0= -.99599641E+02  d E =-.792498E-02
       N       E                     dE             d eps       ncg     rms          rms(c)
DAV:   1    -0.996265209465E+02   -0.21685E-01   -0.52697E-01   136   0.207E+00    0.360E-01
DAV:   2    -0.996176364020E+02    0.88845E-02   -0.68634E-02   152   0.685E-01    0.939E-02
DAV:   3    -0.996172696960E+02    0.36671E-03   -0.35778E-03   144   0.195E-01    0.492E-02
DAV:   4    -0.996172249206E+02    0.44775E-04   -0.42176E-04   152   0.614E-02
   7 F= -.99617225E+02 E0= -.99616293E+02  d E =-.124001E-01
       N       E                     dE             d eps       ncg     rms          rms(c)
DAV:   1    -0.996230781298E+02   -0.58084E-02   -0.94017E-02   136   0.847E-01    0.153E-01
DAV:   2    -0.996215821641E+02    0.14960E-02   -0.12718E-02   146   0.284E-01    0.398E-02
DAV:   3    -0.996215407588E+02    0.41405E-04   -0.53966E-04   144   0.767E-02
   8 F= -.99621541E+02 E0= -.99622161E+02  d E =-.431584E-02
       N       E                     dE             d eps       ncg     rms          rms(c)
DAV:   1    -0.996294131296E+02   -0.78310E-02   -0.16518E-01   124   0.111E+00    0.198E-01
DAV:   2    -0.996268743569E+02    0.25388E-02   -0.21693E-02   152   0.371E-01    0.513E-02
DAV:   3    -0.996268207938E+02    0.53563E-04   -0.84597E-04   144   0.961E-02
   9 F= -.99626821E+02 E0= -.99629218E+02  d E =-.528003E-02
       N       E                     dE             d eps       ncg     rms          rms(c)
DAV:   1    -0.996326635168E+02   -0.57892E-02   -0.11817E-01   136   0.930E-01    0.167E-01
DAV:   2    -0.996308856422E+02    0.17779E-02   -0.15264E-02   152   0.312E-01    0.453E-02
DAV:   3    -0.996308611387E+02    0.24503E-04   -0.57554E-04   144   0.786E-02
  10 F= -.99630861E+02 E0= -.99634546E+02  d E =-.404034E-02
       N       E                     dE             d eps       ncg     rms          rms(c)
DAV:   1    -0.996381287981E+02   -0.72432E-02   -0.19198E-01   144   0.119E+00    0.208E-01
DAV:   2    -0.996352357118E+02    0.28931E-02   -0.24870E-02   146   0.390E-01    0.562E-02
DAV:   3    -0.996351693671E+02    0.66345E-04   -0.10225E-03   160   0.107E-01    0.323E-02
DAV:   4    -0.996351569595E+02    0.12408E-04   -0.11030E-04    98   0.326E-02
  11 F= -.99635157E+02 E0= -.99640420E+02  d E =-.429582E-02
       N       E                     dE             d eps       ncg     rms          rms(c)
DAV:   1    -0.996390956918E+02   -0.39263E-02   -0.97714E-02   144   0.854E-01    0.144E-01
DAV:   2    -0.996376581250E+02    0.14376E-02   -0.12486E-02   146   0.278E-01    0.372E-02
DAV:   3    -0.996376308620E+02    0.27263E-04   -0.49746E-04   144   0.756E-02
  12 F= -.99637631E+02 E0= -.99644000E+02  d E =-.247390E-02
       N       E                     dE             d eps       ncg     rms          rms(c)
DAV:   1    -0.996439305295E+02   -0.62724E-02   -0.25279E-01   132   0.139E+00    0.223E-01
DAV:   2    -0.996405317592E+02    0.33988E-02   -0.23351E-02   144   0.441E-01    0.635E-02
DAV:   3    -0.996404424326E+02    0.89327E-04   -0.13792E-03   154   0.123E-01    0.358E-02
DAV:   4    -0.996404296922E+02    0.12740E-04   -0.14070E-04    96   0.368E-02
  13 F= -.99640430E+02 E0= -.99648620E+02  d E =-.279883E-02
       N       E                     dE             d eps       ncg     rms          rms(c)
DAV:   1    -0.996409486407E+02   -0.50621E-03   -0.53240E-03   130   0.232E-01    0.345E-02
DAV:   2    -0.996408857238E+02    0.62917E-04   -0.49002E-04   152   0.688E-02
  14 F= -.99640886E+02 E0= -.99649353E+02  d E =-.456032E-03
