Disk quotas for user tam (uid 511): none
Processors received = 1
script running on host korczak.msae.wisc.edu
PBS_NODEFILE
korczak.local
 running on    1 nodes
 distr:  one band on    1 nodes,    1 groups
 vasp.5.2.2 15Apr09 complex 
 POSCAR found type information on POSCAR  Al
 POSCAR found :  1 types and   31 ions

 ----------------------------------------------------------------------------- 
|                                                                             |
|  ADVICE TO THIS USER RUNNING 'VASP/VAMP'   (HEAR YOUR MASTER'S VOICE ...):  |
|                                                                             |
|      You have a (more or less) 'large supercell' and for larger cells       |
|      it might be more efficient to use real space projection operators      |
|      So try LREAL= Auto  in the INCAR   file.                               |
|      Mind: If you want to do a very accurate calculations keep the          |
|      reciprocal projection scheme          (i.e. LREAL=.FALSE.)             |
|                                                                             |
 ----------------------------------------------------------------------------- 

 LDA part: xc-table for Pade appr. of Perdew
 POSCAR, INCAR and KPOINTS ok, starting setup
 FFT: planning ...(           4 )
 reading WAVECAR
 entering main loop
       N       E                     dE             d eps       ncg     rms          rms(c)
RMM:   1     0.308382130206E+03    0.30838E+03   -0.17125E+04    62   0.649E+02
RMM:   2    -0.107079026520E+02   -0.31909E+03   -0.31572E+03    62   0.139E+02
RMM:   3    -0.853167728440E+02   -0.74609E+02   -0.77369E+02    62   0.475E+01
RMM:   4    -0.103303207099E+03   -0.17986E+02   -0.18255E+02    62   0.277E+01
RMM:   5    -0.110415630251E+03   -0.71124E+01   -0.58898E+01    62   0.154E+01
RMM:   6    -0.112940246935E+03   -0.25246E+01   -0.21644E+01    62   0.880E+00
RMM:   7    -0.114053575108E+03   -0.11133E+01   -0.95545E+00    62   0.548E+00
RMM:   8    -0.114623813848E+03   -0.57024E+00   -0.48652E+00    62   0.352E+00
RMM:   9    -0.115218177018E+03   -0.59436E+00   -0.54493E+00   147   0.238E+00
RMM:  10    -0.115319413163E+03   -0.10124E+00   -0.50856E-01   145   0.561E-01
RMM:  11    -0.115328552974E+03   -0.91398E-02   -0.30585E-02   116   0.119E-01
RMM:  12    -0.115329445189E+03   -0.89221E-03   -0.34980E-03    96   0.409E-02    0.557E+00
RMM:  13    -0.114457641090E+03    0.87180E+00   -0.15293E+00   127   0.178E+00    0.332E+00
RMM:  14    -0.114207783908E+03    0.24986E+00   -0.38153E-01   132   0.109E+00    0.134E+00
RMM:  15    -0.114155957552E+03    0.51826E-01   -0.62582E-02   127   0.570E-01    0.154E-01
RMM:  16    -0.114154766862E+03    0.11907E-02   -0.83073E-03   130   0.160E-01    0.567E-02
RMM:  17    -0.114154634149E+03    0.13271E-03   -0.13650E-03   121   0.684E-02    0.186E-02
RMM:  18    -0.114154642253E+03   -0.81041E-05   -0.77739E-05    76   0.259E-02
   1 F= -.11415464E+03 E0= -.11414373E+03  d E =-.114155E+03
 curvature:   0.00 expect dE= 0.000E+00 dE for cont linesearch  0.000E+00
 trial: gam= 0.00000 g(F)=  0.247E+00 g(S)=  0.000E+00 ort = 0.000E+00 (trialstep = 0.100E+01)
 search vector abs. value=  0.247E+00
 bond charge predicted
       N       E                     dE             d eps       ncg     rms          rms(c)
RMM:   1    -0.114371105901E+03   -0.21647E+00   -0.18485E+00   124   0.378E+00    0.247E-01
RMM:   2    -0.114366718130E+03    0.43878E-02   -0.27509E-02   131   0.480E-01    0.128E-01
RMM:   3    -0.114365735919E+03    0.98221E-03   -0.10083E-02   125   0.195E-01    0.425E-02
RMM:   4    -0.114365587354E+03    0.14856E-03   -0.99531E-04   120   0.607E-02    0.287E-02
RMM:   5    -0.114365582137E+03    0.52171E-05   -0.92754E-05    75   0.233E-02
   2 F= -.11436558E+03 E0= -.11435064E+03  d E =-.210940E+00
 trial-energy change:   -0.210940  1 .order   -0.210629   -0.246593   -0.174666
 step:   3.4284(harm=  3.4284)  dis= 0.07204  next Energy=  -114.577351 (dE=-0.423E+00)
 bond charge predicted
       N       E                     dE             d eps       ncg     rms          rms(c)
RMM:   1    -0.114600623496E+03   -0.23504E+00   -0.11115E+01   124   0.918E+00    0.588E-01
RMM:   2    -0.114576094360E+03    0.24529E-01   -0.15960E-01   130   0.115E+00    0.322E-01
RMM:   3    -0.114570844388E+03    0.52500E-02   -0.69524E-02   125   0.492E-01    0.116E-01
RMM:   4    -0.114569196405E+03    0.16480E-02   -0.42089E-03   125   0.134E-01    0.712E-02
RMM:   5    -0.114569288476E+03   -0.92070E-04   -0.12045E-03   122   0.594E-02    0.261E-02
RMM:   6    -0.114569273802E+03    0.14674E-04   -0.49450E-04   106   0.386E-02
   3 F= -.11456927E+03 E0= -.11455227E+03  d E =-.414632E+00
 curvature:  -1.71 expect dE=-0.390E-01 dE for cont linesearch -0.648E-03
 trial: gam= 0.13141 g(F)=  0.227E-01 g(S)=  0.000E+00 ort =-0.966E-02 (trialstep = 0.149E+01)
 search vector abs. value=  0.245E-01
 bond charge predicted
       N       E                     dE             d eps       ncg     rms          rms(c)
RMM:   1    -0.114594669183E+03   -0.25381E-01   -0.33748E-01   124   0.172E+00    0.101E-01
RMM:   2    -0.114593693892E+03    0.97529E-03   -0.60475E-03   128   0.212E-01    0.442E-02
RMM:   3    -0.114593632998E+03    0.60894E-04   -0.94010E-04   108   0.639E-02
   4 F= -.11459363E+03 E0= -.11457706E+03  d E =-.243592E-01
 trial-energy change:   -0.024359  1 .order   -0.024227   -0.031908   -0.016546
 step:   3.0859(harm=  3.0859)  dis= 0.01743  next Energy=  -114.602412 (dE=-0.331E-01)
 bond charge predicted
       N       E                     dE             d eps       ncg     rms          rms(c)
RMM:   1    -0.114604827196E+03   -0.11133E-01   -0.39717E-01   124   0.185E+00    0.123E-01
RMM:   2    -0.114603262250E+03    0.15649E-02   -0.76862E-03   128   0.235E-01    0.525E-02
RMM:   3    -0.114603204545E+03    0.57705E-04   -0.10470E-03   110   0.688E-02    0.239E-02
RMM:   4    -0.114603228911E+03   -0.24366E-04   -0.30231E-04    93   0.314E-02
   5 F= -.11460323E+03 E0= -.11458646E+03  d E =-.339551E-01
 curvature:  -1.76 expect dE=-0.212E-02 dE for cont linesearch -0.527E-04
 trial: gam=-0.07412 g(F)=  0.120E-02 g(S)=  0.000E+00 ort = 0.857E-03 (trialstep = 0.181E+01)
 search vector abs. value=  0.121E-02
 reached required accuracy - stopping structural energy minimisation
