  31  31   0   0
  0.1706119E+02  0.8087054E-09  0.8087054E-09  0.8087054E-09  0.5000000E-15
  1.000000000000000E-004
  CAR 
 unknown system                          
     12.01850137     -4.93369018  301      7.87772801      1.00000000
     -4.934  0.0000E+00  0.0000E+00
     -4.877  0.0000E+00  0.0000E+00
     -4.821  0.0000E+00  0.0000E+00
     -4.764  0.0000E+00  0.0000E+00
     -4.708  0.0000E+00  0.0000E+00
     -4.651  0.0000E+00  0.0000E+00
     -4.595  0.0000E+00  0.0000E+00
     -4.538 -0.4709E-28 -0.2661E-29
     -4.482 -0.3856E-26 -0.2206E-27
     -4.425 -0.2715E-24 -0.1556E-25
     -4.369 -0.1627E-22 -0.9348E-24
     -4.312 -0.8291E-21 -0.4779E-22
     -4.256 -0.3595E-19 -0.2079E-20
     -4.199 -0.1325E-17 -0.7696E-19
     -4.143 -0.4153E-16 -0.2423E-17
     -4.086 -0.1075E-14 -0.6317E-16
     -4.030 -0.2420E-13 -0.1430E-14
     -3.973 -0.4630E-12 -0.2759E-13
     -3.917 -0.7514E-11 -0.4522E-12
     -3.860 -0.1033E-09 -0.6290E-11
     -3.804 -0.1202E-08 -0.7424E-10
     -3.747 -0.1183E-07 -0.7427E-09
     -3.691 -0.9821E-07 -0.6292E-08
     -3.634 -0.6864E-06 -0.4508E-07
     -3.578 -0.4027E-05 -0.2726E-06
     -3.521 -0.1974E-04 -0.1388E-05
     -3.465 -0.8034E-04 -0.5928E-05
     -3.408 -0.2688E-03 -0.2111E-04
     -3.351 -0.7260E-03 -0.6214E-04
     -3.295 -0.1529E-02 -0.1485E-03
     -3.238 -0.2296E-02 -0.2783E-03
     -3.182 -0.1639E-02 -0.3709E-03
     -3.125  0.2799E-02 -0.2127E-03
     -3.069  0.1278E-01  0.5097E-03
     -3.012  0.2687E-01  0.2028E-02
     -2.956  0.3944E-01  0.4257E-02
     -2.899  0.4376E-01  0.6729E-02
     -2.843  0.3726E-01  0.8835E-02
     -2.786  0.2376E-01  0.1018E-01
     -2.730  0.1020E-01  0.1075E-01
     -2.673  0.1420E-02  0.1083E-01
     -2.617 -0.2008E-02  0.1072E-01
     -2.560 -0.2188E-02  0.1060E-01
     -2.504 -0.1344E-02  0.1052E-01
     -2.447 -0.6374E-03  0.1048E-01
     -2.391 -0.3683E-03  0.1046E-01
     -2.334 -0.5891E-03  0.1043E-01
     -2.278 -0.1457E-02  0.1035E-01
     -2.221 -0.3094E-02  0.1017E-01
     -2.165 -0.4820E-02  0.9901E-02
     -2.108 -0.4039E-02  0.9673E-02
     -2.052  0.3848E-02  0.9891E-02
     -1.995  0.2277E-01  0.1118E-01
     -1.939  0.5132E-01  0.1408E-01
     -1.882  0.8070E-01  0.1864E-01
     -1.826  0.9929E-01  0.2425E-01
     -1.769  0.1006E+00  0.2993E-01
     -1.713  0.8676E-01  0.3484E-01
     -1.656  0.6471E-01  0.3849E-01
     -1.600  0.4126E-01  0.4082E-01
     -1.543  0.2104E-01  0.4201E-01
     -1.487  0.6801E-02  0.4240E-01
     -1.430 -0.7761E-03  0.4235E-01
     -1.374 -0.3114E-02  0.4218E-01
     -1.317 -0.2726E-02  0.4202E-01
     -1.261 -0.1758E-02  0.4193E-01
     -1.204 -0.1379E-02  0.4185E-01
     -1.148 -0.2032E-02  0.4173E-01
     -1.091 -0.3596E-02  0.4153E-01
     -1.035 -0.4777E-02  0.4126E-01
     -0.978 -0.2218E-02  0.4113E-01
     -0.922  0.8820E-02  0.4163E-01
     -0.865  0.3067E-01  0.4337E-01
     -0.809  0.5857E-01  0.4667E-01
     -0.752  0.8110E-01  0.5126E-01
     -0.696  0.8820E-01  0.5624E-01
     -0.639  0.7992E-01  0.6076E-01
     -0.583  0.6543E-01  0.6445E-01
     -0.526  0.5323E-01  0.6746E-01
     -0.470  0.4408E-01  0.6995E-01
     -0.413  0.3402E-01  0.7188E-01
     -0.357  0.2151E-01  0.7309E-01
     -0.300  0.9380E-02  0.7362E-01
     -0.244  0.1194E-02  0.7369E-01
     -0.187 -0.2255E-02  0.7356E-01
     -0.131 -0.2773E-02  0.7340E-01
     -0.074 -0.2743E-02  0.7325E-01
     -0.018 -0.3696E-02  0.7304E-01
      0.039 -0.5672E-02  0.7272E-01
      0.095 -0.6394E-02  0.7236E-01
      0.152 -0.6400E-03  0.7232E-01
      0.208  0.1789E-01  0.7333E-01
      0.265  0.5099E-01  0.7621E-01
      0.321  0.9061E-01  0.8134E-01
      0.378  0.1209E+00  0.8817E-01
      0.435  0.1290E+00  0.9546E-01
      0.491  0.1150E+00  0.1020E+00
      0.548  0.8994E-01  0.1070E+00
      0.604  0.6505E-01  0.1107E+00
      0.661  0.4441E-01  0.1132E+00
      0.717  0.2717E-01  0.1148E+00
      0.774  0.1292E-01  0.1155E+00
      0.830  0.2969E-02  0.1157E+00
      0.887 -0.2015E-02  0.1155E+00
      0.943 -0.3416E-02  0.1154E+00
      1.000 -0.3738E-02  0.1151E+00
      1.056 -0.4996E-02  0.1149E+00
      1.113 -0.7477E-02  0.1144E+00
      1.169 -0.8470E-02  0.1140E+00
      1.226 -0.1488E-02  0.1139E+00
      1.282  0.2162E-01  0.1151E+00
      1.339  0.6433E-01  0.1187E+00
      1.395  0.1187E+00  0.1254E+00
      1.452  0.1658E+00  0.1348E+00
      1.508  0.1856E+00  0.1453E+00
      1.565  0.1697E+00  0.1549E+00
      1.621  0.1264E+00  0.1620E+00
      1.678  0.7559E-01  0.1663E+00
      1.734  0.3733E-01  0.1684E+00
      1.791  0.2176E-01  0.1696E+00
      1.847  0.2518E-01  0.1711E+00
      1.904  0.3475E-01  0.1730E+00
      1.960  0.3814E-01  0.1752E+00
      2.017  0.3122E-01  0.1769E+00
      2.073  0.1832E-01  0.1780E+00
      2.130  0.6295E-02  0.1783E+00
      2.186 -0.1129E-02  0.1783E+00
      2.243 -0.4572E-02  0.1780E+00
      2.299 -0.6269E-02  0.1777E+00
      2.356 -0.6666E-02  0.1773E+00
      2.412 -0.2668E-02  0.1771E+00
      2.469  0.1112E-01  0.1778E+00
      2.525  0.3781E-01  0.1799E+00
      2.582  0.7288E-01  0.1840E+00
      2.638  0.1037E+00  0.1899E+00
      2.695  0.1163E+00  0.1964E+00
      2.751  0.1051E+00  0.2024E+00
      2.808  0.7639E-01  0.2067E+00
      2.864  0.4311E-01  0.2091E+00
      2.921  0.1657E-01  0.2101E+00
      2.977  0.1368E-02  0.2102E+00
      3.034 -0.4191E-02  0.2099E+00
      3.090 -0.4540E-02  0.2097E+00
      3.147 -0.3669E-02  0.2094E+00
      3.203 -0.3915E-02  0.2092E+00
      3.260 -0.5946E-02  0.2089E+00
      3.316 -0.8397E-02  0.2084E+00
      3.373 -0.6722E-02  0.2080E+00
      3.429  0.6930E-02  0.2084E+00
      3.486  0.4004E-01  0.2107E+00
      3.542  0.9230E-01  0.2159E+00
      3.599  0.1499E+00  0.2244E+00
      3.655  0.1891E+00  0.2351E+00
      3.712  0.1911E+00  0.2459E+00
      3.768  0.1559E+00  0.2547E+00
      3.825  0.1041E+00  0.2605E+00
      3.881  0.6132E-01  0.2640E+00
      3.938  0.4022E-01  0.2663E+00
      3.994  0.3521E-01  0.2683E+00
      4.051  0.3294E-01  0.2701E+00
      4.107  0.2528E-01  0.2716E+00
      4.164  0.1323E-01  0.2723E+00
      4.220  0.1550E-02  0.2724E+00
      4.277 -0.6963E-02  0.2720E+00
      4.334 -0.1168E-01  0.2713E+00
      4.390 -0.1004E-01  0.2708E+00
      4.447  0.4937E-02  0.2711E+00
      4.503  0.4070E-01  0.2734E+00
      4.560  0.9596E-01  0.2788E+00
      4.616  0.1551E+00  0.2875E+00
      4.673  0.1957E+00  0.2986E+00
      4.729  0.2056E+00  0.3102E+00
      4.786  0.1921E+00  0.3211E+00
      4.842  0.1720E+00  0.3308E+00
      4.899  0.1536E+00  0.3395E+00
      4.955  0.1327E+00  0.3470E+00
      5.012  0.1051E+00  0.3529E+00
      5.068  0.7601E-01  0.3572E+00
      5.125  0.5446E-01  0.3603E+00
      5.181  0.4246E-01  0.3627E+00
      5.238  0.3407E-01  0.3646E+00
      5.294  0.2359E-01  0.3659E+00
      5.351  0.1106E-01  0.3666E+00
      5.407  0.9729E-04  0.3666E+00
      5.464 -0.6116E-02  0.3662E+00
      5.520 -0.5325E-02  0.3659E+00
      5.577  0.5215E-02  0.3662E+00
      5.633  0.2712E-01  0.3678E+00
      5.690  0.5610E-01  0.3709E+00
      5.746  0.8024E-01  0.3755E+00
      5.803  0.8644E-01  0.3803E+00
      5.859  0.7081E-01  0.3843E+00
      5.916  0.4241E-01  0.3867E+00
      5.972  0.1649E-01  0.3877E+00
      6.029  0.4284E-02  0.3879E+00
      6.085  0.8045E-02  0.3884E+00
      6.142  0.2205E-01  0.3896E+00
      6.198  0.3651E-01  0.3917E+00
      6.255  0.4247E-01  0.3941E+00
      6.311  0.3652E-01  0.3961E+00
      6.368  0.2209E-01  0.3974E+00
      6.424  0.6055E-02  0.3977E+00
      6.481 -0.5510E-02  0.3974E+00
      6.537 -0.8135E-02  0.3970E+00
      6.594  0.2601E-02  0.3971E+00
      6.650  0.2971E-01  0.3988E+00
      6.707  0.6977E-01  0.4027E+00
      6.763  0.1114E+00  0.4090E+00
      6.820  0.1432E+00  0.4171E+00
      6.876  0.1632E+00  0.4263E+00
      6.933  0.1768E+00  0.4363E+00
      6.989  0.1844E+00  0.4468E+00
      7.046  0.1759E+00  0.4567E+00
      7.102  0.1428E+00  0.4648E+00
      7.159  0.9159E-01  0.4699E+00
      7.215  0.4107E-01  0.4723E+00
      7.272  0.7047E-02  0.4727E+00
      7.328 -0.7473E-02  0.4722E+00
      7.385 -0.9518E-02  0.4717E+00
      7.441 -0.7710E-02  0.4713E+00
      7.498 -0.6977E-02  0.4709E+00
      7.554 -0.7566E-02  0.4704E+00
      7.611 -0.5562E-02  0.4701E+00
      7.667  0.5683E-02  0.4704E+00
      7.724  0.3120E-01  0.4722E+00
      7.780  0.6799E-01  0.4760E+00
      7.837  0.1035E+00  0.4819E+00
      7.893  0.1246E+00  0.4889E+00
      7.950  0.1314E+00  0.4964E+00
      8.006  0.1384E+00  0.5042E+00
      8.063  0.1591E+00  0.5132E+00
      8.119  0.1892E+00  0.5239E+00
      8.176  0.2083E+00  0.5356E+00
      8.233  0.1985E+00  0.5469E+00
      8.289  0.1594E+00  0.5559E+00
      8.346  0.1063E+00  0.5619E+00
      8.402  0.5688E-01  0.5651E+00
      8.459  0.2173E-01  0.5663E+00
      8.515  0.2360E-02  0.5664E+00
      8.572 -0.5052E-02  0.5662E+00
      8.628 -0.5886E-02  0.5658E+00
      8.685 -0.4665E-02  0.5656E+00
      8.741 -0.4181E-02  0.5653E+00
      8.798 -0.5409E-02  0.5650E+00
      8.854 -0.7142E-02  0.5646E+00
      8.911 -0.5127E-02  0.5643E+00
      8.967  0.7415E-02  0.5647E+00
      9.024  0.3525E-01  0.5667E+00
      9.080  0.7427E-01  0.5709E+00
      9.137  0.1103E+00  0.5772E+00
      9.193  0.1292E+00  0.5845E+00
      9.250  0.1304E+00  0.5918E+00
      9.306  0.1269E+00  0.5990E+00
      9.363  0.1291E+00  0.6063E+00
      9.419  0.1318E+00  0.6137E+00
      9.476  0.1205E+00  0.6206E+00
      9.532  0.8936E-01  0.6256E+00
      9.589  0.4845E-01  0.6283E+00
      9.645  0.1353E-01  0.6291E+00
      9.702 -0.6360E-02  0.6287E+00
      9.758 -0.1088E-01  0.6281E+00
      9.815 -0.2198E-02  0.6280E+00
      9.871  0.1854E-01  0.6291E+00
      9.928  0.4772E-01  0.6318E+00
      9.984  0.7515E-01  0.6360E+00
     10.041  0.8747E-01  0.6409E+00
     10.097  0.7790E-01  0.6453E+00
     10.154  0.5232E-01  0.6483E+00
     10.210  0.2436E-01  0.6497E+00
     10.267  0.4936E-02  0.6500E+00
     10.323 -0.3466E-02  0.6498E+00
     10.380 -0.4548E-02  0.6495E+00
     10.436 -0.2969E-02  0.6493E+00
     10.493 -0.1392E-02  0.6493E+00
     10.549 -0.5099E-03  0.6492E+00
     10.606 -0.1510E-03  0.6492E+00
     10.662 -0.3679E-04  0.6492E+00
     10.719 -0.7444E-05  0.6492E+00
     10.775 -0.1259E-05  0.6492E+00
     10.832 -0.1788E-06  0.6492E+00
     10.888 -0.2137E-07  0.6492E+00
     10.945 -0.2157E-08  0.6492E+00
     11.001 -0.1840E-09  0.6492E+00
     11.058 -0.1329E-10  0.6492E+00
     11.114 -0.8131E-12  0.6492E+00
     11.171 -0.4222E-13  0.6492E+00
     11.227 -0.1852E-14  0.6492E+00
     11.284 -0.8229E-16  0.6492E+00
     11.340  0.0000E+00  0.6492E+00
     11.397  0.0000E+00  0.6492E+00
     11.453  0.0000E+00  0.6492E+00
     11.510  0.0000E+00  0.6492E+00
     11.566  0.0000E+00  0.6492E+00
     11.623  0.0000E+00  0.6492E+00
     11.679  0.0000E+00  0.6492E+00
     11.736  0.0000E+00  0.6492E+00
     11.792  0.0000E+00  0.6492E+00
     11.849  0.0000E+00  0.6492E+00
     11.905  0.0000E+00  0.6492E+00
     11.962  0.0000E+00  0.6492E+00
     12.019  0.0000E+00  0.6492E+00
