   31   31  191    1
  0.1706119E+02  0.8087054E-09  0.8087054E-09  0.8087054E-09  0.5000000E-15
  1.000000000000000E-004
  CAR 
 unknown system                          
   93    1   62
 
  0.2500000E+00  0.2500000E+00  0.2500000E+00  0.1000000E+01
   1       -2.933690
   2       -1.858853
   3       -1.858853
   4       -1.685756
   5       -0.743891
   6       -0.743891
   7       -0.497089
   8        0.359749
   9        0.359749
  10        0.426747
  11        0.605592
  12        1.428027
  13        1.428027
  14        1.456181
  15        1.563552
  16        1.563552
  17        1.908478
  18        2.633909
  19        2.633909
  20        2.751412
  21        3.594891
  22        3.594891
  23        3.696655
  24        3.697625
  25        3.697625
  26        3.989893
  27        4.622092
  28        4.622092
  29        4.653389
  30        4.717394
  31        4.717395
  32        4.910342
  33        4.910342
  34        4.915850
  35        5.173938
  36        5.762975
  37        5.762975
  38        6.222675
  39        6.776537
  40        6.793436
  41        6.793436
  42        6.970657
  43        7.023530
  44        7.031488
  45        7.031488
  46        7.834792
  47        7.881181
  48        7.881181
  49        8.096412
  50        8.096412
  51        8.154428
  52        8.195704
  53        8.195704
  54        8.319261
  55        9.149197
  56        9.149199
  57        9.180505
  58        9.409592
  59        9.409622
  60        9.435775
  61       10.013011
  62       10.018501
