       N       E                     dE             d eps       ncg     rms          rms(c)
RMM:   1     0.308382130206E+03    0.30838E+03   -0.17125E+04    62   0.649E+02
RMM:   2    -0.107079026520E+02   -0.31909E+03   -0.31572E+03    62   0.139E+02
RMM:   3    -0.853167728440E+02   -0.74609E+02   -0.77369E+02    62   0.475E+01
RMM:   4    -0.103303207099E+03   -0.17986E+02   -0.18255E+02    62   0.277E+01
RMM:   5    -0.110415630251E+03   -0.71124E+01   -0.58898E+01    62   0.154E+01
RMM:   6    -0.112940246935E+03   -0.25246E+01   -0.21644E+01    62   0.880E+00
RMM:   7    -0.114053575108E+03   -0.11133E+01   -0.95545E+00    62   0.548E+00
RMM:   8    -0.114623813848E+03   -0.57024E+00   -0.48652E+00    62   0.352E+00
RMM:   9    -0.115218177018E+03   -0.59436E+00   -0.54493E+00   147   0.238E+00
RMM:  10    -0.115319413163E+03   -0.10124E+00   -0.50856E-01   145   0.561E-01
RMM:  11    -0.115328552974E+03   -0.91398E-02   -0.30585E-02   116   0.119E-01
RMM:  12    -0.115329445189E+03   -0.89221E-03   -0.34980E-03    96   0.409E-02    0.557E+00
RMM:  13    -0.114457641090E+03    0.87180E+00   -0.15293E+00   127   0.178E+00    0.332E+00
RMM:  14    -0.114207783908E+03    0.24986E+00   -0.38153E-01   132   0.109E+00    0.134E+00
RMM:  15    -0.114155957552E+03    0.51826E-01   -0.62582E-02   127   0.570E-01    0.154E-01
RMM:  16    -0.114154766862E+03    0.11907E-02   -0.83073E-03   130   0.160E-01    0.567E-02
RMM:  17    -0.114154634149E+03    0.13271E-03   -0.13650E-03   121   0.684E-02    0.186E-02
RMM:  18    -0.114154642253E+03   -0.81041E-05   -0.77739E-05    76   0.259E-02
   1 F= -.11415464E+03 E0= -.11414373E+03  d E =-.114155E+03
       N       E                     dE             d eps       ncg     rms          rms(c)
RMM:   1    -0.114371105901E+03   -0.21647E+00   -0.18485E+00   124   0.378E+00    0.247E-01
RMM:   2    -0.114366718130E+03    0.43878E-02   -0.27509E-02   131   0.480E-01    0.128E-01
RMM:   3    -0.114365735919E+03    0.98221E-03   -0.10083E-02   125   0.195E-01    0.425E-02
RMM:   4    -0.114365587354E+03    0.14856E-03   -0.99531E-04   120   0.607E-02    0.287E-02
RMM:   5    -0.114365582137E+03    0.52171E-05   -0.92754E-05    75   0.233E-02
   2 F= -.11436558E+03 E0= -.11435064E+03  d E =-.210940E+00
       N       E                     dE             d eps       ncg     rms          rms(c)
RMM:   1    -0.114600623496E+03   -0.23504E+00   -0.11115E+01   124   0.918E+00    0.588E-01
RMM:   2    -0.114576094360E+03    0.24529E-01   -0.15960E-01   130   0.115E+00    0.322E-01
RMM:   3    -0.114570844388E+03    0.52500E-02   -0.69524E-02   125   0.492E-01    0.116E-01
RMM:   4    -0.114569196405E+03    0.16480E-02   -0.42089E-03   125   0.134E-01    0.712E-02
RMM:   5    -0.114569288476E+03   -0.92070E-04   -0.12045E-03   122   0.594E-02    0.261E-02
RMM:   6    -0.114569273802E+03    0.14674E-04   -0.49450E-04   106   0.386E-02
   3 F= -.11456927E+03 E0= -.11455227E+03  d E =-.414632E+00
       N       E                     dE             d eps       ncg     rms          rms(c)
RMM:   1    -0.114594669183E+03   -0.25381E-01   -0.33748E-01   124   0.172E+00    0.101E-01
RMM:   2    -0.114593693892E+03    0.97529E-03   -0.60475E-03   128   0.212E-01    0.442E-02
RMM:   3    -0.114593632998E+03    0.60894E-04   -0.94010E-04   108   0.639E-02
   4 F= -.11459363E+03 E0= -.11457706E+03  d E =-.243592E-01
       N       E                     dE             d eps       ncg     rms          rms(c)
RMM:   1    -0.114604827196E+03   -0.11133E-01   -0.39717E-01   124   0.185E+00    0.123E-01
RMM:   2    -0.114603262250E+03    0.15649E-02   -0.76862E-03   128   0.235E-01    0.525E-02
RMM:   3    -0.114603204545E+03    0.57705E-04   -0.10470E-03   110   0.688E-02    0.239E-02
RMM:   4    -0.114603228911E+03   -0.24366E-04   -0.30231E-04    93   0.314E-02
   5 F= -.11460323E+03 E0= -.11458646E+03  d E =-.339551E-01
