<?xml version="1.0" encoding="ISO-8859-1"?>
<modeling>
 <generator>
  <i name="program" type="string">vasp </i>
  <i name="version" type="string">5.2.2  </i>
  <i name="subversion" type="string">15Apr09 complex  parallel </i>
  <i name="platform" type="string">LinuxIFC </i>
  <i name="date" type="string">2014 04 24 </i>
  <i name="time" type="string">09:59:30 </i>
 </generator>
 <incar>
  <i type="string" name="PREC">accurate</i>
  <i type="int" name="IALGO">    48</i>
  <i type="int" name="IBRION">     2</i>
  <i name="EDIFFG">      0.05000000</i>
  <i type="int" name="NSW">   191</i>
  <i type="int" name="ISIF">     2</i>
  <i name="ENCUT">    300.00000000</i>
  <i name="NELECT">     93.00000000</i>
  <i type="int" name="ISMEAR">     1</i>
  <i name="SIGMA">      0.20000000</i>
  <i type="logical" name="LWAVE"> F  </i>
  <i type="logical" name="LCHARG"> F  </i>
  <i type="logical" name="LPEAD"> F  </i>
  <i type="logical" name="LCALCPOL"> F  </i>
  <i type="logical" name="LCALCEPS"> F  </i>
  <v name="EFIELD_PEAD">      0.00000000      0.00000000      0.00000000</v>
  <i type="logical" name="LEFG"> F  </i>
 </incar>
 <kpoints>
  <generation param="Monkhorst-Pack">
   <v type="int" name="divisions">       2        2        2 </v>
   <v name="usershift">      0.00000000       0.00000000       0.00000000 </v>
   <v name="genvec1">      0.50000000       0.00000000       0.00000000 </v>
   <v name="genvec2">      0.00000000       0.50000000       0.00000000 </v>
   <v name="genvec3">      0.00000000       0.00000000       0.50000000 </v>
   <v name="shift">      0.50000000       0.50000000       0.50000000 </v>
  </generation>
  <varray name="kpointlist" >
   <v>       0.25000000       0.25000000       0.25000000 </v>
  </varray>
  <varray name="weights" >
   <v>       1.00000000 </v>
  </varray>
 </kpoints>
 <parameters>
  <separator name="general" >
   <i type="string" name="SYSTEM">unknown system</i>
   <i type="logical" name="LCOMPAT"> F  </i>
  </separator>
  <separator name="electronic" >
   <i type="string" name="PREC">accura</i>
   <i name="ENMAX">    300.00000000</i>
   <i name="ENAUG">    291.05200000</i>
   <i name="EDIFF">      0.00010000</i>
   <i type="int" name="IALGO">    48</i>
   <i type="int" name="IWAVPR">    11</i>
   <i type="int" name="NBANDS">    62</i>
   <i name="NELECT">     93.00000000</i>
   <separator name="electronic smearing" >
    <i type="int" name="ISMEAR">     1</i>
    <i name="SIGMA">      0.20000000</i>
   </separator>
   <separator name="electronic projectors" >
    <i type="logical" name="LREAL"> F  </i>
    <v name="ROPT">      0.00000000</v>
    <i type="int" name="LMAXPAW">  -100</i>
    <i type="int" name="LMAXMIX">     2</i>
   </separator>
   <separator name="electronic startup" >
    <i type="int" name="ISTART">     0</i>
    <i type="int" name="ICHARG">     2</i>
    <i type="int" name="INIWAV">     1</i>
   </separator>
   <separator name="electronic spin" >
    <i type="int" name="ISPIN">     1</i>
    <i type="logical" name="LNONCOLLINEAR"> F  </i>
    <v name="MAGMOM">      1.00000000      1.00000000      1.00000000      1.00000000      1.00000000      1.00000000      1.00000000      1.00000000      1.00000000      1.00000000      1.00000000      1.00000000      1.00000000      1.00000000      1.00000000      1.00000000      1.00000000      1.00000000      1.00000000      1.00000000
      1.00000000      1.00000000      1.00000000      1.00000000      1.00000000      1.00000000      1.00000000      1.00000000      1.00000000      1.00000000      1.00000000</v>
    <i name="NUPDOWN">     -1.00000000</i>
    <i type="logical" name="LSORBIT"> F  </i>
    <v name="SAXIS">      0.00000000      0.00000000      1.00000000</v>
    <i type="logical" name="LSPIRAL"> F  </i>
    <v name="QSPIRAL">      0.00000000      0.00000000      0.00000000</v>
    <i type="logical" name="LZEROZ"> F  </i>
   </separator>
   <separator name="electronic exchange-correlation" >
    <i type="logical" name="LASPH"> F  </i>
    <i type="logical" name="LMETAGGA"> F  </i>
   </separator>
   <separator name="electronic convergence" >
    <i type="int" name="NELM">    60</i>
    <i type="int" name="NELMDL">   -12</i>
    <i type="int" name="NELMIN">     2</i>
    <i name="ENINI">    300.00000000</i>
    <separator name="electronic convergence detail" >
     <i type="logical" name="LDIAG"> T  </i>
     <i name="WEIMIN">      0.00100000</i>
     <i name="EBREAK">      0.00000040</i>
     <i name="DEPER">      0.30000000</i>
     <i type="int" name="NRMM">     4</i>
     <i name="TIME">      0.40000000</i>
    </separator>
   </separator>
   <separator name="electronic mixer" >
    <i name="AMIX">      0.40000000</i>
    <i name="BMIX">      1.00000000</i>
    <i name="AMIN">      0.10000000</i>
    <i name="AMIX_MAG">      1.60000000</i>
    <i name="BMIX_MAG">      1.00000000</i>
    <separator name="electronic mixer details" >
     <i type="int" name="IMIX">     4</i>
     <i type="int" name="MAXMIX">   -45</i>
     <i name="WC">    100.00000000</i>
     <i type="int" name="INIMIX">     1</i>
     <i type="int" name="MIXPRE">     1</i>
     <i type="int" name="MREMOVE">     5</i>
    </separator>
   </separator>
   <separator name="electronic dipolcorrection" >
    <i type="logical" name="LDIPOL"> F  </i>
    <i type="logical" name="LMONO"> F  </i>
    <i type="int" name="IDIPOL">     0</i>
    <i name="EPSILON">      1.00000000</i>
    <v name="DIPOL">   -100.00000000   -100.00000000   -100.00000000</v>
    <i name="EFIELD">      0.00000000</i>
   </separator>
  </separator>
  <separator name="grids" >
   <i type="int" name="NGX">    48</i>
   <i type="int" name="NGY">    48</i>
   <i type="int" name="NGZ">    48</i>
   <i type="int" name="NGXF">    96</i>
   <i type="int" name="NGYF">    96</i>
   <i type="int" name="NGZF">    96</i>
   <i type="logical" name="ADDGRID"> F  </i>
  </separator>
  <separator name="ionic" >
   <i type="int" name="NSW">   191</i>
   <i type="int" name="IBRION">     2</i>
   <i type="int" name="ISIF">     2</i>
   <i name="PSTRESS">      0.00000000</i>
   <i name="EDIFFG">      0.05000000</i>
   <i type="int" name="NFREE">     1</i>
   <i name="POTIM">      0.50000000</i>
   <i name="SMASS">     -3.00000000</i>
  </separator>
  <separator name="ionic md" >
   <i name="TEBEG">      0.00010000</i>
   <i name="TEEND">      0.00010000</i>
   <i type="int" name="NBLOCK">     1</i>
   <i type="int" name="KBLOCK">   191</i>
   <i type="int" name="NPACO">   256</i>
   <i name="APACO">     16.00000000</i>
  </separator>
  <separator name="symmetry" >
   <i type="int" name="ISYM">     2</i>
   <i name="SYMPREC">      0.00001000</i>
  </separator>
  <separator name="dos" >
   <i type="logical" name="LORBIT"> F  </i>
   <v name="RWIGS">     -1.00000000</v>
   <i type="int" name="NEDOS">   301</i>
   <i name="EMIN">     10.00000000</i>
   <i name="EMAX">    -10.00000000</i>
   <i name="EFERMI">      0.00000000</i>
  </separator>
  <separator name="writing" >
   <i type="int" name="NWRITE">     2</i>
   <i type="logical" name="LWAVE"> F  </i>
   <i type="logical" name="LCHARG"> F  </i>
   <i type="logical" name="LPARD"> F  </i>
   <i type="logical" name="LVTOT"> F  </i>
   <i type="logical" name="LELF"> F  </i>
   <i type="logical" name="LOPTICS"> F  </i>
   <v name="STM">      0.00000000      0.00000000      0.00000000      0.00000000      0.00000000</v>
  </separator>
  <separator name="performance" >
   <i type="int" name="NPAR">     1</i>
   <i type="int" name="NSIM">     4</i>
   <i type="int" name="NBLK">    32</i>
   <i type="logical" name="LPLANE"> T  </i>
   <i type="logical" name="LSCALAPACK"> F  </i>
   <i type="logical" name="LSCAAWARE"> F  </i>
   <i type="logical" name="LSCALU"> F  </i>
   <i type="logical" name="LASYNC"> F  </i>
  </separator>
  <separator name="miscellaneous" >
   <i type="int" name="IDIOT">     3</i>
   <i type="logical" name="LMUSIC"> F  </i>
   <v name="POMASS">     26.98200000</v>
   <i type="logical" name="LCORR"> T  </i>
  </separator>
  <i type="logical" name="LREAL_COMPAT"> F  </i>
  <i type="logical" name="GGA_COMPAT"> T  </i>
  <i type="logical" name="LBERRY"> F  </i>
  <i type="int" name="ICORELEVEL">     0</i>
  <i type="logical" name="LDAU"> F  </i>
  <i type="int" name="I_CONSTRAINED_M">     0</i>
  <separator name="electronic exchange-correlation" >
   <i type="string" name="GGA">--</i>
   <i type="int" name="VOSKOWN">     0</i>
   <i type="logical" name="LHFCALC"> F  </i>
   <i type="logical" name="LHFONE"> F  </i>
   <i type="logical" name="LRHFCALC"> F  </i>
   <i type="logical" name="LTHOMAS"> F  </i>
   <i type="logical" name="LMODELHF"> F  </i>
   <i name="ENCUTFOCK">      0.00000000</i>
   <i name="ENCUT4O">     -1.00000000</i>
   <i type="int" name="EXXOEP">     0</i>
   <i type="int" name="FOURORBIT">     0</i>
   <i name="AEXX">      0.00000000</i>
   <i name="HFALPHA">      0.00000000</i>
   <i name="ALDAX">      1.00000000</i>
   <i name="AGGAX">      1.00000000</i>
   <i name="ALDAC">      1.00000000</i>
   <i name="AGGAC">      1.00000000</i>
   <i type="int" name="NKREDX">     1</i>
   <i type="int" name="NKREDY">     1</i>
   <i type="int" name="NKREDZ">     1</i>
   <i type="logical" name="SHIFTRED"> F  </i>
   <i type="logical" name="ODDONLY"> F  </i>
   <i type="logical" name="EVENONLY"> F  </i>
   <i type="int" name="LMAXFOCK">     0</i>
   <i type="int" name="NMAXFOCKAE">     0</i>
   <i name="HFSCREEN">      0.00000000</i>
   <i name="HFSCREENC">      0.00000000</i>
  </separator>
  <separator name="model GW" >
   <i type="int" name="MODEL_GW">     0</i>
   <i name="MODEL_EPS0">     10.23671437</i>
   <i name="MODEL_ALPHA">      1.00000000</i>
  </separator>
  <separator name="linear response parameters" >
   <i type="logical" name="LEPSILON"> F  </i>
   <i type="logical" name="LRPA"> F  </i>
   <i type="logical" name="LNABLA"> F  </i>
   <i type="logical" name="LVEL"> F  </i>
   <i type="int" name="KINTER">     0</i>
   <i name="CSHIFT">      0.10000000</i>
   <i name="OMEGAMAX">     -1.00000000</i>
  </separator>
  <separator name="orbital magnetization" >
   <i type="logical" name="ORBITALMAG"> F  </i>
   <i type="logical" name="LMAGBLOCH"> F  </i>
   <i type="logical" name="LCHIMAG"> F  </i>
   <i type="logical" name="LGAUGE"> T  </i>
   <i type="int" name="MAGATOM">     0</i>
   <v name="MAGDIPOL">      0.00000000      0.00000000      0.00000000</v>
   <v name="AVECCONST">      0.00000000      0.00000000      0.00000000</v>
  </separator>
  <separator name="response functions" >
   <i type="logical" name="LRPA"> T  </i>
   <i type="logical" name="LTCTE"> F  </i>
   <i type="logical" name="LTETE"> F  </i>
   <i type="logical" name="L2ORDER"> F  </i>
   <i type="logical" name="LGWLF"> F  </i>
   <i name="ENCUTGW">    200.00000000</i>
   <i name="ENCUTGWSOFT">     -2.00000000</i>
   <i name="ENCUTLF">     -1.00000000</i>
   <i type="int" name="LMAXMP2">    -1</i>
   <i name="SCISSOR">      0.00000000</i>
   <i type="int" name="NOMEGA">     0</i>
   <i type="int" name="NOMEGAR">     0</i>
   <i type="int" name="NBANDSGW">    -1</i>
   <i type="int" name="NBANDSLF">    -1</i>
   <i type="int" name="NELM">     1</i>
   <i type="int" name="DIM">     3</i>
   <i type="int" name="ANTIRES">     0</i>
   <i type="logical" name="LUSEW"> F  </i>
   <i name="OMEGAMAX">    -30.00000000</i>
   <i name="OMEGATL">   -200.00000000</i>
   <i type="int" name="OMEGAGRID">     0</i>
   <i name="CSHIFT">     -0.10000000</i>
   <i type="logical" name="SELFENERGY"> F  </i>
   <i type="logical" name="LSPECTRAL"> F  </i>
   <i type="logical" name="ODDONLYGW"> F  </i>
   <i type="logical" name="EVENONLYGW"> F  </i>
   <i type="int" name="NKREDLFX">     1</i>
   <i type="int" name="NKREDLFY">     1</i>
   <i type="int" name="NKREDLFZ">     1</i>
   <i type="int" name="MAXMEM">  1024</i>
   <i type="int" name="TELESCOPE">     0</i>
  </separator>
 </parameters>
 <atominfo>
  <atoms>      31 </atoms>
  <types>       1 </types>
  <array name="atoms" >
   <dimension dim="1">ion</dimension>
   <field type="string">element</field>
   <field type="int">atomtype</field>
   <set>
    <rc><c>Al</c><c>   1</c></rc>
    <rc><c>Al</c><c>   1</c></rc>
    <rc><c>Al</c><c>   1</c></rc>
    <rc><c>Al</c><c>   1</c></rc>
    <rc><c>Al</c><c>   1</c></rc>
    <rc><c>Al</c><c>   1</c></rc>
    <rc><c>Al</c><c>   1</c></rc>
    <rc><c>Al</c><c>   1</c></rc>
    <rc><c>Al</c><c>   1</c></rc>
    <rc><c>Al</c><c>   1</c></rc>
    <rc><c>Al</c><c>   1</c></rc>
    <rc><c>Al</c><c>   1</c></rc>
    <rc><c>Al</c><c>   1</c></rc>
    <rc><c>Al</c><c>   1</c></rc>
    <rc><c>Al</c><c>   1</c></rc>
    <rc><c>Al</c><c>   1</c></rc>
    <rc><c>Al</c><c>   1</c></rc>
    <rc><c>Al</c><c>   1</c></rc>
    <rc><c>Al</c><c>   1</c></rc>
    <rc><c>Al</c><c>   1</c></rc>
    <rc><c>Al</c><c>   1</c></rc>
    <rc><c>Al</c><c>   1</c></rc>
    <rc><c>Al</c><c>   1</c></rc>
    <rc><c>Al</c><c>   1</c></rc>
    <rc><c>Al</c><c>   1</c></rc>
    <rc><c>Al</c><c>   1</c></rc>
    <rc><c>Al</c><c>   1</c></rc>
    <rc><c>Al</c><c>   1</c></rc>
    <rc><c>Al</c><c>   1</c></rc>
    <rc><c>Al</c><c>   1</c></rc>
    <rc><c>Al</c><c>   1</c></rc>
   </set>
  </array>
  <array name="atomtypes" >
   <dimension dim="1">type</dimension>
   <field type="int">atomspertype</field>
   <field type="string">element</field>
   <field>mass</field>
   <field>valence</field>
   <field type="string">pseudopotential</field>
   <set>
    <rc><c>  31</c><c>Al</c><c>     26.98200000</c><c>      3.00000000</c><c> PAW_PBE Al 04Jan2001                   </c></rc>
   </set>
  </array>
 </atominfo>
 <structure name="initialpos" >
  <crystal>
   <varray name="basis" >
    <v>       8.08705400       0.00000000       0.00000000 </v>
    <v>       0.00000000       8.08705400       0.00000000 </v>
    <v>       0.00000000       0.00000000       8.08705400 </v>
   </varray>
   <i name="volume">    528.89690930 </i>
   <varray name="rec_basis" >
    <v>       0.12365442       0.00000000       0.00000000 </v>
    <v>       0.00000000       0.12365442       0.00000000 </v>
    <v>       0.00000000       0.00000000       0.12365442 </v>
   </varray>
  </crystal>
  <varray name="positions" >
   <v>       0.00000000       0.00000000       0.00000000 </v>
   <v>       0.25041600       0.00000000       0.25041600 </v>
   <v>       0.25041600       0.25041600       0.00000000 </v>
   <v>       0.00000000       0.25041600       0.25041600 </v>
   <v>       0.50000000       0.00000000       0.00000000 </v>
   <v>       0.74958400       0.00000000       0.25041600 </v>
   <v>       0.74958400       0.25041600       0.00000000 </v>
   <v>       0.50000000       0.24272800       0.24272800 </v>
   <v>       0.00000000       0.50000000       0.00000000 </v>
   <v>       0.24272800       0.50000000       0.24272800 </v>
   <v>       0.25041600       0.74958400       0.00000000 </v>
   <v>       0.00000000       0.74958400       0.25041600 </v>
   <v>       0.50000000       0.50000000       0.00000000 </v>
   <v>       0.75727200       0.50000000       0.24272800 </v>
   <v>       0.74958400       0.74958400       0.00000000 </v>
   <v>       0.50000000       0.75727200       0.24272800 </v>
   <v>       0.00000000       0.00000000       0.50000000 </v>
   <v>       0.25041600       0.00000000       0.74958400 </v>
   <v>       0.24272800       0.24272800       0.50000000 </v>
   <v>       0.00000000       0.25041600       0.74958400 </v>
   <v>       0.50000000       0.00000000       0.50000000 </v>
   <v>       0.74958400       0.00000000       0.74958400 </v>
   <v>       0.75727200       0.24272800       0.50000000 </v>
   <v>       0.50000000       0.24272800       0.75727200 </v>
   <v>       0.00000000       0.50000000       0.50000000 </v>
   <v>       0.24272800       0.50000000       0.75727200 </v>
   <v>       0.24272800       0.75727200       0.50000000 </v>
   <v>       0.00000000       0.74958400       0.74958400 </v>
   <v>       0.75727200       0.50000000       0.75727200 </v>
   <v>       0.75727200       0.75727200       0.50000000 </v>
   <v>       0.50000000       0.75727200       0.75727200 </v>
  </varray>
 </structure>
 <calculation>
  <scstep>
   <time name="diag">    2.25    1.48</time>
   <time name="diis">   11.10    3.46</time>
   <time name="orth">    0.17    0.04</time>
   <time name="total">   15.55    6.90</time>
   <energy>
    <i name="alphaZ">     -6.10292531 </i>
    <i name="ewald">  -2211.27331792 </i>
    <i name="hartreedc">    -32.46422346 </i>
    <i name="XCdc">   -814.53383752 </i>
    <i name="pawpsdc">   1102.18190231 </i>
    <i name="pawaedc">   -111.56847430 </i>
    <i name="eentropy">     -0.04923184 </i>
    <i name="bandstr">    722.52589416 </i>
    <i name="atom">   1659.66634407 </i>
    <i name="e_fr_energy">    308.38213021 </i>
    <i name="e_wo_entrp">    308.43136205 </i>
    <i name="e_0_energy">    308.39854082 </i>
   </energy>
  </scstep>
  <scstep>
   <time name="diag">    2.04    1.44</time>
   <time name="diis">   11.20    3.47</time>
   <time name="orth">    0.17    0.04</time>
   <time name="total">   13.41    4.95</time>
   <energy>
    <i name="e_fr_energy">    -10.70790265 </i>
    <i name="e_wo_entrp">    -10.70317022 </i>
    <i name="e_0_energy">    -10.70632517 </i>
   </energy>
  </scstep>
  <scstep>
   <time name="diag">    2.19    1.47</time>
   <time name="diis">   11.43    3.50</time>
   <time name="orth">    0.17    0.04</time>
   <time name="total">   13.79    5.01</time>
   <energy>
    <i name="e_fr_energy">    -85.31677284 </i>
    <i name="e_wo_entrp">    -85.19889867 </i>
    <i name="e_0_energy">    -85.27748145 </i>
   </energy>
  </scstep>
  <scstep>
   <time name="diag">    2.18    1.47</time>
   <time name="diis">   11.54    3.50</time>
   <time name="orth">    0.17    0.04</time>
   <time name="total">   13.90    5.01</time>
   <energy>
    <i name="e_fr_energy">   -103.30320710 </i>
    <i name="e_wo_entrp">   -103.21108454 </i>
    <i name="e_0_energy">   -103.27249958 </i>
   </energy>
  </scstep>
  <scstep>
   <time name="diag">    2.10    1.46</time>
   <time name="diis">   11.96    3.64</time>
   <time name="orth">    0.17    0.04</time>
   <time name="total">   14.23    5.14</time>
   <energy>
    <i name="e_fr_energy">   -110.41563025 </i>
    <i name="e_wo_entrp">   -110.34305585 </i>
    <i name="e_0_energy">   -110.39143878 </i>
   </energy>
  </scstep>
  <scstep>
   <time name="diag">    2.13    1.46</time>
   <time name="diis">   11.70    3.51</time>
   <time name="orth">    0.17    0.04</time>
   <time name="total">   14.00    5.02</time>
   <energy>
    <i name="e_fr_energy">   -112.94024693 </i>
    <i name="e_wo_entrp">   -112.82989932 </i>
    <i name="e_0_energy">   -112.90346440 </i>
   </energy>
  </scstep>
  <scstep>
   <time name="diag">    2.05    1.44</time>
   <time name="diis">   10.80    3.44</time>
   <time name="orth">    0.18    0.04</time>
   <time name="total">   13.04    4.93</time>
   <energy>
    <i name="e_fr_energy">   -114.05357511 </i>
    <i name="e_wo_entrp">   -113.94106050 </i>
    <i name="e_0_energy">   -114.01607024 </i>
   </energy>
  </scstep>
  <scstep>
   <time name="diag">    2.06    1.46</time>
   <time name="diis">   11.44    3.65</time>
   <time name="orth">    0.18    0.04</time>
   <time name="total">   13.68    5.16</time>
   <energy>
    <i name="e_fr_energy">   -114.62381385 </i>
    <i name="e_wo_entrp">   -114.52775661 </i>
    <i name="e_0_energy">   -114.59179477 </i>
   </energy>
  </scstep>
  <scstep>
   <time name="diag">    2.28    1.48</time>
   <time name="diis">   25.88    7.23</time>
   <time name="orth">    0.17    0.04</time>
   <time name="total">   28.34    8.75</time>
   <energy>
    <i name="e_fr_energy">   -115.21817702 </i>
    <i name="e_wo_entrp">   -115.16238521 </i>
    <i name="e_0_energy">   -115.19957975 </i>
   </energy>
  </scstep>
  <scstep>
   <time name="diag">    2.10    1.46</time>
   <time name="diis">   26.83    7.61</time>
   <time name="orth">    0.17    0.04</time>
   <time name="total">   29.11    9.12</time>
   <energy>
    <i name="e_fr_energy">   -115.31941316 </i>
    <i name="e_wo_entrp">   -115.28151060 </i>
    <i name="e_0_energy">   -115.30677897 </i>
   </energy>
  </scstep>
  <scstep>
   <time name="diag">    2.04    1.44</time>
   <time name="diis">   20.48    5.82</time>
   <time name="orth">    0.17    0.04</time>
   <time name="total">   22.69    7.30</time>
   <energy>
    <i name="e_fr_energy">   -115.32855297 </i>
    <i name="e_wo_entrp">   -115.28789101 </i>
    <i name="e_0_energy">   -115.31499898 </i>
   </energy>
  </scstep>
  <scstep>
   <time name="diag">    2.04    1.44</time>
   <time name="diis">   17.26    4.97</time>
   <time name="orth">    0.17    0.04</time>
   <time name="total">   20.55    7.44</time>
   <energy>
    <i name="e_fr_energy">   -115.32944519 </i>
    <i name="e_wo_entrp">   -115.28812936 </i>
    <i name="e_0_energy">   -115.31567325 </i>
   </energy>
  </scstep>
  <scstep>
   <time name="diag">    2.25    1.49</time>
   <time name="diis">   21.82    6.29</time>
   <time name="orth">    0.17    0.04</time>
   <time name="total">   27.23   10.72</time>
   <energy>
    <i name="e_fr_energy">   -114.45764109 </i>
    <i name="e_wo_entrp">   -114.42337614 </i>
    <i name="e_0_energy">   -114.44621944 </i>
   </energy>
  </scstep>
  <scstep>
   <time name="diag">    2.26    1.49</time>
   <time name="diis">   23.22    6.57</time>
   <time name="orth">    0.17    0.04</time>
   <time name="total">   28.66   11.01</time>
   <energy>
    <i name="e_fr_energy">   -114.20778391 </i>
    <i name="e_wo_entrp">   -114.17576699 </i>
    <i name="e_0_energy">   -114.19711160 </i>
   </energy>
  </scstep>
  <scstep>
   <time name="diag">    2.25    1.49</time>
   <time name="diis">   22.10    6.39</time>
   <time name="orth">    0.17    0.04</time>
   <time name="total">   27.56   10.81</time>
   <energy>
    <i name="e_fr_energy">   -114.15595755 </i>
    <i name="e_wo_entrp">   -114.12409707 </i>
    <i name="e_0_energy">   -114.14533739 </i>
   </energy>
  </scstep>
  <scstep>
   <time name="diag">    2.26    1.49</time>
   <time name="diis">   22.61    6.44</time>
   <time name="orth">    0.17    0.04</time>
   <time name="total">   28.18   10.88</time>
   <energy>
    <i name="e_fr_energy">   -114.15476686 </i>
    <i name="e_wo_entrp">   -114.12174347 </i>
    <i name="e_0_energy">   -114.14375906 </i>
   </energy>
  </scstep>
  <scstep>
   <time name="diag">    2.25    1.49</time>
   <time name="diis">   21.26    6.03</time>
   <time name="orth">    0.17    0.04</time>
   <time name="total">   26.79   10.46</time>
   <energy>
    <i name="e_fr_energy">   -114.15463415 </i>
    <i name="e_wo_entrp">   -114.12182380 </i>
    <i name="e_0_energy">   -114.14369737 </i>
   </energy>
  </scstep>
  <scstep>
   <time name="diag">    2.35    1.57</time>
   <time name="diis">   13.65    4.07</time>
   <time name="orth">    0.17    0.04</time>
   <time name="total">   18.18    7.61</time>
   <energy>
    <i name="alphaZ">     -6.10292531 </i>
    <i name="ewald">  -2211.27331792 </i>
    <i name="hartreedc">    -36.81676161 </i>
    <i name="XCdc">   -811.03450662 </i>
    <i name="pawpsdc">   1107.57316594 </i>
    <i name="pawaedc">   -117.41296996 </i>
    <i name="eentropy">     -0.03272199 </i>
    <i name="bandstr">    301.27905114 </i>
    <i name="atom">   1659.66634407 </i>
    <i name="e_fr_energy">   -114.15464225 </i>
    <i name="e_wo_entrp">   -114.12192026 </i>
    <i name="e_0_energy">   -114.14373492 </i>
   </energy>
  </scstep>
  <structure>
   <crystal>
    <varray name="basis" >
     <v>       8.08705400       0.00000000       0.00000000 </v>
     <v>       0.00000000       8.08705400       0.00000000 </v>
     <v>       0.00000000       0.00000000       8.08705400 </v>
    </varray>
    <i name="volume">    528.89690930 </i>
    <varray name="rec_basis" >
     <v>       0.12365442       0.00000000       0.00000000 </v>
     <v>       0.00000000       0.12365442       0.00000000 </v>
     <v>       0.00000000       0.00000000       0.12365442 </v>
    </varray>
   </crystal>
   <varray name="positions" >
    <v>       0.00000000       0.00000000       0.00000000 </v>
    <v>       0.25041600       0.00000000       0.25041600 </v>
    <v>       0.25041600       0.25041600       0.00000000 </v>
    <v>       0.00000000       0.25041600       0.25041600 </v>
    <v>       0.50000000       0.00000000       0.00000000 </v>
    <v>       0.74958400       0.00000000       0.25041600 </v>
    <v>       0.74958400       0.25041600       0.00000000 </v>
    <v>       0.50000000       0.24272800       0.24272800 </v>
    <v>       0.00000000       0.50000000       0.00000000 </v>
    <v>       0.24272800       0.50000000       0.24272800 </v>
    <v>       0.25041600       0.74958400       0.00000000 </v>
    <v>       0.00000000       0.74958400       0.25041600 </v>
    <v>       0.50000000       0.50000000       0.00000000 </v>
    <v>       0.75727200       0.50000000       0.24272800 </v>
    <v>       0.74958400       0.74958400       0.00000000 </v>
    <v>       0.50000000       0.75727200       0.24272800 </v>
    <v>       0.00000000       0.00000000       0.50000000 </v>
    <v>       0.25041600       0.00000000       0.74958400 </v>
    <v>       0.24272800       0.24272800       0.50000000 </v>
    <v>       0.00000000       0.25041600       0.74958400 </v>
    <v>       0.50000000       0.00000000       0.50000000 </v>
    <v>       0.74958400       0.00000000       0.74958400 </v>
    <v>       0.75727200       0.24272800       0.50000000 </v>
    <v>       0.50000000       0.24272800       0.75727200 </v>
    <v>       0.00000000       0.50000000       0.50000000 </v>
    <v>       0.24272800       0.50000000       0.75727200 </v>
    <v>       0.24272800       0.75727200       0.50000000 </v>
    <v>       0.00000000       0.74958400       0.74958400 </v>
    <v>       0.75727200       0.50000000       0.75727200 </v>
    <v>       0.75727200       0.75727200       0.50000000 </v>
    <v>       0.50000000       0.75727200       0.75727200 </v>
   </varray>
  </structure>
  <varray name="forces" >
   <v>       0.00000000       0.00000000       0.00000000 </v>
   <v>      -0.15252903       0.00000000      -0.15252903 </v>
   <v>      -0.15252903      -0.15252903       0.00000000 </v>
   <v>       0.00000000      -0.15252903      -0.15252903 </v>
   <v>       0.00000000       0.00000000       0.00000000 </v>
   <v>       0.15252903       0.00000000      -0.15252903 </v>
   <v>       0.15252903      -0.15252903       0.00000000 </v>
   <v>       0.00000000       0.43556205       0.43556205 </v>
   <v>       0.00000000       0.00000000       0.00000000 </v>
   <v>       0.43556205       0.00000000       0.43556205 </v>
   <v>      -0.15252903       0.15252903       0.00000000 </v>
   <v>       0.00000000       0.15252903      -0.15252903 </v>
   <v>       0.00000000       0.00000000       0.00000000 </v>
   <v>      -0.43556205       0.00000000       0.43556205 </v>
   <v>       0.15252903       0.15252903       0.00000000 </v>
   <v>       0.00000000      -0.43556205       0.43556205 </v>
   <v>       0.00000000       0.00000000       0.00000000 </v>
   <v>      -0.15252903       0.00000000       0.15252903 </v>
   <v>       0.43556205       0.43556205       0.00000000 </v>
   <v>       0.00000000      -0.15252903       0.15252903 </v>
   <v>       0.00000000       0.00000000       0.00000000 </v>
   <v>       0.15252903       0.00000000       0.15252903 </v>
   <v>      -0.43556205       0.43556205       0.00000000 </v>
   <v>       0.00000000       0.43556205      -0.43556205 </v>
   <v>       0.00000000       0.00000000       0.00000000 </v>
   <v>       0.43556205       0.00000000      -0.43556205 </v>
   <v>       0.43556205      -0.43556205       0.00000000 </v>
   <v>       0.00000000       0.15252903       0.15252903 </v>
   <v>      -0.43556205       0.00000000      -0.43556205 </v>
   <v>      -0.43556205      -0.43556205       0.00000000 </v>
   <v>       0.00000000      -0.43556205      -0.43556205 </v>
  </varray>
  <varray name="stress" >
   <v>      -1.54012554       0.00000000       0.00000000 </v>
   <v>       0.00000000      -1.54012554       0.00000000 </v>
   <v>       0.00000000       0.00000000      -1.54012554 </v>
  </varray>
  <energy>
   <i name="e_fr_energy">   -114.15464225 </i>
   <i name="e_wo_entrp">   -114.14373492 </i>
   <i name="e_0_energy">     -0.03272199 </i>
  </energy>
  <time name="totalsc">  403.18  153.78</time>
 </calculation>
 <calculation>
  <scstep>
   <time name="diag">    2.25    1.49</time>
   <time name="diis">   21.17    6.15</time>
   <time name="orth">    0.17    0.04</time>
   <time name="total">   26.79   10.60</time>
   <energy>
    <i name="alphaZ">     -6.10292531 </i>
    <i name="ewald">  -2217.12221616 </i>
    <i name="hartreedc">    -32.34393376 </i>
    <i name="XCdc">   -811.13882824 </i>
    <i name="pawpsdc">   1107.56774444 </i>
    <i name="pawaedc">   -117.40910209 </i>
    <i name="eentropy">     -0.04218217 </i>
    <i name="bandstr">    302.55399333 </i>
    <i name="atom">   1659.66634407 </i>
    <i name="e_fr_energy">   -114.37110590 </i>
    <i name="e_wo_entrp">   -114.32892373 </i>
    <i name="e_0_energy">   -114.35704518 </i>
   </energy>
  </scstep>
  <scstep>
   <time name="diag">    2.25    1.49</time>
   <time name="diis">   22.36    6.42</time>
   <time name="orth">    0.16    0.04</time>
   <time name="total">   27.80   10.86</time>
   <energy>
    <i name="e_fr_energy">   -114.36671813 </i>
    <i name="e_wo_entrp">   -114.32309429 </i>
    <i name="e_0_energy">   -114.35217685 </i>
   </energy>
  </scstep>
  <scstep>
   <time name="diag">    2.25    1.49</time>
   <time name="diis">   21.69    6.20</time>
   <time name="orth">    0.17    0.04</time>
   <time name="total">   27.12   10.63</time>
   <energy>
    <i name="e_fr_energy">   -114.36573592 </i>
    <i name="e_wo_entrp">   -114.32073220 </i>
    <i name="e_0_energy">   -114.35073468 </i>
   </energy>
  </scstep>
  <scstep>
   <time name="diag">    2.25    1.49</time>
   <time name="diis">   20.95    5.98</time>
   <time name="orth">    0.17    0.04</time>
   <time name="total">   26.42   10.42</time>
   <energy>
    <i name="e_fr_energy">   -114.36558735 </i>
    <i name="e_wo_entrp">   -114.32089805 </i>
    <i name="e_0_energy">   -114.35069092 </i>
   </energy>
  </scstep>
  <scstep>
   <time name="diag">    2.25    1.49</time>
   <time name="diis">   13.27    3.97</time>
   <time name="orth">    0.17    0.04</time>
   <time name="total">   17.67    7.42</time>
   <energy>
    <i name="alphaZ">     -6.10292531 </i>
    <i name="ewald">  -2217.12221616 </i>
    <i name="hartreedc">    -32.03898627 </i>
    <i name="XCdc">   -811.15543937 </i>
    <i name="pawpsdc">   1107.20979270 </i>
    <i name="pawaedc">   -117.03406895 </i>
    <i name="eentropy">     -0.04483214 </i>
    <i name="bandstr">    302.25674930 </i>
    <i name="atom">   1659.66634407 </i>
    <i name="e_fr_energy">   -114.36558214 </i>
    <i name="e_wo_entrp">   -114.32075000 </i>
    <i name="e_0_energy">   -114.35063809 </i>
   </energy>
  </scstep>
  <structure>
   <crystal>
    <varray name="basis" >
     <v>       8.08705400       0.00000000       0.00000000 </v>
     <v>       0.00000000       8.08705400       0.00000000 </v>
     <v>       0.00000000       0.00000000       8.08705400 </v>
    </varray>
    <i name="volume">    528.89690930 </i>
    <varray name="rec_basis" >
     <v>       0.12365442       0.00000000       0.00000000 </v>
     <v>       0.00000000       0.12365442       0.00000000 </v>
     <v>       0.00000000       0.00000000       0.12365442 </v>
    </varray>
   </crystal>
   <varray name="positions" >
    <v>       0.00000000       0.00000000       0.00000000 </v>
    <v>       0.24950610       0.00000000       0.24950610 </v>
    <v>       0.24950610       0.24950610       0.00000000 </v>
    <v>       0.00000000       0.24950610       0.24950610 </v>
    <v>       0.50000000       0.00000000       0.00000000 </v>
    <v>       0.75049390       0.00000000       0.24950610 </v>
    <v>       0.75049390       0.24950610       0.00000000 </v>
    <v>       0.50000000       0.24532631       0.24532631 </v>
    <v>       0.00000000       0.50000000       0.00000000 </v>
    <v>       0.24532631       0.50000000       0.24532631 </v>
    <v>       0.24950610       0.75049390       0.00000000 </v>
    <v>       0.00000000       0.75049390       0.24950610 </v>
    <v>       0.50000000       0.50000000       0.00000000 </v>
    <v>       0.75467369       0.50000000       0.24532631 </v>
    <v>       0.75049390       0.75049390       0.00000000 </v>
    <v>       0.50000000       0.75467369       0.24532631 </v>
    <v>       0.00000000       0.00000000       0.50000000 </v>
    <v>       0.24950610       0.00000000       0.75049390 </v>
    <v>       0.24532631       0.24532631       0.50000000 </v>
    <v>       0.00000000       0.24950610       0.75049390 </v>
    <v>       0.50000000       0.00000000       0.50000000 </v>
    <v>       0.75049390       0.00000000       0.75049390 </v>
    <v>       0.75467369       0.24532631       0.50000000 </v>
    <v>       0.50000000       0.24532631       0.75467369 </v>
    <v>       0.00000000       0.50000000       0.50000000 </v>
    <v>       0.24532631       0.50000000       0.75467369 </v>
    <v>       0.24532631       0.75467369       0.50000000 </v>
    <v>       0.00000000       0.75049390       0.75049390 </v>
    <v>       0.75467369       0.50000000       0.75467369 </v>
    <v>       0.75467369       0.75467369       0.50000000 </v>
    <v>       0.50000000       0.75467369       0.75467369 </v>
   </varray>
  </structure>
  <varray name="forces" >
   <v>       0.00000000       0.00000000       0.00000000 </v>
   <v>      -0.06490049       0.00000000      -0.06490049 </v>
   <v>      -0.06490049      -0.06490049       0.00000000 </v>
   <v>       0.00000000      -0.06490049      -0.06490049 </v>
   <v>       0.00000000       0.00000000       0.00000000 </v>
   <v>       0.06490049       0.00000000      -0.06490049 </v>
   <v>       0.06490049      -0.06490049       0.00000000 </v>
   <v>       0.00000000       0.32362341       0.32362341 </v>
   <v>       0.00000000       0.00000000       0.00000000 </v>
   <v>       0.32362341       0.00000000       0.32362341 </v>
   <v>      -0.06490049       0.06490049       0.00000000 </v>
   <v>       0.00000000       0.06490049      -0.06490049 </v>
   <v>       0.00000000       0.00000000       0.00000000 </v>
   <v>      -0.32362341       0.00000000       0.32362341 </v>
   <v>       0.06490049       0.06490049       0.00000000 </v>
   <v>       0.00000000      -0.32362341       0.32362341 </v>
   <v>       0.00000000       0.00000000       0.00000000 </v>
   <v>      -0.06490049       0.00000000       0.06490049 </v>
   <v>       0.32362341       0.32362341       0.00000000 </v>
   <v>       0.00000000      -0.06490049       0.06490049 </v>
   <v>       0.00000000       0.00000000       0.00000000 </v>
   <v>       0.06490049       0.00000000       0.06490049 </v>
   <v>      -0.32362341       0.32362341       0.00000000 </v>
   <v>       0.00000000       0.32362341      -0.32362341 </v>
   <v>       0.00000000       0.00000000       0.00000000 </v>
   <v>       0.32362341       0.00000000      -0.32362341 </v>
   <v>       0.32362341      -0.32362341       0.00000000 </v>
   <v>       0.00000000       0.06490049       0.06490049 </v>
   <v>      -0.32362341       0.00000000      -0.32362341 </v>
   <v>      -0.32362341      -0.32362341       0.00000000 </v>
   <v>       0.00000000      -0.32362341      -0.32362341 </v>
  </varray>
  <varray name="stress" >
   <v>      -4.07356576       0.00000000       0.00000000 </v>
   <v>       0.00000000      -4.07356576       0.00000000 </v>
   <v>       0.00000000       0.00000000      -4.07356576 </v>
  </varray>
  <energy>
   <i name="e_fr_energy">   -114.36558214 </i>
   <i name="e_wo_entrp">   -114.35063809 </i>
   <i name="e_0_energy">     -0.04483214 </i>
  </energy>
  <time name="totalsc">  159.73   67.28</time>
 </calculation>
 <calculation>
  <scstep>
   <time name="diag">    2.25    1.49</time>
   <time name="diis">   21.43    6.19</time>
   <time name="orth">    0.17    0.04</time>
   <time name="total">   27.01   10.61</time>
   <energy>
    <i name="alphaZ">     -6.10292531 </i>
    <i name="ewald">  -2228.27843162 </i>
    <i name="hartreedc">    -23.01883592 </i>
    <i name="XCdc">   -811.36614262 </i>
    <i name="pawpsdc">   1107.19812660 </i>
    <i name="pawaedc">   -117.02183808 </i>
    <i name="eentropy">     -0.05280890 </i>
    <i name="bandstr">    304.37588829 </i>
    <i name="atom">   1659.66634407 </i>
    <i name="e_fr_energy">   -114.60062350 </i>
    <i name="e_wo_entrp">   -114.54781459 </i>
    <i name="e_0_energy">   -114.58302053 </i>
   </energy>
  </scstep>
  <scstep>
   <time name="diag">    2.31    1.51</time>
   <time name="diis">   22.26    6.44</time>
   <time name="orth">    0.17    0.04</time>
   <time name="total">   27.74   10.90</time>
   <energy>
    <i name="e_fr_energy">   -114.57609436 </i>
    <i name="e_wo_entrp">   -114.52541853 </i>
    <i name="e_0_energy">   -114.55920242 </i>
   </energy>
  </scstep>
  <scstep>
   <time name="diag">    2.25    1.49</time>
   <time name="diis">   21.94    6.22</time>
   <time name="orth">    0.17    0.04</time>
   <time name="total">   27.36   10.64</time>
   <energy>
    <i name="e_fr_energy">   -114.57084439 </i>
    <i name="e_wo_entrp">   -114.51917316 </i>
    <i name="e_0_energy">   -114.55362065 </i>
   </energy>
  </scstep>
  <scstep>
   <time name="diag">    2.33    1.55</time>
   <time name="diis">   22.91    6.59</time>
   <time name="orth">    0.17    0.04</time>
   <time name="total">   28.45   11.08</time>
   <energy>
    <i name="e_fr_energy">   -114.56919641 </i>
    <i name="e_wo_entrp">   -114.51812231 </i>
    <i name="e_0_energy">   -114.55217171 </i>
   </energy>
  </scstep>
  <scstep>
   <time name="diag">    2.25    1.49</time>
   <time name="diis">   21.57    6.11</time>
   <time name="orth">    0.17    0.04</time>
   <time name="total">   27.11   10.55</time>
   <energy>
    <i name="e_fr_energy">   -114.56928848 </i>
    <i name="e_wo_entrp">   -114.51842978 </i>
    <i name="e_0_energy">   -114.55233558 </i>
   </energy>
  </scstep>
  <scstep>
   <time name="diag">    2.25    1.49</time>
   <time name="diis">   18.85    5.38</time>
   <time name="orth">    0.17    0.04</time>
   <time name="total">   23.33    8.84</time>
   <energy>
    <i name="alphaZ">     -6.10292531 </i>
    <i name="ewald">  -2228.27843162 </i>
    <i name="hartreedc">    -22.63930504 </i>
    <i name="XCdc">   -811.37773993 </i>
    <i name="pawpsdc">   1106.84863273 </i>
    <i name="pawaedc">   -116.65445097 </i>
    <i name="eentropy">     -0.05101910 </i>
    <i name="bandstr">    304.01962135 </i>
    <i name="atom">   1659.66634407 </i>
    <i name="e_fr_energy">   -114.56927380 </i>
    <i name="e_wo_entrp">   -114.51825471 </i>
    <i name="e_0_energy">   -114.55226744 </i>
   </energy>
  </scstep>
  <structure>
   <crystal>
    <varray name="basis" >
     <v>       8.08705400       0.00000000       0.00000000 </v>
     <v>       0.00000000       8.08705400       0.00000000 </v>
     <v>       0.00000000       0.00000000       8.08705400 </v>
    </varray>
    <i name="volume">    528.89690930 </i>
    <varray name="rec_basis" >
     <v>       0.12365442       0.00000000       0.00000000 </v>
     <v>       0.00000000       0.12365442       0.00000000 </v>
     <v>       0.00000000       0.00000000       0.12365442 </v>
    </varray>
   </crystal>
   <varray name="positions" >
    <v>       0.00000000       0.00000000       0.00000000 </v>
    <v>       0.24729650       0.00000000       0.24729650 </v>
    <v>       0.24729650       0.24729650       0.00000000 </v>
    <v>       0.00000000       0.24729650       0.24729650 </v>
    <v>       0.50000000       0.00000000       0.00000000 </v>
    <v>       0.75270350       0.00000000       0.24729650 </v>
    <v>       0.75270350       0.24729650       0.00000000 </v>
    <v>       0.50000000       0.25163604       0.25163604 </v>
    <v>       0.00000000       0.50000000       0.00000000 </v>
    <v>       0.25163604       0.50000000       0.25163604 </v>
    <v>       0.24729650       0.75270350       0.00000000 </v>
    <v>       0.00000000       0.75270350       0.24729650 </v>
    <v>       0.50000000       0.50000000       0.00000000 </v>
    <v>       0.74836396       0.50000000       0.25163604 </v>
    <v>       0.75270350       0.75270350       0.00000000 </v>
    <v>       0.50000000       0.74836396       0.25163604 </v>
    <v>       0.00000000       0.00000000       0.50000000 </v>
    <v>       0.24729650       0.00000000       0.75270350 </v>
    <v>       0.25163604       0.25163604       0.50000000 </v>
    <v>       0.00000000       0.24729650       0.75270350 </v>
    <v>       0.50000000       0.00000000       0.50000000 </v>
    <v>       0.75270350       0.00000000       0.75270350 </v>
    <v>       0.74836396       0.25163604       0.50000000 </v>
    <v>       0.50000000       0.25163604       0.74836396 </v>
    <v>       0.00000000       0.50000000       0.50000000 </v>
    <v>       0.25163604       0.50000000       0.74836396 </v>
    <v>       0.25163604       0.74836396       0.50000000 </v>
    <v>       0.00000000       0.75270350       0.75270350 </v>
    <v>       0.74836396       0.50000000       0.74836396 </v>
    <v>       0.74836396       0.74836396       0.50000000 </v>
    <v>       0.50000000       0.74836396       0.74836396 </v>
   </varray>
  </structure>
  <varray name="forces" >
   <v>       0.00000000       0.00000000       0.00000000 </v>
   <v>       0.13715512       0.00000000       0.13715512 </v>
   <v>       0.13715512       0.13715512       0.00000000 </v>
   <v>       0.00000000       0.13715512       0.13715512 </v>
   <v>       0.00000000       0.00000000       0.00000000 </v>
   <v>      -0.13715512       0.00000000       0.13715512 </v>
   <v>      -0.13715512       0.13715512       0.00000000 </v>
   <v>       0.00000000       0.02888017       0.02888017 </v>
   <v>       0.00000000       0.00000000       0.00000000 </v>
   <v>       0.02888017       0.00000000       0.02888017 </v>
   <v>       0.13715512      -0.13715512       0.00000000 </v>
   <v>       0.00000000      -0.13715512       0.13715512 </v>
   <v>       0.00000000       0.00000000       0.00000000 </v>
   <v>      -0.02888017       0.00000000       0.02888017 </v>
   <v>      -0.13715512      -0.13715512       0.00000000 </v>
   <v>       0.00000000      -0.02888017       0.02888017 </v>
   <v>       0.00000000       0.00000000       0.00000000 </v>
   <v>       0.13715512       0.00000000      -0.13715512 </v>
   <v>       0.02888017       0.02888017       0.00000000 </v>
   <v>       0.00000000       0.13715512      -0.13715512 </v>
   <v>       0.00000000       0.00000000       0.00000000 </v>
   <v>      -0.13715512       0.00000000      -0.13715512 </v>
   <v>      -0.02888017       0.02888017       0.00000000 </v>
   <v>       0.00000000       0.02888017      -0.02888017 </v>
   <v>       0.00000000       0.00000000       0.00000000 </v>
   <v>       0.02888017       0.00000000      -0.02888017 </v>
   <v>       0.02888017      -0.02888017       0.00000000 </v>
   <v>       0.00000000      -0.13715512      -0.13715512 </v>
   <v>      -0.02888017       0.00000000      -0.02888017 </v>
   <v>      -0.02888017      -0.02888017       0.00000000 </v>
   <v>       0.00000000      -0.02888017      -0.02888017 </v>
  </varray>
  <varray name="stress" >
   <v>      -7.16816729       0.00000000       0.00000000 </v>
   <v>       0.00000000      -7.16816729       0.00000000 </v>
   <v>       0.00000000       0.00000000      -7.16816729 </v>
  </varray>
  <energy>
   <i name="e_fr_energy">   -114.56927380 </i>
   <i name="e_wo_entrp">   -114.55226744 </i>
   <i name="e_0_energy">     -0.05101910 </i>
  </energy>
  <time name="totalsc">  195.48   80.19</time>
 </calculation>
 <calculation>
  <scstep>
   <time name="diag">    2.25    1.49</time>
   <time name="diis">   21.23    6.15</time>
   <time name="orth">    0.17    0.04</time>
   <time name="total">   26.84   10.61</time>
   <energy>
    <i name="alphaZ">     -6.10292531 </i>
    <i name="ewald">  -2230.20190338 </i>
    <i name="hartreedc">    -21.03630315 </i>
    <i name="XCdc">   -811.40469412 </i>
    <i name="pawpsdc">   1106.85267487 </i>
    <i name="pawaedc">   -116.65846093 </i>
    <i name="eentropy">     -0.05035163 </i>
    <i name="bandstr">    304.34095038 </i>
    <i name="atom">   1659.66634407 </i>
    <i name="e_fr_energy">   -114.59466918 </i>
    <i name="e_wo_entrp">   -114.54431755 </i>
    <i name="e_0_energy">   -114.57788531 </i>
   </energy>
  </scstep>
  <scstep>
   <time name="diag">    2.26    1.49</time>
   <time name="diis">   21.81    6.31</time>
   <time name="orth">    0.17    0.04</time>
   <time name="total">   27.25   10.75</time>
   <energy>
    <i name="e_fr_energy">   -114.59369389 </i>
    <i name="e_wo_entrp">   -114.54383902 </i>
    <i name="e_0_energy">   -114.57707560 </i>
   </energy>
  </scstep>
  <scstep>
   <time name="diag">    2.26    1.49</time>
   <time name="diis">   19.28    5.46</time>
   <time name="orth">    0.17    0.04</time>
   <time name="total">   23.65    8.94</time>
   <energy>
    <i name="alphaZ">     -6.10292531 </i>
    <i name="ewald">  -2230.20190338 </i>
    <i name="hartreedc">    -20.94434022 </i>
    <i name="XCdc">   -811.40777481 </i>
    <i name="pawpsdc">   1106.81439747 </i>
    <i name="pawaedc">   -116.61801687 </i>
    <i name="eentropy">     -0.04970806 </i>
    <i name="bandstr">    304.25029412 </i>
    <i name="atom">   1659.66634407 </i>
    <i name="e_fr_energy">   -114.59363300 </i>
    <i name="e_wo_entrp">   -114.54392493 </i>
    <i name="e_0_energy">   -114.57706364 </i>
   </energy>
  </scstep>
  <structure>
   <crystal>
    <varray name="basis" >
     <v>       8.08705400       0.00000000       0.00000000 </v>
     <v>       0.00000000       8.08705400       0.00000000 </v>
     <v>       0.00000000       0.00000000       8.08705400 </v>
    </varray>
    <i name="volume">    528.89690930 </i>
    <varray name="rec_basis" >
     <v>       0.12365442       0.00000000       0.00000000 </v>
     <v>       0.00000000       0.12365442       0.00000000 </v>
     <v>       0.00000000       0.00000000       0.12365442 </v>
    </varray>
   </crystal>
   <varray name="positions" >
    <v>       0.00000000       0.00000000       0.00000000 </v>
    <v>       0.24833443       0.00000000       0.24833443 </v>
    <v>       0.24833443       0.24833443       0.00000000 </v>
    <v>       0.00000000       0.24833443       0.24833443 </v>
    <v>       0.50000000       0.00000000       0.00000000 </v>
    <v>       0.75166557       0.00000000       0.24833443 </v>
    <v>       0.75166557       0.24833443       0.00000000 </v>
    <v>       0.50000000       0.25239926       0.25239926 </v>
    <v>       0.00000000       0.50000000       0.00000000 </v>
    <v>       0.25239926       0.50000000       0.25239926 </v>
    <v>       0.24833443       0.75166557       0.00000000 </v>
    <v>       0.00000000       0.75166557       0.24833443 </v>
    <v>       0.50000000       0.50000000       0.00000000 </v>
    <v>       0.74760074       0.50000000       0.25239926 </v>
    <v>       0.75166557       0.75166557       0.00000000 </v>
    <v>       0.50000000       0.74760074       0.25239926 </v>
    <v>       0.00000000       0.00000000       0.50000000 </v>
    <v>       0.24833443       0.00000000       0.75166557 </v>
    <v>       0.25239926       0.25239926       0.50000000 </v>
    <v>       0.00000000       0.24833443       0.75166557 </v>
    <v>       0.50000000       0.00000000       0.50000000 </v>
    <v>       0.75166557       0.00000000       0.75166557 </v>
    <v>       0.74760074       0.25239926       0.50000000 </v>
    <v>       0.50000000       0.25239926       0.74760074 </v>
    <v>       0.00000000       0.50000000       0.50000000 </v>
    <v>       0.25239926       0.50000000       0.74760074 </v>
    <v>       0.25239926       0.74760074       0.50000000 </v>
    <v>       0.00000000       0.75166557       0.75166557 </v>
    <v>       0.74760074       0.50000000       0.74760074 </v>
    <v>       0.74760074       0.74760074       0.50000000 </v>
    <v>       0.50000000       0.74760074       0.74760074 </v>
   </varray>
  </structure>
  <varray name="forces" >
   <v>       0.00000000       0.00000000       0.00000000 </v>
   <v>       0.07949502       0.00000000       0.07949502 </v>
   <v>       0.07949502       0.07949502       0.00000000 </v>
   <v>       0.00000000       0.07949502       0.07949502 </v>
   <v>       0.00000000       0.00000000       0.00000000 </v>
   <v>      -0.07949502       0.00000000       0.07949502 </v>
   <v>      -0.07949502       0.07949502       0.00000000 </v>
   <v>       0.00000000       0.00359062       0.00359062 </v>
   <v>       0.00000000       0.00000000       0.00000000 </v>
   <v>       0.00359062       0.00000000       0.00359062 </v>
   <v>       0.07949502      -0.07949502       0.00000000 </v>
   <v>       0.00000000      -0.07949502       0.07949502 </v>
   <v>       0.00000000       0.00000000       0.00000000 </v>
   <v>      -0.00359062       0.00000000       0.00359062 </v>
   <v>      -0.07949502      -0.07949502       0.00000000 </v>
   <v>       0.00000000      -0.00359062       0.00359062 </v>
   <v>       0.00000000       0.00000000       0.00000000 </v>
   <v>       0.07949502       0.00000000      -0.07949502 </v>
   <v>       0.00359062       0.00359062       0.00000000 </v>
   <v>       0.00000000       0.07949502      -0.07949502 </v>
   <v>       0.00000000       0.00000000       0.00000000 </v>
   <v>      -0.07949502       0.00000000      -0.07949502 </v>
   <v>      -0.00359062       0.00359062       0.00000000 </v>
   <v>       0.00000000       0.00359062      -0.00359062 </v>
   <v>       0.00000000       0.00000000       0.00000000 </v>
   <v>       0.00359062       0.00000000      -0.00359062 </v>
   <v>       0.00359062      -0.00359062       0.00000000 </v>
   <v>       0.00000000      -0.07949502      -0.07949502 </v>
   <v>      -0.00359062       0.00000000      -0.00359062 </v>
   <v>      -0.00359062      -0.00359062       0.00000000 </v>
   <v>       0.00000000      -0.00359062      -0.00359062 </v>
  </varray>
  <varray name="stress" >
   <v>      -7.60169444       0.00000000       0.00000000 </v>
   <v>       0.00000000      -7.60169444       0.00000000 </v>
   <v>       0.00000000       0.00000000      -7.60169444 </v>
  </varray>
  <energy>
   <i name="e_fr_energy">   -114.59363300 </i>
   <i name="e_wo_entrp">   -114.57706364 </i>
   <i name="e_0_energy">     -0.04970806 </i>
  </energy>
  <time name="totalsc">  113.36   48.25</time>
 </calculation>
 <calculation>
  <scstep>
   <time name="diag">    2.26    1.49</time>
   <time name="diis">   21.72    6.27</time>
   <time name="orth">    0.17    0.04</time>
   <time name="total">   27.33   10.73</time>
   <energy>
    <i name="alphaZ">     -6.10292531 </i>
    <i name="ewald">  -2232.04253185 </i>
    <i name="hartreedc">    -19.38462600 </i>
    <i name="XCdc">   -811.43515402 </i>
    <i name="pawpsdc">   1106.80828465 </i>
    <i name="pawaedc">   -116.61154047 </i>
    <i name="eentropy">     -0.05140411 </i>
    <i name="bandstr">    304.54872583 </i>
    <i name="atom">   1659.66634407 </i>
    <i name="e_fr_energy">   -114.60482720 </i>
    <i name="e_wo_entrp">   -114.55342309 </i>
    <i name="e_0_energy">   -114.58769249 </i>
   </energy>
  </scstep>
  <scstep>
   <time name="diag">    2.26    1.50</time>
   <time name="diis">   23.55    6.85</time>
   <time name="orth">    0.17    0.04</time>
   <time name="total">   28.98   11.28</time>
   <energy>
    <i name="e_fr_energy">   -114.60326225 </i>
    <i name="e_wo_entrp">   -114.55282444 </i>
    <i name="e_0_energy">   -114.58644965 </i>
   </energy>
  </scstep>
  <scstep>
   <time name="diag">    2.25    1.49</time>
   <time name="diis">   19.55    5.56</time>
   <time name="orth">    0.17    0.04</time>
   <time name="total">   25.03   10.04</time>
   <energy>
    <i name="e_fr_energy">   -114.60320454 </i>
    <i name="e_wo_entrp">   -114.55305478 </i>
    <i name="e_0_energy">   -114.58648796 </i>
   </energy>
  </scstep>
  <scstep>
   <time name="diag">    2.26    1.49</time>
   <time name="diis">   16.29    4.78</time>
   <time name="orth">    0.17    0.04</time>
   <time name="total">   20.67    8.24</time>
   <energy>
    <i name="alphaZ">     -6.10292531 </i>
    <i name="ewald">  -2232.04253185 </i>
    <i name="hartreedc">    -19.29718020 </i>
    <i name="XCdc">   -811.43878888 </i>
    <i name="pawpsdc">   1106.76979132 </i>
    <i name="pawaedc">   -116.57080493 </i>
    <i name="eentropy">     -0.05031890 </i>
    <i name="bandstr">    304.46318577 </i>
    <i name="atom">   1659.66634407 </i>
    <i name="e_fr_energy">   -114.60322891 </i>
    <i name="e_wo_entrp">   -114.55291001 </i>
    <i name="e_0_energy">   -114.58645595 </i>
   </energy>
  </scstep>
  <structure>
   <crystal>
    <varray name="basis" >
     <v>       8.08705400       0.00000000       0.00000000 </v>
     <v>       0.00000000       8.08705400       0.00000000 </v>
     <v>       0.00000000       0.00000000       8.08705400 </v>
    </varray>
    <i name="volume">    528.89690930 </i>
    <varray name="rec_basis" >
     <v>       0.12365442       0.00000000       0.00000000 </v>
     <v>       0.00000000       0.12365442       0.00000000 </v>
     <v>       0.00000000       0.00000000       0.12365442 </v>
    </varray>
   </crystal>
   <varray name="positions" >
    <v>       0.00000000       0.00000000       0.00000000 </v>
    <v>       0.24945238       0.00000000       0.24945238 </v>
    <v>       0.24945238       0.24945238       0.00000000 </v>
    <v>       0.00000000       0.24945238       0.24945238 </v>
    <v>       0.50000000       0.00000000       0.00000000 </v>
    <v>       0.75054762       0.00000000       0.24945238 </v>
    <v>       0.75054762       0.24945238       0.00000000 </v>
    <v>       0.50000000       0.25322131       0.25322131 </v>
    <v>       0.00000000       0.50000000       0.00000000 </v>
    <v>       0.25322131       0.50000000       0.25322131 </v>
    <v>       0.24945238       0.75054762       0.00000000 </v>
    <v>       0.00000000       0.75054762       0.24945238 </v>
    <v>       0.50000000       0.50000000       0.00000000 </v>
    <v>       0.74677869       0.50000000       0.25322131 </v>
    <v>       0.75054762       0.75054762       0.00000000 </v>
    <v>       0.50000000       0.74677869       0.25322131 </v>
    <v>       0.00000000       0.00000000       0.50000000 </v>
    <v>       0.24945238       0.00000000       0.75054762 </v>
    <v>       0.25322131       0.25322131       0.50000000 </v>
    <v>       0.00000000       0.24945238       0.75054762 </v>
    <v>       0.50000000       0.00000000       0.50000000 </v>
    <v>       0.75054762       0.00000000       0.75054762 </v>
    <v>       0.74677869       0.25322131       0.50000000 </v>
    <v>       0.50000000       0.25322131       0.74677869 </v>
    <v>       0.00000000       0.50000000       0.50000000 </v>
    <v>       0.25322131       0.50000000       0.74677869 </v>
    <v>       0.25322131       0.74677869       0.50000000 </v>
    <v>       0.00000000       0.75054762       0.75054762 </v>
    <v>       0.74677869       0.50000000       0.74677869 </v>
    <v>       0.74677869       0.74677869       0.50000000 </v>
    <v>       0.50000000       0.74677869       0.74677869 </v>
   </varray>
  </structure>
  <varray name="forces" >
   <v>       0.00000000       0.00000000       0.00000000 </v>
   <v>       0.02296340       0.00000000       0.02296340 </v>
   <v>       0.02296340       0.02296340       0.00000000 </v>
   <v>       0.00000000       0.02296340       0.02296340 </v>
   <v>       0.00000000       0.00000000       0.00000000 </v>
   <v>      -0.02296340       0.00000000       0.02296340 </v>
   <v>      -0.02296340       0.02296340       0.00000000 </v>
   <v>       0.00000000      -0.02263626      -0.02263626 </v>
   <v>       0.00000000       0.00000000       0.00000000 </v>
   <v>      -0.02263626       0.00000000      -0.02263626 </v>
   <v>       0.02296340      -0.02296340       0.00000000 </v>
   <v>       0.00000000      -0.02296340       0.02296340 </v>
   <v>       0.00000000       0.00000000       0.00000000 </v>
   <v>       0.02263626       0.00000000      -0.02263626 </v>
   <v>      -0.02296340      -0.02296340       0.00000000 </v>
   <v>       0.00000000       0.02263626      -0.02263626 </v>
   <v>       0.00000000       0.00000000       0.00000000 </v>
   <v>       0.02296340       0.00000000      -0.02296340 </v>
   <v>      -0.02263626      -0.02263626       0.00000000 </v>
   <v>       0.00000000       0.02296340      -0.02296340 </v>
   <v>       0.00000000       0.00000000       0.00000000 </v>
   <v>      -0.02296340       0.00000000      -0.02296340 </v>
   <v>       0.02263626      -0.02263626       0.00000000 </v>
   <v>       0.00000000      -0.02263626       0.02263626 </v>
   <v>       0.00000000       0.00000000       0.00000000 </v>
   <v>      -0.02263626       0.00000000       0.02263626 </v>
   <v>      -0.02263626       0.02263626       0.00000000 </v>
   <v>       0.00000000      -0.02296340      -0.02296340 </v>
   <v>       0.02263626       0.00000000       0.02263626 </v>
   <v>       0.02263626       0.02263626       0.00000000 </v>
   <v>       0.00000000       0.02263626       0.02263626 </v>
  </varray>
  <varray name="stress" >
   <v>      -7.90146069       0.00000000       0.00000000 </v>
   <v>       0.00000000      -7.90146069       0.00000000 </v>
   <v>       0.00000000       0.00000000      -7.90146069 </v>
  </varray>
  <energy>
   <i name="e_fr_energy">   -114.60322891 </i>
   <i name="e_wo_entrp">   -114.58645595 </i>
   <i name="e_0_energy">     -0.05031890 </i>
  </energy>
  <time name="totalsc">  132.58   56.30</time>
  <eigenvalues>
   <array>
    <dimension dim="1">band</dimension>
    <dimension dim="2">kpoint</dimension>
    <dimension dim="3">spin</dimension>
    <field>eigene</field>
    <field>occ</field>
    <set>
     <set comment="spin 1">
      <set comment="kpoint 1">
       <r>   -2.9337    1.0000 </r>
       <r>   -1.8589    1.0000 </r>
       <r>   -1.8589    1.0000 </r>
       <r>   -1.6858    1.0000 </r>
       <r>   -0.7439    1.0000 </r>
       <r>   -0.7439    1.0000 </r>
       <r>   -0.4971    1.0000 </r>
       <r>    0.3597    1.0000 </r>
       <r>    0.3597    1.0000 </r>
       <r>    0.4267    1.0000 </r>
       <r>    0.6056    1.0000 </r>
       <r>    1.4280    1.0000 </r>
       <r>    1.4280    1.0000 </r>
       <r>    1.4562    1.0000 </r>
       <r>    1.5636    1.0000 </r>
       <r>    1.5636    1.0000 </r>
       <r>    1.9085    1.0000 </r>
       <r>    2.6339    1.0000 </r>
       <r>    2.6339    1.0000 </r>
       <r>    2.7514    1.0000 </r>
       <r>    3.5949    1.0000 </r>
       <r>    3.5949    1.0000 </r>
       <r>    3.6967    1.0000 </r>
       <r>    3.6976    1.0000 </r>
       <r>    3.6976    1.0000 </r>
       <r>    3.9899    1.0000 </r>
       <r>    4.6221    1.0000 </r>
       <r>    4.6221    1.0000 </r>
       <r>    4.6534    1.0000 </r>
       <r>    4.7174    1.0000 </r>
       <r>    4.7174    1.0000 </r>
       <r>    4.9103    1.0000 </r>
       <r>    4.9103    1.0000 </r>
       <r>    4.9159    1.0000 </r>
       <r>    5.1739    1.0000 </r>
       <r>    5.7630    1.0000 </r>
       <r>    5.7630    1.0000 </r>
       <r>    6.2227    1.0000 </r>
       <r>    6.7765    1.0000 </r>
       <r>    6.7934    1.0000 </r>
       <r>    6.7934    1.0000 </r>
       <r>    6.9707    1.0000 </r>
       <r>    7.0235    1.0000 </r>
       <r>    7.0315    1.0000 </r>
       <r>    7.0315    1.0000 </r>
       <r>    7.8348    0.6771 </r>
       <r>    7.8812    0.4854 </r>
       <r>    7.8812    0.4854 </r>
       <r>    8.0964   -0.0323 </r>
       <r>    8.0964   -0.0323 </r>
       <r>    8.1544   -0.0324 </r>
       <r>    8.1957   -0.0235 </r>
       <r>    8.1957   -0.0235 </r>
       <r>    8.3193   -0.0039 </r>
       <r>    9.1492    0.0000 </r>
       <r>    9.1492    0.0000 </r>
       <r>    9.1805    0.0000 </r>
       <r>    9.4096    0.0000 </r>
       <r>    9.4096    0.0000 </r>
       <r>    9.4358    0.0000 </r>
       <r>   10.0130    0.0000 </r>
       <r>   10.0185    0.0000 </r>
      </set>
     </set>
    </set>
   </array>
  </eigenvalues>
  <separator name="orbital magnetization" >
   <v name="MAGDIPOLOUT">      0.00000000      0.00000000      0.00000000</v>
  </separator>
  <dos>
   <i name="efermi">      7.87772801 </i>
   <total>
    <array>
     <dimension dim="1">gridpoints</dimension>
     <dimension dim="2">spin</dimension>
     <field>energy</field>
     <field>total</field>
     <field>integrated</field>
     <set>
      <set comment="spin 1">
       <r>  -4.9337   0.0000   0.0000 </r>
       <r>  -4.8772   0.0000   0.0000 </r>
       <r>  -4.8207   0.0000   0.0000 </r>
       <r>  -4.7642   0.0000   0.0000 </r>
       <r>  -4.7077   0.0000   0.0000 </r>
       <r>  -4.6512   0.0000   0.0000 </r>
       <r>  -4.5946   0.0000   0.0000 </r>
       <r>  -4.5381   0.0000   0.0000 </r>
       <r>  -4.4816   0.0000   0.0000 </r>
       <r>  -4.4251   0.0000   0.0000 </r>
       <r>  -4.3686   0.0000   0.0000 </r>
       <r>  -4.3121   0.0000   0.0000 </r>
       <r>  -4.2556   0.0000   0.0000 </r>
       <r>  -4.1991   0.0000   0.0000 </r>
       <r>  -4.1426   0.0000   0.0000 </r>
       <r>  -4.0861   0.0000   0.0000 </r>
       <r>  -4.0296   0.0000   0.0000 </r>
       <r>  -3.9731   0.0000   0.0000 </r>
       <r>  -3.9166   0.0000   0.0000 </r>
       <r>  -3.8601   0.0000   0.0000 </r>
       <r>  -3.8035   0.0000   0.0000 </r>
       <r>  -3.7470   0.0000   0.0000 </r>
       <r>  -3.6905   0.0000   0.0000 </r>
       <r>  -3.6340  -0.0001   0.0000 </r>
       <r>  -3.5775  -0.0008  -0.0001 </r>
       <r>  -3.5210  -0.0038  -0.0003 </r>
       <r>  -3.4645  -0.0153  -0.0011 </r>
       <r>  -3.4080  -0.0513  -0.0040 </r>
       <r>  -3.3515  -0.1387  -0.0119 </r>
       <r>  -3.2950  -0.2920  -0.0284 </r>
       <r>  -3.2385  -0.4385  -0.0531 </r>
       <r>  -3.1820  -0.3130  -0.0708 </r>
       <r>  -3.1255   0.5347  -0.0406 </r>
       <r>  -3.0689   2.4417   0.0974 </r>
       <r>  -3.0124   5.1325   0.3874 </r>
       <r>  -2.9559   7.5328   0.8130 </r>
       <r>  -2.8994   8.3574   1.2853 </r>
       <r>  -2.8429   7.1163   1.6874 </r>
       <r>  -2.7864   4.5385   1.9439 </r>
       <r>  -2.7299   1.9482   2.0540 </r>
       <r>  -2.6734   0.2711   2.0693 </r>
       <r>  -2.6169  -0.3836   2.0476 </r>
       <r>  -2.5604  -0.4178   2.0240 </r>
       <r>  -2.5039  -0.2567   2.0095 </r>
       <r>  -2.4474  -0.1217   2.0026 </r>
       <r>  -2.3909  -0.0704   1.9986 </r>
       <r>  -2.3344  -0.1125   1.9923 </r>
       <r>  -2.2778  -0.2783   1.9766 </r>
       <r>  -2.2213  -0.5909   1.9432 </r>
       <r>  -2.1648  -0.9205   1.8911 </r>
       <r>  -2.1083  -0.7714   1.8476 </r>
       <r>  -2.0518   0.7350   1.8891 </r>
       <r>  -1.9953   4.3499   2.1349 </r>
       <r>  -1.9388   9.8025   2.6888 </r>
       <r>  -1.8823  15.4130   3.5598 </r>
       <r>  -1.8258  18.9644   4.6314 </r>
       <r>  -1.7693  19.2191   5.7174 </r>
       <r>  -1.7128  16.5715   6.6538 </r>
       <r>  -1.6563  12.3602   7.3522 </r>
       <r>  -1.5998   7.8804   7.7975 </r>
       <r>  -1.5433   4.0194   8.0247 </r>
       <r>  -1.4867   1.2989   8.0981 </r>
       <r>  -1.4302  -0.1482   8.0897 </r>
       <r>  -1.3737  -0.5948   8.0561 </r>
       <r>  -1.3172  -0.5207   8.0267 </r>
       <r>  -1.2607  -0.3357   8.0077 </r>
       <r>  -1.2042  -0.2635   7.9928 </r>
       <r>  -1.1477  -0.3882   7.9709 </r>
       <r>  -1.0912  -0.6868   7.9321 </r>
       <r>  -1.0347  -0.9124   7.8805 </r>
       <r>  -0.9782  -0.4236   7.8566 </r>
       <r>  -0.9217   1.6846   7.9518 </r>
       <r>  -0.8652   5.8574   8.2827 </r>
       <r>  -0.8087  11.1872   8.9149 </r>
       <r>  -0.7521  15.4895   9.7902 </r>
       <r>  -0.6956  16.8471  10.7421 </r>
       <r>  -0.6391  15.2648  11.6047 </r>
       <r>  -0.5826  12.4971  12.3109 </r>
       <r>  -0.5261  10.1669  12.8854 </r>
       <r>  -0.4696   8.4195  13.3612 </r>
       <r>  -0.4131   6.4985  13.7284 </r>
       <r>  -0.3566   4.1077  13.9605 </r>
       <r>  -0.3001   1.7916  14.0617 </r>
       <r>  -0.2436   0.2281  14.0746 </r>
       <r>  -0.1871  -0.4307  14.0503 </r>
       <r>  -0.1306  -0.5297  14.0204 </r>
       <r>  -0.0741  -0.5239  13.9907 </r>
       <r>  -0.0176  -0.7060  13.9509 </r>
       <r>   0.0390  -1.0834  13.8896 </r>
       <r>   0.0955  -1.2212  13.8206 </r>
       <r>   0.1520  -0.1222  13.8137 </r>
       <r>   0.2085   3.4160  14.0068 </r>
       <r>   0.2650   9.7387  14.5571 </r>
       <r>   0.3215  17.3064  15.5350 </r>
       <r>   0.3780  23.0912  16.8398 </r>
       <r>   0.4345  24.6437  18.2324 </r>
       <r>   0.4910  21.9683  19.4737 </r>
       <r>   0.5475  17.1790  20.4445 </r>
       <r>   0.6040  12.4237  21.1465 </r>
       <r>   0.6605   8.4829  21.6259 </r>
       <r>   0.7170   5.1900  21.9191 </r>
       <r>   0.7735   2.4681  22.0586 </r>
       <r>   0.8301   0.5672  22.0906 </r>
       <r>   0.8866  -0.3849  22.0689 </r>
       <r>   0.9431  -0.6525  22.0320 </r>
       <r>   0.9996  -0.7139  21.9917 </r>
       <r>   1.0561  -0.9543  21.9378 </r>
       <r>   1.1126  -1.4281  21.8571 </r>
       <r>   1.1691  -1.6177  21.7656 </r>
       <r>   1.2256  -0.2842  21.7496 </r>
       <r>   1.2821   4.1303  21.9830 </r>
       <r>   1.3386  12.2878  22.6773 </r>
       <r>   1.3951  22.6739  23.9586 </r>
       <r>   1.4516  31.6689  25.7481 </r>
       <r>   1.5081  35.4555  27.7516 </r>
       <r>   1.5646  32.4177  29.5834 </r>
       <r>   1.6212  24.1469  30.9479 </r>
       <r>   1.6777  14.4373  31.7637 </r>
       <r>   1.7342   7.1309  32.1667 </r>
       <r>   1.7907   4.1563  32.4015 </r>
       <r>   1.8472   4.8096  32.6733 </r>
       <r>   1.9037   6.6366  33.0483 </r>
       <r>   1.9602   7.2840  33.4599 </r>
       <r>   2.0167   5.9634  33.7969 </r>
       <r>   2.0732   3.4982  33.9946 </r>
       <r>   2.1297   1.2023  34.0625 </r>
       <r>   2.1862  -0.2156  34.0503 </r>
       <r>   2.2427  -0.8733  34.0010 </r>
       <r>   2.2992  -1.1974  33.9333 </r>
       <r>   2.3558  -1.2732  33.8614 </r>
       <r>   2.4123  -0.5095  33.8326 </r>
       <r>   2.4688   2.1247  33.9526 </r>
       <r>   2.5253   7.2223  34.3608 </r>
       <r>   2.5818  13.9205  35.1474 </r>
       <r>   2.6383  19.7986  36.2661 </r>
       <r>   2.6948  22.2071  37.5210 </r>
       <r>   2.7513  20.0755  38.6554 </r>
       <r>   2.8078  14.5911  39.4799 </r>
       <r>   2.8643   8.2334  39.9452 </r>
       <r>   2.9208   3.1646  40.1240 </r>
       <r>   2.9773   0.2612  40.1387 </r>
       <r>   3.0338  -0.8006  40.0935 </r>
       <r>   3.0903  -0.8671  40.0445 </r>
       <r>   3.1469  -0.7008  40.0049 </r>
       <r>   3.2034  -0.7477  39.9627 </r>
       <r>   3.2599  -1.1356  39.8985 </r>
       <r>   3.3164  -1.6039  39.8079 </r>
       <r>   3.3729  -1.2839  39.7353 </r>
       <r>   3.4294   1.3236  39.8101 </r>
       <r>   3.4859   7.6483  40.2423 </r>
       <r>   3.5424  17.6285  41.2384 </r>
       <r>   3.5989  28.6220  42.8558 </r>
       <r>   3.6554  36.1216  44.8969 </r>
       <r>   3.7119  36.4918  46.9590 </r>
       <r>   3.7684  29.7698  48.6412 </r>
       <r>   3.8249  19.8764  49.7643 </r>
       <r>   3.8814  11.7129  50.4262 </r>
       <r>   3.9380   7.6820  50.8603 </r>
       <r>   3.9945   6.7257  51.2403 </r>
       <r>   4.0510   6.2910  51.5958 </r>
       <r>   4.1075   4.8290  51.8687 </r>
       <r>   4.1640   2.5266  52.0115 </r>
       <r>   4.2205   0.2961  52.0282 </r>
       <r>   4.2770  -1.3300  51.9530 </r>
       <r>   4.3335  -2.2305  51.8270 </r>
       <r>   4.3900  -1.9172  51.7187 </r>
       <r>   4.4465   0.9429  51.7719 </r>
       <r>   4.5030   7.7736  52.2112 </r>
       <r>   4.5595  18.3284  53.2469 </r>
       <r>   4.6160  29.6273  54.9211 </r>
       <r>   4.6726  37.3858  57.0336 </r>
       <r>   4.7291  39.2765  59.2530 </r>
       <r>   4.7856  36.6985  61.3268 </r>
       <r>   4.8421  32.8531  63.1832 </r>
       <r>   4.8986  29.3329  64.8407 </r>
       <r>   4.9551  25.3471  66.2730 </r>
       <r>   5.0116  20.0764  67.4075 </r>
       <r>   5.0681  14.5176  68.2278 </r>
       <r>   5.1246  10.4014  68.8156 </r>
       <r>   5.1811   8.1102  69.2739 </r>
       <r>   5.2376   6.5075  69.6416 </r>
       <r>   5.2941   4.5057  69.8962 </r>
       <r>   5.3506   2.1118  70.0155 </r>
       <r>   5.4071   0.0186  70.0166 </r>
       <r>   5.4637  -1.1682  69.9506 </r>
       <r>   5.5202  -1.0171  69.8931 </r>
       <r>   5.5767   0.9960  69.9494 </r>
       <r>   5.6332   5.1797  70.2421 </r>
       <r>   5.6897  10.7151  70.8476 </r>
       <r>   5.7462  15.3253  71.7136 </r>
       <r>   5.8027  16.5100  72.6465 </r>
       <r>   5.8592  13.5248  73.4107 </r>
       <r>   5.9157   8.1010  73.8685 </r>
       <r>   5.9722   3.1488  74.0464 </r>
       <r>   6.0287   0.8182  74.0927 </r>
       <r>   6.0852   1.5366  74.1795 </r>
       <r>   6.1417   4.2125  74.4175 </r>
       <r>   6.1982   6.9735  74.8116 </r>
       <r>   6.2548   8.1113  75.2699 </r>
       <r>   6.3113   6.9751  75.6641 </r>
       <r>   6.3678   4.2186  75.9025 </r>
       <r>   6.4243   1.1565  75.9678 </r>
       <r>   6.4808  -1.0525  75.9083 </r>
       <r>   6.5373  -1.5539  75.8205 </r>
       <r>   6.5938   0.4967  75.8486 </r>
       <r>   6.6503   5.6748  76.1693 </r>
       <r>   6.7068  13.3258  76.9223 </r>
       <r>   6.7633  21.2817  78.1248 </r>
       <r>   6.8198  27.3508  79.6704 </r>
       <r>   6.8763  31.1642  81.4314 </r>
       <r>   6.9328  33.7700  83.3396 </r>
       <r>   6.9894  35.2150  85.3295 </r>
       <r>   7.0459  33.5889  87.2275 </r>
       <r>   7.1024  27.2688  88.7684 </r>
       <r>   7.1589  17.4938  89.7570 </r>
       <r>   7.2154   7.8436  90.2002 </r>
       <r>   7.2719   1.3461  90.2763 </r>
       <r>   7.3284  -1.4274  90.1956 </r>
       <r>   7.3849  -1.8180  90.0929 </r>
       <r>   7.4414  -1.4727  90.0096 </r>
       <r>   7.4979  -1.3326  89.9343 </r>
       <r>   7.5544  -1.4452  89.8527 </r>
       <r>   7.6109  -1.0623  89.7927 </r>
       <r>   7.6674   1.0854  89.8540 </r>
       <r>   7.7239   5.9585  90.1907 </r>
       <r>   7.7805  12.9869  90.9245 </r>
       <r>   7.8370  19.7665  92.0415 </r>
       <r>   7.8935  23.8071  93.3868 </r>
       <r>   7.9500  25.0999  94.8051 </r>
       <r>   8.0065  26.4313  96.2987 </r>
       <r>   8.0630  30.3882  98.0158 </r>
       <r>   8.1195  36.1435 100.0582 </r>
       <r>   8.1760  39.7934 102.3068 </r>
       <r>   8.2325  37.9153 104.4493 </r>
       <r>   8.2890  30.4474 106.1698 </r>
       <r>   8.3455  20.2954 107.3166 </r>
       <r>   8.4020  10.8642 107.9305 </r>
       <r>   8.4585   4.1496 108.1650 </r>
       <r>   8.5150   0.4507 108.1905 </r>
       <r>   8.5716  -0.9650 108.1360 </r>
       <r>   8.6281  -1.1242 108.0724 </r>
       <r>   8.6846  -0.8911 108.0221 </r>
       <r>   8.7411  -0.7987 107.9769 </r>
       <r>   8.7976  -1.0330 107.9186 </r>
       <r>   8.8541  -1.3642 107.8415 </r>
       <r>   8.9106  -0.9792 107.7861 </r>
       <r>   8.9671   1.4162 107.8662 </r>
       <r>   9.0236   6.7321 108.2466 </r>
       <r>   9.0801  14.1854 109.0482 </r>
       <r>   9.1366  21.0663 110.2386 </r>
       <r>   9.1931  24.6796 111.6331 </r>
       <r>   9.2496  24.9095 113.0407 </r>
       <r>   9.3062  24.2337 114.4101 </r>
       <r>   9.3627  24.6551 115.8033 </r>
       <r>   9.4192  25.1684 117.2255 </r>
       <r>   9.4757  23.0090 118.5257 </r>
       <r>   9.5322  17.0686 119.4902 </r>
       <r>   9.5887   9.2538 120.0131 </r>
       <r>   9.6452   2.5845 120.1591 </r>
       <r>   9.7017  -1.2147 120.0905 </r>
       <r>   9.7582  -2.0787 119.9730 </r>
       <r>   9.8147  -0.4199 119.9493 </r>
       <r>   9.8712   3.5406 120.1493 </r>
       <r>   9.9277   9.1136 120.6643 </r>
       <r>   9.9842  14.3545 121.4755 </r>
       <r>  10.0407  16.7065 122.4195 </r>
       <r>  10.0973  14.8794 123.2603 </r>
       <r>  10.1538   9.9935 123.8250 </r>
       <r>  10.2103   4.6526 124.0879 </r>
       <r>  10.2668   0.9428 124.1412 </r>
       <r>  10.3233  -0.6619 124.1038 </r>
       <r>  10.3798  -0.8686 124.0547 </r>
       <r>  10.4363  -0.5671 124.0226 </r>
       <r>  10.4928  -0.2659 124.0076 </r>
       <r>  10.5493  -0.0974 124.0021 </r>
       <r>  10.6058  -0.0288 124.0005 </r>
       <r>  10.6623  -0.0070 124.0001 </r>
       <r>  10.7188  -0.0014 124.0000 </r>
       <r>  10.7753  -0.0002 124.0000 </r>
       <r>  10.8318   0.0000 124.0000 </r>
       <r>  10.8884   0.0000 124.0000 </r>
       <r>  10.9449   0.0000 124.0000 </r>
       <r>  11.0014   0.0000 124.0000 </r>
       <r>  11.0579   0.0000 124.0000 </r>
       <r>  11.1144   0.0000 124.0000 </r>
       <r>  11.1709   0.0000 124.0000 </r>
       <r>  11.2274   0.0000 124.0000 </r>
       <r>  11.2839   0.0000 124.0000 </r>
       <r>  11.3404   0.0000 124.0000 </r>
       <r>  11.3969   0.0000 124.0000 </r>
       <r>  11.4534   0.0000 124.0000 </r>
       <r>  11.5099   0.0000 124.0000 </r>
       <r>  11.5664   0.0000 124.0000 </r>
       <r>  11.6230   0.0000 124.0000 </r>
       <r>  11.6795   0.0000 124.0000 </r>
       <r>  11.7360   0.0000 124.0000 </r>
       <r>  11.7925   0.0000 124.0000 </r>
       <r>  11.8490   0.0000 124.0000 </r>
       <r>  11.9055   0.0000 124.0000 </r>
       <r>  11.9620   0.0000 124.0000 </r>
       <r>  12.0185   0.0000 124.0000 </r>
      </set>
     </set>
    </array>
   </total>
  </dos>
 </calculation>
 <structure name="finalpos" >
  <crystal>
   <varray name="basis" >
    <v>       8.08705400       0.00000000       0.00000000 </v>
    <v>       0.00000000       8.08705400       0.00000000 </v>
    <v>       0.00000000       0.00000000       8.08705400 </v>
   </varray>
   <i name="volume">    528.89690930 </i>
   <varray name="rec_basis" >
    <v>       0.12365442       0.00000000       0.00000000 </v>
    <v>       0.00000000       0.12365442       0.00000000 </v>
    <v>       0.00000000       0.00000000       0.12365442 </v>
   </varray>
  </crystal>
  <varray name="positions" >
   <v>       0.00000000       0.00000000       0.00000000 </v>
   <v>       0.24945238       0.00000000       0.24945238 </v>
   <v>       0.24945238       0.24945238       0.00000000 </v>
   <v>       0.00000000       0.24945238       0.24945238 </v>
   <v>       0.50000000       0.00000000       0.00000000 </v>
   <v>       0.75054762       0.00000000       0.24945238 </v>
   <v>       0.75054762       0.24945238       0.00000000 </v>
   <v>       0.50000000       0.25322131       0.25322131 </v>
   <v>       0.00000000       0.50000000       0.00000000 </v>
   <v>       0.25322131       0.50000000       0.25322131 </v>
   <v>       0.24945238       0.75054762       0.00000000 </v>
   <v>       0.00000000       0.75054762       0.24945238 </v>
   <v>       0.50000000       0.50000000       0.00000000 </v>
   <v>       0.74677869       0.50000000       0.25322131 </v>
   <v>       0.75054762       0.75054762       0.00000000 </v>
   <v>       0.50000000       0.74677869       0.25322131 </v>
   <v>       0.00000000       0.00000000       0.50000000 </v>
   <v>       0.24945238       0.00000000       0.75054762 </v>
   <v>       0.25322131       0.25322131       0.50000000 </v>
   <v>       0.00000000       0.24945238       0.75054762 </v>
   <v>       0.50000000       0.00000000       0.50000000 </v>
   <v>       0.75054762       0.00000000       0.75054762 </v>
   <v>       0.74677869       0.25322131       0.50000000 </v>
   <v>       0.50000000       0.25322131       0.74677869 </v>
   <v>       0.00000000       0.50000000       0.50000000 </v>
   <v>       0.25322131       0.50000000       0.74677869 </v>
   <v>       0.25322131       0.74677869       0.50000000 </v>
   <v>       0.00000000       0.75054762       0.75054762 </v>
   <v>       0.74677869       0.50000000       0.74677869 </v>
   <v>       0.74677869       0.74677869       0.50000000 </v>
   <v>       0.50000000       0.74677869       0.74677869 </v>
  </varray>
 </structure>
</modeling>
