  31  31   0   0
  0.1706119E+02  0.8087054E-09  0.8087054E-09  0.8087054E-09  0.5000000E-15
  1.000000000000000E-004
  CAR 
 unknown system                          
     12.03139052     -4.93330190  301      7.87781620      1.00000000
     -4.933  0.0000E+00  0.0000E+00
     -4.877  0.0000E+00  0.0000E+00
     -4.820  0.0000E+00  0.0000E+00
     -4.764  0.0000E+00  0.0000E+00
     -4.707  0.0000E+00  0.0000E+00
     -4.651  0.0000E+00  0.0000E+00
     -4.594  0.0000E+00  0.0000E+00
     -4.537 -0.4816E-28 -0.2724E-29
     -4.481 -0.3953E-26 -0.2263E-27
     -4.424 -0.2790E-24 -0.1600E-25
     -4.368 -0.1674E-22 -0.9629E-24
     -4.311 -0.8549E-21 -0.4930E-22
     -4.255 -0.3711E-19 -0.2148E-20
     -4.198 -0.1370E-17 -0.7960E-19
     -4.142 -0.4296E-16 -0.2509E-17
     -4.085 -0.1114E-14 -0.6551E-16
     -4.029 -0.2505E-13 -0.1482E-14
     -3.972 -0.4797E-12 -0.2861E-13
     -3.915 -0.7784E-11 -0.4688E-12
     -3.859 -0.1070E-09 -0.6519E-11
     -3.802 -0.1245E-08 -0.7690E-10
     -3.746 -0.1223E-07 -0.7687E-09
     -3.689 -0.1014E-06 -0.6505E-08
     -3.633 -0.7080E-06 -0.4654E-07
     -3.576 -0.4146E-05 -0.2810E-06
     -3.520 -0.2028E-04 -0.1428E-05
     -3.463 -0.8235E-04 -0.6085E-05
     -3.406 -0.2746E-03 -0.2161E-04
     -3.350 -0.7390E-03 -0.6341E-04
     -3.293 -0.1548E-02 -0.1510E-03
     -3.237 -0.2304E-02 -0.2812E-03
     -3.180 -0.1590E-02 -0.3711E-03
     -3.124  0.2966E-02 -0.2034E-03
     -3.067  0.1309E-01  0.5367E-03
     -3.011  0.2723E-01  0.2077E-02
     -2.954  0.3967E-01  0.4320E-02
     -2.898  0.4372E-01  0.6792E-02
     -2.841  0.3696E-01  0.8882E-02
     -2.784  0.2336E-01  0.1020E-01
     -2.728  0.9872E-02  0.1076E-01
     -2.671  0.1251E-02  0.1083E-01
     -2.615 -0.2048E-02  0.1072E-01
     -2.558 -0.2168E-02  0.1059E-01
     -2.502 -0.1317E-02  0.1052E-01
     -2.445 -0.6218E-03  0.1048E-01
     -2.389 -0.3679E-03  0.1046E-01
     -2.332 -0.6077E-03  0.1043E-01
     -2.276 -0.1503E-02  0.1034E-01
     -2.219 -0.3165E-02  0.1016E-01
     -2.162 -0.4860E-02  0.9890E-02
     -2.106 -0.3899E-02  0.9670E-02
     -2.049  0.4369E-02  0.9917E-02
     -1.993  0.2377E-01  0.1126E-01
     -1.936  0.5258E-01  0.1423E-01
     -1.880  0.8175E-01  0.1886E-01
     -1.823  0.9971E-01  0.2450E-01
     -1.767  0.1003E+00  0.3017E-01
     -1.710  0.8592E-01  0.3503E-01
     -1.653  0.6366E-01  0.3863E-01
     -1.597  0.4025E-01  0.4090E-01
     -1.540  0.2024E-01  0.4205E-01
     -1.484  0.6301E-02  0.4240E-01
     -1.427 -0.9876E-03  0.4235E-01
     -1.371 -0.3138E-02  0.4217E-01
     -1.314 -0.2679E-02  0.4202E-01
     -1.258 -0.1719E-02  0.4192E-01
     -1.201 -0.1387E-02  0.4184E-01
     -1.145 -0.2096E-02  0.4172E-01
     -1.088 -0.3687E-02  0.4152E-01
     -1.031 -0.4775E-02  0.4125E-01
     -0.975 -0.1879E-02  0.4114E-01
     -0.918  0.9742E-02  0.4169E-01
     -0.862  0.3214E-01  0.4351E-01
     -0.805  0.6010E-01  0.4691E-01
     -0.749  0.8198E-01  0.5154E-01
     -0.692  0.8812E-01  0.5653E-01
     -0.636  0.7920E-01  0.6100E-01
     -0.579  0.6467E-01  0.6466E-01
     -0.522  0.5268E-01  0.6764E-01
     -0.466  0.4353E-01  0.7010E-01
     -0.409  0.3326E-01  0.7198E-01
     -0.353  0.2062E-01  0.7315E-01
     -0.296  0.8658E-02  0.7364E-01
     -0.240  0.8094E-03  0.7368E-01
     -0.183 -0.2358E-02  0.7355E-01
     -0.127 -0.2762E-02  0.7339E-01
     -0.070 -0.2761E-02  0.7324E-01
     -0.014 -0.3803E-02  0.7302E-01
      0.043 -0.5804E-02  0.7270E-01
      0.100 -0.6289E-02  0.7234E-01
      0.156  0.1511E-03  0.7235E-01
      0.213  0.1974E-01  0.7346E-01
      0.269  0.5373E-01  0.7650E-01
      0.326  0.9331E-01  0.8178E-01
      0.382  0.1224E+00  0.8870E-01
      0.439  0.1287E+00  0.9598E-01
      0.495  0.1134E+00  0.1024E+00
      0.552  0.8799E-01  0.1074E+00
      0.608  0.6332E-01  0.1109E+00
      0.665  0.4296E-01  0.1134E+00
      0.722  0.2593E-01  0.1148E+00
      0.778  0.1195E-01  0.1155E+00
      0.835  0.2393E-02  0.1157E+00
      0.891 -0.2229E-02  0.1155E+00
      0.948 -0.3446E-02  0.1153E+00
      1.004 -0.3783E-02  0.1151E+00
      1.061 -0.5162E-02  0.1148E+00
      1.117 -0.7675E-02  0.1144E+00
      1.174 -0.8312E-02  0.1139E+00
      1.231 -0.2968E-03  0.1139E+00
      1.287  0.2445E-01  0.1153E+00
      1.344  0.6866E-01  0.1192E+00
      1.400  0.1233E+00  0.1261E+00
      1.457  0.1689E+00  0.1357E+00
      1.513  0.1857E+00  0.1462E+00
      1.570  0.1669E+00  0.1556E+00
      1.626  0.1219E+00  0.1625E+00
      1.683  0.7142E-01  0.1666E+00
      1.739  0.3496E-01  0.1685E+00
      1.796  0.2146E-01  0.1698E+00
      1.853  0.2605E-01  0.1712E+00
      1.909  0.3547E-01  0.1732E+00
      1.966  0.3789E-01  0.1754E+00
      2.022  0.3011E-01  0.1771E+00
      2.079  0.1700E-01  0.1780E+00
      2.135  0.5338E-02  0.1783E+00
      2.192 -0.1615E-02  0.1783E+00
      2.248 -0.4794E-02  0.1780E+00
      2.305 -0.6396E-02  0.1776E+00
      2.362 -0.6547E-02  0.1773E+00
      2.418 -0.1791E-02  0.1771E+00
      2.475  0.1331E-01  0.1779E+00
      2.531  0.4130E-01  0.1802E+00
      2.588  0.7668E-01  0.1846E+00
      2.644  0.1062E+00  0.1906E+00
      2.701  0.1163E+00  0.1972E+00
      2.757  0.1027E+00  0.2030E+00
      2.814  0.7270E-01  0.2071E+00
      2.870  0.3962E-01  0.2093E+00
      2.927  0.1423E-01  0.2101E+00
      2.984  0.2845E-03  0.2101E+00
      3.040 -0.4426E-02  0.2099E+00
      3.097 -0.4442E-02  0.2096E+00
      3.153 -0.3601E-02  0.2094E+00
      3.210 -0.4041E-02  0.2092E+00
      3.266 -0.6236E-02  0.2088E+00
      3.323 -0.8527E-02  0.2084E+00
      3.379 -0.5955E-02  0.2080E+00
      3.436  0.9565E-02  0.2086E+00
      3.492  0.4506E-01  0.2111E+00
      3.549  0.9887E-01  0.2167E+00
      3.606  0.1556E+00  0.2255E+00
      3.662  0.1914E+00  0.2363E+00
      3.719  0.1886E+00  0.2470E+00
      3.775  0.1502E+00  0.2555E+00
      3.832  0.9829E-01  0.2611E+00
      3.888  0.5778E-01  0.2643E+00
      3.945  0.3910E-01  0.2665E+00
      4.001  0.3506E-01  0.2685E+00
      4.058  0.3234E-01  0.2703E+00
      4.115  0.2394E-01  0.2717E+00
      4.171  0.1167E-01  0.2724E+00
      4.228  0.3012E-03  0.2724E+00
      4.284 -0.7771E-02  0.2719E+00
      4.341 -0.1193E-01  0.2713E+00
      4.397 -0.9085E-02  0.2707E+00
      4.454  0.8176E-02  0.2712E+00
      4.510  0.4678E-01  0.2739E+00
      4.567  0.1037E+00  0.2797E+00
      4.623  0.1618E+00  0.2889E+00
      4.680  0.1989E+00  0.3001E+00
      4.737  0.2050E+00  0.3117E+00
      4.793  0.1897E+00  0.3224E+00
      4.850  0.1696E+00  0.3320E+00
      4.906  0.1511E+00  0.3406E+00
      4.963  0.1294E+00  0.3479E+00
      5.019  0.1011E+00  0.3536E+00
      5.076  0.7255E-01  0.3577E+00
      5.132  0.5239E-01  0.3607E+00
      5.189  0.4127E-01  0.3630E+00
      5.246  0.3274E-01  0.3649E+00
      5.302  0.2179E-01  0.3661E+00
      5.359  0.9233E-02  0.3666E+00
      5.415 -0.1180E-02  0.3665E+00
      5.472 -0.6505E-02  0.3662E+00
      5.528 -0.4489E-02  0.3659E+00
      5.585  0.7666E-02  0.3664E+00
      5.641  0.3105E-01  0.3681E+00
      5.698  0.6022E-01  0.3715E+00
      5.754  0.8248E-01  0.3762E+00
      5.811  0.8543E-01  0.3810E+00
      5.868  0.6709E-01  0.3848E+00
      5.924  0.3809E-01  0.3870E+00
      5.981  0.1369E-01  0.3877E+00
      6.037  0.3992E-02  0.3880E+00
      6.094  0.9860E-02  0.3885E+00
      6.150  0.2462E-01  0.3899E+00
      6.207  0.3822E-01  0.3921E+00
      6.263  0.4229E-01  0.3945E+00
      6.320  0.3457E-01  0.3964E+00
      6.376  0.1939E-01  0.3975E+00
      6.433  0.3741E-02  0.3977E+00
      6.490 -0.6667E-02  0.3973E+00
      6.546 -0.7501E-02  0.3969E+00
      6.603  0.5655E-02  0.3972E+00
      6.659  0.3521E-01  0.3992E+00
      6.716  0.7643E-01  0.4036E+00
      6.772  0.1172E+00  0.4102E+00
      6.829  0.1471E+00  0.4185E+00
      6.885  0.1658E+00  0.4279E+00
      6.942  0.1788E+00  0.4380E+00
      6.999  0.1845E+00  0.4484E+00
      7.055  0.1722E+00  0.4582E+00
      7.112  0.1352E+00  0.4658E+00
      7.168  0.8271E-01  0.4705E+00
      7.225  0.3408E-01  0.4724E+00
      7.281  0.3417E-02  0.4726E+00
      7.338 -0.8417E-02  0.4721E+00
      7.394 -0.9289E-02  0.4716E+00
      7.451 -0.7447E-02  0.4712E+00
      7.507 -0.7040E-02  0.4708E+00
      7.564 -0.7575E-02  0.4704E+00
      7.621 -0.4516E-02  0.4701E+00
      7.677  0.8930E-02  0.4706E+00
      7.734  0.3688E-01  0.4727E+00
      7.790  0.7457E-01  0.4769E+00
      7.847  0.1084E+00  0.4830E+00
      7.903  0.1267E+00  0.4902E+00
      7.960  0.1323E+00  0.4977E+00
      8.016  0.1411E+00  0.5057E+00
      8.073  0.1644E+00  0.5150E+00
      8.130  0.1941E+00  0.5259E+00
      8.186  0.2088E+00  0.5377E+00
      8.243  0.1931E+00  0.5487E+00
      8.299  0.1502E+00  0.5572E+00
      8.356  0.9658E-01  0.5626E+00
      8.412  0.4935E-01  0.5654E+00
      8.469  0.1717E-01  0.5664E+00
      8.525  0.3353E-03  0.5664E+00
      8.582 -0.5511E-02  0.5661E+00
      8.638 -0.5699E-02  0.5658E+00
      8.695 -0.4466E-02  0.5655E+00
      8.752 -0.4278E-02  0.5653E+00
      8.808 -0.5766E-02  0.5650E+00
      8.865 -0.7232E-02  0.5645E+00
      8.921 -0.3817E-02  0.5643E+00
      8.978  0.1137E-01  0.5650E+00
      9.034  0.4194E-01  0.5673E+00
      9.091  0.8170E-01  0.5720E+00
      9.147  0.1154E+00  0.5785E+00
      9.204  0.1305E+00  0.5859E+00
      9.260  0.1297E+00  0.5932E+00
      9.317  0.1269E+00  0.6004E+00
      9.374  0.1301E+00  0.6077E+00
      9.430  0.1311E+00  0.6151E+00
      9.487  0.1159E+00  0.6217E+00
      9.543  0.8165E-01  0.6263E+00
      9.600  0.4071E-01  0.6286E+00
      9.656  0.8354E-02  0.6291E+00
      9.713 -0.8295E-02  0.6286E+00
      9.769 -0.9974E-02  0.6281E+00
      9.826  0.1186E-02  0.6281E+00
      9.883  0.2384E-01  0.6295E+00
      9.939  0.5327E-01  0.6325E+00
      9.996  0.7838E-01  0.6369E+00
     10.052  0.8659E-01  0.6418E+00
     10.109  0.7347E-01  0.6460E+00
     10.165  0.4681E-01  0.6486E+00
     10.222  0.2017E-01  0.6498E+00
     10.278  0.2914E-02  0.6499E+00
     10.335 -0.3870E-02  0.6497E+00
     10.391 -0.4276E-02  0.6495E+00
     10.448 -0.2636E-02  0.6493E+00
     10.505 -0.1192E-02  0.6492E+00
     10.561 -0.4244E-03  0.6492E+00
     10.618 -0.1228E-03  0.6492E+00
     10.674 -0.2931E-04  0.6492E+00
     10.731 -0.5824E-05  0.6492E+00
     10.787 -0.9693E-06  0.6492E+00
     10.844 -0.1356E-06  0.6492E+00
     10.900 -0.1600E-07  0.6492E+00
     10.957 -0.1596E-08  0.6492E+00
     11.014 -0.1346E-09  0.6492E+00
     11.070 -0.9628E-11  0.6492E+00
     11.127 -0.5839E-12  0.6492E+00
     11.183 -0.3006E-13  0.6492E+00
     11.240 -0.1316E-14  0.6492E+00
     11.296 -0.4112E-16  0.6492E+00
     11.353  0.0000E+00  0.6492E+00
     11.409  0.0000E+00  0.6492E+00
     11.466  0.0000E+00  0.6492E+00
     11.522  0.0000E+00  0.6492E+00
     11.579  0.0000E+00  0.6492E+00
     11.636  0.0000E+00  0.6492E+00
     11.692  0.0000E+00  0.6492E+00
     11.749  0.0000E+00  0.6492E+00
     11.805  0.0000E+00  0.6492E+00
     11.862  0.0000E+00  0.6492E+00
     11.918  0.0000E+00  0.6492E+00
     11.975  0.0000E+00  0.6492E+00
     12.031  0.0000E+00  0.6492E+00
