   31   31  191    1
  0.1706119E+02  0.8087054E-09  0.8087054E-09  0.8087054E-09  0.5000000E-15
  1.000000000000000E-004
  CAR 
 unknown system                          
   93    1   62
 
  0.2500000E+00  0.2500000E+00  0.2500000E+00  0.1000000E+01
   1       -2.933302
   2       -1.858578
   3       -1.858578
   4       -1.685490
   5       -0.743668
   6       -0.743668
   7       -0.497170
   8        0.360062
   9        0.360062
  10        0.426688
  11        0.605702
  12        1.428232
  13        1.428232
  14        1.456598
  15        1.563638
  16        1.563638
  17        1.908473
  18        2.633837
  19        2.633837
  20        2.750935
  21        3.595114
  22        3.595114
  23        3.696897
  24        3.697990
  25        3.697990
  26        3.989999
  27        4.622257
  28        4.622258
  29        4.653819
  30        4.717371
  31        4.717371
  32        4.910335
  33        4.910335
  34        4.915824
  35        5.173513
  36        5.763031
  37        5.763031
  38        6.222048
  39        6.776812
  40        6.793701
  41        6.793701
  42        6.970551
  43        7.023298
  44        7.031690
  45        7.031690
  46        7.835018
  47        7.881207
  48        7.881207
  49        8.096294
  50        8.096294
  51        8.153694
  52        8.195866
  53        8.195866
  54        8.319472
  55        9.149345
  56        9.149345
  57        9.180792
  58        9.409686
  59        9.409734
  60        9.435676
  61       10.001747
  62       10.031391
