       N       E                     dE             d eps       ncg     rms          rms(c)
RMM:   1     0.307866246512E+03    0.30787E+03   -0.17137E+04    62   0.649E+02
RMM:   2    -0.117298341798E+02   -0.31960E+03   -0.31547E+03    62   0.139E+02
RMM:   3    -0.859822999197E+02   -0.74252E+02   -0.77166E+02    62   0.476E+01
RMM:   4    -0.103525296051E+03   -0.17543E+02   -0.17712E+02    62   0.278E+01
RMM:   5    -0.110075172026E+03   -0.65499E+01   -0.56036E+01    62   0.149E+01
RMM:   6    -0.112951656842E+03   -0.28765E+01   -0.23181E+01    62   0.901E+00
RMM:   7    -0.114176060034E+03   -0.12244E+01   -0.10151E+01    62   0.560E+00
RMM:   8    -0.114734873203E+03   -0.55881E+00   -0.47728E+00    62   0.359E+00
RMM:   9    -0.115238366292E+03   -0.50349E+00   -0.45429E+00   146   0.235E+00
RMM:  10    -0.115316833188E+03   -0.78467E-01   -0.35926E-01   141   0.560E-01
RMM:  11    -0.115322973306E+03   -0.61401E-02   -0.16392E-02   119   0.121E-01
RMM:  12    -0.115323112333E+03   -0.13903E-03   -0.59017E-04    87   0.350E-02    0.557E+00
RMM:  13    -0.114444108184E+03    0.87900E+00   -0.15953E+00   124   0.180E+00    0.332E+00
RMM:  14    -0.114195487875E+03    0.24862E+00   -0.42203E-01   131   0.111E+00    0.133E+00
RMM:  15    -0.114143806132E+03    0.51682E-01   -0.67419E-02   124   0.579E-01    0.155E-01
RMM:  16    -0.114142602488E+03    0.12036E-02   -0.98614E-03   132   0.166E-01    0.602E-02
RMM:  17    -0.114142375510E+03    0.22698E-03   -0.16230E-03   116   0.709E-02    0.194E-02
RMM:  18    -0.114142389958E+03   -0.14448E-04   -0.81316E-05    77   0.263E-02
   1 F= -.11414239E+03 E0= -.11413172E+03  d E =-.114142E+03
       N       E                     dE             d eps       ncg     rms          rms(c)
RMM:   1    -0.114364733181E+03   -0.22236E+00   -0.19111E+00   124   0.383E+00    0.248E-01
RMM:   2    -0.114360379428E+03    0.43538E-02   -0.28737E-02   130   0.487E-01    0.131E-01
RMM:   3    -0.114359367728E+03    0.10117E-02   -0.11471E-02   125   0.204E-01    0.448E-02
RMM:   4    -0.114359156183E+03    0.21155E-03   -0.93049E-04   122   0.599E-02    0.283E-02
RMM:   5    -0.114359163484E+03   -0.73015E-05   -0.44646E-05    75   0.195E-02
   2 F= -.11435916E+03 E0= -.11434434E+03  d E =-.216774E+00
       N       E                     dE             d eps       ncg     rms          rms(c)
RMM:   1    -0.114599723838E+03   -0.24057E+00   -0.11469E+01   124   0.931E+00    0.593E-01
RMM:   2    -0.114575433776E+03    0.24290E-01   -0.16926E-01   131   0.117E+00    0.329E-01
RMM:   3    -0.114569779144E+03    0.56546E-02   -0.74218E-02   124   0.498E-01    0.118E-01
RMM:   4    -0.114568086541E+03    0.16926E-02   -0.43520E-03   126   0.135E-01    0.723E-02
RMM:   5    -0.114568172773E+03   -0.86231E-04   -0.13922E-03   125   0.630E-02    0.264E-02
RMM:   6    -0.114568149863E+03    0.22910E-04   -0.57504E-04   108   0.404E-02
   3 F= -.11456815E+03 E0= -.11455111E+03  d E =-.425760E+00
       N       E                     dE             d eps       ncg     rms          rms(c)
RMM:   1    -0.114594201877E+03   -0.26029E-01   -0.35196E-01   124   0.174E+00    0.100E-01
RMM:   2    -0.114593340237E+03    0.86164E-03   -0.67456E-03   129   0.216E-01    0.465E-02
RMM:   3    -0.114593255179E+03    0.85058E-04   -0.12389E-03   108   0.685E-02    0.196E-02
RMM:   4    -0.114593242954E+03    0.12225E-04   -0.20657E-04    81   0.273E-02
   4 F= -.11459324E+03 E0= -.11457665E+03  d E =-.250931E-01
       N       E                     dE             d eps       ncg     rms          rms(c)
RMM:   1    -0.114604460987E+03   -0.11206E-01   -0.42864E-01   124   0.193E+00    0.115E-01
RMM:   2    -0.114603212732E+03    0.12483E-02   -0.83398E-03   128   0.243E-01    0.507E-02
RMM:   3    -0.114603132401E+03    0.80330E-04   -0.12754E-03   110   0.737E-02    0.219E-02
RMM:   4    -0.114603140410E+03   -0.80088E-05   -0.28317E-04    91   0.300E-02
   5 F= -.11460314E+03 E0= -.11458635E+03  d E =-.349905E-01
