<?xml version="1.0" encoding="ISO-8859-1"?>
<modeling>
 <generator>
  <i name="program" type="string">vasp </i>
  <i name="version" type="string">5.2.2  </i>
  <i name="subversion" type="string">15Apr09 complex  parallel </i>
  <i name="platform" type="string">LinuxIFC </i>
  <i name="date" type="string">2014 04 24 </i>
  <i name="time" type="string">09:51:45 </i>
 </generator>
 <incar>
  <i type="string" name="PREC">accurate</i>
  <i type="int" name="IALGO">    48</i>
  <i type="int" name="IBRION">     2</i>
  <i name="EDIFFG">      0.05000000</i>
  <i type="int" name="NSW">   191</i>
  <i type="int" name="ISIF">     2</i>
  <i name="ENCUT">    300.00000000</i>
  <i name="NELECT">     93.00000000</i>
  <i type="int" name="ISMEAR">     1</i>
  <i name="SIGMA">      0.20000000</i>
  <i type="logical" name="LWAVE"> F  </i>
  <i type="logical" name="LCHARG"> F  </i>
  <i type="logical" name="LPEAD"> F  </i>
  <i type="logical" name="LCALCPOL"> F  </i>
  <i type="logical" name="LCALCEPS"> F  </i>
  <v name="EFIELD_PEAD">      0.00000000      0.00000000      0.00000000</v>
  <i type="logical" name="LEFG"> F  </i>
 </incar>
 <kpoints>
  <generation param="Monkhorst-Pack">
   <v type="int" name="divisions">       2        2        2 </v>
   <v name="usershift">      0.00000000       0.00000000       0.00000000 </v>
   <v name="genvec1">      0.50000000       0.00000000       0.00000000 </v>
   <v name="genvec2">      0.00000000       0.50000000       0.00000000 </v>
   <v name="genvec3">      0.00000000       0.00000000       0.50000000 </v>
   <v name="shift">      0.50000000       0.50000000       0.50000000 </v>
  </generation>
  <varray name="kpointlist" >
   <v>       0.25000000       0.25000000       0.25000000 </v>
  </varray>
  <varray name="weights" >
   <v>       1.00000000 </v>
  </varray>
 </kpoints>
 <parameters>
  <separator name="general" >
   <i type="string" name="SYSTEM">unknown system</i>
   <i type="logical" name="LCOMPAT"> F  </i>
  </separator>
  <separator name="electronic" >
   <i type="string" name="PREC">accura</i>
   <i name="ENMAX">    300.00000000</i>
   <i name="ENAUG">    291.05200000</i>
   <i name="EDIFF">      0.00010000</i>
   <i type="int" name="IALGO">    48</i>
   <i type="int" name="IWAVPR">    11</i>
   <i type="int" name="NBANDS">    62</i>
   <i name="NELECT">     93.00000000</i>
   <separator name="electronic smearing" >
    <i type="int" name="ISMEAR">     1</i>
    <i name="SIGMA">      0.20000000</i>
   </separator>
   <separator name="electronic projectors" >
    <i type="logical" name="LREAL"> F  </i>
    <v name="ROPT">      0.00000000</v>
    <i type="int" name="LMAXPAW">  -100</i>
    <i type="int" name="LMAXMIX">     2</i>
   </separator>
   <separator name="electronic startup" >
    <i type="int" name="ISTART">     0</i>
    <i type="int" name="ICHARG">     2</i>
    <i type="int" name="INIWAV">     1</i>
   </separator>
   <separator name="electronic spin" >
    <i type="int" name="ISPIN">     1</i>
    <i type="logical" name="LNONCOLLINEAR"> F  </i>
    <v name="MAGMOM">      1.00000000      1.00000000      1.00000000      1.00000000      1.00000000      1.00000000      1.00000000      1.00000000      1.00000000      1.00000000      1.00000000      1.00000000      1.00000000      1.00000000      1.00000000      1.00000000      1.00000000      1.00000000      1.00000000      1.00000000
      1.00000000      1.00000000      1.00000000      1.00000000      1.00000000      1.00000000      1.00000000      1.00000000      1.00000000      1.00000000      1.00000000</v>
    <i name="NUPDOWN">     -1.00000000</i>
    <i type="logical" name="LSORBIT"> F  </i>
    <v name="SAXIS">      0.00000000      0.00000000      1.00000000</v>
    <i type="logical" name="LSPIRAL"> F  </i>
    <v name="QSPIRAL">      0.00000000      0.00000000      0.00000000</v>
    <i type="logical" name="LZEROZ"> F  </i>
   </separator>
   <separator name="electronic exchange-correlation" >
    <i type="logical" name="LASPH"> F  </i>
    <i type="logical" name="LMETAGGA"> F  </i>
   </separator>
   <separator name="electronic convergence" >
    <i type="int" name="NELM">    60</i>
    <i type="int" name="NELMDL">   -12</i>
    <i type="int" name="NELMIN">     2</i>
    <i name="ENINI">    300.00000000</i>
    <separator name="electronic convergence detail" >
     <i type="logical" name="LDIAG"> T  </i>
     <i name="WEIMIN">      0.00100000</i>
     <i name="EBREAK">      0.00000040</i>
     <i name="DEPER">      0.30000000</i>
     <i type="int" name="NRMM">     4</i>
     <i name="TIME">      0.40000000</i>
    </separator>
   </separator>
   <separator name="electronic mixer" >
    <i name="AMIX">      0.40000000</i>
    <i name="BMIX">      1.00000000</i>
    <i name="AMIN">      0.10000000</i>
    <i name="AMIX_MAG">      1.60000000</i>
    <i name="BMIX_MAG">      1.00000000</i>
    <separator name="electronic mixer details" >
     <i type="int" name="IMIX">     4</i>
     <i type="int" name="MAXMIX">   -45</i>
     <i name="WC">    100.00000000</i>
     <i type="int" name="INIMIX">     1</i>
     <i type="int" name="MIXPRE">     1</i>
     <i type="int" name="MREMOVE">     5</i>
    </separator>
   </separator>
   <separator name="electronic dipolcorrection" >
    <i type="logical" name="LDIPOL"> F  </i>
    <i type="logical" name="LMONO"> F  </i>
    <i type="int" name="IDIPOL">     0</i>
    <i name="EPSILON">      1.00000000</i>
    <v name="DIPOL">   -100.00000000   -100.00000000   -100.00000000</v>
    <i name="EFIELD">      0.00000000</i>
   </separator>
  </separator>
  <separator name="grids" >
   <i type="int" name="NGX">    48</i>
   <i type="int" name="NGY">    48</i>
   <i type="int" name="NGZ">    48</i>
   <i type="int" name="NGXF">    96</i>
   <i type="int" name="NGYF">    96</i>
   <i type="int" name="NGZF">    96</i>
   <i type="logical" name="ADDGRID"> F  </i>
  </separator>
  <separator name="ionic" >
   <i type="int" name="NSW">   191</i>
   <i type="int" name="IBRION">     2</i>
   <i type="int" name="ISIF">     2</i>
   <i name="PSTRESS">      0.00000000</i>
   <i name="EDIFFG">      0.05000000</i>
   <i type="int" name="NFREE">     1</i>
   <i name="POTIM">      0.50000000</i>
   <i name="SMASS">     -3.00000000</i>
  </separator>
  <separator name="ionic md" >
   <i name="TEBEG">      0.00010000</i>
   <i name="TEEND">      0.00010000</i>
   <i type="int" name="NBLOCK">     1</i>
   <i type="int" name="KBLOCK">   191</i>
   <i type="int" name="NPACO">   256</i>
   <i name="APACO">     16.00000000</i>
  </separator>
  <separator name="symmetry" >
   <i type="int" name="ISYM">     2</i>
   <i name="SYMPREC">      0.00001000</i>
  </separator>
  <separator name="dos" >
   <i type="logical" name="LORBIT"> F  </i>
   <v name="RWIGS">     -1.00000000</v>
   <i type="int" name="NEDOS">   301</i>
   <i name="EMIN">     10.00000000</i>
   <i name="EMAX">    -10.00000000</i>
   <i name="EFERMI">      0.00000000</i>
  </separator>
  <separator name="writing" >
   <i type="int" name="NWRITE">     2</i>
   <i type="logical" name="LWAVE"> F  </i>
   <i type="logical" name="LCHARG"> F  </i>
   <i type="logical" name="LPARD"> F  </i>
   <i type="logical" name="LVTOT"> F  </i>
   <i type="logical" name="LELF"> F  </i>
   <i type="logical" name="LOPTICS"> F  </i>
   <v name="STM">      0.00000000      0.00000000      0.00000000      0.00000000      0.00000000</v>
  </separator>
  <separator name="performance" >
   <i type="int" name="NPAR">     1</i>
   <i type="int" name="NSIM">     4</i>
   <i type="int" name="NBLK">    32</i>
   <i type="logical" name="LPLANE"> T  </i>
   <i type="logical" name="LSCALAPACK"> F  </i>
   <i type="logical" name="LSCAAWARE"> F  </i>
   <i type="logical" name="LSCALU"> F  </i>
   <i type="logical" name="LASYNC"> F  </i>
  </separator>
  <separator name="miscellaneous" >
   <i type="int" name="IDIOT">     3</i>
   <i type="logical" name="LMUSIC"> F  </i>
   <v name="POMASS">     26.98200000</v>
   <i type="logical" name="LCORR"> T  </i>
  </separator>
  <i type="logical" name="LREAL_COMPAT"> F  </i>
  <i type="logical" name="GGA_COMPAT"> T  </i>
  <i type="logical" name="LBERRY"> F  </i>
  <i type="int" name="ICORELEVEL">     0</i>
  <i type="logical" name="LDAU"> F  </i>
  <i type="int" name="I_CONSTRAINED_M">     0</i>
  <separator name="electronic exchange-correlation" >
   <i type="string" name="GGA">--</i>
   <i type="int" name="VOSKOWN">     0</i>
   <i type="logical" name="LHFCALC"> F  </i>
   <i type="logical" name="LHFONE"> F  </i>
   <i type="logical" name="LRHFCALC"> F  </i>
   <i type="logical" name="LTHOMAS"> F  </i>
   <i type="logical" name="LMODELHF"> F  </i>
   <i name="ENCUTFOCK">      0.00000000</i>
   <i name="ENCUT4O">     -1.00000000</i>
   <i type="int" name="EXXOEP">     0</i>
   <i type="int" name="FOURORBIT">     0</i>
   <i name="AEXX">      0.00000000</i>
   <i name="HFALPHA">      0.00000000</i>
   <i name="ALDAX">      1.00000000</i>
   <i name="AGGAX">      1.00000000</i>
   <i name="ALDAC">      1.00000000</i>
   <i name="AGGAC">      1.00000000</i>
   <i type="int" name="NKREDX">     1</i>
   <i type="int" name="NKREDY">     1</i>
   <i type="int" name="NKREDZ">     1</i>
   <i type="logical" name="SHIFTRED"> F  </i>
   <i type="logical" name="ODDONLY"> F  </i>
   <i type="logical" name="EVENONLY"> F  </i>
   <i type="int" name="LMAXFOCK">     0</i>
   <i type="int" name="NMAXFOCKAE">     0</i>
   <i name="HFSCREEN">      0.00000000</i>
   <i name="HFSCREENC">      0.00000000</i>
  </separator>
  <separator name="model GW" >
   <i type="int" name="MODEL_GW">     0</i>
   <i name="MODEL_EPS0">     10.23671437</i>
   <i name="MODEL_ALPHA">      1.00000000</i>
  </separator>
  <separator name="linear response parameters" >
   <i type="logical" name="LEPSILON"> F  </i>
   <i type="logical" name="LRPA"> F  </i>
   <i type="logical" name="LNABLA"> F  </i>
   <i type="logical" name="LVEL"> F  </i>
   <i type="int" name="KINTER">     0</i>
   <i name="CSHIFT">      0.10000000</i>
   <i name="OMEGAMAX">     -1.00000000</i>
  </separator>
  <separator name="orbital magnetization" >
   <i type="logical" name="ORBITALMAG"> F  </i>
   <i type="logical" name="LMAGBLOCH"> F  </i>
   <i type="logical" name="LCHIMAG"> F  </i>
   <i type="logical" name="LGAUGE"> T  </i>
   <i type="int" name="MAGATOM">     0</i>
   <v name="MAGDIPOL">      0.00000000      0.00000000      0.00000000</v>
   <v name="AVECCONST">      0.00000000      0.00000000      0.00000000</v>
  </separator>
  <separator name="response functions" >
   <i type="logical" name="LRPA"> T  </i>
   <i type="logical" name="LTCTE"> F  </i>
   <i type="logical" name="LTETE"> F  </i>
   <i type="logical" name="L2ORDER"> F  </i>
   <i type="logical" name="LGWLF"> F  </i>
   <i name="ENCUTGW">    200.00000000</i>
   <i name="ENCUTGWSOFT">     -2.00000000</i>
   <i name="ENCUTLF">     -1.00000000</i>
   <i type="int" name="LMAXMP2">    -1</i>
   <i name="SCISSOR">      0.00000000</i>
   <i type="int" name="NOMEGA">     0</i>
   <i type="int" name="NOMEGAR">     0</i>
   <i type="int" name="NBANDSGW">    -1</i>
   <i type="int" name="NBANDSLF">    -1</i>
   <i type="int" name="NELM">     1</i>
   <i type="int" name="DIM">     3</i>
   <i type="int" name="ANTIRES">     0</i>
   <i type="logical" name="LUSEW"> F  </i>
   <i name="OMEGAMAX">    -30.00000000</i>
   <i name="OMEGATL">   -200.00000000</i>
   <i type="int" name="OMEGAGRID">     0</i>
   <i name="CSHIFT">     -0.10000000</i>
   <i type="logical" name="SELFENERGY"> F  </i>
   <i type="logical" name="LSPECTRAL"> F  </i>
   <i type="logical" name="ODDONLYGW"> F  </i>
   <i type="logical" name="EVENONLYGW"> F  </i>
   <i type="int" name="NKREDLFX">     1</i>
   <i type="int" name="NKREDLFY">     1</i>
   <i type="int" name="NKREDLFZ">     1</i>
   <i type="int" name="MAXMEM">  1024</i>
   <i type="int" name="TELESCOPE">     0</i>
  </separator>
 </parameters>
 <atominfo>
  <atoms>      31 </atoms>
  <types>       1 </types>
  <array name="atoms" >
   <dimension dim="1">ion</dimension>
   <field type="string">element</field>
   <field type="int">atomtype</field>
   <set>
    <rc><c>Al</c><c>   1</c></rc>
    <rc><c>Al</c><c>   1</c></rc>
    <rc><c>Al</c><c>   1</c></rc>
    <rc><c>Al</c><c>   1</c></rc>
    <rc><c>Al</c><c>   1</c></rc>
    <rc><c>Al</c><c>   1</c></rc>
    <rc><c>Al</c><c>   1</c></rc>
    <rc><c>Al</c><c>   1</c></rc>
    <rc><c>Al</c><c>   1</c></rc>
    <rc><c>Al</c><c>   1</c></rc>
    <rc><c>Al</c><c>   1</c></rc>
    <rc><c>Al</c><c>   1</c></rc>
    <rc><c>Al</c><c>   1</c></rc>
    <rc><c>Al</c><c>   1</c></rc>
    <rc><c>Al</c><c>   1</c></rc>
    <rc><c>Al</c><c>   1</c></rc>
    <rc><c>Al</c><c>   1</c></rc>
    <rc><c>Al</c><c>   1</c></rc>
    <rc><c>Al</c><c>   1</c></rc>
    <rc><c>Al</c><c>   1</c></rc>
    <rc><c>Al</c><c>   1</c></rc>
    <rc><c>Al</c><c>   1</c></rc>
    <rc><c>Al</c><c>   1</c></rc>
    <rc><c>Al</c><c>   1</c></rc>
    <rc><c>Al</c><c>   1</c></rc>
    <rc><c>Al</c><c>   1</c></rc>
    <rc><c>Al</c><c>   1</c></rc>
    <rc><c>Al</c><c>   1</c></rc>
    <rc><c>Al</c><c>   1</c></rc>
    <rc><c>Al</c><c>   1</c></rc>
    <rc><c>Al</c><c>   1</c></rc>
   </set>
  </array>
  <array name="atomtypes" >
   <dimension dim="1">type</dimension>
   <field type="int">atomspertype</field>
   <field type="string">element</field>
   <field>mass</field>
   <field>valence</field>
   <field type="string">pseudopotential</field>
   <set>
    <rc><c>  31</c><c>Al</c><c>     26.98200000</c><c>      3.00000000</c><c> PAW_PBE Al 04Jan2001                   </c></rc>
   </set>
  </array>
 </atominfo>
 <structure name="initialpos" >
  <crystal>
   <varray name="basis" >
    <v>       8.08705400       0.00000000       0.00000000 </v>
    <v>       0.00000000       8.08705400       0.00000000 </v>
    <v>       0.00000000       0.00000000       8.08705400 </v>
   </varray>
   <i name="volume">    528.89690930 </i>
   <varray name="rec_basis" >
    <v>       0.12365442       0.00000000       0.00000000 </v>
    <v>       0.00000000       0.12365442       0.00000000 </v>
    <v>       0.00000000       0.00000000       0.12365442 </v>
   </varray>
  </crystal>
  <varray name="positions" >
   <v>       0.00045000       0.00000000       0.00045000 </v>
   <v>       0.25000000       0.00000000       0.25000000 </v>
   <v>       0.25000000       0.24259600       0.99259600 </v>
   <v>       0.99259600       0.24259600       0.25000000 </v>
   <v>       0.49955000       0.00000000       0.00045000 </v>
   <v>       0.75000000       0.00000000       0.25000000 </v>
   <v>       0.75000000       0.25045000       0.00045000 </v>
   <v>       0.50740400       0.24259600       0.25000000 </v>
   <v>       0.99259600       0.50000000       0.99259600 </v>
   <v>       0.25000000       0.75740400       0.99259600 </v>
   <v>       0.99259600       0.75740400       0.25000000 </v>
   <v>       0.50740400       0.50000000       0.99259600 </v>
   <v>       0.75000000       0.50000000       0.25000000 </v>
   <v>       0.75000000       0.74955000       0.00045000 </v>
   <v>       0.50740400       0.75740400       0.25000000 </v>
   <v>       0.00045000       0.00000000       0.49955000 </v>
   <v>       0.25000000       0.00000000       0.75000000 </v>
   <v>       0.25000000       0.24259600       0.50740400 </v>
   <v>       0.00045000       0.25045000       0.75000000 </v>
   <v>       0.49955000       0.00000000       0.49955000 </v>
   <v>       0.75000000       0.00000000       0.75000000 </v>
   <v>       0.75000000       0.25045000       0.49955000 </v>
   <v>       0.49955000       0.25045000       0.75000000 </v>
   <v>       0.99259600       0.50000000       0.50740400 </v>
   <v>       0.25000000       0.50000000       0.75000000 </v>
   <v>       0.25000000       0.75740400       0.50740400 </v>
   <v>       0.00045000       0.74955000       0.75000000 </v>
   <v>       0.50740400       0.50000000       0.50740400 </v>
   <v>       0.75000000       0.50000000       0.75000000 </v>
   <v>       0.75000000       0.74955000       0.49955000 </v>
   <v>       0.49955000       0.74955000       0.75000000 </v>
  </varray>
 </structure>
 <calculation>
  <scstep>
   <time name="diag">    2.26    1.50</time>
   <time name="diis">   11.73    3.53</time>
   <time name="orth">    0.16    0.04</time>
   <time name="total">   16.20    6.99</time>
   <energy>
    <i name="alphaZ">     -6.10292531 </i>
    <i name="ewald">  -2210.95197547 </i>
    <i name="hartreedc">    -32.69084085 </i>
    <i name="XCdc">   -814.52872857 </i>
    <i name="pawpsdc">   1102.18190231 </i>
    <i name="pawaedc">   -111.56847430 </i>
    <i name="eentropy">     -0.03560387 </i>
    <i name="bandstr">    721.89654849 </i>
    <i name="atom">   1659.66634407 </i>
    <i name="e_fr_energy">    307.86624651 </i>
    <i name="e_wo_entrp">    307.90185038 </i>
    <i name="e_0_energy">    307.87811447 </i>
   </energy>
  </scstep>
  <scstep>
   <time name="diag">    2.13    1.47</time>
   <time name="diis">   11.18    3.51</time>
   <time name="orth">    0.17    0.04</time>
   <time name="total">   13.49    5.02</time>
   <energy>
    <i name="e_fr_energy">    -11.72983418 </i>
    <i name="e_wo_entrp">    -11.66317966 </i>
    <i name="e_0_energy">    -11.70761601 </i>
   </energy>
  </scstep>
  <scstep>
   <time name="diag">    2.05    1.45</time>
   <time name="diis">   11.29    3.51</time>
   <time name="orth">    0.17    0.04</time>
   <time name="total">   13.51    5.00</time>
   <energy>
    <i name="e_fr_energy">    -85.98229992 </i>
    <i name="e_wo_entrp">    -85.91871565 </i>
    <i name="e_0_energy">    -85.96110516 </i>
   </energy>
  </scstep>
  <scstep>
   <time name="diag">    2.27    1.48</time>
   <time name="diis">   11.37    3.50</time>
   <time name="orth">    0.17    0.04</time>
   <time name="total">   13.82    5.02</time>
   <energy>
    <i name="e_fr_energy">   -103.52529605 </i>
    <i name="e_wo_entrp">   -103.51020363 </i>
    <i name="e_0_energy">   -103.52026525 </i>
   </energy>
  </scstep>
  <scstep>
   <time name="diag">    2.19    1.48</time>
   <time name="diis">   12.33    3.83</time>
   <time name="orth">    0.17    0.04</time>
   <time name="total">   14.70    5.35</time>
   <energy>
    <i name="e_fr_energy">   -110.07517203 </i>
    <i name="e_wo_entrp">   -110.06892330 </i>
    <i name="e_0_energy">   -110.07308912 </i>
   </energy>
  </scstep>
  <scstep>
   <time name="diag">    2.27    1.48</time>
   <time name="diis">   11.43    3.51</time>
   <time name="orth">    0.17    0.04</time>
   <time name="total">   13.87    5.04</time>
   <energy>
    <i name="e_fr_energy">   -112.95165684 </i>
    <i name="e_wo_entrp">   -112.95103562 </i>
    <i name="e_0_energy">   -112.95144977 </i>
   </energy>
  </scstep>
  <scstep>
   <time name="diag">    2.19    1.47</time>
   <time name="diis">   11.60    3.59</time>
   <time name="orth">    0.17    0.04</time>
   <time name="total">   13.97    5.11</time>
   <energy>
    <i name="e_fr_energy">   -114.17606003 </i>
    <i name="e_wo_entrp">   -114.17524240 </i>
    <i name="e_0_energy">   -114.17578749 </i>
   </energy>
  </scstep>
  <scstep>
   <time name="diag">    2.46    1.80</time>
   <time name="diis">   13.53    4.68</time>
   <time name="orth">    0.17    0.04</time>
   <time name="total">   16.17    6.53</time>
   <energy>
    <i name="e_fr_energy">   -114.73487320 </i>
    <i name="e_wo_entrp">   -114.72692104 </i>
    <i name="e_0_energy">   -114.73222248 </i>
   </energy>
  </scstep>
  <scstep>
   <time name="diag">    2.58    1.79</time>
   <time name="diis">   27.18    8.15</time>
   <time name="orth">    0.22    0.06</time>
   <time name="total">   29.99    9.99</time>
   <energy>
    <i name="e_fr_energy">   -115.23836629 </i>
    <i name="e_wo_entrp">   -115.20784701 </i>
    <i name="e_0_energy">   -115.22819320 </i>
   </energy>
  </scstep>
  <scstep>
   <time name="diag">    2.21    1.65</time>
   <time name="diis">   26.25    7.90</time>
   <time name="orth">    0.17    0.04</time>
   <time name="total">   28.63    9.59</time>
   <energy>
    <i name="e_fr_energy">   -115.31683319 </i>
    <i name="e_wo_entrp">   -115.28004490 </i>
    <i name="e_0_energy">   -115.30457042 </i>
   </energy>
  </scstep>
  <scstep>
   <time name="diag">    2.49    1.74</time>
   <time name="diis">   22.45    6.79</time>
   <time name="orth">    0.17    0.04</time>
   <time name="total">   25.12    8.57</time>
   <energy>
    <i name="e_fr_energy">   -115.32297331 </i>
    <i name="e_wo_entrp">   -115.28480312 </i>
    <i name="e_0_energy">   -115.31024991 </i>
   </energy>
  </scstep>
  <scstep>
   <time name="diag">    2.31    1.67</time>
   <time name="diis">   16.92    5.24</time>
   <time name="orth">    0.17    0.04</time>
   <time name="total">   20.66    8.11</time>
   <energy>
    <i name="e_fr_energy">   -115.32311233 </i>
    <i name="e_wo_entrp">   -115.28493681 </i>
    <i name="e_0_energy">   -115.31038716 </i>
   </energy>
  </scstep>
  <scstep>
   <time name="diag">    2.60    1.85</time>
   <time name="diis">   23.25    6.96</time>
   <time name="orth">    0.17    0.04</time>
   <time name="total">   29.52   12.26</time>
   <energy>
    <i name="e_fr_energy">   -114.44410818 </i>
    <i name="e_wo_entrp">   -114.41313827 </i>
    <i name="e_0_energy">   -114.43378488 </i>
   </energy>
  </scstep>
  <scstep>
   <time name="diag">    2.61    1.85</time>
   <time name="diis">   25.02    7.59</time>
   <time name="orth">    0.17    0.04</time>
   <time name="total">   31.36   12.93</time>
   <energy>
    <i name="e_fr_energy">   -114.19548788 </i>
    <i name="e_wo_entrp">   -114.16437252 </i>
    <i name="e_0_energy">   -114.18511609 </i>
   </energy>
  </scstep>
  <scstep>
   <time name="diag">    2.61    1.85</time>
   <time name="diis">   23.00    6.92</time>
   <time name="orth">    0.16    0.04</time>
   <time name="total">   29.32   12.21</time>
   <energy>
    <i name="e_fr_energy">   -114.14380613 </i>
    <i name="e_wo_entrp">   -114.11265642 </i>
    <i name="e_0_energy">   -114.13342289 </i>
   </energy>
  </scstep>
  <scstep>
   <time name="diag">    2.46    1.76</time>
   <time name="diis">   24.30    7.23</time>
   <time name="orth">    0.16    0.04</time>
   <time name="total">   30.33   12.27</time>
   <energy>
    <i name="e_fr_energy">   -114.14260249 </i>
    <i name="e_wo_entrp">   -114.11024472 </i>
    <i name="e_0_energy">   -114.13181657 </i>
   </energy>
  </scstep>
  <scstep>
   <time name="diag">    2.61    1.85</time>
   <time name="diis">   21.44    6.44</time>
   <time name="orth">    0.17    0.04</time>
   <time name="total">   27.92   11.77</time>
   <energy>
    <i name="e_fr_energy">   -114.14237551 </i>
    <i name="e_wo_entrp">   -114.11025899 </i>
    <i name="e_0_energy">   -114.13167000 </i>
   </energy>
  </scstep>
  <scstep>
   <time name="diag">    2.61    1.85</time>
   <time name="diis">   14.94    4.65</time>
   <time name="orth">    0.17    0.04</time>
   <time name="total">   20.11    8.81</time>
   <energy>
    <i name="alphaZ">     -6.10292531 </i>
    <i name="ewald">  -2210.95197547 </i>
    <i name="hartreedc">    -37.07738193 </i>
    <i name="XCdc">   -811.02761837 </i>
    <i name="pawpsdc">   1107.59337717 </i>
    <i name="pawaedc">   -117.43440890 </i>
    <i name="eentropy">     -0.03201214 </i>
    <i name="bandstr">    301.22421093 </i>
    <i name="atom">   1659.66634407 </i>
    <i name="e_fr_energy">   -114.14238996 </i>
    <i name="e_wo_entrp">   -114.11037781 </i>
    <i name="e_0_energy">   -114.13171924 </i>
   </energy>
  </scstep>
  <structure>
   <crystal>
    <varray name="basis" >
     <v>       8.08705400       0.00000000       0.00000000 </v>
     <v>       0.00000000       8.08705400       0.00000000 </v>
     <v>       0.00000000       0.00000000       8.08705400 </v>
    </varray>
    <i name="volume">    528.89690930 </i>
    <varray name="rec_basis" >
     <v>       0.12365442       0.00000000       0.00000000 </v>
     <v>       0.00000000       0.12365442       0.00000000 </v>
     <v>       0.00000000       0.00000000       0.12365442 </v>
    </varray>
   </crystal>
   <varray name="positions" >
    <v>       0.00045000       0.00000000       0.00045000 </v>
    <v>       0.25000000       0.00000000       0.25000000 </v>
    <v>       0.25000000       0.24259600       0.99259600 </v>
    <v>       0.99259600       0.24259600       0.25000000 </v>
    <v>       0.49955000       0.00000000       0.00045000 </v>
    <v>       0.75000000       0.00000000       0.25000000 </v>
    <v>       0.75000000       0.25045000       0.00045000 </v>
    <v>       0.50740400       0.24259600       0.25000000 </v>
    <v>       0.99259600       0.50000000       0.99259600 </v>
    <v>       0.25000000       0.75740400       0.99259600 </v>
    <v>       0.99259600       0.75740400       0.25000000 </v>
    <v>       0.50740400       0.50000000       0.99259600 </v>
    <v>       0.75000000       0.50000000       0.25000000 </v>
    <v>       0.75000000       0.74955000       0.00045000 </v>
    <v>       0.50740400       0.75740400       0.25000000 </v>
    <v>       0.00045000       0.00000000       0.49955000 </v>
    <v>       0.25000000       0.00000000       0.75000000 </v>
    <v>       0.25000000       0.24259600       0.50740400 </v>
    <v>       0.00045000       0.25045000       0.75000000 </v>
    <v>       0.49955000       0.00000000       0.49955000 </v>
    <v>       0.75000000       0.00000000       0.75000000 </v>
    <v>       0.75000000       0.25045000       0.49955000 </v>
    <v>       0.49955000       0.25045000       0.75000000 </v>
    <v>       0.99259600       0.50000000       0.50740400 </v>
    <v>       0.25000000       0.50000000       0.75000000 </v>
    <v>       0.25000000       0.75740400       0.50740400 </v>
    <v>       0.00045000       0.74955000       0.75000000 </v>
    <v>       0.50740400       0.50000000       0.50740400 </v>
    <v>       0.75000000       0.50000000       0.75000000 </v>
    <v>       0.75000000       0.74955000       0.49955000 </v>
    <v>       0.49955000       0.74955000       0.75000000 </v>
   </varray>
  </structure>
  <varray name="forces" >
   <v>      -0.15605536       0.00000000      -0.15605536 </v>
   <v>       0.00000000       0.00000000       0.00000000 </v>
   <v>       0.00000000       0.44111640       0.44111640 </v>
   <v>       0.44111640       0.44111640       0.00000000 </v>
   <v>       0.15605536       0.00000000      -0.15605536 </v>
   <v>       0.00000000       0.00000000       0.00000000 </v>
   <v>       0.00000000      -0.15605536      -0.15605536 </v>
   <v>      -0.44111640       0.44111640       0.00000000 </v>
   <v>       0.44111640       0.00000000       0.44111640 </v>
   <v>       0.00000000      -0.44111640       0.44111640 </v>
   <v>       0.44111640      -0.44111640       0.00000000 </v>
   <v>      -0.44111640       0.00000000       0.44111640 </v>
   <v>       0.00000000       0.00000000       0.00000000 </v>
   <v>       0.00000000       0.15605536      -0.15605536 </v>
   <v>      -0.44111640      -0.44111640       0.00000000 </v>
   <v>      -0.15605536       0.00000000       0.15605536 </v>
   <v>       0.00000000       0.00000000       0.00000000 </v>
   <v>       0.00000000       0.44111640      -0.44111640 </v>
   <v>      -0.15605536      -0.15605536       0.00000000 </v>
   <v>       0.15605536       0.00000000       0.15605536 </v>
   <v>       0.00000000       0.00000000       0.00000000 </v>
   <v>       0.00000000      -0.15605536       0.15605536 </v>
   <v>       0.15605536      -0.15605536       0.00000000 </v>
   <v>       0.44111640       0.00000000      -0.44111640 </v>
   <v>       0.00000000       0.00000000       0.00000000 </v>
   <v>       0.00000000      -0.44111640      -0.44111640 </v>
   <v>      -0.15605536       0.15605536       0.00000000 </v>
   <v>      -0.44111640       0.00000000      -0.44111640 </v>
   <v>       0.00000000       0.00000000       0.00000000 </v>
   <v>       0.00000000       0.15605536       0.15605536 </v>
   <v>       0.15605536       0.15605536       0.00000000 </v>
  </varray>
  <varray name="stress" >
   <v>      -1.38900062       0.00000000       0.00000000 </v>
   <v>       0.00000000      -1.38900062       0.00000000 </v>
   <v>       0.00000000       0.00000000      -1.38900062 </v>
  </varray>
  <energy>
   <i name="e_fr_energy">   -114.14238996 </i>
   <i name="e_wo_entrp">   -114.13171924 </i>
   <i name="e_0_energy">     -0.03201214 </i>
  </energy>
  <time name="totalsc">  421.58  168.69</time>
 </calculation>
 <calculation>
  <scstep>
   <time name="diag">    2.61    1.85</time>
   <time name="diis">   23.22    6.98</time>
   <time name="orth">    0.17    0.04</time>
   <time name="total">   29.69   12.29</time>
   <energy>
    <i name="alphaZ">     -6.10292531 </i>
    <i name="ewald">  -2216.90169410 </i>
    <i name="hartreedc">    -32.53459909 </i>
    <i name="XCdc">   -811.13408390 </i>
    <i name="pawpsdc">   1107.58744182 </i>
    <i name="pawaedc">   -117.42972926 </i>
    <i name="eentropy">     -0.04177696 </i>
    <i name="bandstr">    302.52628955 </i>
    <i name="atom">   1659.66634407 </i>
    <i name="e_fr_energy">   -114.36473318 </i>
    <i name="e_wo_entrp">   -114.32295622 </i>
    <i name="e_0_energy">   -114.35080753 </i>
   </energy>
  </scstep>
  <scstep>
   <time name="diag">    2.38    1.75</time>
   <time name="diis">   23.88    7.17</time>
   <time name="orth">    0.16    0.04</time>
   <time name="total">   29.77   12.20</time>
   <energy>
    <i name="e_fr_energy">   -114.36037943 </i>
    <i name="e_wo_entrp">   -114.31707438 </i>
    <i name="e_0_energy">   -114.34594441 </i>
   </energy>
  </scstep>
  <scstep>
   <time name="diag">    2.61    1.85</time>
   <time name="diis">   22.97    6.91</time>
   <time name="orth">    0.16    0.04</time>
   <time name="total">   29.31   12.25</time>
   <energy>
    <i name="e_fr_energy">   -114.35936773 </i>
    <i name="e_wo_entrp">   -114.31467669 </i>
    <i name="e_0_energy">   -114.34447071 </i>
   </energy>
  </scstep>
  <scstep>
   <time name="diag">    2.61    1.85</time>
   <time name="diis">   22.68    6.78</time>
   <time name="orth">    0.17    0.04</time>
   <time name="total">   29.03   12.10</time>
   <energy>
    <i name="e_fr_energy">   -114.35915618 </i>
    <i name="e_wo_entrp">   -114.31475905 </i>
    <i name="e_0_energy">   -114.34435714 </i>
   </energy>
  </scstep>
  <scstep>
   <time name="diag">    2.61    1.85</time>
   <time name="diis">   15.15    4.79</time>
   <time name="orth">    0.17    0.04</time>
   <time name="total">   20.29    8.96</time>
   <energy>
    <i name="alphaZ">     -6.10292531 </i>
    <i name="ewald">  -2216.90169410 </i>
    <i name="hartreedc">    -32.22856417 </i>
    <i name="XCdc">   -811.15088398 </i>
    <i name="pawpsdc">   1107.22241807 </i>
    <i name="pawaedc">   -117.04734426 </i>
    <i name="eentropy">     -0.04445933 </i>
    <i name="bandstr">    302.22794552 </i>
    <i name="atom">   1659.66634407 </i>
    <i name="e_fr_energy">   -114.35916348 </i>
    <i name="e_wo_entrp">   -114.31470415 </i>
    <i name="e_0_energy">   -114.34434371 </i>
   </energy>
  </scstep>
  <structure>
   <crystal>
    <varray name="basis" >
     <v>       8.08705400       0.00000000       0.00000000 </v>
     <v>       0.00000000       8.08705400       0.00000000 </v>
     <v>       0.00000000       0.00000000       8.08705400 </v>
    </varray>
    <i name="volume">    528.89690930 </i>
    <varray name="rec_basis" >
     <v>       0.12365442       0.00000000       0.00000000 </v>
     <v>       0.00000000       0.12365442       0.00000000 </v>
     <v>       0.00000000       0.00000000       0.12365442 </v>
    </varray>
   </crystal>
   <varray name="positions" >
    <v>      -0.00048094       0.00000000      -0.00048094 </v>
    <v>       0.25000000       0.00000000       0.25000000 </v>
    <v>       0.25000000       0.24522744       0.99522744 </v>
    <v>       0.99522744       0.24522744       0.25000000 </v>
    <v>       0.50048094       0.00000000      -0.00048094 </v>
    <v>       0.75000000       0.00000000       0.25000000 </v>
    <v>       0.75000000       0.24951906      -0.00048094 </v>
    <v>       0.50477256       0.24522744       0.25000000 </v>
    <v>       0.99522744       0.50000000       0.99522744 </v>
    <v>       0.25000000       0.75477256       0.99522744 </v>
    <v>       0.99522744       0.75477256       0.25000000 </v>
    <v>       0.50477256       0.50000000       0.99522744 </v>
    <v>       0.75000000       0.50000000       0.25000000 </v>
    <v>       0.75000000       0.75048094      -0.00048094 </v>
    <v>       0.50477256       0.75477256       0.25000000 </v>
    <v>      -0.00048094       0.00000000       0.50048094 </v>
    <v>       0.25000000       0.00000000       0.75000000 </v>
    <v>       0.25000000       0.24522744       0.50477256 </v>
    <v>      -0.00048094       0.24951906       0.75000000 </v>
    <v>       0.50048094       0.00000000       0.50048094 </v>
    <v>       0.75000000       0.00000000       0.75000000 </v>
    <v>       0.75000000       0.24951906       0.50048094 </v>
    <v>       0.50048094       0.24951906       0.75000000 </v>
    <v>       0.99522744       0.50000000       0.50477256 </v>
    <v>       0.25000000       0.50000000       0.75000000 </v>
    <v>       0.25000000       0.75477256       0.50477256 </v>
    <v>      -0.00048094       0.75048094       0.75000000 </v>
    <v>       0.50477256       0.50000000       0.50477256 </v>
    <v>       0.75000000       0.50000000       0.75000000 </v>
    <v>       0.75000000       0.75048094       0.50048094 </v>
    <v>       0.50048094       0.75048094       0.75000000 </v>
   </varray>
  </structure>
  <varray name="forces" >
   <v>      -0.06695220       0.00000000      -0.06695220 </v>
   <v>       0.00000000       0.00000000       0.00000000 </v>
   <v>       0.00000000       0.32786101       0.32786101 </v>
   <v>       0.32786101       0.32786101       0.00000000 </v>
   <v>       0.06695220       0.00000000      -0.06695220 </v>
   <v>       0.00000000       0.00000000       0.00000000 </v>
   <v>       0.00000000      -0.06695220      -0.06695220 </v>
   <v>      -0.32786101       0.32786101       0.00000000 </v>
   <v>       0.32786101       0.00000000       0.32786101 </v>
   <v>       0.00000000      -0.32786101       0.32786101 </v>
   <v>       0.32786101      -0.32786101       0.00000000 </v>
   <v>      -0.32786101       0.00000000       0.32786101 </v>
   <v>       0.00000000       0.00000000       0.00000000 </v>
   <v>       0.00000000       0.06695220      -0.06695220 </v>
   <v>      -0.32786101      -0.32786101       0.00000000 </v>
   <v>      -0.06695220       0.00000000       0.06695220 </v>
   <v>       0.00000000       0.00000000       0.00000000 </v>
   <v>       0.00000000       0.32786101      -0.32786101 </v>
   <v>      -0.06695220      -0.06695220       0.00000000 </v>
   <v>       0.06695220       0.00000000       0.06695220 </v>
   <v>       0.00000000       0.00000000       0.00000000 </v>
   <v>       0.00000000      -0.06695220       0.06695220 </v>
   <v>       0.06695220      -0.06695220       0.00000000 </v>
   <v>       0.32786101       0.00000000      -0.32786101 </v>
   <v>       0.00000000       0.00000000       0.00000000 </v>
   <v>       0.00000000      -0.32786101      -0.32786101 </v>
   <v>      -0.06695220       0.06695220       0.00000000 </v>
   <v>      -0.32786101       0.00000000      -0.32786101 </v>
   <v>       0.00000000       0.00000000       0.00000000 </v>
   <v>       0.00000000       0.06695220       0.06695220 </v>
   <v>       0.06695220       0.06695220       0.00000000 </v>
  </varray>
  <varray name="stress" >
   <v>      -3.99956891       0.00000000       0.00000000 </v>
   <v>       0.00000000      -3.99956891       0.00000000 </v>
   <v>       0.00000000       0.00000000      -3.99956891 </v>
  </varray>
  <energy>
   <i name="e_fr_energy">   -114.35916348 </i>
   <i name="e_wo_entrp">   -114.34434371 </i>
   <i name="e_0_energy">     -0.04445933 </i>
  </energy>
  <time name="totalsc">  170.93   75.89</time>
 </calculation>
 <calculation>
  <scstep>
   <time name="diag">    2.61    1.85</time>
   <time name="diis">   23.31    7.01</time>
   <time name="orth">    0.17    0.04</time>
   <time name="total">   29.80   12.35</time>
   <energy>
    <i name="alphaZ">     -6.10292531 </i>
    <i name="ewald">  -2228.21914625 </i>
    <i name="hartreedc">    -23.07561717 </i>
    <i name="XCdc">   -811.36486702 </i>
    <i name="pawpsdc">   1107.20806522 </i>
    <i name="pawaedc">   -117.03229287 </i>
    <i name="eentropy">     -0.05301358 </i>
    <i name="bandstr">    304.37372906 </i>
    <i name="atom">   1659.66634407 </i>
    <i name="e_fr_energy">   -114.59972384 </i>
    <i name="e_wo_entrp">   -114.54671025 </i>
    <i name="e_0_energy">   -114.58205264 </i>
   </energy>
  </scstep>
  <scstep>
   <time name="diag">    2.62    1.85</time>
   <time name="diis">   23.62    7.10</time>
   <time name="orth">    0.16    0.04</time>
   <time name="total">   29.93   12.42</time>
   <energy>
    <i name="e_fr_energy">   -114.57543378 </i>
    <i name="e_wo_entrp">   -114.52468949 </i>
    <i name="e_0_energy">   -114.55851901 </i>
   </energy>
  </scstep>
  <scstep>
   <time name="diag">    2.62    1.85</time>
   <time name="diis">   22.42    6.81</time>
   <time name="orth">    0.16    0.04</time>
   <time name="total">   28.70   12.09</time>
   <energy>
    <i name="e_fr_energy">   -114.56977914 </i>
    <i name="e_wo_entrp">   -114.51799988 </i>
    <i name="e_0_energy">   -114.55251939 </i>
   </energy>
  </scstep>
  <scstep>
   <time name="diag">    2.61    1.85</time>
   <time name="diis">   23.46    6.95</time>
   <time name="orth">    0.17    0.04</time>
   <time name="total">   29.80   12.25</time>
   <energy>
    <i name="e_fr_energy">   -114.56808654 </i>
    <i name="e_wo_entrp">   -114.51691347 </i>
    <i name="e_0_energy">   -114.55102885 </i>
   </energy>
  </scstep>
  <scstep>
   <time name="diag">    2.62    1.85</time>
   <time name="diis">   23.38    6.99</time>
   <time name="orth">    0.17    0.04</time>
   <time name="total">   29.84   12.30</time>
   <energy>
    <i name="e_fr_energy">   -114.56817277 </i>
    <i name="e_wo_entrp">   -114.51724036 </i>
    <i name="e_0_energy">   -114.55119530 </i>
   </energy>
  </scstep>
  <scstep>
   <time name="diag">    2.63    1.86</time>
   <time name="diis">   20.79    6.36</time>
   <time name="orth">    0.17    0.04</time>
   <time name="total">   26.02   10.57</time>
   <energy>
    <i name="alphaZ">     -6.10292531 </i>
    <i name="ewald">  -2228.21914625 </i>
    <i name="hartreedc">    -22.69098391 </i>
    <i name="XCdc">   -811.37681053 </i>
    <i name="pawpsdc">   1106.85065105 </i>
    <i name="pawaedc">   -116.65658069 </i>
    <i name="eentropy">     -0.05111008 </i>
    <i name="bandstr">    304.01241178 </i>
    <i name="atom">   1659.66634407 </i>
    <i name="e_fr_energy">   -114.56814986 </i>
    <i name="e_wo_entrp">   -114.51703979 </i>
    <i name="e_0_energy">   -114.55111317 </i>
   </energy>
  </scstep>
  <structure>
   <crystal>
    <varray name="basis" >
     <v>       8.08705400       0.00000000       0.00000000 </v>
     <v>       0.00000000       8.08705400       0.00000000 </v>
     <v>       0.00000000       0.00000000       8.08705400 </v>
    </varray>
    <i name="volume">    528.89690930 </i>
    <varray name="rec_basis" >
     <v>       0.12365442       0.00000000       0.00000000 </v>
     <v>       0.00000000       0.12365442       0.00000000 </v>
     <v>       0.00000000       0.00000000       0.12365442 </v>
    </varray>
   </crystal>
   <varray name="positions" >
    <v>      -0.00274142       0.00000000      -0.00274142 </v>
    <v>       0.25000000       0.00000000       0.25000000 </v>
    <v>       0.25000000       0.25161707       0.00161707 </v>
    <v>       0.00161707       0.25161707       0.25000000 </v>
    <v>       0.50274142       0.00000000      -0.00274142 </v>
    <v>       0.75000000       0.00000000       0.25000000 </v>
    <v>       0.75000000       0.24725858      -0.00274142 </v>
    <v>       0.49838293       0.25161707       0.25000000 </v>
    <v>       0.00161707       0.50000000       0.00161707 </v>
    <v>       0.25000000       0.74838293       0.00161707 </v>
    <v>       0.00161707       0.74838293       0.25000000 </v>
    <v>       0.49838293       0.50000000       0.00161707 </v>
    <v>       0.75000000       0.50000000       0.25000000 </v>
    <v>       0.75000000       0.75274142      -0.00274142 </v>
    <v>       0.49838293       0.74838293       0.25000000 </v>
    <v>      -0.00274142       0.00000000       0.50274142 </v>
    <v>       0.25000000       0.00000000       0.75000000 </v>
    <v>       0.25000000       0.25161707       0.49838293 </v>
    <v>      -0.00274142       0.24725858       0.75000000 </v>
    <v>       0.50274142       0.00000000       0.50274142 </v>
    <v>       0.75000000       0.00000000       0.75000000 </v>
    <v>       0.75000000       0.24725858       0.50274142 </v>
    <v>       0.50274142       0.24725858       0.75000000 </v>
    <v>       0.00161707       0.50000000       0.49838293 </v>
    <v>       0.25000000       0.50000000       0.75000000 </v>
    <v>       0.25000000       0.74838293       0.49838293 </v>
    <v>      -0.00274142       0.75274142       0.75000000 </v>
    <v>       0.49838293       0.50000000       0.49838293 </v>
    <v>       0.75000000       0.50000000       0.75000000 </v>
    <v>       0.75000000       0.75274142       0.50274142 </v>
    <v>       0.50274142       0.75274142       0.75000000 </v>
   </varray>
  </structure>
  <varray name="forces" >
   <v>       0.13929847       0.00000000       0.13929847 </v>
   <v>       0.00000000       0.00000000       0.00000000 </v>
   <v>       0.00000000       0.02945625       0.02945625 </v>
   <v>       0.02945625       0.02945625       0.00000000 </v>
   <v>      -0.13929847       0.00000000       0.13929847 </v>
   <v>       0.00000000       0.00000000       0.00000000 </v>
   <v>       0.00000000       0.13929847       0.13929847 </v>
   <v>      -0.02945625       0.02945625       0.00000000 </v>
   <v>       0.02945625       0.00000000       0.02945625 </v>
   <v>       0.00000000      -0.02945625       0.02945625 </v>
   <v>       0.02945625      -0.02945625       0.00000000 </v>
   <v>      -0.02945625       0.00000000       0.02945625 </v>
   <v>       0.00000000       0.00000000       0.00000000 </v>
   <v>       0.00000000      -0.13929847       0.13929847 </v>
   <v>      -0.02945625      -0.02945625       0.00000000 </v>
   <v>       0.13929847       0.00000000      -0.13929847 </v>
   <v>       0.00000000       0.00000000       0.00000000 </v>
   <v>       0.00000000       0.02945625      -0.02945625 </v>
   <v>       0.13929847       0.13929847       0.00000000 </v>
   <v>      -0.13929847       0.00000000      -0.13929847 </v>
   <v>       0.00000000       0.00000000       0.00000000 </v>
   <v>       0.00000000       0.13929847      -0.13929847 </v>
   <v>      -0.13929847       0.13929847       0.00000000 </v>
   <v>       0.02945625       0.00000000      -0.02945625 </v>
   <v>       0.00000000       0.00000000       0.00000000 </v>
   <v>       0.00000000      -0.02945625      -0.02945625 </v>
   <v>       0.13929847      -0.13929847       0.00000000 </v>
   <v>      -0.02945625       0.00000000      -0.02945625 </v>
   <v>       0.00000000       0.00000000       0.00000000 </v>
   <v>       0.00000000      -0.13929847      -0.13929847 </v>
   <v>      -0.13929847      -0.13929847       0.00000000 </v>
  </varray>
  <varray name="stress" >
   <v>      -7.15210194       0.00000000       0.00000000 </v>
   <v>       0.00000000      -7.15210194       0.00000000 </v>
   <v>       0.00000000       0.00000000      -7.15210194 </v>
  </varray>
  <energy>
   <i name="e_fr_energy">   -114.56814986 </i>
   <i name="e_wo_entrp">   -114.55111317 </i>
   <i name="e_0_energy">     -0.05111008 </i>
  </energy>
  <time name="totalsc">  207.14   90.10</time>
 </calculation>
 <calculation>
  <scstep>
   <time name="diag">    2.62    1.85</time>
   <time name="diis">   22.54    6.86</time>
   <time name="orth">    0.17    0.04</time>
   <time name="total">   29.01   12.16</time>
   <energy>
    <i name="alphaZ">     -6.10292531 </i>
    <i name="ewald">  -2230.18255478 </i>
    <i name="hartreedc">    -21.05546507 </i>
    <i name="XCdc">   -811.40435560 </i>
    <i name="pawpsdc">   1106.85455050 </i>
    <i name="pawaedc">   -116.66044642 </i>
    <i name="eentropy">     -0.05037068 </i>
    <i name="bandstr">    304.34102141 </i>
    <i name="atom">   1659.66634407 </i>
    <i name="e_fr_energy">   -114.59420188 </i>
    <i name="e_wo_entrp">   -114.54383120 </i>
    <i name="e_0_energy">   -114.57741165 </i>
   </energy>
  </scstep>
  <scstep>
   <time name="diag">    2.62    1.85</time>
   <time name="diis">   23.82    7.11</time>
   <time name="orth">    0.16    0.04</time>
   <time name="total">   30.06   12.37</time>
   <energy>
    <i name="e_fr_energy">   -114.59334024 </i>
    <i name="e_wo_entrp">   -114.54346052 </i>
    <i name="e_0_energy">   -114.57671366 </i>
   </energy>
  </scstep>
  <scstep>
   <time name="diag">    2.73    1.95</time>
   <time name="diis">   19.40    5.93</time>
   <time name="orth">    0.17    0.04</time>
   <time name="total">   25.78   11.29</time>
   <energy>
    <i name="e_fr_energy">   -114.59325518 </i>
    <i name="e_wo_entrp">   -114.54353918 </i>
    <i name="e_0_energy">   -114.57668318 </i>
   </energy>
  </scstep>
  <scstep>
   <time name="diag">    2.64    1.87</time>
   <time name="diis">   15.35    4.88</time>
   <time name="orth">    0.17    0.04</time>
   <time name="total">   20.50    9.08</time>
   <energy>
    <i name="alphaZ">     -6.10292531 </i>
    <i name="ewald">  -2230.18255478 </i>
    <i name="hartreedc">    -20.96982995 </i>
    <i name="XCdc">   -811.40773474 </i>
    <i name="pawpsdc">   1106.81153337 </i>
    <i name="pawaedc">   -116.61497944 </i>
    <i name="eentropy">     -0.04979346 </i>
    <i name="bandstr">    304.25669727 </i>
    <i name="atom">   1659.66634407 </i>
    <i name="e_fr_energy">   -114.59324295 </i>
    <i name="e_wo_entrp">   -114.54344949 </i>
    <i name="e_0_energy">   -114.57664513 </i>
   </energy>
  </scstep>
  <structure>
   <crystal>
    <varray name="basis" >
     <v>       8.08705400       0.00000000       0.00000000 </v>
     <v>       0.00000000       8.08705400       0.00000000 </v>
     <v>       0.00000000       0.00000000       8.08705400 </v>
    </varray>
    <i name="volume">    528.89690930 </i>
    <varray name="rec_basis" >
     <v>       0.12365442       0.00000000       0.00000000 </v>
     <v>       0.00000000       0.12365442       0.00000000 </v>
     <v>       0.00000000       0.00000000       0.12365442 </v>
    </varray>
   </crystal>
   <varray name="positions" >
    <v>      -0.00169019       0.00000000      -0.00169019 </v>
    <v>       0.25000000       0.00000000       0.25000000 </v>
    <v>       0.25000000       0.25239625       0.00239625 </v>
    <v>       0.00239625       0.25239625       0.25000000 </v>
    <v>       0.50169019       0.00000000      -0.00169019 </v>
    <v>       0.75000000       0.00000000       0.25000000 </v>
    <v>       0.75000000       0.24830981      -0.00169019 </v>
    <v>       0.49760375       0.25239625       0.25000000 </v>
    <v>       0.00239625       0.50000000       0.00239625 </v>
    <v>       0.25000000       0.74760375       0.00239625 </v>
    <v>       0.00239625       0.74760375       0.25000000 </v>
    <v>       0.49760375       0.50000000       0.00239625 </v>
    <v>       0.75000000       0.50000000       0.25000000 </v>
    <v>       0.75000000       0.75169019      -0.00169019 </v>
    <v>       0.49760375       0.74760375       0.25000000 </v>
    <v>      -0.00169019       0.00000000       0.50169019 </v>
    <v>       0.25000000       0.00000000       0.75000000 </v>
    <v>       0.25000000       0.25239625       0.49760375 </v>
    <v>      -0.00169019       0.24830981       0.75000000 </v>
    <v>       0.50169019       0.00000000       0.50169019 </v>
    <v>       0.75000000       0.00000000       0.75000000 </v>
    <v>       0.75000000       0.24830981       0.50169019 </v>
    <v>       0.50169019       0.24830981       0.75000000 </v>
    <v>       0.00239625       0.50000000       0.49760375 </v>
    <v>       0.25000000       0.50000000       0.75000000 </v>
    <v>       0.25000000       0.74760375       0.49760375 </v>
    <v>      -0.00169019       0.75169019       0.75000000 </v>
    <v>       0.49760375       0.50000000       0.49760375 </v>
    <v>       0.75000000       0.50000000       0.75000000 </v>
    <v>       0.75000000       0.75169019       0.50169019 </v>
    <v>       0.50169019       0.75169019       0.75000000 </v>
   </varray>
  </structure>
  <varray name="forces" >
   <v>       0.08190896       0.00000000       0.08190896 </v>
   <v>       0.00000000       0.00000000       0.00000000 </v>
   <v>       0.00000000       0.00406087       0.00406087 </v>
   <v>       0.00406087       0.00406087       0.00000000 </v>
   <v>      -0.08190896       0.00000000       0.08190896 </v>
   <v>       0.00000000       0.00000000       0.00000000 </v>
   <v>       0.00000000       0.08190896       0.08190896 </v>
   <v>      -0.00406087       0.00406087       0.00000000 </v>
   <v>       0.00406087       0.00000000       0.00406087 </v>
   <v>       0.00000000      -0.00406087       0.00406087 </v>
   <v>       0.00406087      -0.00406087       0.00000000 </v>
   <v>      -0.00406087       0.00000000       0.00406087 </v>
   <v>       0.00000000       0.00000000       0.00000000 </v>
   <v>       0.00000000      -0.08190896       0.08190896 </v>
   <v>      -0.00406087      -0.00406087       0.00000000 </v>
   <v>       0.08190896       0.00000000      -0.08190896 </v>
   <v>       0.00000000       0.00000000       0.00000000 </v>
   <v>       0.00000000       0.00406087      -0.00406087 </v>
   <v>       0.08190896       0.08190896       0.00000000 </v>
   <v>      -0.08190896       0.00000000      -0.08190896 </v>
   <v>       0.00000000       0.00000000       0.00000000 </v>
   <v>       0.00000000       0.08190896      -0.08190896 </v>
   <v>      -0.08190896       0.08190896       0.00000000 </v>
   <v>       0.00406087       0.00000000      -0.00406087 </v>
   <v>       0.00000000       0.00000000       0.00000000 </v>
   <v>       0.00000000      -0.00406087      -0.00406087 </v>
   <v>       0.08190896      -0.08190896       0.00000000 </v>
   <v>      -0.00406087       0.00000000      -0.00406087 </v>
   <v>       0.00000000       0.00000000       0.00000000 </v>
   <v>       0.00000000      -0.08190896      -0.08190896 </v>
   <v>      -0.08190896      -0.08190896       0.00000000 </v>
  </varray>
  <varray name="stress" >
   <v>      -7.59766833       0.00000000       0.00000000 </v>
   <v>       0.00000000      -7.59766833       0.00000000 </v>
   <v>       0.00000000       0.00000000      -7.59766833 </v>
  </varray>
  <energy>
   <i name="e_fr_energy">   -114.59324295 </i>
   <i name="e_wo_entrp">   -114.57664513 </i>
   <i name="e_0_energy">     -0.04979346 </i>
  </energy>
  <time name="totalsc">  138.78   63.22</time>
 </calculation>
 <calculation>
  <scstep>
   <time name="diag">    2.62    1.86</time>
   <time name="diis">   22.69    6.87</time>
   <time name="orth">    0.17    0.04</time>
   <time name="total">   29.19   12.22</time>
   <energy>
    <i name="alphaZ">     -6.10292531 </i>
    <i name="ewald">  -2232.11925656 </i>
    <i name="hartreedc">    -19.31213331 </i>
    <i name="XCdc">   -811.43689226 </i>
    <i name="pawpsdc">   1106.80273283 </i>
    <i name="pawaedc">   -116.60565124 </i>
    <i name="eentropy">     -0.05146452 </i>
    <i name="bandstr">    304.55478531 </i>
    <i name="atom">   1659.66634407 </i>
    <i name="e_fr_energy">   -114.60446099 </i>
    <i name="e_wo_entrp">   -114.55299646 </i>
    <i name="e_0_energy">   -114.58730615 </i>
   </energy>
  </scstep>
  <scstep>
   <time name="diag">    2.62    1.85</time>
   <time name="diis">   23.58    7.07</time>
   <time name="orth">    0.16    0.04</time>
   <time name="total">   30.02   12.52</time>
   <energy>
    <i name="e_fr_energy">   -114.60321273 </i>
    <i name="e_wo_entrp">   -114.55267710 </i>
    <i name="e_0_energy">   -114.58636752 </i>
   </energy>
  </scstep>
  <scstep>
   <time name="diag">    2.63    1.86</time>
   <time name="diis">   20.89    6.34</time>
   <time name="orth">    0.17    0.04</time>
   <time name="total">   27.20   11.65</time>
   <energy>
    <i name="e_fr_energy">   -114.60313240 </i>
    <i name="e_wo_entrp">   -114.55293289 </i>
    <i name="e_0_energy">   -114.58639923 </i>
   </energy>
  </scstep>
  <scstep>
   <time name="diag">    2.59    1.98</time>
   <time name="diis">   17.86    5.69</time>
   <time name="orth">    0.17    0.04</time>
   <time name="total">   22.89    9.95</time>
   <energy>
    <i name="alphaZ">     -6.10292531 </i>
    <i name="ewald">  -2232.11925656 </i>
    <i name="hartreedc">    -19.22902618 </i>
    <i name="XCdc">   -811.43994592 </i>
    <i name="pawpsdc">   1106.77096036 </i>
    <i name="pawaedc">   -116.57204504 </i>
    <i name="eentropy">     -0.05036780 </i>
    <i name="bandstr">    304.47312197 </i>
    <i name="atom">   1659.66634407 </i>
    <i name="e_fr_energy">   -114.60314041 </i>
    <i name="e_wo_entrp">   -114.55277261 </i>
    <i name="e_0_energy">   -114.58635114 </i>
   </energy>
  </scstep>
  <structure>
   <crystal>
    <varray name="basis" >
     <v>       8.08705400       0.00000000       0.00000000 </v>
     <v>       0.00000000       8.08705400       0.00000000 </v>
     <v>       0.00000000       0.00000000       8.08705400 </v>
    </varray>
    <i name="volume">    528.89690930 </i>
    <varray name="rec_basis" >
     <v>       0.12365442       0.00000000       0.00000000 </v>
     <v>       0.00000000       0.12365442       0.00000000 </v>
     <v>       0.00000000       0.00000000       0.12365442 </v>
    </varray>
   </crystal>
   <varray name="positions" >
    <v>      -0.00051887       0.00000000      -0.00051887 </v>
    <v>       0.25000000       0.00000000       0.25000000 </v>
    <v>       0.25000000       0.25326443       0.00326443 </v>
    <v>       0.00326443       0.25326443       0.25000000 </v>
    <v>       0.50051887       0.00000000      -0.00051887 </v>
    <v>       0.75000000       0.00000000       0.25000000 </v>
    <v>       0.75000000       0.24948113      -0.00051887 </v>
    <v>       0.49673557       0.25326443       0.25000000 </v>
    <v>       0.00326443       0.50000000       0.00326443 </v>
    <v>       0.25000000       0.74673557       0.00326443 </v>
    <v>       0.00326443       0.74673557       0.25000000 </v>
    <v>       0.49673557       0.50000000       0.00326443 </v>
    <v>       0.75000000       0.50000000       0.25000000 </v>
    <v>       0.75000000       0.75051887      -0.00051887 </v>
    <v>       0.49673557       0.74673557       0.25000000 </v>
    <v>      -0.00051887       0.00000000       0.50051887 </v>
    <v>       0.25000000       0.00000000       0.75000000 </v>
    <v>       0.25000000       0.25326443       0.49673557 </v>
    <v>      -0.00051887       0.24948113       0.75000000 </v>
    <v>       0.50051887       0.00000000       0.50051887 </v>
    <v>       0.75000000       0.00000000       0.75000000 </v>
    <v>       0.75000000       0.24948113       0.50051887 </v>
    <v>       0.50051887       0.24948113       0.75000000 </v>
    <v>       0.00326443       0.50000000       0.49673557 </v>
    <v>       0.25000000       0.50000000       0.75000000 </v>
    <v>       0.25000000       0.74673557       0.49673557 </v>
    <v>      -0.00051887       0.75051887       0.75000000 </v>
    <v>       0.49673557       0.50000000       0.49673557 </v>
    <v>       0.75000000       0.50000000       0.75000000 </v>
    <v>       0.75000000       0.75051887       0.50051887 </v>
    <v>       0.50051887       0.75051887       0.75000000 </v>
   </varray>
  </structure>
  <varray name="forces" >
   <v>       0.02144273       0.00000000       0.02144273 </v>
   <v>       0.00000000       0.00000000       0.00000000 </v>
   <v>       0.00000000      -0.02449688      -0.02449688 </v>
   <v>      -0.02449688      -0.02449688       0.00000000 </v>
   <v>      -0.02144273       0.00000000       0.02144273 </v>
   <v>       0.00000000       0.00000000       0.00000000 </v>
   <v>       0.00000000       0.02144273       0.02144273 </v>
   <v>       0.02449688      -0.02449688       0.00000000 </v>
   <v>      -0.02449688       0.00000000      -0.02449688 </v>
   <v>       0.00000000       0.02449688      -0.02449688 </v>
   <v>      -0.02449688       0.02449688       0.00000000 </v>
   <v>       0.02449688       0.00000000      -0.02449688 </v>
   <v>       0.00000000       0.00000000       0.00000000 </v>
   <v>       0.00000000      -0.02144273       0.02144273 </v>
   <v>       0.02449688       0.02449688       0.00000000 </v>
   <v>       0.02144273       0.00000000      -0.02144273 </v>
   <v>       0.00000000       0.00000000       0.00000000 </v>
   <v>       0.00000000      -0.02449688       0.02449688 </v>
   <v>       0.02144273       0.02144273       0.00000000 </v>
   <v>      -0.02144273       0.00000000      -0.02144273 </v>
   <v>       0.00000000       0.00000000       0.00000000 </v>
   <v>       0.00000000       0.02144273      -0.02144273 </v>
   <v>      -0.02144273       0.02144273       0.00000000 </v>
   <v>      -0.02449688       0.00000000       0.02449688 </v>
   <v>       0.00000000       0.00000000       0.00000000 </v>
   <v>       0.00000000       0.02449688       0.02449688 </v>
   <v>       0.02144273      -0.02144273       0.00000000 </v>
   <v>       0.02449688       0.00000000       0.02449688 </v>
   <v>       0.00000000       0.00000000       0.00000000 </v>
   <v>       0.00000000      -0.02144273      -0.02144273 </v>
   <v>      -0.02144273      -0.02144273       0.00000000 </v>
  </varray>
  <varray name="stress" >
   <v>      -7.91159461       0.00000000       0.00000000 </v>
   <v>       0.00000000      -7.91159461       0.00000000 </v>
   <v>       0.00000000       0.00000000      -7.91159461 </v>
  </varray>
  <energy>
   <i name="e_fr_energy">   -114.60314041 </i>
   <i name="e_wo_entrp">   -114.58635114 </i>
   <i name="e_0_energy">     -0.05036780 </i>
  </energy>
  <time name="totalsc">  139.25   63.12</time>
  <eigenvalues>
   <array>
    <dimension dim="1">band</dimension>
    <dimension dim="2">kpoint</dimension>
    <dimension dim="3">spin</dimension>
    <field>eigene</field>
    <field>occ</field>
    <set>
     <set comment="spin 1">
      <set comment="kpoint 1">
       <r>   -2.9333    1.0000 </r>
       <r>   -1.8586    1.0000 </r>
       <r>   -1.8586    1.0000 </r>
       <r>   -1.6855    1.0000 </r>
       <r>   -0.7437    1.0000 </r>
       <r>   -0.7437    1.0000 </r>
       <r>   -0.4972    1.0000 </r>
       <r>    0.3601    1.0000 </r>
       <r>    0.3601    1.0000 </r>
       <r>    0.4267    1.0000 </r>
       <r>    0.6057    1.0000 </r>
       <r>    1.4282    1.0000 </r>
       <r>    1.4282    1.0000 </r>
       <r>    1.4566    1.0000 </r>
       <r>    1.5636    1.0000 </r>
       <r>    1.5636    1.0000 </r>
       <r>    1.9085    1.0000 </r>
       <r>    2.6338    1.0000 </r>
       <r>    2.6338    1.0000 </r>
       <r>    2.7509    1.0000 </r>
       <r>    3.5951    1.0000 </r>
       <r>    3.5951    1.0000 </r>
       <r>    3.6969    1.0000 </r>
       <r>    3.6980    1.0000 </r>
       <r>    3.6980    1.0000 </r>
       <r>    3.9900    1.0000 </r>
       <r>    4.6223    1.0000 </r>
       <r>    4.6223    1.0000 </r>
       <r>    4.6538    1.0000 </r>
       <r>    4.7174    1.0000 </r>
       <r>    4.7174    1.0000 </r>
       <r>    4.9103    1.0000 </r>
       <r>    4.9103    1.0000 </r>
       <r>    4.9158    1.0000 </r>
       <r>    5.1735    1.0000 </r>
       <r>    5.7630    1.0000 </r>
       <r>    5.7630    1.0000 </r>
       <r>    6.2220    1.0000 </r>
       <r>    6.7768    1.0000 </r>
       <r>    6.7937    1.0000 </r>
       <r>    6.7937    1.0000 </r>
       <r>    6.9706    1.0000 </r>
       <r>    7.0233    1.0000 </r>
       <r>    7.0317    1.0000 </r>
       <r>    7.0317    1.0000 </r>
       <r>    7.8350    0.6766 </r>
       <r>    7.8812    0.4857 </r>
       <r>    7.8812    0.4857 </r>
       <r>    8.0963   -0.0322 </r>
       <r>    8.0963   -0.0322 </r>
       <r>    8.1537   -0.0325 </r>
       <r>    8.1959   -0.0235 </r>
       <r>    8.1959   -0.0235 </r>
       <r>    8.3195   -0.0039 </r>
       <r>    9.1493    0.0000 </r>
       <r>    9.1493    0.0000 </r>
       <r>    9.1808    0.0000 </r>
       <r>    9.4097    0.0000 </r>
       <r>    9.4097    0.0000 </r>
       <r>    9.4357    0.0000 </r>
       <r>   10.0017    0.0000 </r>
       <r>   10.0314    0.0000 </r>
      </set>
     </set>
    </set>
   </array>
  </eigenvalues>
  <separator name="orbital magnetization" >
   <v name="MAGDIPOLOUT">      0.00000000      0.00000000      0.00000000</v>
  </separator>
  <dos>
   <i name="efermi">      7.87781620 </i>
   <total>
    <array>
     <dimension dim="1">gridpoints</dimension>
     <dimension dim="2">spin</dimension>
     <field>energy</field>
     <field>total</field>
     <field>integrated</field>
     <set>
      <set comment="spin 1">
       <r>  -4.9333   0.0000   0.0000 </r>
       <r>  -4.8768   0.0000   0.0000 </r>
       <r>  -4.8202   0.0000   0.0000 </r>
       <r>  -4.7637   0.0000   0.0000 </r>
       <r>  -4.7071   0.0000   0.0000 </r>
       <r>  -4.6506   0.0000   0.0000 </r>
       <r>  -4.5940   0.0000   0.0000 </r>
       <r>  -4.5375   0.0000   0.0000 </r>
       <r>  -4.4809   0.0000   0.0000 </r>
       <r>  -4.4244   0.0000   0.0000 </r>
       <r>  -4.3678   0.0000   0.0000 </r>
       <r>  -4.3113   0.0000   0.0000 </r>
       <r>  -4.2547   0.0000   0.0000 </r>
       <r>  -4.1982   0.0000   0.0000 </r>
       <r>  -4.1416   0.0000   0.0000 </r>
       <r>  -4.0851   0.0000   0.0000 </r>
       <r>  -4.0285   0.0000   0.0000 </r>
       <r>  -3.9720   0.0000   0.0000 </r>
       <r>  -3.9154   0.0000   0.0000 </r>
       <r>  -3.8589   0.0000   0.0000 </r>
       <r>  -3.8023   0.0000   0.0000 </r>
       <r>  -3.7458   0.0000   0.0000 </r>
       <r>  -3.6892   0.0000   0.0000 </r>
       <r>  -3.6327  -0.0001   0.0000 </r>
       <r>  -3.5761  -0.0008  -0.0001 </r>
       <r>  -3.5196  -0.0039  -0.0003 </r>
       <r>  -3.4630  -0.0157  -0.0012 </r>
       <r>  -3.4065  -0.0525  -0.0041 </r>
       <r>  -3.3499  -0.1412  -0.0121 </r>
       <r>  -3.2934  -0.2957  -0.0288 </r>
       <r>  -3.2368  -0.4400  -0.0537 </r>
       <r>  -3.1803  -0.3036  -0.0709 </r>
       <r>  -3.1237   0.5665  -0.0388 </r>
       <r>  -3.0672   2.4999   0.1025 </r>
       <r>  -3.0106   5.2010   0.3966 </r>
       <r>  -2.9541   7.5778   0.8251 </r>
       <r>  -2.8975   8.3505   1.2974 </r>
       <r>  -2.8410   7.0588   1.6965 </r>
       <r>  -2.7844   4.4611   1.9488 </r>
       <r>  -2.7279   1.8856   2.0554 </r>
       <r>  -2.6713   0.2389   2.0689 </r>
       <r>  -2.6148  -0.3911   2.0468 </r>
       <r>  -2.5582  -0.4141   2.0234 </r>
       <r>  -2.5017  -0.2515   2.0092 </r>
       <r>  -2.4451  -0.1188   2.0025 </r>
       <r>  -2.3886  -0.0703   1.9985 </r>
       <r>  -2.3320  -0.1161   1.9919 </r>
       <r>  -2.2755  -0.2871   1.9757 </r>
       <r>  -2.2190  -0.6045   1.9415 </r>
       <r>  -2.1624  -0.9282   1.8890 </r>
       <r>  -2.1059  -0.7448   1.8469 </r>
       <r>  -2.0493   0.8346   1.8941 </r>
       <r>  -1.9928   4.5396   2.1508 </r>
       <r>  -1.9362  10.0433   2.7187 </r>
       <r>  -1.8797  15.6150   3.6017 </r>
       <r>  -1.8231  19.0446   4.6787 </r>
       <r>  -1.7666  19.1574   5.7620 </r>
       <r>  -1.7100  16.4098   6.6900 </r>
       <r>  -1.6535  12.1589   7.3776 </r>
       <r>  -1.5969   7.6873   7.8123 </r>
       <r>  -1.5404   3.8666   8.0309 </r>
       <r>  -1.4838   1.2036   8.0990 </r>
       <r>  -1.4273  -0.1886   8.0883 </r>
       <r>  -1.3707  -0.5993   8.0544 </r>
       <r>  -1.3142  -0.5116   8.0255 </r>
       <r>  -1.2576  -0.3284   8.0069 </r>
       <r>  -1.2011  -0.2649   7.9919 </r>
       <r>  -1.1445  -0.4003   7.9693 </r>
       <r>  -1.0880  -0.7043   7.9295 </r>
       <r>  -1.0314  -0.9121   7.8779 </r>
       <r>  -0.9749  -0.3589   7.8576 </r>
       <r>  -0.9183   1.8608   7.9628 </r>
       <r>  -0.8618   6.1389   8.3100 </r>
       <r>  -0.8052  11.4797   8.9591 </r>
       <r>  -0.7487  15.6589   9.8446 </r>
       <r>  -0.6921  16.8310  10.7964 </r>
       <r>  -0.6356  15.1273  11.6519 </r>
       <r>  -0.5790  12.3524  12.3504 </r>
       <r>  -0.5225  10.0617  12.9193 </r>
       <r>  -0.4659   8.3145  13.3895 </r>
       <r>  -0.4094   6.3518  13.7487 </r>
       <r>  -0.3528   3.9379  13.9714 </r>
       <r>  -0.2963   1.6537  14.0649 </r>
       <r>  -0.2397   0.1546  14.0737 </r>
       <r>  -0.1832  -0.4504  14.0482 </r>
       <r>  -0.1266  -0.5275  14.0184 </r>
       <r>  -0.0701  -0.5273  13.9885 </r>
       <r>  -0.0135  -0.7264  13.9475 </r>
       <r>   0.0430  -1.1086  13.8848 </r>
       <r>   0.0996  -1.2011  13.8169 </r>
       <r>   0.1561   0.0289  13.8185 </r>
       <r>   0.2127   3.7697  14.0317 </r>
       <r>   0.2692  10.2621  14.6120 </r>
       <r>   0.3258  17.8222  15.6198 </r>
       <r>   0.3823  23.3726  16.9415 </r>
       <r>   0.4389  24.5868  18.3318 </r>
       <r>   0.4954  21.6642  19.5569 </r>
       <r>   0.5519  16.8061  20.5073 </r>
       <r>   0.6085  12.0934  21.1912 </r>
       <r>   0.6650   8.2061  21.6552 </r>
       <r>   0.7216   4.9521  21.9353 </r>
       <r>   0.7781   2.2830  22.0644 </r>
       <r>   0.8347   0.4571  22.0902 </r>
       <r>   0.8912  -0.4257  22.0661 </r>
       <r>   0.9478  -0.6582  22.0289 </r>
       <r>   1.0043  -0.7225  21.9881 </r>
       <r>   1.0609  -0.9859  21.9323 </r>
       <r>   1.1174  -1.4660  21.8494 </r>
       <r>   1.1740  -1.5876  21.7596 </r>
       <r>   1.2305  -0.0567  21.7564 </r>
       <r>   1.2871   4.6695  22.0205 </r>
       <r>   1.3436  13.1148  22.7621 </r>
       <r>   1.4002  23.5554  24.0941 </r>
       <r>   1.4567  32.2512  25.9179 </r>
       <r>   1.5133  35.4745  27.9240 </r>
       <r>   1.5698  31.8688  29.7261 </r>
       <r>   1.6264  23.2886  31.0431 </r>
       <r>   1.6829  13.6405  31.8144 </r>
       <r>   1.7395   6.6771  32.1920 </r>
       <r>   1.7960   4.0984  32.4238 </r>
       <r>   1.8526   4.9762  32.7052 </r>
       <r>   1.9091   6.7747  33.0883 </r>
       <r>   1.9657   7.2373  33.4975 </r>
       <r>   2.0222   5.7512  33.8227 </r>
       <r>   2.0788   3.2469  34.0063 </r>
       <r>   2.1353   1.0195  34.0640 </r>
       <r>   2.1919  -0.3085  34.0466 </r>
       <r>   2.2484  -0.9156  33.9948 </r>
       <r>   2.3050  -1.2216  33.9257 </r>
       <r>   2.3615  -1.2505  33.8550 </r>
       <r>   2.4181  -0.3421  33.8356 </r>
       <r>   2.4746   2.5428  33.9794 </r>
       <r>   2.5312   7.8887  34.4255 </r>
       <r>   2.5877  14.6464  35.2538 </r>
       <r>   2.6443  20.2772  36.4004 </r>
       <r>   2.7008  22.2100  37.6564 </r>
       <r>   2.7574  19.6112  38.7654 </r>
       <r>   2.8139  13.8857  39.5506 </r>
       <r>   2.8705   7.5682  39.9786 </r>
       <r>   2.9270   2.7171  40.1322 </r>
       <r>   2.9836   0.0543  40.1353 </r>
       <r>   3.0401  -0.8454  40.0875 </r>
       <r>   3.0967  -0.8484  40.0395 </r>
       <r>   3.1532  -0.6878  40.0006 </r>
       <r>   3.2098  -0.7718  39.9570 </r>
       <r>   3.2663  -1.1911  39.8896 </r>
       <r>   3.3228  -1.6287  39.7975 </r>
       <r>   3.3794  -1.1375  39.7332 </r>
       <r>   3.4359   1.8270  39.8365 </r>
       <r>   3.4925   8.6071  40.3232 </r>
       <r>   3.5490  18.8848  41.3911 </r>
       <r>   3.6056  29.7256  43.0721 </r>
       <r>   3.6621  36.5527  45.1391 </r>
       <r>   3.7187  36.0304  47.1766 </r>
       <r>   3.7752  28.6948  48.7993 </r>
       <r>   3.8318  18.7735  49.8609 </r>
       <r>   3.8883  11.0359  50.4849 </r>
       <r>   3.9449   7.4681  50.9073 </r>
       <r>   4.0014   6.6970  51.2860 </r>
       <r>   4.0580   6.1771  51.6353 </r>
       <r>   4.1145   4.5723  51.8938 </r>
       <r>   4.1711   2.2295  52.0199 </r>
       <r>   4.2276   0.0575  52.0232 </r>
       <r>   4.2842  -1.4842  51.9392 </r>
       <r>   4.3407  -2.2777  51.8104 </r>
       <r>   4.3973  -1.7352  51.7123 </r>
       <r>   4.4538   1.5616  51.8006 </r>
       <r>   4.5104   8.9358  52.3059 </r>
       <r>   4.5669  19.8159  53.4265 </r>
       <r>   4.6235  30.9108  55.1745 </r>
       <r>   4.6800  37.9853  57.3225 </r>
       <r>   4.7366  39.1546  59.5366 </r>
       <r>   4.7931  36.2321  61.5855 </r>
       <r>   4.8497  32.3881  63.4170 </r>
       <r>   4.9062  28.8679  65.0495 </r>
       <r>   4.9628  24.7145  66.4471 </r>
       <r>   5.0193  19.3060  67.5388 </r>
       <r>   5.0759  13.8561  68.3224 </r>
       <r>   5.1324  10.0070  68.8882 </r>
       <r>   5.1890   7.8830  69.3340 </r>
       <r>   5.2455   6.2529  69.6876 </r>
       <r>   5.3021   4.1610  69.9229 </r>
       <r>   5.3586   1.7635  70.0226 </r>
       <r>   5.4152  -0.2255  70.0099 </r>
       <r>   5.4717  -1.2425  69.9396 </r>
       <r>   5.5283  -0.8573  69.8911 </r>
       <r>   5.5848   1.4643  69.9740 </r>
       <r>   5.6414   5.9312  70.3094 </r>
       <r>   5.6979  11.5028  70.9598 </r>
       <r>   5.7545  15.7533  71.8507 </r>
       <r>   5.8110  16.3169  72.7734 </r>
       <r>   5.8676  12.8148  73.4980 </r>
       <r>   5.9241   7.2747  73.9094 </r>
       <r>   5.9807   2.6147  74.0573 </r>
       <r>   6.0372   0.7625  74.1004 </r>
       <r>   6.0937   1.8832  74.2069 </r>
       <r>   6.1503   4.7029  74.4728 </r>
       <r>   6.2068   7.2995  74.8856 </r>
       <r>   6.2634   8.0769  75.3423 </r>
       <r>   6.3199   6.6033  75.7157 </r>
       <r>   6.3765   3.7042  75.9252 </r>
       <r>   6.4330   0.7146  75.9656 </r>
       <r>   6.4896  -1.2734  75.8936 </r>
       <r>   6.5461  -1.4326  75.8126 </r>
       <r>   6.6027   1.0801  75.8737 </r>
       <r>   6.6592   6.7246  76.2540 </r>
       <r>   6.7158  14.5972  77.0794 </r>
       <r>   6.7723  22.3904  78.3456 </r>
       <r>   6.8289  28.0997  79.9346 </r>
       <r>   6.8854  31.6691  81.7254 </r>
       <r>   6.9420  34.1474  83.6564 </r>
       <r>   6.9985  35.2462  85.6496 </r>
       <r>   7.0551  32.8969  87.5099 </r>
       <r>   7.1116  25.8289  88.9704 </r>
       <r>   7.1682  15.7983  89.8638 </r>
       <r>   7.2247   6.5093  90.2319 </r>
       <r>   7.2813   0.6526  90.2688 </r>
       <r>   7.3378  -1.6076  90.1779 </r>
       <r>   7.3944  -1.7743  90.0776 </r>
       <r>   7.4509  -1.4224  89.9971 </r>
       <r>   7.5075  -1.3447  89.9211 </r>
       <r>   7.5640  -1.4469  89.8393 </r>
       <r>   7.6206  -0.8626  89.7905 </r>
       <r>   7.6771   1.7056  89.8870 </r>
       <r>   7.7337   7.0446  90.2853 </r>
       <r>   7.7902  14.2436  91.0908 </r>
       <r>   7.8468  20.7025  92.2615 </r>
       <r>   7.9033  24.1937  93.6296 </r>
       <r>   7.9599  25.2677  95.0585 </r>
       <r>   8.0164  26.9509  96.5825 </r>
       <r>   8.0730  31.3936  98.3578 </r>
       <r>   8.1295  37.0756 100.4544 </r>
       <r>   8.1861  39.8884 102.7100 </r>
       <r>   8.2426  36.8906 104.7962 </r>
       <r>   8.2992  28.6807 106.4180 </r>
       <r>   8.3557  18.4469 107.4612 </r>
       <r>   8.4123   9.4257 107.9942 </r>
       <r>   8.4688   3.2803 108.1797 </r>
       <r>   8.5254   0.0640 108.1833 </r>
       <r>   8.5819  -1.0527 108.1238 </r>
       <r>   8.6385  -1.0886 108.0622 </r>
       <r>   8.6950  -0.8530 108.0140 </r>
       <r>   8.7515  -0.8170 107.9678 </r>
       <r>   8.8081  -1.1014 107.9055 </r>
       <r>   8.8646  -1.3813 107.8274 </r>
       <r>   8.9212  -0.7291 107.7862 </r>
       <r>   8.9777   2.1713 107.9090 </r>
       <r>   9.0343   8.0110 108.3620 </r>
       <r>   9.0908  15.6048 109.2444 </r>
       <r>   9.1474  22.0374 110.4906 </r>
       <r>   9.2039  24.9333 111.9005 </r>
       <r>   9.2605  24.7759 113.3016 </r>
       <r>   9.3170  24.2367 114.6722 </r>
       <r>   9.3736  24.8468 116.0772 </r>
       <r>   9.4301  25.0468 117.4936 </r>
       <r>   9.4867  22.1342 118.7453 </r>
       <r>   9.5432  15.5952 119.6271 </r>
       <r>   9.5998   7.7755 120.0668 </r>
       <r>   9.6563   1.5956 120.1571 </r>
       <r>   9.7129  -1.5844 120.0675 </r>
       <r>   9.7694  -1.9051 119.9597 </r>
       <r>   9.8260   0.2266 119.9726 </r>
       <r>   9.8825   4.5529 120.2300 </r>
       <r>   9.9391  10.1747 120.8054 </r>
       <r>   9.9956  14.9710 121.6520 </r>
       <r>  10.0522  16.5378 122.5872 </r>
       <r>  10.1087  14.0329 123.3807 </r>
       <r>  10.1653   8.9411 123.8863 </r>
       <r>  10.2218   3.8519 124.1042 </r>
       <r>  10.2784   0.5565 124.1356 </r>
       <r>  10.3349  -0.7391 124.0938 </r>
       <r>  10.3915  -0.8168 124.0476 </r>
       <r>  10.4480  -0.5035 124.0192 </r>
       <r>  10.5046  -0.2276 124.0063 </r>
       <r>  10.5611  -0.0811 124.0017 </r>
       <r>  10.6177  -0.0235 124.0004 </r>
       <r>  10.6742  -0.0056 124.0001 </r>
       <r>  10.7308  -0.0011 124.0000 </r>
       <r>  10.7873  -0.0002 124.0000 </r>
       <r>  10.8439   0.0000 124.0000 </r>
       <r>  10.9004   0.0000 124.0000 </r>
       <r>  10.9570   0.0000 124.0000 </r>
       <r>  11.0135   0.0000 124.0000 </r>
       <r>  11.0701   0.0000 124.0000 </r>
       <r>  11.1266   0.0000 124.0000 </r>
       <r>  11.1832   0.0000 124.0000 </r>
       <r>  11.2397   0.0000 124.0000 </r>
       <r>  11.2963   0.0000 124.0000 </r>
       <r>  11.3528   0.0000 124.0000 </r>
       <r>  11.4094   0.0000 124.0000 </r>
       <r>  11.4659   0.0000 124.0000 </r>
       <r>  11.5224   0.0000 124.0000 </r>
       <r>  11.5790   0.0000 124.0000 </r>
       <r>  11.6355   0.0000 124.0000 </r>
       <r>  11.6921   0.0000 124.0000 </r>
       <r>  11.7486   0.0000 124.0000 </r>
       <r>  11.8052   0.0000 124.0000 </r>
       <r>  11.8617   0.0000 124.0000 </r>
       <r>  11.9183   0.0000 124.0000 </r>
       <r>  11.9748   0.0000 124.0000 </r>
       <r>  12.0314   0.0000 124.0000 </r>
      </set>
     </set>
    </array>
   </total>
  </dos>
 </calculation>
 <structure name="finalpos" >
  <crystal>
   <varray name="basis" >
    <v>       8.08705400       0.00000000       0.00000000 </v>
    <v>       0.00000000       8.08705400       0.00000000 </v>
    <v>       0.00000000       0.00000000       8.08705400 </v>
   </varray>
   <i name="volume">    528.89690930 </i>
   <varray name="rec_basis" >
    <v>       0.12365442       0.00000000       0.00000000 </v>
    <v>       0.00000000       0.12365442       0.00000000 </v>
    <v>       0.00000000       0.00000000       0.12365442 </v>
   </varray>
  </crystal>
  <varray name="positions" >
   <v>      -0.00051887       0.00000000      -0.00051887 </v>
   <v>       0.25000000       0.00000000       0.25000000 </v>
   <v>       0.25000000       0.25326443       0.00326443 </v>
   <v>       0.00326443       0.25326443       0.25000000 </v>
   <v>       0.50051887       0.00000000      -0.00051887 </v>
   <v>       0.75000000       0.00000000       0.25000000 </v>
   <v>       0.75000000       0.24948113      -0.00051887 </v>
   <v>       0.49673557       0.25326443       0.25000000 </v>
   <v>       0.00326443       0.50000000       0.00326443 </v>
   <v>       0.25000000       0.74673557       0.00326443 </v>
   <v>       0.00326443       0.74673557       0.25000000 </v>
   <v>       0.49673557       0.50000000       0.00326443 </v>
   <v>       0.75000000       0.50000000       0.25000000 </v>
   <v>       0.75000000       0.75051887      -0.00051887 </v>
   <v>       0.49673557       0.74673557       0.25000000 </v>
   <v>      -0.00051887       0.00000000       0.50051887 </v>
   <v>       0.25000000       0.00000000       0.75000000 </v>
   <v>       0.25000000       0.25326443       0.49673557 </v>
   <v>      -0.00051887       0.24948113       0.75000000 </v>
   <v>       0.50051887       0.00000000       0.50051887 </v>
   <v>       0.75000000       0.00000000       0.75000000 </v>
   <v>       0.75000000       0.24948113       0.50051887 </v>
   <v>       0.50051887       0.24948113       0.75000000 </v>
   <v>       0.00326443       0.50000000       0.49673557 </v>
   <v>       0.25000000       0.50000000       0.75000000 </v>
   <v>       0.25000000       0.74673557       0.49673557 </v>
   <v>      -0.00051887       0.75051887       0.75000000 </v>
   <v>       0.49673557       0.50000000       0.49673557 </v>
   <v>       0.75000000       0.50000000       0.75000000 </v>
   <v>       0.75000000       0.75051887       0.50051887 </v>
   <v>       0.50051887       0.75051887       0.75000000 </v>
  </varray>
 </structure>
</modeling>
