       N       E                     dE             d eps       ncg     rms          rms(c)
DAV:   1     0.101907899119E+03    0.10191E+03   -0.25787E+04   124   0.882E+02
DAV:   2    -0.847075530317E+02   -0.18662E+03   -0.17261E+03   138   0.125E+02
DAV:   3    -0.101488282072E+03   -0.16781E+02   -0.15460E+02   168   0.262E+01
DAV:   4    -0.102206942111E+03   -0.71866E+00   -0.70725E+00   168   0.561E+00
DAV:   5    -0.102221385538E+03   -0.14443E-01   -0.14396E-01   160   0.936E-01    0.697E+00
DAV:   6    -0.100351155428E+03    0.18702E+01   -0.10412E+01   160   0.620E+00    0.402E+00
DAV:   7    -0.100043998304E+03    0.30716E+00   -0.12949E+00   152   0.293E+00    0.261E+00
DAV:   8    -0.998792709768E+02    0.16473E+00   -0.29510E-01   168   0.135E+00    0.679E-01
DAV:   9    -0.998673200366E+02    0.11951E-01   -0.23172E-02   152   0.428E-01    0.125E-01
DAV:  10    -0.998668134070E+02    0.50663E-03   -0.28346E-03   152   0.129E-01    0.440E-02
DAV:  11    -0.998668602533E+02   -0.46846E-04   -0.44003E-04   160   0.527E-02
   1 F= -.99866860E+02 E0= -.99819554E+02  d E =-.219176E-01
