    3    3    1    1
  0.1429167E+02  0.3500000E-09  0.3500000E-09  0.3500000E-09  0.1000000E-16
  1.000000000000000E-004
  CAR 
 unknown system                          
    9    1    8
 
  0.2500000E+00  0.2500000E+00  0.2500000E+00  0.1000000E+01
   1       -0.842491
   2        4.914435
   3        5.150902
   4        5.151008
   5       10.519665
   6       10.524562
   7       11.421534
   8       16.284574
