       N       E                     dE             d eps       ncg     rms          rms(c)
DAV:   1     0.915431940873E+04    0.91543E+04   -0.32095E+05 15680   0.144E+03
DAV:   2     0.133054168876E+04   -0.78238E+04   -0.71433E+04 15680   0.320E+02
DAV:   3     0.250889345690E+02   -0.13055E+04   -0.11526E+04 15904   0.140E+02
DAV:   4    -0.540842857441E+02   -0.79173E+02   -0.77424E+02 16896   0.425E+01
DAV:   5    -0.546717436961E+02   -0.58746E+00   -0.62517E+00 17000   0.404E+00    0.287E+02
DAV:   6     0.523973918483E+03    0.57865E+03   -0.20996E+03 18752   0.131E+02    0.115E+02
DAV:   7     0.201833874148E+03   -0.32214E+03   -0.11160E+03 19012   0.871E+01    0.643E+01
DAV:   8    -0.300484577418E+03   -0.50232E+03   -0.14293E+02 19376   0.393E+01    0.589E+01
DAV:   9    -0.333333323505E+03   -0.32849E+02   -0.66824E+01 19660   0.419E+01    0.405E+01
DAV:  10    -0.476894793444E+03   -0.14356E+03   -0.41382E+02 19100   0.639E+01    0.663E+01
DAV:  11    -0.414724770708E+03    0.62170E+02   -0.86985E+01 17824   0.355E+01    0.276E+01
DAV:  12    -0.403461140509E+03    0.11264E+02   -0.36898E+01 19488   0.166E+01    0.706E+00
DAV:  13    -0.403021736320E+03    0.43940E+00   -0.43782E+00 19064   0.694E+00    0.150E+00
DAV:  14    -0.403129339192E+03   -0.10760E+00   -0.96982E-01 17344   0.270E+00    0.167E+00
DAV:  15    -0.403107521640E+03    0.21818E-01   -0.83173E-02 16760   0.102E+00    0.114E+00
DAV:  16    -0.403097369617E+03    0.10152E-01   -0.38582E-02 17976   0.794E-01    0.774E-01
DAV:  17    -0.403089172683E+03    0.81969E-02   -0.46695E-02 19360   0.703E-01    0.132E-01
DAV:  18    -0.403089695172E+03   -0.52249E-03   -0.72144E-03 16432   0.205E-01    0.889E-02
DAV:  19    -0.403089619509E+03    0.75663E-04   -0.52253E-04 16760   0.126E-01
   1 F= -.40308962E+03 E0= -.40308962E+03  d E =0.000000E+00  mag=    -0.0466
