unknown system                          
           1
    10.906394    0.000000    0.000000
     0.000000   10.906394    0.000000
     0.000000    0.000000   10.906394
   Al   Mg
   1 107
Direct configuration=     1
   0.00000000  0.00000000  0.00000000
   0.16751294  0.00000000  0.16751294
   0.00000000  0.00000000  0.33395651
   0.00000000  0.00000000  0.66604349
   0.00000000  0.33395651  0.00000000
   0.00000000  0.33377833  0.33377833
   0.00000000  0.33377833  0.66622167
   0.00000000  0.66604349  0.00000000
   0.00000000  0.66622167  0.33377833
   0.00000000  0.66622167  0.66622167
   0.33395651  0.00000000  0.00000000
   0.33377833  0.00000000  0.33377833
   0.33377833  0.00000000  0.66622167
   0.33377833  0.33377833  0.00000000
   0.33360959  0.33360959  0.33360959
   0.33360959  0.33360959  0.66639041
   0.33377833  0.66622167  0.00000000
   0.33360959  0.66639041  0.33360959
   0.33360959  0.66639041  0.66639041
   0.66604349  0.00000000  0.00000000
   0.66622167  0.00000000  0.33377833
   0.66622167  0.00000000  0.66622167
   0.66622167  0.33377833  0.00000000
   0.66639041  0.33360959  0.33360959
   0.66639041  0.33360959  0.66639041
   0.66622167  0.66622167  0.00000000
   0.66639041  0.66639041  0.33360959
   0.66639041  0.66639041  0.66639041
   0.00000000  0.16751294  0.16751294
   0.00000000  0.16698371  0.50000000
   0.00000000  0.16751294  0.83248706
   0.00000000  0.50000000  0.16698371
   0.00000000  0.50000000  0.50000000
   0.00000000  0.50000000  0.83301629
   0.00000000  0.83248706  0.16751294
   0.00000000  0.83301629  0.50000000
   0.00000000  0.83248706  0.83248706
   0.33371688  0.16704465  0.16704465
   0.33358555  0.16686773  0.50000000
   0.33371688  0.16704465  0.83295535
   0.33358555  0.50000000  0.16686773
   0.33351811  0.50000000  0.50000000
   0.33358555  0.50000000  0.83313227
   0.33371688  0.83295535  0.16704465
   0.33358555  0.83313227  0.50000000
   0.33371688  0.83295535  0.83295535
   0.66628312  0.16704465  0.16704465
   0.66641445  0.16686773  0.50000000
   0.66628312  0.16704465  0.83295535
   0.66641445  0.50000000  0.16686773
   0.66648189  0.50000000  0.50000000
   0.66641445  0.50000000  0.83313227
   0.66628312  0.83295535  0.16704465
   0.66641445  0.83313227  0.50000000
   0.66628312  0.83295535  0.83295535
   0.16698371  0.00000000  0.50000000
   0.16751294  0.00000000  0.83248706
   0.16704465  0.33371688  0.16704465
   0.16686773  0.33358555  0.50000000
   0.16704465  0.33371688  0.83295535
   0.16704465  0.66628312  0.16704465
   0.16686773  0.66641445  0.50000000
   0.16704465  0.66628312  0.83295535
   0.50000000  0.00000000  0.16698371
   0.50000000  0.00000000  0.50000000
   0.50000000  0.00000000  0.83301629
   0.50000000  0.33358555  0.16686773
   0.50000000  0.33351811  0.50000000
   0.50000000  0.33358555  0.83313227
   0.50000000  0.66641445  0.16686773
   0.50000000  0.66648189  0.50000000
   0.50000000  0.66641445  0.83313227
   0.83248706  0.00000000  0.16751294
   0.83301629  0.00000000  0.50000000
   0.83248706  0.00000000  0.83248706
   0.83295535  0.33371688  0.16704465
   0.83313227  0.33358555  0.50000000
   0.83295535  0.33371688  0.83295535
   0.83295535  0.66628312  0.16704465
   0.83313227  0.66641445  0.50000000
   0.83295535  0.66628312  0.83295535
   0.16751294  0.16751294  0.00000000
   0.16704465  0.16704465  0.33371688
   0.16704465  0.16704465  0.66628312
   0.16698371  0.50000000  0.00000000
   0.16686773  0.50000000  0.33358555
   0.16686773  0.50000000  0.66641445
   0.16751294  0.83248706  0.00000000
   0.16704465  0.83295535  0.33371688
   0.16704465  0.83295535  0.66628312
   0.50000000  0.16698371  0.00000000
   0.50000000  0.16686773  0.33358555
   0.50000000  0.16686773  0.66641445
   0.50000000  0.50000000  0.00000000
   0.50000000  0.50000000  0.33351811
   0.50000000  0.50000000  0.66648189
   0.50000000  0.83301629  0.00000000
   0.50000000  0.83313227  0.33358555
   0.50000000  0.83313227  0.66641445
   0.83248706  0.16751294  0.00000000
   0.83295535  0.16704465  0.33371688
   0.83295535  0.16704465  0.66628312
   0.83301629  0.50000000  0.00000000
   0.83313227  0.50000000  0.33358555
   0.83313227  0.50000000  0.66641445
   0.83248706  0.83248706  0.00000000
   0.83295535  0.83295535  0.33371688
   0.83295535  0.83295535  0.66628312
