  31  31   0   0
  0.1706118E+02  0.8087052E-09  0.8087052E-09  0.8087052E-09  0.5000000E-15
  1.000000000000000E-004
  CAR 
 unknown system                          
     13.26559681     -4.95671059  301      7.85335581      1.00000000
     -4.957  0.0000E+00  0.0000E+00
     -4.896  0.0000E+00  0.0000E+00
     -4.835  0.0000E+00  0.0000E+00
     -4.774  0.0000E+00  0.0000E+00
     -4.714  0.0000E+00  0.0000E+00
     -4.653  0.0000E+00  0.0000E+00
     -4.592 -0.3221E-29 -0.1956E-30
     -4.532 -0.4045E-27 -0.2477E-28
     -4.471 -0.4246E-25 -0.2604E-26
     -4.410 -0.3698E-23 -0.2272E-24
     -4.349 -0.2673E-21 -0.1646E-22
     -4.289 -0.1603E-19 -0.9899E-21
     -4.228 -0.7969E-18 -0.4939E-19
     -4.167 -0.3285E-16 -0.2045E-17
     -4.106 -0.1089E-14 -0.6818E-16
     -4.046 -0.3070E-13 -0.1933E-14
     -3.985 -0.7164E-12 -0.4545E-13
     -3.924 -0.1382E-10 -0.8847E-12
     -3.863 -0.2200E-09 -0.1425E-10
     -3.803 -0.2889E-08 -0.1897E-09
     -3.742 -0.3123E-07 -0.2087E-08
     -3.681 -0.2772E-06 -0.1892E-07
     -3.620 -0.2014E-05 -0.1412E-06
     -3.560 -0.1192E-04 -0.8651E-06
     -3.499 -0.5707E-04 -0.4332E-05
     -3.438 -0.2187E-03 -0.1762E-04
     -3.377 -0.6579E-03 -0.5758E-04
     -3.317 -0.1493E-02 -0.1483E-03
     -3.256 -0.2299E-02 -0.2879E-03
     -3.195 -0.1354E-02 -0.3702E-03
     -3.134  0.4252E-02 -0.1119E-03
     -3.074  0.1623E-01  0.8742E-03
     -3.013  0.3158E-01  0.2792E-02
     -2.952  0.4242E-01  0.5369E-02
     -2.892  0.4179E-01  0.7907E-02
     -2.831  0.3011E-01  0.9736E-02
     -2.770  0.1480E-01  0.1064E-01
     -2.709  0.3411E-02  0.1084E-01
     -2.649 -0.1606E-02  0.1074E-01
     -2.588 -0.2259E-02  0.1061E-01
     -2.527 -0.1409E-02  0.1052E-01
     -2.466 -0.6603E-03  0.1048E-01
     -2.406 -0.4481E-03  0.1045E-01
     -2.345 -0.8614E-03  0.1040E-01
     -2.284 -0.2015E-02  0.1028E-01
     -2.223 -0.3596E-02  0.1006E-01
     -2.163 -0.3720E-02  0.9836E-02
     -2.102  0.1704E-02  0.9939E-02
     -2.041  0.1696E-01  0.1097E-01
     -1.980  0.4173E-01  0.1350E-01
     -1.920  0.6824E-01  0.1765E-01
     -1.859  0.8553E-01  0.2284E-01
     -1.798  0.8792E-01  0.2818E-01
     -1.737  0.7833E-01  0.3294E-01
     -1.677  0.6302E-01  0.3677E-01
     -1.616  0.4588E-01  0.3956E-01
     -1.555  0.2858E-01  0.4129E-01
     -1.494  0.1342E-01  0.4211E-01
     -1.434  0.3085E-02  0.4229E-01
     -1.373 -0.1660E-02  0.4219E-01
     -1.312 -0.2545E-02  0.4204E-01
     -1.252 -0.2104E-02  0.4191E-01
     -1.191 -0.2103E-02  0.4178E-01
     -1.130 -0.3033E-02  0.4160E-01
     -1.069 -0.3774E-02  0.4137E-01
     -1.009 -0.1092E-02  0.4130E-01
     -0.948  0.9431E-02  0.4188E-01
     -0.887  0.2957E-01  0.4367E-01
     -0.826  0.5424E-01  0.4697E-01
     -0.766  0.7275E-01  0.5139E-01
     -0.705  0.7674E-01  0.5605E-01
     -0.644  0.6725E-01  0.6013E-01
     -0.583  0.5310E-01  0.6336E-01
     -0.523  0.4251E-01  0.6594E-01
     -0.462  0.3713E-01  0.6820E-01
     -0.401  0.3326E-01  0.7022E-01
     -0.340  0.2695E-01  0.7185E-01
     -0.280  0.1774E-01  0.7293E-01
     -0.219  0.8276E-02  0.7343E-01
     -0.158  0.1332E-02  0.7351E-01
     -0.097 -0.2520E-02  0.7336E-01
     -0.037 -0.4564E-02  0.7308E-01
      0.024 -0.5486E-02  0.7275E-01
      0.085 -0.3087E-02  0.7256E-01
      0.146  0.7474E-02  0.7302E-01
      0.206  0.2966E-01  0.7482E-01
      0.267  0.6022E-01  0.7848E-01
      0.328  0.8850E-01  0.8385E-01
      0.388  0.1032E+00  0.9012E-01
      0.449  0.1009E+00  0.9625E-01
      0.510  0.8762E-01  0.1016E+00
      0.571  0.7211E-01  0.1060E+00
      0.631  0.5861E-01  0.1095E+00
      0.692  0.4578E-01  0.1123E+00
      0.753  0.3146E-01  0.1142E+00
      0.814  0.1680E-01  0.1152E+00
      0.874  0.5160E-02  0.1155E+00
      0.935 -0.1642E-02  0.1154E+00
      0.996 -0.4852E-02  0.1151E+00
      1.057 -0.6737E-02  0.1147E+00
      1.117 -0.7155E-02  0.1143E+00
      1.178 -0.1508E-02  0.1142E+00
      1.239  0.1752E-01  0.1153E+00
      1.300  0.5348E-01  0.1185E+00
      1.360  0.9885E-01  0.1245E+00
      1.421  0.1355E+00  0.1328E+00
      1.482  0.1462E+00  0.1416E+00
      1.543  0.1286E+00  0.1494E+00
      1.603  0.9702E-01  0.1553E+00
      1.664  0.7011E-01  0.1596E+00
      1.725  0.5679E-01  0.1631E+00
      1.786  0.5371E-01  0.1663E+00
      1.846  0.5310E-01  0.1695E+00
      1.907  0.4972E-01  0.1726E+00
      1.968  0.4179E-01  0.1751E+00
      2.029  0.2992E-01  0.1769E+00
      2.089  0.1677E-01  0.1779E+00
      2.150  0.5913E-02  0.1783E+00
      2.211 -0.7038E-03  0.1782E+00
      2.271 -0.3844E-02  0.1780E+00
      2.332 -0.5395E-02  0.1777E+00
      2.393 -0.5474E-02  0.1774E+00
      2.454 -0.7020E-03  0.1773E+00
      2.514  0.1423E-01  0.1782E+00
      2.575  0.4134E-01  0.1807E+00
      2.636  0.7434E-01  0.1852E+00
      2.697  0.9993E-01  0.1913E+00
      2.757  0.1063E+00  0.1977E+00
      2.818  0.9137E-01  0.2033E+00
      2.879  0.6334E-01  0.2071E+00
      2.940  0.3407E-01  0.2092E+00
      3.000  0.1222E-01  0.2099E+00
      3.061  0.2958E-03  0.2100E+00
      3.122 -0.4143E-02  0.2097E+00
      3.183 -0.5373E-02  0.2094E+00
      3.243 -0.6500E-02  0.2090E+00
      3.304 -0.7382E-02  0.2085E+00
      3.365 -0.3570E-02  0.2083E+00
      3.426  0.1260E-01  0.2091E+00
      3.486  0.4714E-01  0.2119E+00
      3.547  0.9714E-01  0.2178E+00
      3.608  0.1473E+00  0.2268E+00
      3.669  0.1758E+00  0.2375E+00
      3.729  0.1688E+00  0.2477E+00
      3.790  0.1309E+00  0.2557E+00
      3.851  0.8364E-01  0.2608E+00
      3.911  0.4966E-01  0.2638E+00
      3.972  0.3691E-01  0.2660E+00
      4.033  0.3625E-01  0.2682E+00
      4.094  0.3359E-01  0.2703E+00
      4.154  0.2299E-01  0.2717E+00
      4.215  0.8347E-02  0.2722E+00
      4.276 -0.3489E-02  0.2720E+00
      4.337 -0.7476E-02  0.2715E+00
      4.397  0.4961E-03  0.2715E+00
      4.458  0.2432E-01  0.2730E+00
      4.519  0.6376E-01  0.2769E+00
      4.580  0.1101E+00  0.2836E+00
      4.640  0.1485E+00  0.2926E+00
      4.701  0.1676E+00  0.3028E+00
      4.762  0.1670E+00  0.3129E+00
      4.823  0.1556E+00  0.3224E+00
      4.883  0.1420E+00  0.3310E+00
      4.944  0.1287E+00  0.3388E+00
      5.005  0.1139E+00  0.3457E+00
      5.066  0.9700E-01  0.3516E+00
      5.126  0.8032E-01  0.3565E+00
      5.187  0.6507E-01  0.3604E+00
      5.248  0.4975E-01  0.3635E+00
      5.309  0.3284E-01  0.3655E+00
      5.369  0.1583E-01  0.3664E+00
      5.430  0.2624E-02  0.3666E+00
      5.491 -0.3086E-02  0.3664E+00
      5.551  0.8498E-03  0.3664E+00
      5.612  0.1447E-01  0.3673E+00
      5.673  0.3422E-01  0.3694E+00
      5.734  0.5276E-01  0.3726E+00
      5.794  0.6256E-01  0.3764E+00
      5.855  0.6081E-01  0.3801E+00
      5.916  0.5013E-01  0.3831E+00
      5.977  0.3538E-01  0.3853E+00
      6.037  0.2151E-01  0.3866E+00
      6.098  0.1352E-01  0.3874E+00
      6.159  0.1502E-01  0.3883E+00
      6.220  0.2480E-01  0.3898E+00
      6.280  0.3554E-01  0.3920E+00
      6.341  0.3828E-01  0.3943E+00
      6.402  0.2946E-01  0.3961E+00
      6.463  0.1414E-01  0.3970E+00
      6.523  0.3363E-02  0.3972E+00
      6.584  0.8198E-02  0.3977E+00
      6.645  0.3310E-01  0.3997E+00
      6.706  0.7091E-01  0.4040E+00
      6.766  0.1057E+00  0.4104E+00
      6.827  0.1259E+00  0.4181E+00
      6.888  0.1350E+00  0.4263E+00
      6.949  0.1449E+00  0.4351E+00
      7.009  0.1577E+00  0.4446E+00
      7.070  0.1602E+00  0.4544E+00
      7.131  0.1386E+00  0.4628E+00
      7.191  0.9545E-01  0.4686E+00
      7.252  0.4801E-01  0.4715E+00
      7.313  0.1321E-01  0.4723E+00
      7.374 -0.3782E-02  0.4721E+00
      7.434 -0.8317E-02  0.4716E+00
      7.495 -0.8240E-02  0.4711E+00
      7.556 -0.7489E-02  0.4706E+00
      7.617 -0.4223E-02  0.4704E+00
      7.677  0.7188E-02  0.4708E+00
      7.738  0.3089E-01  0.4727E+00
      7.799  0.6380E-01  0.4765E+00
      7.860  0.9556E-01  0.4823E+00
      7.920  0.1171E+00  0.4895E+00
      7.981  0.1297E+00  0.4973E+00
      8.042  0.1430E+00  0.5060E+00
      8.103  0.1633E+00  0.5159E+00
      8.163  0.1837E+00  0.5271E+00
      8.224  0.1893E+00  0.5386E+00
      8.285  0.1707E+00  0.5490E+00
      8.346  0.1316E+00  0.5570E+00
      8.406  0.8540E-01  0.5621E+00
      8.467  0.4529E-01  0.5649E+00
      8.528  0.1771E-01  0.5660E+00
      8.589  0.2585E-02  0.5661E+00
      8.649 -0.3615E-02  0.5659E+00
      8.710 -0.5310E-02  0.5656E+00
      8.771 -0.6003E-02  0.5652E+00
      8.832 -0.6654E-02  0.5648E+00
      8.892 -0.4289E-02  0.5646E+00
      8.953  0.7313E-02  0.5650E+00
      9.014  0.3261E-01  0.5670E+00
      9.074  0.6723E-01  0.5711E+00
      9.135  0.9773E-01  0.5770E+00
      9.196  0.1131E+00  0.5839E+00
      9.257  0.1165E+00  0.5909E+00
      9.317  0.1209E+00  0.5983E+00
      9.378  0.1306E+00  0.6062E+00
      9.439  0.1339E+00  0.6144E+00
      9.500  0.1165E+00  0.6214E+00
      9.560  0.7850E-01  0.6262E+00
      9.621  0.3508E-01  0.6283E+00
      9.682  0.2251E-02  0.6285E+00
      9.743 -0.1186E-01  0.6277E+00
      9.803 -0.4249E-02  0.6275E+00
      9.864  0.2732E-01  0.6291E+00
      9.925  0.8036E-01  0.6340E+00
      9.986  0.1411E+00  0.6426E+00
     10.046  0.1874E+00  0.6540E+00
     10.107  0.2010E+00  0.6662E+00
     10.168  0.1782E+00  0.6770E+00
     10.229  0.1294E+00  0.6849E+00
     10.289  0.7366E-01  0.6893E+00
     10.350  0.3046E-01  0.6912E+00
     10.411  0.1358E-01  0.6920E+00
     10.472  0.2583E-01  0.6936E+00
     10.532  0.5786E-01  0.6971E+00
     10.593  0.9163E-01  0.7027E+00
     10.654  0.1088E+00  0.7093E+00
     10.714  0.1014E+00  0.7154E+00
     10.775  0.7793E-01  0.7202E+00
     10.836  0.5615E-01  0.7236E+00
     10.897  0.4808E-01  0.7265E+00
     10.957  0.5149E-01  0.7296E+00
     11.018  0.5668E-01  0.7331E+00
     11.079  0.5894E-01  0.7366E+00
     11.140  0.6086E-01  0.7403E+00
     11.200  0.6398E-01  0.7442E+00
     11.261  0.6337E-01  0.7481E+00
     11.322  0.5310E-01  0.7513E+00
     11.383  0.3434E-01  0.7534E+00
     11.443  0.1499E-01  0.7543E+00
     11.504  0.2208E-02  0.7544E+00
     11.565 -0.2746E-02  0.7543E+00
     11.626 -0.2924E-02  0.7541E+00
     11.686 -0.1689E-02  0.7540E+00
     11.747 -0.6991E-03  0.7539E+00
     11.808 -0.2227E-03  0.7539E+00
     11.869 -0.5625E-04  0.7539E+00
     11.929 -0.1145E-04  0.7539E+00
     11.990 -0.1893E-05  0.7539E+00
     12.051 -0.2558E-06  0.7539E+00
     12.112 -0.2837E-07  0.7539E+00
     12.172 -0.2588E-08  0.7539E+00
     12.233 -0.1947E-09  0.7539E+00
     12.294 -0.1209E-10  0.7539E+00
     12.354 -0.6202E-12  0.7539E+00
     12.415 -0.2634E-13  0.7539E+00
     12.476 -0.9187E-15  0.7539E+00
     12.537 -0.3828E-16  0.7539E+00
     12.597  0.0000E+00  0.7539E+00
     12.658  0.0000E+00  0.7539E+00
     12.719  0.0000E+00  0.7539E+00
     12.780  0.0000E+00  0.7539E+00
     12.840  0.0000E+00  0.7539E+00
     12.901  0.0000E+00  0.7539E+00
     12.962  0.0000E+00  0.7539E+00
     13.023  0.0000E+00  0.7539E+00
     13.083  0.0000E+00  0.7539E+00
     13.144  0.0000E+00  0.7539E+00
     13.205  0.0000E+00  0.7539E+00
     13.266  0.0000E+00  0.7539E+00
