   31   31  191    1
  0.1706118E+02  0.8087052E-09  0.8087052E-09  0.8087052E-09  0.5000000E-15
  1.000000000000000E-004
  CAR 
 unknown system                          
   92    2   72
 
  0.2500000E+00  0.2500000E+00  0.2500000E+00  0.5000000E+00
   1       -2.953835
   2       -1.923536
   3       -1.873048
   4       -1.639290
   5       -0.802290
   6       -0.748992
   7       -0.383789
   8        0.293776
   9        0.332637
  10        0.504397
  11        0.613496
  12        1.347553
  13        1.401862
  14        1.419702
  15        1.553658
  16        1.730181
  17        1.967127
  18        2.662869
  19        2.678488
  20        2.850117
  21        3.542402
  22        3.613160
  23        3.659999
  24        3.713804
  25        3.751812
  26        4.038377
  27        4.541334
  28        4.595686
  29        4.635015
  30        4.756556
  31        4.813612
  32        4.884433
  33        4.934745
  34        5.058005
  35        5.241437
  36        5.719190
  37        5.833508
  38        6.334868
  39        6.737322
  40        6.763045
  41        6.796869
  42        6.971053
  43        7.013735
  44        7.072912
  45        7.115103
  46        7.814760
  47        7.846398
  48        7.940720
  49        8.080013
  50        8.165348
  51        8.229424
  52        8.257504
  53        8.330514
  54        8.417388
  55        9.091659
  56        9.154665
  57        9.164915
  58        9.395059
  59        9.417049
  60        9.479338
  61        9.980488
  62        9.986073
  63       10.069326
  64       10.117902
  65       10.188021
  66       10.212652
  67       10.531228
  68       10.675883
  69       10.703489
  70       10.932901
  71       11.034799
  72       11.255466
 
 -0.2500000E+00  0.2500000E+00  0.2500000E+00  0.5000000E+00
   1       -2.956711
   2       -1.916864
   3       -1.816013
   4       -1.706775
   5       -0.800992
   6       -0.665996
   7       -0.519993
   8        0.298995
   9        0.399867
  10        0.434237
  11        0.685476
  12        1.376320
  13        1.460788
  14        1.472798
  15        1.506361
  16        1.726939
  17        1.872015
  18        2.631121
  19        2.736202
  20        2.773641
  21        3.552699
  22        3.625686
  23        3.654125
  24        3.688615
  25        3.765181
  26        4.006740
  27        4.571538
  28        4.654223
  29        4.676366
  30        4.724273
  31        4.743286
  32        4.915897
  33        4.934664
  34        5.055894
  35        5.180607
  36        5.732106
  37        5.952784
  38        6.262417
  39        6.755863
  40        6.776211
  41        6.881567
  42        7.005374
  43        7.023053
  44        7.059172
  45        7.135343
  46        7.846460
  47        7.912665
  48        7.979116
  49        8.069051
  50        8.129057
  51        8.138164
  52        8.181545
  53        8.227048
  54        8.276584
  55        9.135029
  56        9.158611
  57        9.303279
  58        9.397388
  59        9.402442
  60        9.481824
  61        9.986046
  62        9.994664
  63       10.011794
  64       10.074068
  65       10.119829
  66       10.179061
  67       10.572559
  68       10.621684
  69       10.664334
  70       10.954046
  71       11.185532
  72       11.265597
