       N       E                     dE             d eps       ncg     rms          rms(c)
RMM:   1     0.228327469002E+03    0.22833E+03   -0.15514E+04   144   0.532E+02
RMM:   2    -0.380077038515E+02   -0.26634E+03   -0.25763E+03   144   0.110E+02
RMM:   3    -0.933720312839E+02   -0.55364E+02   -0.54299E+02   144   0.364E+01
RMM:   4    -0.106500075966E+03   -0.13128E+02   -0.11328E+02   144   0.207E+01
RMM:   5    -0.110996850866E+03   -0.44968E+01   -0.34088E+01   144   0.106E+01
RMM:   6    -0.112618585378E+03   -0.16217E+01   -0.12005E+01   144   0.625E+00
RMM:   7    -0.113175866854E+03   -0.55728E+00   -0.44892E+00   144   0.365E+00
RMM:   8    -0.113387771821E+03   -0.21190E+00   -0.17726E+00   144   0.223E+00
RMM:   9    -0.113510819394E+03   -0.12305E+00   -0.11224E+00   329   0.135E+00
RMM:  10    -0.113528634990E+03   -0.17816E-01   -0.12716E-01   297   0.366E-01
RMM:  11    -0.113529840337E+03   -0.12053E-02   -0.78999E-03   256   0.977E-02
RMM:  12    -0.113529875286E+03   -0.34949E-04   -0.31244E-04   198   0.302E-02    0.588E+00
RMM:  13    -0.112069665733E+03    0.14602E+01   -0.33901E+00   288   0.212E+00    0.339E+00
RMM:  14    -0.111819857374E+03    0.24981E+00   -0.23909E-01   288   0.817E-01    0.209E+00
RMM:  15    -0.111705289407E+03    0.11457E+00   -0.10300E-01   288   0.628E-01    0.443E-01
RMM:  16    -0.111697845073E+03    0.74443E-02   -0.10695E-02   290   0.195E-01    0.896E-02
RMM:  17    -0.111697467505E+03    0.37757E-03   -0.12894E-03   288   0.684E-02    0.307E-02
RMM:  18    -0.111697488466E+03   -0.20961E-04   -0.10180E-04   193   0.273E-02
   1 F= -.11169749E+03 E0= -.11167944E+03  d E =-.111697E+03
       N       E                     dE             d eps       ncg     rms          rms(c)
RMM:   1    -0.112107003894E+03   -0.40954E+00   -0.26761E+00   288   0.425E+00    0.399E-01
RMM:   2    -0.112087187283E+03    0.19817E-01   -0.51735E-02   291   0.552E-01    0.137E-01
RMM:   3    -0.112086512031E+03    0.67525E-03   -0.34487E-03   291   0.152E-01    0.713E-02
RMM:   4    -0.112086503517E+03    0.85144E-05   -0.41462E-04   247   0.504E-02
   2 F= -.11208650E+03 E0= -.11207098E+03  d E =-.389015E+00
       N       E                     dE             d eps       ncg     rms          rms(c)
RMM:   1    -0.112649116235E+03   -0.56260E+00   -0.20201E+01   288   0.116E+01    0.984E-01
RMM:   2    -0.112528937856E+03    0.12018E+00   -0.30838E-01   290   0.146E+00    0.376E-01
RMM:   3    -0.112524502130E+03    0.44357E-02   -0.27643E-02   299   0.407E-01    0.183E-01
RMM:   4    -0.112524623712E+03   -0.12158E-03   -0.22813E-03   300   0.121E-01    0.856E-02
RMM:   5    -0.112524729167E+03   -0.10546E-03   -0.23842E-04   189   0.465E-02    0.261E-02
RMM:   6    -0.112524738266E+03   -0.90992E-05   -0.47116E-05   181   0.225E-02
   3 F= -.11252474E+03 E0= -.11251278E+03  d E =-.827250E+00
       N       E                     dE             d eps       ncg     rms          rms(c)
RMM:   1    -0.112566377330E+03   -0.41648E-01   -0.52440E-01   288   0.190E+00    0.174E-01
RMM:   2    -0.112562739514E+03    0.36378E-02   -0.87969E-03   290   0.239E-01    0.596E-02
RMM:   3    -0.112562638178E+03    0.10134E-03   -0.62133E-04   269   0.627E-02    0.297E-02
RMM:   4    -0.112562640198E+03   -0.20194E-05   -0.53388E-05   180   0.219E-02
   4 F= -.11256264E+03 E0= -.11255066E+03  d E =-.379019E-01
       N       E                     dE             d eps       ncg     rms          rms(c)
RMM:   1    -0.112577328244E+03   -0.14690E-01   -0.45728E-01   288   0.177E+00    0.160E-01
RMM:   2    -0.112574328811E+03    0.29994E-02   -0.75239E-03   291   0.224E-01    0.566E-02
RMM:   3    -0.112574244840E+03    0.83971E-04   -0.51277E-04   261   0.581E-02
   5 F= -.11257424E+03 E0= -.11256132E+03  d E =-.495066E-01
