 vasp.5.2.2 15Apr09 complex 
 executed on             LinuxIFC date 2017.03.17  11:26:43
 running on   12 nodes
 distr:  one band on    1 nodes,   12 groups


--------------------------------------------------------------------------------------------------------


 INCAR:
 POTCAR:   PAW_PBE Al 04Jan2001                   
 POTCAR:   PAW_PBE Mg 05Jan2001                   
 POTCAR:   PAW_PBE Al 04Jan2001                   
   VRHFIN =Al: s2p1                                                             
   LEXCH  = PE                                                                  
   EATOM  =    53.5387 eV,    3.9350 Ry                                         
                                                                                
   TITEL  = PAW_PBE Al 04Jan2001                                                
   LULTRA =        F    use ultrasoft PP ?                                      
   IUNSCR =        1    unscreen: 0-lin 1-nonlin 2-no                           
   RPACOR =    1.500    partial core radius                                     
   POMASS =   26.982; ZVAL   =    3.000    mass and valenz                      
   RCORE  =    1.900    outmost cutoff radius                                   
   RWIGS  =    2.650; RWIGS  =    1.402    wigner-seitz radius (au A)           
   ENMAX  =  240.300; ENMIN  =  180.225 eV                                      
   ICORE  =        2    local potential                                         
   LCOR   =        T    correct aug charges                                     
   LPAW   =        T    paw PP                                                  
   EAUG   =  291.052                                                            
   DEXC   =    -.041                                                            
   RMAX   =    2.974    core radius for proj-oper                               
   RAUG   =    1.300    factor for augmentation sphere                          
   RDEP   =    1.966    radius for radial grids                                 
   QCUT   =   -4.203; QGAM   =    8.405    optimization parameters              
                                                                                
   Description                                                                  
     l     E      TYP  RCUT    TYP  RCUT                                        
     0   .000     23  1.900                                                     
     0   .000     23  1.900                                                     
     1   .000     23  1.900                                                     
     1  1.000     23  1.900                                                     
     2   .000      7  1.900                                                     
  local pseudopotential read in
  partial core-charges read in
  atomic valenz-charges read in
  non local Contribution for L=           0  read in
    real space projection operators read in
  non local Contribution for L=           0  read in
    real space projection operators read in
  non local Contribution for L=           1  read in
    real space projection operators read in
  non local Contribution for L=           1  read in
    real space projection operators read in
    PAW grid and wavefunctions read in
 
   number of l-projection  operators is LMAX  =           4
   number of lm-projection operators is LMMAX =           8
 
 POTCAR:   PAW_PBE Mg 05Jan2001                   
   VRHFIN =Mg: s2p0                                                             
   LEXCH  = PE                                                                  
   EATOM  =    23.0029 eV,    1.6907 Ry                                         
                                                                                
   TITEL  = PAW_PBE Mg 05Jan2001                                                
   LULTRA =        F    use ultrasoft PP ?                                      
   IUNSCR =        1    unscreen: 0-lin 1-nonlin 2-no                           
   RPACOR =    2.000    partial core radius                                     
   POMASS =   24.305; ZVAL   =    2.000    mass and valenz                      
   RCORE  =    2.000    outmost cutoff radius                                   
   RWIGS  =    2.880; RWIGS  =    1.524    wigner-seitz radius (au A)           
   ENMAX  =  210.012; ENMIN  =  157.509 eV                                      
   ICORE  =        2    local potential                                         
   LCOR   =        T    correct aug charges                                     
   LPAW   =        T    paw PP                                                  
   EAUG   =  274.554                                                            
   DEXC   =    -.136                                                            
   RMAX   =    3.182    core radius for proj-oper                               
   RAUG   =    1.300    factor for augmentation sphere                          
   RDEP   =    2.025    radius for radial grids                                 
   QCUT   =   -3.929; QGAM   =    7.858    optimization parameters              
                                                                                
   Description                                                                  
     l     E      TYP  RCUT    TYP  RCUT                                        
     0   .000     23  2.000                                                     
     0  2.000     23  2.000                                                     
     1   .000     23  2.000                                                     
     1  2.000     23  2.000                                                     
     2   .000     23  2.000                                                     
  local pseudopotential read in
  partial core-charges read in
  atomic valenz-charges read in
  non local Contribution for L=           0  read in
    real space projection operators read in
  non local Contribution for L=           0  read in
    real space projection operators read in
  non local Contribution for L=           1  read in
    real space projection operators read in
  non local Contribution for L=           1  read in
    real space projection operators read in
    PAW grid and wavefunctions read in
 
   number of l-projection  operators is LMAX  =           4
   number of lm-projection operators is LMMAX =           8
 

 ----------------------------------------------------------------------------- 
|                                                                             |
|  ADVICE TO THIS USER RUNNING 'VASP/VAMP'   (HEAR YOUR MASTER'S VOICE ...):  |
|                                                                             |
|      You have a (more or less) 'large supercell' and for larger cells       |
|      it might be more efficient to use real space projection operators      |
|      So try LREAL= Auto  in the INCAR   file.                               |
|      Mind: If you want to do a very accurate calculations keep the          |
|      reciprocal projection scheme          (i.e. LREAL=.FALSE.)             |
|                                                                             |
 ----------------------------------------------------------------------------- 

 PAW_PBE Al 04Jan2001                   :
 energy of atom  1       EATOM=  -53.5387
 kinetic energy error for atom=    0.0011 (will be added to EATOM!!)
 PAW_PBE Mg 05Jan2001                   :
 energy of atom  2       EATOM=  -23.0029
 kinetic energy error for atom=    0.0002 (will be added to EATOM!!)
 
 
 POSCAR: Mg1 Al30                                
  positions in direct lattice
  velocities in cartesian coordinates
 exchange correlation table for  LEXCH =        8
   RHO(1)=    0.500       N(1)  =     2000
   RHO(2)=  100.500       N(2)  =     4000

 VTST: version 2.03d, (02/18/09)

 CHAIN: initializing optimizer
 
 OPT: Using VASP Conjugate-Gradient optimizer
 CHAIN: Read ICHAIN            0
 


--------------------------------------------------------------------------------------------------------


 ion  position               nearest neighbor table
   1  0.998  0.000  0.998-  21 2.77  14 2.78  19 2.78   7 2.78  27 2.78   4 2.80   3 2.80  10 2.80
                            11 2.80  17 2.81   6 2.81   2 2.86
   2  0.248  0.000  0.248-   8 2.80  15 2.80  18 2.80  26 2.80  11 2.84   4 2.84   3 2.84  10 2.84
                             1 2.86  20 2.88  16 2.90   5 2.90
   3  0.245  0.242  0.995-  17 2.76  19 2.79   1 2.80  25 2.81  23 2.82   2 2.84   4 2.86   5 2.87
                             8 2.91   9 2.91  12 2.99
   4  0.995  0.242  0.245-   6 2.76   7 2.79   1 2.80  13 2.81  22 2.82   2 2.84   3 2.86  16 2.87
                            18 2.91   9 2.91  24 2.99
   5  0.503  0.000  0.996-   8 2.70  15 2.70  23 2.72  30 2.72  21 2.82   7 2.83  14 2.83  17 2.85
                             3 2.87  10 2.87   6 2.87   2 2.90
   6  0.755  0.000  0.246-   8 2.72  15 2.72  11 2.76   4 2.76   1 2.81  14 2.82   7 2.82  22 2.83
                            29 2.83  16 2.85   5 2.87  20 2.91
   7  0.755  0.244  0.997-  19 2.77  21 2.78   1 2.78   4 2.79   8 2.79  23 2.81   6 2.82  28 2.83
                             5 2.83  13 2.83   9 2.84  12 2.86
   8  0.508  0.229  0.239-   5 2.70   6 2.72   7 2.79   2 2.80  20 2.81   3 2.91  22 2.94  12 2.96
                            13 3.00  31 3.02  18 3.08
   9  0.994  0.500  0.994-  28 2.67  25 2.71  13 2.71   7 2.84  14 2.84  27 2.84  19 2.84  10 2.91
                            11 2.91   4 2.91   3 2.91
  10  0.245  0.758  0.995-  17 2.76  27 2.79   1 2.80  25 2.81  30 2.82   2 2.84  11 2.86   5 2.87
                            15 2.91   9 2.91  12 2.99
  11  0.995  0.758  0.245-   6 2.76  14 2.79   1 2.80  13 2.81  29 2.82   2 2.84  10 2.86  16 2.87
                            26 2.91   9 2.91  24 2.99
  12  0.511  0.500  0.994-  28 2.76  13 2.82  23 2.83  30 2.83  14 2.86   7 2.86  25 2.91   8 2.96
                            15 2.96  10 2.99   3 2.99
  13  0.761  0.500  0.236-   9 2.71   4 2.81  11 2.81  12 2.82   7 2.83  14 2.83  24 2.91  15 3.00
                             8 3.00  31 3.00  29 3.01  22 3.01
  14  0.755  0.756  0.997-  27 2.77  21 2.78   1 2.78  11 2.79  15 2.79  30 2.81   6 2.82  28 2.83
                             5 2.83  13 2.83   9 2.84  12 2.86
  15  0.508  0.771  0.239-   5 2.70   6 2.72  14 2.79   2 2.80  20 2.81  10 2.91  29 2.94  12 2.96
                            13 3.00  31 3.02  26 3.08
  16  0.996  0.000  0.503-  18 2.70  26 2.70  22 2.72  29 2.72  21 2.82  27 2.83  19 2.83   6 2.85
                            11 2.87   4 2.87  17 2.87   2 2.90
  17  0.246  0.000  0.755-  18 2.72  26 2.72   3 2.76  10 2.76   1 2.81  19 2.82  27 2.82  23 2.83
                            30 2.83   5 2.85  16 2.87  20 2.91
  18  0.239  0.229  0.508-  16 2.70  17 2.72  19 2.79   2 2.80  20 2.81   4 2.91  23 2.94  24 2.96
                            25 3.00  31 3.02   8 3.08
  19  0.997  0.244  0.755-   7 2.77  21 2.78   1 2.78   3 2.79  18 2.79  22 2.81  17 2.82  28 2.83
                            16 2.83  25 2.83   9 2.84  24 2.86
  20  0.500  0.000  0.500-   8 2.81  15 2.81  18 2.81  26 2.81  23 2.86  22 2.86  29 2.86  30 2.86
                             2 2.88   6 2.91  17 2.91  21 2.93
  21  0.756  0.000  0.756-   1 2.77   7 2.78  14 2.78  19 2.78  27 2.78   5 2.82  16 2.82  23 2.82
                            22 2.82  29 2.82  30 2.82  20 2.93
  22  0.759  0.240  0.502-  16 2.72  19 2.81   4 2.82  21 2.82  24 2.83   6 2.83  20 2.86   8 2.94
                            23 2.94  28 2.96  31 3.00  13 3.01
  23  0.502  0.240  0.759-   5 2.72   7 2.81   3 2.82  21 2.82  12 2.83  17 2.83  20 2.86  18 2.94
                            22 2.94  28 2.96  31 3.00  25 3.01
  24  0.994  0.500  0.511-  28 2.76  25 2.82  22 2.83  29 2.83  19 2.86  27 2.86  13 2.91  26 2.96
                            18 2.96  11 2.99   4 2.99
  25  0.236  0.500  0.761-   9 2.71   3 2.81  10 2.81  24 2.82  19 2.83  27 2.83  12 2.91  26 3.00
                            18 3.00  31 3.00  30 3.01  23 3.01
  26  0.239  0.771  0.508-  16 2.70  17 2.72  27 2.79   2 2.80  20 2.81  11 2.91  30 2.94  24 2.96
                            25 3.00  31 3.02  15 3.08
  27  0.997  0.756  0.755-  14 2.77  21 2.78   1 2.78  10 2.79  26 2.79  29 2.81  17 2.82  28 2.83
                            16 2.83  25 2.83   9 2.84  24 2.86
  28  0.760  0.500  0.760-   9 2.67  12 2.76  24 2.76  14 2.83  19 2.83   7 2.83  27 2.83  23 2.96
                            30 2.96  29 2.96  22 2.96  31 3.04
  29  0.759  0.760  0.502-  16 2.72  27 2.81  11 2.82  21 2.82  24 2.83   6 2.83  20 2.86  15 2.94
                            30 2.94  28 2.96  31 3.00  13 3.01
  30  0.502  0.760  0.759-   5 2.72  14 2.81  10 2.82  21 2.82  12 2.83  17 2.83  20 2.86  26 2.94
                            29 2.94  28 2.96  31 3.00  25 3.01
  31  0.494  0.500  0.494-  22 3.00  23 3.00  29 3.00  30 3.00  13 3.00  25 3.00  18 3.02  26 3.02
                             8 3.02  15 3.02  28 3.04
 
  LATTYP: Found a simple cubic cell.
 ALAT       =     8.0870520000
  
  Lattice vectors:
  
 A1 = (   8.0870520000,   0.0000000000,   0.0000000000)
 A2 = (   0.0000000000,   8.0870520000,   0.0000000000)
 A3 = (   0.0000000000,   0.0000000000,   8.0870520000)
 Subroutine PRICEL returns:
 Original cell was already a primitive cell.
 

Analysis of symmetry for initial positions (statically):

 Routine SETGRP: Setting up the symmetry group for a 
 simple cubic supercell.


 Subroutine GETGRP returns: Found  4 space group operations
 (whereof  4 operations were pure point group operations)
 out of a pool of 48 trial point group operations.


The static configuration has the point symmetry C_2v.

Analysis of symmetry for dynamics (positions and initial velocities):

 Subroutine DYNSYM returns: Found  4 space group operations
 (whereof  4 operations were pure point group operations)
 out of a pool of  4 trial space group operations
 (whereof  4 operations were pure point group operations)
 and found also     1 'primitive' translations


The dynamic configuration has the point symmetry C_2v.
 
 
 KPOINTS: Automatic kpoint scheme                 

Automatic generation of k-mesh.
 
 Subroutine IBZKPT returns following result:
 ===========================================
 
 Found      2 irreducible k-points:
 
 Following reciprocal coordinates:
            Coordinates               Weight
  0.250000  0.250000  0.250000      4.000000
 -0.250000  0.250000  0.250000      4.000000
 
 Following cartesian coordinates:
            Coordinates               Weight
  0.030914  0.030914  0.030914      4.000000
 -0.030914  0.030914  0.030914      4.000000
 


--------------------------------------------------------------------------------------------------------




 Dimension of arrays:
   k-points           NKPTS =      2   k-points in BZ     NKDIM =      2   number of bands    NBANDS=     72
   number of dos      NEDOS =    301   number of ions     NIONS =     31
   non local maximal  LDIM  =      4   non local SUM 2l+1 LMDIM =      8
   total plane-waves  NPLWV = 110592
   max r-space proj   IRMAX =      1   max aug-charges    IRDMAX=   9081
   dimension x,y,z NGX =    48 NGY =   48 NGZ =   48
   dimension x,y,z NGXF=    96 NGYF=   96 NGZF=   96
   support grid    NGXF=    96 NGYF=   96 NGZF=   96
   ions per type =              30   1
 NGX,Y,Z   is equivalent  to a cutoff of   9.87,  9.87,  9.87 a.u.
 NGXF,Y,Z  is equivalent  to a cutoff of  19.73, 19.73, 19.73 a.u.


 I would recommend the setting:
   dimension x,y,z NGX =    46 NGY =   46 NGZ =   46
 SYSTEM =  unknown system                          
 POSCAR =  Mg1 Al30                                

 Startparameter for this run:
   NWRITE =      2    write-flag & timer
   PREC   = accura    medium, high low
   ISTART =      0    job   : 0-new  1-cont  2-samecut
   ICHARG =      2    charge: 1-file 2-atom 10-const
   ISPIN  =      1    spin polarized calculation?
   LNONCOLLINEAR =      F non collinear calculations
   LSORBIT =      F    spin-orbit coupling
   INIWAV =      1    electr: 0-lowe 1-rand  2-diag
   LASPH  =      F    aspherical Exc in radial PAW
   METAGGA=      F    non-selfconsistent MetaGGA calc.

 Electronic Relaxation 1
   ENCUT  =  300.0 eV  22.05 Ry    4.70 a.u.  11.42 11.42 11.42*2*pi/ulx,y,z
   ENINI  =  300.0     initial cutoff
   ENAUG  =  291.1 eV  augmentation charge cutoff
   NELM   =     60;   NELMIN=  2; NELMDL=-12     # of ELM steps 
   EDIFF  = 0.1E-03   stopping-criterion for ELM
   LREAL  =      F    real-space projection
   LCOMPAT=      F    compatible to vasp.4.4
   LREAL_COMPAT= F    compatible to vasp.4.5.1-3
   GGA_COMPAT  = T    GGA compatible to vasp.4.4-vasp.4.6
   LMAXPAW     = -100 max onsite density
   LMAXMIX     =    2 max onsite mixed and CHGCAR
   VOSKOWN=      0    Vosko Wilk Nusair interpolation
   ROPT   =    0.00000   0.00000
 Ionic relaxation
   EDIFFG = 0.5E-01   stopping-criterion for IOM
   NSW    =    191    number of steps for IOM
   NBLOCK =      1;   KBLOCK =    191    inner block; outer block 
   IBRION =      2    ionic relax: 0-MD 1-quasi-New 2-CG
   NFREE  =      1    steps in history (QN), initial steepest desc. (CG)
   ISIF   =      2    stress and relaxation
   IWAVPR =     11    prediction:  0-non 1-charg 2-wave 3-comb
   ISYM   =      2    0-nonsym 1-usesym 2-fastsym
   LCORR  =      T    Harris-Foulkes like correction to forces

   POTIM  = 0.5000    time-step for ionic-motion
   TEIN   =    0.0    initial temperature
   TEBEG  =    0.0;   TEEND  =   0.0 temperature during run
   SMASS  =  -3.00    Nose mass-parameter (am)
   estimated Nose-frequenzy (Omega)   =  0.10E-29 period in steps =****** mass=  -0.149E-26a.u.
   NPACO  =    256;   APACO  = 16.0  distance and # of slots for P.C.
   PSTRESS=    0.0 pullay stress

  Mass of Ions in am
   POMASS =  26.98 24.30
  Ionic Valenz
   ZVAL   =   3.00  2.00
  Atomic Wigner-Seitz radii
   RWIGS  =  -1.00 -1.00
   NELECT =      92.0000    total number of electrons
   NUPDOWN=      -1.0000    fix difference up-down

 DOS related values:
   EMIN   =  10.00;   EMAX   =-10.00  energy-range for DOS
   EFERMI =   0.00
   ISMEAR =     1;   SIGMA  =   0.20  broadening in eV -4-tet -1-fermi 0-gaus

 Electronic relaxation 2 (details)
   IALGO  =     48    algorithm
   LDIAG  =      T    sub-space diagonalisation
   IMIX   =      4    mixing-type and parameters
     AMIX     =   0.40;   BMIX     =  1.00
     AMIX_MAG =   1.60;   BMIX_MAG =  1.00
     AMIN     =   0.10
     WC   =   100.;   INIMIX=   1;  MIXPRE=   1

 Intra band minimization:
   WEIMIN = 0.0010     energy-eigenvalue tresh-hold
   EBREAK =  0.40E-06  absolut break condition
   DEPER  =   0.30     relativ break condition  

   TIME   =   0.40     timestep for ELM

  volume/ion in A,a.u.               =      17.06       115.13
  Fermi-wavevector in a.u.,A,eV,Ry     =   0.913862  1.726948 11.362816  0.835143
  Thomas-Fermi vector in A             =   2.038422
 
 Write flags
   LWAVE  =      F    write WAVECAR
   LCHARG =      F    write CHGCAR
   LVTOT  =      F    write LOCPOT, local potential
   LELF   =      F    write electronic localiz. function (ELF)
   LORBIT =      0    0 simple, 1 ext, 2 COOP (PROOUT)


 Dipole corrections
   LMONO  =      F    monopole corrections only (constant potential shift)
   LDIPOL =      F    correct potential (dipole corrections)
   IDIPOL =      0    1-x, 2-y, 3-z, 4-all directions 
   EPSILON=  1.0000000 bulk dielectric constant

 Exchange correlation treatment:
   GGA     =    --    GGA type
   LEXCH   =     8    internal setting for exchange type
   VOSKOWN=      0    Vosko Wilk Nusair interpolation
   LHFCALC =     F    Hartree Fock is set to
   LHFONE  =     F    Hartree Fock one center treatment
   AEXX    =    0.0000 exact exchange contribution

 Linear response parameters
   LEPSILON=     F    determine dielectric tensor
   LRPA    =     F    only Hartree local field effects (RPA)
   LNABLA  =     F    use nabla operator in PAW spheres
   LVEL    =     F    velocity operator in full k-point grid
   LINTERFAST=   F  fast interpolation
   KINTER  =     0    interpolate to denser k-point grid
   CSHIFT  =0.1000    complex shift for real part using Kramers Kronig
   OMEGAMAX=  -1.0    maximum frequency

 Orbital magnetization related:
   ORBITALMAG=     F  switch on orbital magnetization
   LCHIMAG   =     F  perturbation theory with respect to B field



--------------------------------------------------------------------------------------------------------


 conjugate gradient relaxation of ions
 charge density and potential will be updated during run
 non-spin polarized calculation
 RMM-DIIS sequential band-by-band
 perform sub-space diagonalisation
    before iterative eigenvector-optimisation
 modified Broyden-mixing scheme, WC =      100.0
 initial mixing is a Kerker type mixing with AMIX =  0.4000 and BMIX =      1.0000
 Hartree-type preconditioning will be used
 using additional bands           26
 reciprocal scheme for non local part
 use partial core corrections
 calculate Harris-corrections to forces 
   (improved forces if not selfconsistent)
 use gradient corrections 
 use of overlap-Matrix (Vanderbilt PP)
 Methfessel and Paxton  Order N= 1 SIGMA  =   0.20


--------------------------------------------------------------------------------------------------------


  energy-cutoff  :      300.00
  volume of cell :      528.90
      direct lattice vectors                 reciprocal lattice vectors
     8.087052000  0.000000000  0.000000000     0.123654454  0.000000000  0.000000000
     0.000000000  8.087052000  0.000000000     0.000000000  0.123654454  0.000000000
     0.000000000  0.000000000  8.087052000     0.000000000  0.000000000  0.123654454

  length of vectors
     8.087052000  8.087052000  8.087052000     0.123654454  0.123654454  0.123654454


 
 k-points in units of 2pi/SCALE and weight: Automatic kpoint scheme                 
   0.03091361  0.03091361  0.03091361       0.500
  -0.03091361  0.03091361  0.03091361       0.500
 
 k-points in reciprocal lattice and weights: Automatic kpoint scheme                 
   0.25000000  0.25000000  0.25000000       0.500
  -0.25000000  0.25000000  0.25000000       0.500
 
 position of ions in fractional coordinates (direct lattice) 
   0.99783600  0.00000000  0.99783600
   0.24816600  0.00000000  0.24816600
   0.24475800  0.24246200  0.99474500
   0.99474500  0.24246200  0.24475800
   0.50330100  0.00000000  0.99563500
   0.75519800  0.00000000  0.24615700
   0.75466300  0.24350500  0.99727500
   0.50818300  0.22867200  0.23883700
   0.99381300  0.50000000  0.99381300
   0.24475800  0.75753800  0.99474500
   0.99474500  0.75753800  0.24475800
   0.51079100  0.50000000  0.99375000
   0.76140000  0.50000000  0.23605700
   0.75466300  0.75649500  0.99727500
   0.50818300  0.77132800  0.23883700
   0.99563500  0.00000000  0.50330100
   0.24615700  0.00000000  0.75519800
   0.23883700  0.22867200  0.50818300
   0.99727500  0.24350500  0.75466300
   0.49963400  0.00000000  0.49963400
   0.75550300  0.00000000  0.75550300
   0.75906400  0.23980800  0.50177700
   0.50177700  0.23980800  0.75906400
   0.99375000  0.50000000  0.51079100
   0.23605700  0.50000000  0.76140000
   0.23883700  0.77132800  0.50818300
   0.99727500  0.75649500  0.75466300
   0.76000300  0.50000000  0.76000300
   0.75906400  0.76019200  0.50177700
   0.50177700  0.76019200  0.75906400
   0.49415200  0.50000000  0.49415200
 
 position of ions in cartesian coordinates  (Angst):
   8.06955162  0.00000000  8.06955162
   2.00693135  0.00000000  2.00693135
   1.97937067  1.96080280  8.04455454
   8.04455454  1.96080280  1.97937067
   4.07022136  0.00000000  8.05175202
   6.10732550  0.00000000  1.99068446
   6.10299892  1.96923760  8.06501478
   4.10970235  1.84928235  1.93148724
   8.03701741  4.04352600  8.03701741
   1.97937067  6.12624920  8.04455454
   8.04455454  6.12624920  1.97937067
   4.13079338  4.04352600  8.03650792
   6.15748139  4.04352600  1.90900523
   6.10299892  6.11781440  8.06501478
   4.10970235  6.23776965  1.93148724
   8.05175202  0.00000000  4.07022136
   1.99068446  0.00000000  6.10732550
   1.93148724  1.84928235  4.10970235
   8.06501478  1.96923760  6.10299892
   4.04056614  0.00000000  4.04056614
   6.10979205  0.00000000  6.10979205
   6.13859004  1.93933977  4.05789669
   4.05789669  1.93933977  6.13859004
   8.03650792  4.04352600  4.13079338
   1.90900523  4.04352600  6.15748139
   1.93148724  6.23776965  4.10970235
   8.06501478  6.11781440  6.10299892
   6.14618378  4.04352600  6.14618378
   6.13859004  6.14771223  4.05789669
   4.05789669  6.14771223  6.13859004
   3.99623292  4.04352600  3.99623292
 


--------------------------------------------------------------------------------------------------------


 k-point  1 :  0.25000.25000.2500  plane waves:    6238
 k-point  2 :  -.25000.25000.2500  plane waves:    6238

 maximum and minimum number of plane-waves per node :    6238   6238

 maximum number of plane-waves:    6238
 maximal index in each direction: 
   IXMAX= 11   IYMAX= 11   IZMAX= 11
   IXMIN=-11   IYMIN=-11   IZMIN=-11

 NGX is ok and might be reduce to  46
 NGY is ok and might be reduce to  46
 NGZ is ok and might be reduce to  46

 serial   3D FFT for wavefunctions
 parallel 3D FFT for charge:
    minimum data exchange during FFTs selected (reduces bandwidth)


 total amount of memory used by VASP on root node  60642. kBytes
========================================================================

   base      :    30000. kBytes
   nonl-proj :     4692. kBytes
   fftplans  :     2983. kBytes
   grid      :    21626. kBytes
   one-center:       95. kBytes
   wavefun   :     1246. kBytes
 
 Broyden mixing: mesh for mixing (old mesh)
   NGX = 23   NGY = 23   NGZ = 23
  (NGX  = 96   NGY  = 96   NGZ  = 96)
  gives a total of  12167 points

 initial charge density was supplied:
 charge density of overlapping atoms calculated
 number of electron   92.0000000 magnetization 
 keeping initial charge density in first step


--------------------------------------------------------------------------------------------------------


 Maximum index for augmentation-charges          617 (set IRDMAX)


--------------------------------------------------------------------------------------------------------


 First call to EWALD:  gamma=   0.219
 Maximum number of real-space cells 3x 3x 3
 Maximum number of reciprocal cells 3x 3x 3

    FEWALD:  cpu time    0.01: real time    0.01
   RESPFUN:  cpu time    0.00: real time    0.00


----------------------------------------- Iteration    1(   1)  ---------------------------------------


    POTLOK:  cpu time    0.15: real time    0.15
    SETDIJ:  cpu time    0.01: real time    0.01
    EDDIAG:  cpu time    0.30: real time    0.30
  RMM-DIIS:  cpu time    0.70: real time    0.70
    ORTHCH:  cpu time    0.02: real time    0.02
       DOS:  cpu time    0.00: real time    0.00
    --------------------------------------------
      LOOP:  cpu time    1.19: real time    1.19

 eigenvalue-minimisations  :   144
 total energy-change (2. order) : 0.2283275E+03  (-0.1551370E+04)
 number of electron   92.0000000 magnetization 
 augmentation part    92.0000000 magnetization 

 Free energy of the ion-electron system (eV)
  ---------------------------------------------------
  alpha Z        PSCENC =        -7.38313139
  Ewald energy   TEWEN  =     -2142.03148767
  -1/2 Hartree   DENC   =       -54.22535103
  -exchange  EXHF       =         0.00000000
  -V(xc)+E(xc)   XCENC  =      -795.81478185
  PAW double counting   =      1078.21717227     -108.50372521
  entropy T*S    EENTRO =         0.03212387
  eigenvalues    EBANDS =       628.90520892
  atomic energy  EATOM  =      1629.13144109
  ---------------------------------------------------
  free energy    TOTEN  =       228.32746900 eV

  energy without entropy =      228.29534514  energy(sigma->0) =      228.31676105


--------------------------------------------------------------------------------------------------------




----------------------------------------- Iteration    1(   2)  ---------------------------------------


    EDDIAG:  cpu time    0.30: real time    0.30
  RMM-DIIS:  cpu time    0.70: real time    0.70
    ORTHCH:  cpu time    0.02: real time    0.02
       DOS:  cpu time    0.00: real time    0.00
    --------------------------------------------
      LOOP:  cpu time    1.02: real time    1.02

 eigenvalue-minimisations  :   144
 total energy-change (2. order) :-0.2663352E+03  (-0.2576316E+03)
 number of electron   92.0000000 magnetization 
 augmentation part    92.0000000 magnetization 

 Free energy of the ion-electron system (eV)
  ---------------------------------------------------
  alpha Z        PSCENC =        -7.38313139
  Ewald energy   TEWEN  =     -2142.03148767
  -1/2 Hartree   DENC   =       -54.22535103
  -exchange  EXHF       =         0.00000000
  -V(xc)+E(xc)   XCENC  =      -795.81478185
  PAW double counting   =      1078.21717227     -108.50372521
  entropy T*S    EENTRO =        -0.00090685
  eigenvalues    EBANDS =       362.60306679
  atomic energy  EATOM  =      1629.13144109
  ---------------------------------------------------
  free energy    TOTEN  =       -38.00770385 eV

  energy without entropy =      -38.00679700  energy(sigma->0) =      -38.00740157


--------------------------------------------------------------------------------------------------------




----------------------------------------- Iteration    1(   3)  ---------------------------------------


    EDDIAG:  cpu time    0.30: real time    0.30
  RMM-DIIS:  cpu time    0.70: real time    0.70
    ORTHCH:  cpu time    0.02: real time    0.02
       DOS:  cpu time    0.00: real time    0.00
    --------------------------------------------
      LOOP:  cpu time    1.03: real time    1.03

 eigenvalue-minimisations  :   144
 total energy-change (2. order) :-0.5536433E+02  (-0.5429883E+02)
 number of electron   92.0000000 magnetization 
 augmentation part    92.0000000 magnetization 

 Free energy of the ion-electron system (eV)
  ---------------------------------------------------
  alpha Z        PSCENC =        -7.38313139
  Ewald energy   TEWEN  =     -2142.03148767
  -1/2 Hartree   DENC   =       -54.22535103
  -exchange  EXHF       =         0.00000000
  -V(xc)+E(xc)   XCENC  =      -795.81478185
  PAW double counting   =      1078.21717227     -108.50372521
  entropy T*S    EENTRO =        -0.00534892
  eigenvalues    EBANDS =       307.24318142
  atomic energy  EATOM  =      1629.13144109
  ---------------------------------------------------
  free energy    TOTEN  =       -93.37203128 eV

  energy without entropy =      -93.36668237  energy(sigma->0) =      -93.37024831


--------------------------------------------------------------------------------------------------------




----------------------------------------- Iteration    1(   4)  ---------------------------------------


    EDDIAG:  cpu time    0.30: real time    0.30
  RMM-DIIS:  cpu time    0.70: real time    0.70
    ORTHCH:  cpu time    0.02: real time    0.02
       DOS:  cpu time    0.00: real time    0.00
    --------------------------------------------
      LOOP:  cpu time    1.02: real time    1.03

 eigenvalue-minimisations  :   144
 total energy-change (2. order) :-0.1312804E+02  (-0.1132766E+02)
 number of electron   92.0000000 magnetization 
 augmentation part    92.0000000 magnetization 

 Free energy of the ion-electron system (eV)
  ---------------------------------------------------
  alpha Z        PSCENC =        -7.38313139
  Ewald energy   TEWEN  =     -2142.03148767
  -1/2 Hartree   DENC   =       -54.22535103
  -exchange  EXHF       =         0.00000000
  -V(xc)+E(xc)   XCENC  =      -795.81478185
  PAW double counting   =      1078.21717227     -108.50372521
  entropy T*S    EENTRO =        -0.04042778
  eigenvalues    EBANDS =       294.15021560
  atomic energy  EATOM  =      1629.13144109
  ---------------------------------------------------
  free energy    TOTEN  =      -106.50007597 eV

  energy without entropy =     -106.45964819  energy(sigma->0) =     -106.48660004


--------------------------------------------------------------------------------------------------------




----------------------------------------- Iteration    1(   5)  ---------------------------------------


    EDDIAG:  cpu time    0.30: real time    0.30
  RMM-DIIS:  cpu time    0.69: real time    0.69
    ORTHCH:  cpu time    0.02: real time    0.02
       DOS:  cpu time    0.00: real time    0.00
    --------------------------------------------
      LOOP:  cpu time    1.02: real time    1.02

 eigenvalue-minimisations  :   144
 total energy-change (2. order) :-0.4496775E+01  (-0.3408751E+01)
 number of electron   92.0000000 magnetization 
 augmentation part    92.0000000 magnetization 

 Free energy of the ion-electron system (eV)
  ---------------------------------------------------
  alpha Z        PSCENC =        -7.38313139
  Ewald energy   TEWEN  =     -2142.03148767
  -1/2 Hartree   DENC   =       -54.22535103
  -exchange  EXHF       =         0.00000000
  -V(xc)+E(xc)   XCENC  =      -795.81478185
  PAW double counting   =      1078.21717227     -108.50372521
  entropy T*S    EENTRO =        -0.07008550
  eigenvalues    EBANDS =       289.68309843
  atomic energy  EATOM  =      1629.13144109
  ---------------------------------------------------
  free energy    TOTEN  =      -110.99685087 eV

  energy without entropy =     -110.92676536  energy(sigma->0) =     -110.97348903


--------------------------------------------------------------------------------------------------------




----------------------------------------- Iteration    1(   6)  ---------------------------------------


    EDDIAG:  cpu time    0.30: real time    0.30
  RMM-DIIS:  cpu time    0.70: real time    0.70
    ORTHCH:  cpu time    0.02: real time    0.02
       DOS:  cpu time    0.00: real time    0.00
    --------------------------------------------
      LOOP:  cpu time    1.02: real time    1.02

 eigenvalue-minimisations  :   144
 total energy-change (2. order) :-0.1621735E+01  (-0.1200457E+01)
 number of electron   92.0000000 magnetization 
 augmentation part    92.0000000 magnetization 

 Free energy of the ion-electron system (eV)
  ---------------------------------------------------
  alpha Z        PSCENC =        -7.38313139
  Ewald energy   TEWEN  =     -2142.03148767
  -1/2 Hartree   DENC   =       -54.22535103
  -exchange  EXHF       =         0.00000000
  -V(xc)+E(xc)   XCENC  =      -795.81478185
  PAW double counting   =      1078.21717227     -108.50372521
  entropy T*S    EENTRO =        -0.06251153
  eigenvalues    EBANDS =       288.05378994
  atomic energy  EATOM  =      1629.13144109
  ---------------------------------------------------
  free energy    TOTEN  =      -112.61858538 eV

  energy without entropy =     -112.55607385  energy(sigma->0) =     -112.59774820


--------------------------------------------------------------------------------------------------------




----------------------------------------- Iteration    1(   7)  ---------------------------------------


    EDDIAG:  cpu time    0.30: real time    0.30
  RMM-DIIS:  cpu time    0.70: real time    0.70
    ORTHCH:  cpu time    0.02: real time    0.02
       DOS:  cpu time    0.00: real time    0.00
    --------------------------------------------
      LOOP:  cpu time    1.02: real time    1.03

 eigenvalue-minimisations  :   144
 total energy-change (2. order) :-0.5572815E+00  (-0.4489222E+00)
 number of electron   92.0000000 magnetization 
 augmentation part    92.0000000 magnetization 

 Free energy of the ion-electron system (eV)
  ---------------------------------------------------
  alpha Z        PSCENC =        -7.38313139
  Ewald energy   TEWEN  =     -2142.03148767
  -1/2 Hartree   DENC   =       -54.22535103
  -exchange  EXHF       =         0.00000000
  -V(xc)+E(xc)   XCENC  =      -795.81478185
  PAW double counting   =      1078.21717227     -108.50372521
  entropy T*S    EENTRO =        -0.04808758
  eigenvalues    EBANDS =       287.48208451
  atomic energy  EATOM  =      1629.13144109
  ---------------------------------------------------
  free energy    TOTEN  =      -113.17586685 eV

  energy without entropy =     -113.12777928  energy(sigma->0) =     -113.15983766


--------------------------------------------------------------------------------------------------------




----------------------------------------- Iteration    1(   8)  ---------------------------------------


    EDDIAG:  cpu time    0.31: real time    0.31
  RMM-DIIS:  cpu time    0.70: real time    0.70
    ORTHCH:  cpu time    0.02: real time    0.02
       DOS:  cpu time    0.00: real time    0.00
    --------------------------------------------
      LOOP:  cpu time    1.03: real time    1.03

 eigenvalue-minimisations  :   144
 total energy-change (2. order) :-0.2119050E+00  (-0.1772604E+00)
 number of electron   92.0000000 magnetization 
 augmentation part    92.0000000 magnetization 

 Free energy of the ion-electron system (eV)
  ---------------------------------------------------
  alpha Z        PSCENC =        -7.38313139
  Ewald energy   TEWEN  =     -2142.03148767
  -1/2 Hartree   DENC   =       -54.22535103
  -exchange  EXHF       =         0.00000000
  -V(xc)+E(xc)   XCENC  =      -795.81478185
  PAW double counting   =      1078.21717227     -108.50372521
  entropy T*S    EENTRO =        -0.04232576
  eigenvalues    EBANDS =       287.26441773
  atomic energy  EATOM  =      1629.13144109
  ---------------------------------------------------
  free energy    TOTEN  =      -113.38777182 eV

  energy without entropy =     -113.34544606  energy(sigma->0) =     -113.37366323


--------------------------------------------------------------------------------------------------------




----------------------------------------- Iteration    1(   9)  ---------------------------------------


    EDDIAG:  cpu time    0.30: real time    0.30
  RMM-DIIS:  cpu time    1.41: real time    1.41
    ORTHCH:  cpu time    0.02: real time    0.02
       DOS:  cpu time    0.00: real time    0.00
    --------------------------------------------
      LOOP:  cpu time    1.73: real time    1.73

 eigenvalue-minimisations  :   329
 total energy-change (2. order) :-0.1230476E+00  (-0.1122378E+00)
 number of electron   92.0000000 magnetization 
 augmentation part    92.0000000 magnetization 

 Free energy of the ion-electron system (eV)
  ---------------------------------------------------
  alpha Z        PSCENC =        -7.38313139
  Ewald energy   TEWEN  =     -2142.03148767
  -1/2 Hartree   DENC   =       -54.22535103
  -exchange  EXHF       =         0.00000000
  -V(xc)+E(xc)   XCENC  =      -795.81478185
  PAW double counting   =      1078.21717227     -108.50372521
  entropy T*S    EENTRO =        -0.03798288
  eigenvalues    EBANDS =       287.13702728
  atomic energy  EATOM  =      1629.13144109
  ---------------------------------------------------
  free energy    TOTEN  =      -113.51081939 eV

  energy without entropy =     -113.47283651  energy(sigma->0) =     -113.49815843


--------------------------------------------------------------------------------------------------------




----------------------------------------- Iteration    1(  10)  ---------------------------------------


    EDDIAG:  cpu time    0.30: real time    0.30
  RMM-DIIS:  cpu time    1.31: real time    1.31
    ORTHCH:  cpu time    0.02: real time    0.02
       DOS:  cpu time    0.00: real time    0.00
    --------------------------------------------
      LOOP:  cpu time    1.63: real time    1.63

 eigenvalue-minimisations  :   297
 total energy-change (2. order) :-0.1781560E-01  (-0.1271555E-01)
 number of electron   92.0000000 magnetization 
 augmentation part    92.0000000 magnetization 

 Free energy of the ion-electron system (eV)
  ---------------------------------------------------
  alpha Z        PSCENC =        -7.38313139
  Ewald energy   TEWEN  =     -2142.03148767
  -1/2 Hartree   DENC   =       -54.22535103
  -exchange  EXHF       =         0.00000000
  -V(xc)+E(xc)   XCENC  =      -795.81478185
  PAW double counting   =      1078.21717227     -108.50372521
  entropy T*S    EENTRO =        -0.03778514
  eigenvalues    EBANDS =       287.11901394
  atomic energy  EATOM  =      1629.13144109
  ---------------------------------------------------
  free energy    TOTEN  =      -113.52863499 eV

  energy without entropy =     -113.49084985  energy(sigma->0) =     -113.51603994


--------------------------------------------------------------------------------------------------------




----------------------------------------- Iteration    1(  11)  ---------------------------------------


    EDDIAG:  cpu time    0.30: real time    0.30
  RMM-DIIS:  cpu time    1.11: real time    1.11
    ORTHCH:  cpu time    0.02: real time    0.02
       DOS:  cpu time    0.00: real time    0.00
    --------------------------------------------
      LOOP:  cpu time    1.43: real time    1.43

 eigenvalue-minimisations  :   256
 total energy-change (2. order) :-0.1205347E-02  (-0.7899878E-03)
 number of electron   92.0000000 magnetization 
 augmentation part    92.0000000 magnetization 

 Free energy of the ion-electron system (eV)
  ---------------------------------------------------
  alpha Z        PSCENC =        -7.38313139
  Ewald energy   TEWEN  =     -2142.03148767
  -1/2 Hartree   DENC   =       -54.22535103
  -exchange  EXHF       =         0.00000000
  -V(xc)+E(xc)   XCENC  =      -795.81478185
  PAW double counting   =      1078.21717227     -108.50372521
  entropy T*S    EENTRO =        -0.03784379
  eigenvalues    EBANDS =       287.11786725
  atomic energy  EATOM  =      1629.13144109
  ---------------------------------------------------
  free energy    TOTEN  =      -113.52984034 eV

  energy without entropy =     -113.49199654  energy(sigma->0) =     -113.51722574


--------------------------------------------------------------------------------------------------------




----------------------------------------- Iteration    1(  12)  ---------------------------------------


    EDDIAG:  cpu time    0.30: real time    0.30
  RMM-DIIS:  cpu time    0.92: real time    0.92
    ORTHCH:  cpu time    0.02: real time    0.02
       DOS:  cpu time    0.00: real time    0.00
    CHARGE:  cpu time    0.19: real time    0.19
    MIXING:  cpu time    0.00: real time    0.00
    --------------------------------------------
      LOOP:  cpu time    1.43: real time    1.44

 eigenvalue-minimisations  :   198
 total energy-change (2. order) :-0.3494892E-04  (-0.3124399E-04)
 number of electron   91.9999999 magnetization 
 augmentation part    -1.1009306 magnetization 

 Broyden mixing:
  rms(total) = 0.58758E+00    rms(broyden)= 0.58756E+00
  rms(prec ) = 0.13087E+01
  weight for this iteration     100.00

 Free energy of the ion-electron system (eV)
  ---------------------------------------------------
  alpha Z        PSCENC =        -7.38313139
  Ewald energy   TEWEN  =     -2142.03148767
  -1/2 Hartree   DENC   =       -54.22535103
  -exchange  EXHF       =         0.00000000
  -V(xc)+E(xc)   XCENC  =      -795.81478185
  PAW double counting   =      1078.21717227     -108.50372521
  entropy T*S    EENTRO =        -0.03784280
  eigenvalues    EBANDS =       287.11783130
  atomic energy  EATOM  =      1629.13144109
  ---------------------------------------------------
  free energy    TOTEN  =      -113.52987529 eV

  energy without entropy =     -113.49203248  energy(sigma->0) =     -113.51726102


--------------------------------------------------------------------------------------------------------




----------------------------------------- Iteration    1(  13)  ---------------------------------------


    POTLOK:  cpu time    0.15: real time    0.15
    SETDIJ:  cpu time    0.01: real time    0.01
    EDDIAG:  cpu time    0.30: real time    0.30
  RMM-DIIS:  cpu time    1.21: real time    1.21
    ORTHCH:  cpu time    0.02: real time    0.02
       DOS:  cpu time    0.00: real time    0.00
    CHARGE:  cpu time    0.19: real time    0.19
    MIXING:  cpu time    0.00: real time    0.00
    --------------------------------------------
      LOOP:  cpu time    1.88: real time    1.89

 eigenvalue-minimisations  :   288
 total energy-change (2. order) : 0.1460210E+01  (-0.3390117E+00)
 number of electron   91.9999999 magnetization 
 augmentation part    -1.1029966 magnetization 

 Broyden mixing:
  rms(total) = 0.33876E+00    rms(broyden)= 0.33875E+00
  rms(prec ) = 0.54486E+00
  weight for this iteration     100.00

 eigenvalues of (default mixing * dielectric matrix)
  average eigenvalue GAMMA=   1.7344
  1.7344

 Free energy of the ion-electron system (eV)
  ---------------------------------------------------
  alpha Z        PSCENC =        -7.38313139
  Ewald energy   TEWEN  =     -2142.03148767
  -1/2 Hartree   DENC   =       -60.03097580
  -exchange  EXHF       =         0.00000000
  -V(xc)+E(xc)   XCENC  =      -794.59994380
  PAW double counting   =      1081.37216305     -111.82604401
  entropy T*S    EENTRO =        -0.03060209
  eigenvalues    EBANDS =       293.32891489
  atomic energy  EATOM  =      1629.13144109
  ---------------------------------------------------
  free energy    TOTEN  =      -112.06966573 eV

  energy without entropy =     -112.03906365  energy(sigma->0) =     -112.05946504


--------------------------------------------------------------------------------------------------------




----------------------------------------- Iteration    1(  14)  ---------------------------------------


    POTLOK:  cpu time    0.15: real time    0.15
    SETDIJ:  cpu time    0.01: real time    0.01
    EDDIAG:  cpu time    0.30: real time    0.30
  RMM-DIIS:  cpu time    1.20: real time    1.20
    ORTHCH:  cpu time    0.02: real time    0.02
       DOS:  cpu time    0.00: real time    0.00
    CHARGE:  cpu time    0.18: real time    0.18
    MIXING:  cpu time    0.00: real time    0.00
    --------------------------------------------
      LOOP:  cpu time    1.87: real time    1.87

 eigenvalue-minimisations  :   288
 total energy-change (2. order) : 0.2498084E+00  (-0.2390886E-01)
 number of electron   91.9999999 magnetization 
 augmentation part    -1.1133698 magnetization 

 Broyden mixing:
  rms(total) = 0.20869E+00    rms(broyden)= 0.20869E+00
  rms(prec ) = 0.30774E+00
  weight for this iteration     100.00

 eigenvalues of (default mixing * dielectric matrix)
  average eigenvalue GAMMA=   1.6867
  2.5118  0.8615

 Free energy of the ion-electron system (eV)
  ---------------------------------------------------
  alpha Z        PSCENC =        -7.38313139
  Ewald energy   TEWEN  =     -2142.03148767
  -1/2 Hartree   DENC   =       -60.30804557
  -exchange  EXHF       =         0.00000000
  -V(xc)+E(xc)   XCENC  =      -793.80446050
  PAW double counting   =      1082.80337560     -113.36783829
  entropy T*S    EENTRO =        -0.05140368
  eigenvalues    EBANDS =       293.19169304
  atomic energy  EATOM  =      1629.13144109
  ---------------------------------------------------
  free energy    TOTEN  =      -111.81985737 eV

  energy without entropy =     -111.76845369  energy(sigma->0) =     -111.80272281


--------------------------------------------------------------------------------------------------------




----------------------------------------- Iteration    1(  15)  ---------------------------------------


    POTLOK:  cpu time    0.15: real time    0.15
    SETDIJ:  cpu time    0.01: real time    0.01
    EDDIAG:  cpu time    0.30: real time    0.30
  RMM-DIIS:  cpu time    1.19: real time    1.19
    ORTHCH:  cpu time    0.02: real time    0.02
       DOS:  cpu time    0.00: real time    0.00
    CHARGE:  cpu time    0.18: real time    0.18
    MIXING:  cpu time    0.00: real time    0.00
    --------------------------------------------
      LOOP:  cpu time    1.86: real time    1.86

 eigenvalue-minimisations  :   288
 total energy-change (2. order) : 0.1145680E+00  (-0.1030012E-01)
 number of electron   91.9999999 magnetization 
 augmentation part    -1.1276075 magnetization 

 Broyden mixing:
  rms(total) = 0.44295E-01    rms(broyden)= 0.44295E-01
  rms(prec ) = 0.74988E-01
  weight for this iteration     100.00

 eigenvalues of (default mixing * dielectric matrix)
  average eigenvalue GAMMA=   1.5925
  2.6034  0.9056  1.2684

 Free energy of the ion-electron system (eV)
  ---------------------------------------------------
  alpha Z        PSCENC =        -7.38313139
  Ewald energy   TEWEN  =     -2142.03148767
  -1/2 Hartree   DENC   =       -61.55272813
  -exchange  EXHF       =         0.00000000
  -V(xc)+E(xc)   XCENC  =      -792.57978969
  PAW double counting   =      1084.63985828     -115.37470637
  entropy T*S    EENTRO =        -0.05669879
  eigenvalues    EBANDS =       293.50195326
  atomic energy  EATOM  =      1629.13144109
  ---------------------------------------------------
  free energy    TOTEN  =      -111.70528941 eV

  energy without entropy =     -111.64859061  energy(sigma->0) =     -111.68638981


--------------------------------------------------------------------------------------------------------




----------------------------------------- Iteration    1(  16)  ---------------------------------------


    POTLOK:  cpu time    0.15: real time    0.15
    SETDIJ:  cpu time    0.01: real time    0.01
    EDDIAG:  cpu time    0.30: real time    0.30
  RMM-DIIS:  cpu time    1.23: real time    1.23
    ORTHCH:  cpu time    0.02: real time    0.02
       DOS:  cpu time    0.00: real time    0.00
    CHARGE:  cpu time    0.18: real time    0.18
    MIXING:  cpu time    0.00: real time    0.00
    --------------------------------------------
      LOOP:  cpu time    1.89: real time    1.89

 eigenvalue-minimisations  :   290
 total energy-change (2. order) : 0.7444334E-02  (-0.1069489E-02)
 number of electron   91.9999999 magnetization 
 augmentation part    -1.1325349 magnetization 

 Broyden mixing:
  rms(total) = 0.89584E-02    rms(broyden)= 0.89583E-02
  rms(prec ) = 0.20074E-01
  weight for this iteration     100.00

 eigenvalues of (default mixing * dielectric matrix)
  average eigenvalue GAMMA=   1.6245
  2.6321  1.8935  0.9862  0.9862

 Free energy of the ion-electron system (eV)
  ---------------------------------------------------
  alpha Z        PSCENC =        -7.38313139
  Ewald energy   TEWEN  =     -2142.03148767
  -1/2 Hartree   DENC   =       -61.84427173
  -exchange  EXHF       =         0.00000000
  -V(xc)+E(xc)   XCENC  =      -792.25721355
  PAW double counting   =      1085.18025012     -115.97082119
  entropy T*S    EENTRO =        -0.05342104
  eigenvalues    EBANDS =       293.53081028
  atomic energy  EATOM  =      1629.13144109
  ---------------------------------------------------
  free energy    TOTEN  =      -111.69784507 eV

  energy without entropy =     -111.64442403  energy(sigma->0) =     -111.68003806


--------------------------------------------------------------------------------------------------------




----------------------------------------- Iteration    1(  17)  ---------------------------------------


    POTLOK:  cpu time    0.15: real time    0.15
    SETDIJ:  cpu time    0.01: real time    0.01
    EDDIAG:  cpu time    0.30: real time    0.30
  RMM-DIIS:  cpu time    1.19: real time    1.19
    ORTHCH:  cpu time    0.02: real time    0.02
       DOS:  cpu time    0.00: real time    0.00
    CHARGE:  cpu time    0.19: real time    0.19
    MIXING:  cpu time    0.00: real time    0.00
    --------------------------------------------
      LOOP:  cpu time    1.86: real time    1.87

 eigenvalue-minimisations  :   288
 total energy-change (2. order) : 0.3775683E-03  (-0.1289387E-03)
 number of electron   91.9999999 magnetization 
 augmentation part    -1.1343289 magnetization 

 Broyden mixing:
  rms(total) = 0.30737E-02    rms(broyden)= 0.30737E-02
  rms(prec ) = 0.48377E-02
  weight for this iteration     100.00

 eigenvalues of (default mixing * dielectric matrix)
  average eigenvalue GAMMA=   1.6150
  2.6324  2.0766  0.9392  0.9392  1.4877

 Free energy of the ion-electron system (eV)
  ---------------------------------------------------
  alpha Z        PSCENC =        -7.38313139
  Ewald energy   TEWEN  =     -2142.03148767
  -1/2 Hartree   DENC   =       -61.75487642
  -exchange  EXHF       =         0.00000000
  -V(xc)+E(xc)   XCENC  =      -792.21744300
  PAW double counting   =      1085.28626213     -116.09073957
  entropy T*S    EENTRO =        -0.05420074
  eigenvalues    EBANDS =       293.41670807
  atomic energy  EATOM  =      1629.13144109
  ---------------------------------------------------
  free energy    TOTEN  =      -111.69746750 eV

  energy without entropy =     -111.64326676  energy(sigma->0) =     -111.67940059


--------------------------------------------------------------------------------------------------------




----------------------------------------- Iteration    1(  18)  ---------------------------------------


    POTLOK:  cpu time    0.15: real time    0.15
    SETDIJ:  cpu time    0.01: real time    0.01
    EDDIAG:  cpu time    0.30: real time    0.30
  RMM-DIIS:  cpu time    0.89: real time    0.89
    ORTHCH:  cpu time    0.02: real time    0.02
       DOS:  cpu time    0.00: real time    0.00
    --------------------------------------------
      LOOP:  cpu time    1.37: real time    1.37

 eigenvalue-minimisations  :   193
 total energy-change (2. order) :-0.2096149E-04  (-0.1017969E-04)
 number of electron   91.9999999 magnetization 
 augmentation part    -1.1343289 magnetization 

 Free energy of the ion-electron system (eV)
  ---------------------------------------------------
  alpha Z        PSCENC =        -7.38313139
  Ewald energy   TEWEN  =     -2142.03148767
  -1/2 Hartree   DENC   =       -61.77180804
  -exchange  EXHF       =         0.00000000
  -V(xc)+E(xc)   XCENC  =      -792.20533697
  PAW double counting   =      1085.31316633     -116.12359191
  entropy T*S    EENTRO =        -0.05414456
  eigenvalues    EBANDS =       293.42740465
  atomic energy  EATOM  =      1629.13144109
  ---------------------------------------------------
  free energy    TOTEN  =      -111.69748847 eV

  energy without entropy =     -111.64334391  energy(sigma->0) =     -111.67944028


--------------------------------------------------------------------------------------------------------




 average (electrostatic) potential at core
  the test charge radii are     1.0406  1.0714
  (the norm of the test charge is              1.0000)
       1 -73.0212       2 -73.1551       3 -73.0229       4 -73.0229       5 -73.0540
       6 -73.0727       7 -73.0502       8 -73.0031       9 -73.0238      10 -73.0229
      11 -73.0229      12 -73.1122      13 -73.1130      14 -73.0502      15 -73.0031
      16 -73.0540      17 -73.0727      18 -73.0031      19 -73.0502      20 -73.1549
      21 -72.9058      22 -73.0129      23 -73.0129      24 -73.1122      25 -73.1130
      26 -73.0031      27 -73.0502      28 -72.9971      29 -73.0129      30 -73.0129
      31 -50.6401
 
 
 
 E-fermi :   7.8347     XC(G=0):  -9.9891     alpha+bet :-14.3074
   add alpha+bet to get absolut eigen values

 k-point   1 :       0.2500    0.2500    0.2500
  band No.  band energies     occupation 
      1      -3.1595      2.00000
      2      -2.1251      2.00000
      3      -2.0432      2.00000
      4      -1.7335      2.00000
      5      -0.8981      2.00000
      6      -0.8843      2.00000
      7      -0.3807      2.00000
      8       0.0820      2.00000
      9       0.1759      2.00000
     10       0.4946      2.00000
     11       0.6996      2.00000
     12       1.1145      2.00000
     13       1.3070      2.00000
     14       1.3102      2.00000
     15       1.4745      2.00000
     16       1.7696      2.00000
     17       1.9277      2.00000
     18       2.7622      2.00000
     19       2.7647      2.00000
     20       3.0285      2.00000
     21       3.4066      2.00000
     22       3.4417      2.00000
     23       3.4897      2.00000
     24       3.5784      2.00000
     25       3.6247      2.00000
     26       4.0160      2.00000
     27       4.3208      2.00000
     28       4.4749      2.00000
     29       4.5948      2.00000
     30       4.7824      2.00000
     31       4.8402      2.00000
     32       4.8802      2.00000
     33       4.9446      2.00000
     34       5.0644      2.00000
     35       5.4380      2.00000
     36       5.7847      2.00000
     37       5.9126      2.00000
     38       6.4996      2.00000
     39       6.5646      2.00000
     40       6.6035      2.00000
     41       6.6918      2.00000
     42       6.8930      2.00000
     43       7.0239      2.00000
     44       7.0779      2.00000
     45       7.1940      2.00006
     46       7.7822      1.42775
     47       7.8558      0.82265
     48       7.9132      0.38930
     49       8.0207     -0.03258
     50       8.0423     -0.05724
     51       8.1305     -0.05713
     52       8.3031     -0.00455
     53       8.5039     -0.00002
     54       8.6219      0.00000
     55       8.9569      0.00000
     56       9.0404      0.00000
     57       9.0745      0.00000
     58       9.3028      0.00000
     59       9.3393      0.00000
     60       9.4612      0.00000
     61       9.9048      0.00000
     62       9.9055      0.00000
     63      10.0829      0.00000
     64      10.1438      0.00000
     65      10.2248      0.00000
     66      10.2375      0.00000
     67      10.5820      0.00000
     68      10.8313      0.00000
     69      10.9409      0.00000
     70      11.0271      0.00000
     71      11.1175      0.00000
     72      11.1414      0.00000

 k-point   2 :      -0.2500    0.2500    0.2500
  band No.  band energies     occupation 
      1      -3.1616      2.00000
      2      -2.1511      2.00000
      3      -1.9240      2.00000
      4      -1.8398      2.00000
      5      -0.9689      2.00000
      6      -0.6747      2.00000
      7      -0.5572      2.00000
      8       0.0519      2.00000
      9       0.2795      2.00000
     10       0.4096      2.00000
     11       0.7258      2.00000
     12       1.2675      2.00000
     13       1.2835      2.00000
     14       1.3570      2.00000
     15       1.5301      2.00000
     16       1.6666      2.00000
     17       1.8290      2.00000
     18       2.7073      2.00000
     19       2.8539      2.00000
     20       2.9351      2.00000
     21       3.3728      2.00000
     22       3.4842      2.00000
     23       3.5126      2.00000
     24       3.5500      2.00000
     25       3.6927      2.00000
     26       3.9389      2.00000
     27       4.4781      2.00000
     28       4.4924      2.00000
     29       4.5749      2.00000
     30       4.7377      2.00000
     31       4.7603      2.00000
     32       4.9350      2.00000
     33       4.9423      2.00000
     34       5.0441      2.00000
     35       5.3331      2.00000
     36       5.7388      2.00000
     37       6.1078      2.00000
     38       6.4069      2.00000
     39       6.5984      2.00000
     40       6.6071      2.00000
     41       6.8223      2.00000
     42       6.9624      2.00000
     43       7.0026      2.00000
     44       7.0684      2.00000
     45       7.1748      2.00003
     46       7.8302      1.03822
     47       7.8996      0.48128
     48       7.9616      0.13020
     49       8.0045     -0.00308
     50       8.0399     -0.05522
     51       8.1280     -0.05822
     52       8.2390     -0.01491
     53       8.2853     -0.00650
     54       8.4808     -0.00005
     55       9.0202      0.00000
     56       9.0469      0.00000
     57       9.1503      0.00000
     58       9.3296      0.00000
     59       9.3548      0.00000
     60       9.4258      0.00000
     61       9.8695      0.00000
     62       9.9751      0.00000
     63      10.0187      0.00000
     64      10.1126      0.00000
     65      10.1351      0.00000
     66      10.1961      0.00000
     67      10.6242      0.00000
     68      10.7518      0.00000
     69      10.8385      0.00000
     70      11.0343      0.00000
     71      11.2245      0.00000
     72      11.3421      0.00000


--------------------------------------------------------------------------------------------------------


 soft charge-density along one line, spin component           1
         0         1         2         3         4         5         6         7         8         9
 total charge-density along one line
 
 pseudopotential strength for first ion, spin component:           1
  8.462  -0.006   0.000   0.000   0.000   0.000   0.000   0.000
 -0.006   0.000   0.000   0.000   0.000   0.000   0.000   0.000
  0.000   0.000   1.990   0.000   0.000  -0.026   0.000   0.000
  0.000   0.000   0.000   1.989   0.000   0.000  -0.026   0.000
  0.000   0.000   0.000   0.000   1.989   0.000   0.000  -0.026
  0.000   0.000  -0.026   0.000   0.000  -0.012   0.000   0.000
  0.000   0.000   0.000  -0.026   0.000   0.000  -0.012   0.000
  0.000   0.000   0.000   0.000  -0.026   0.000   0.000  -0.012
 total augmentation occupancy for first ion, spin component:           1
  1.279  -0.583   0.000  -0.002  -0.002   0.000   0.005   0.005
 -0.583   0.564   0.000   0.010   0.010   0.000  -0.005  -0.005
  0.000   0.000   0.793   0.000   0.000  -0.207   0.000   0.000
 -0.002   0.010   0.000   0.783   0.001   0.000  -0.204   0.001
 -0.002   0.010   0.000   0.001   0.783   0.000   0.001  -0.204
  0.000   0.000  -0.207   0.000   0.000   0.060   0.000   0.000
  0.005  -0.005   0.000  -0.204   0.001   0.000   0.059   0.000
  0.005  -0.005   0.000   0.001  -0.204   0.000   0.000   0.059


------------------------ aborting loop because EDIFF is reached ----------------------------------------




--------------------------------------------------------------------------------------------------------



  FREE ENERGIE OF THE ION-ELECTRON SYSTEM (eV)
  ---------------------------------------------------
  free  energy   TOTEN  =      -111.697488 eV

  energy  without entropy=     -111.643344  energy(sigma->0) =     -111.679440
 
    CHARGE:  cpu time    0.18: real time    0.18
    FORLOC:  cpu time    0.04: real time    0.04
    FORNL :  cpu time    0.46: real time    0.46
    STRESS:  cpu time    1.00: real time    1.00
    FORCOR:  cpu time    0.17: real time    0.17
    FORHAR:  cpu time    0.07: real time    0.07
    MIXING:  cpu time    0.00: real time    0.00

  FORCE on cell =-STRESS in cart. coord.  units (eV):
  Direction    XX          YY          ZZ          XY          YZ          ZX
  --------------------------------------------------------------------------------------
  Alpha Z    -7.38313    -7.38313    -7.38313
  Ewald    -703.59380  -734.85230  -703.59380     0.00000     0.00000     5.00784
  Hartree    27.89887     6.00958    27.89887     0.00000     0.00000     3.82072
  E(xc)    -261.88205  -261.96382  -261.88205     0.00000     0.00000     0.09351
  Local     -57.79053    -5.32537   -57.79053     0.00000     0.00000    -8.87953
  n-local   579.33078   580.02472   579.33103     0.27274    -1.14330    -0.83024
  augment   -30.29639   -30.36667   -30.29641     0.00000     0.00000     0.01968
  Kinetic   457.01130   458.58174   457.01194    -2.42002     1.81146     0.41809
  Fock        0.00000     0.00000     0.00000     0.00000     0.00000     0.00000
  -------------------------------------------------------------------------------------
  Total       3.29549     4.72476     3.29549     0.00000     0.00000    -0.34993
  in kB       9.98296    14.31263     9.98296     0.00000     0.00000    -1.06004
  external pressure =       11.43 kB  Pullay stress =        0.00 kB


 VOLUME and BASIS-vectors are now :
 -----------------------------------------------------------------------------
  energy-cutoff  :      300.00
  volume of cell :      528.90
      direct lattice vectors                 reciprocal lattice vectors
     8.087052000  0.000000000  0.000000000     0.123654454  0.000000000  0.000000000
     0.000000000  8.087052000  0.000000000     0.000000000  0.123654454  0.000000000
     0.000000000  0.000000000  8.087052000     0.000000000  0.000000000  0.123654454

  length of vectors
     8.087052000  8.087052000  8.087052000     0.123654454  0.123654454  0.123654454


 FORCES acting on ions
    electron-ion (+dipol)            ewald-force                    non-local-force                 convergence-correction
 -----------------------------------------------------------------------------------------------
   -.485E+01 -.499E-13 -.485E+01   0.459E+01 0.674E-14 0.459E+01   0.318E+00 0.000E+00 0.318E+00   0.139E-02 -.194E-13 0.139E-02
   -.238E+01 -.178E-13 -.238E+01   0.236E+01 -.602E-14 0.236E+01   -.706E-01 0.000E+00 -.706E-01   0.213E-02 -.400E-13 0.213E-02
   -.488E+01 -.168E+02 -.132E+02   0.455E+01 0.163E+02 0.128E+02   0.564E+00 0.911E+00 0.861E+00   0.192E-02 0.423E-02 0.181E-02
   -.132E+02 -.168E+02 -.488E+01   0.128E+02 0.163E+02 0.455E+01   0.861E+00 0.911E+00 0.564E+00   0.181E-02 0.424E-02 0.192E-02
   0.479E+01 -.104E-12 -.302E+01   -.469E+01 0.815E-15 0.275E+01   -.236E+00 0.000E+00 0.140E+00   -.149E-02 -.209E-13 0.183E-02
   0.255E+01 -.115E-13 -.423E+01   -.240E+01 0.845E-13 0.434E+01   -.855E-01 0.000E+00 0.116E+00   -.205E-02 -.346E-13 0.168E-02
   0.382E+01 -.770E+01 -.379E+01   -.374E+01 0.740E+01 0.357E+01   -.192E+00 0.428E+00 0.155E+00   -.190E-02 0.414E-02 0.187E-02
   0.121E+02 -.223E+02 -.908E+01   -.119E+02 0.214E+02 0.879E+01   -.513E+00 0.167E+01 0.583E+00   -.158E-02 0.332E-02 0.800E-03
   -.142E+02 0.684E-13 -.142E+02   0.135E+02 0.857E-12 0.135E+02   0.111E+01 0.000E+00 0.111E+01   0.156E-02 0.186E-13 0.156E-02
   -.488E+01 0.168E+02 -.132E+02   0.455E+01 -.163E+02 0.128E+02   0.564E+00 -.911E+00 0.861E+00   0.192E-02 -.423E-02 0.181E-02
   -.132E+02 0.168E+02 -.488E+01   0.128E+02 -.163E+02 0.455E+01   0.861E+00 -.911E+00 0.564E+00   0.181E-02 -.424E-02 0.192E-02
   0.148E+02 -.697E-13 -.119E+02   -.142E+02 0.880E-12 0.115E+02   -.109E+01 0.694E-17 0.710E+00   -.151E-02 0.197E-13 0.249E-02
   0.808E+01 -.740E-13 -.115E+02   -.763E+01 0.141E-13 0.110E+02   -.767E+00 0.000E+00 0.111E+01   -.125E-02 0.330E-13 0.511E-03
   0.382E+01 0.770E+01 -.379E+01   -.374E+01 -.740E+01 0.357E+01   -.192E+00 -.428E+00 0.155E+00   -.190E-02 -.414E-02 0.187E-02
   0.121E+02 0.223E+02 -.908E+01   -.119E+02 -.214E+02 0.879E+01   -.513E+00 -.167E+01 0.583E+00   -.158E-02 -.332E-02 0.800E-03
   -.302E+01 -.136E-12 0.479E+01   0.275E+01 -.451E-14 -.469E+01   0.140E+00 0.000E+00 -.236E+00   0.183E-02 -.741E-13 -.150E-02
   -.423E+01 0.308E-13 0.255E+01   0.434E+01 -.839E-17 -.240E+01   0.116E+00 -.813E-18 -.855E-01   0.168E-02 -.451E-13 -.205E-02
   -.908E+01 -.223E+02 0.121E+02   0.879E+01 0.214E+02 -.119E+02   0.583E+00 0.167E+01 -.513E+00   0.799E-03 0.332E-02 -.158E-02
   -.379E+01 -.770E+01 0.382E+01   0.357E+01 0.740E+01 -.374E+01   0.155E+00 0.428E+00 -.192E+00   0.187E-02 0.414E-02 -.190E-02
   0.219E+01 0.465E-13 0.219E+01   -.218E+01 0.867E-12 -.218E+01   0.241E+00 0.000E+00 0.241E+00   -.190E-02 -.443E-13 -.190E-02
   0.513E+01 -.483E-13 0.513E+01   -.473E+01 -.682E-14 -.473E+01   -.644E+00 0.000E+00 -.644E+00   -.156E-02 -.373E-13 -.156E-02
   0.931E+01 -.136E+02 0.396E+01   -.896E+01 0.130E+02 -.369E+01   -.790E+00 0.917E+00 -.269E+00   -.752E-03 0.289E-02 -.190E-02
   0.396E+01 -.136E+02 0.931E+01   -.369E+01 0.130E+02 -.896E+01   -.269E+00 0.917E+00 -.790E+00   -.189E-02 0.289E-02 -.752E-03
   -.119E+02 0.137E-12 0.148E+02   0.115E+02 0.980E-12 -.142E+02   0.710E+00 -.139E-16 -.109E+01   0.249E-02 0.743E-13 -.151E-02
   -.115E+02 0.168E-12 0.808E+01   0.110E+02 -.764E-12 -.763E+01   0.111E+01 0.260E-17 -.767E+00   0.510E-03 0.445E-13 -.125E-02
   -.908E+01 0.223E+02 0.121E+02   0.879E+01 -.214E+02 -.119E+02   0.583E+00 -.167E+01 -.513E+00   0.799E-03 -.332E-02 -.158E-02
   -.379E+01 0.770E+01 0.382E+01   0.357E+01 -.740E+01 -.374E+01   0.155E+00 -.428E+00 -.192E+00   0.187E-02 -.414E-02 -.190E-02
   0.106E+02 -.634E-13 0.106E+02   -.997E+01 0.156E-11 -.997E+01   -.109E+01 0.000E+00 -.109E+01   -.409E-03 0.361E-13 -.410E-03
   0.931E+01 0.136E+02 0.396E+01   -.896E+01 -.130E+02 -.369E+01   -.790E+00 -.917E+00 -.269E+00   -.752E-03 -.289E-02 -.190E-02
   0.396E+01 0.136E+02 0.931E+01   -.369E+01 -.130E+02 -.896E+01   -.269E+00 -.917E+00 -.790E+00   -.189E-02 -.289E-02 -.752E-03
   0.731E+01 -.477E-13 0.731E+01   -.709E+01 0.211E-14 -.709E+01   -.405E+00 0.000E+00 -.405E+00   -.132E-02 0.275E-13 -.132E-02
 -----------------------------------------------------------------------------------------------
   -.148E+00 0.270E-13 -.148E+00   0.284E-13 0.199E-13 -.213E-13   0.147E+00 0.111E-15 0.147E+00   0.641E-03 -.105E-12 0.641E-03
 
 
 POSITION                                       TOTAL-FORCE (eV/Angst)
 -----------------------------------------------------------------------------------
      8.06955      0.00000      8.06955         0.055796      0.000000      0.055796
      2.00693      0.00000      2.00693        -0.090052      0.000000     -0.090052
      1.97937      1.96080      8.04455         0.232613      0.427685      0.478791
      8.04455      1.96080      1.97937         0.478791      0.427685      0.232613
      4.07022      0.00000      8.05175        -0.140880      0.000000     -0.125638
      6.10733      0.00000      1.99068         0.063829      0.000000      0.222207
      6.10300      1.96924      8.06501        -0.119204      0.132905     -0.062735
      4.10970      1.84928      1.93149        -0.297348      0.807011      0.287509
      8.03702      4.04353      8.03702         0.471509      0.000000      0.471509
      1.97937      6.12625      8.04455         0.232613     -0.427685      0.478791
      8.04455      6.12625      1.97937         0.478791     -0.427685      0.232613
      4.13079      4.04353      8.03651        -0.505301      0.000000      0.298595
      6.15748      4.04353      1.90901        -0.322564      0.000000      0.525571
      6.10300      6.11781      8.06501        -0.119204     -0.132905     -0.062735
      4.10970      6.23777      1.93149        -0.297348     -0.807011      0.287509
      8.05175      0.00000      4.07022        -0.125638      0.000000     -0.140880
      1.99068      0.00000      6.10733         0.222207      0.000000      0.063829
      1.93149      1.84928      4.10970         0.287509      0.807011     -0.297348
      8.06501      1.96924      6.10300        -0.062735      0.132905     -0.119204
      4.04057      0.00000      4.04057         0.252596      0.000000      0.252596
      6.10979      0.00000      6.10979        -0.245829      0.000000     -0.245829
      6.13859      1.93934      4.05790        -0.449180      0.331304     -0.000455
      4.05790      1.93934      6.13859        -0.000455      0.331304     -0.449180
      8.03651      4.04353      4.13079         0.298595      0.000000     -0.505301
      1.90901      4.04353      6.15748         0.525571      0.000000     -0.322564
      1.93149      6.23777      4.10970         0.287509     -0.807011     -0.297348
      8.06501      6.11781      6.10300        -0.062735     -0.132905     -0.119204
      6.14618      4.04353      6.14618        -0.420354      0.000000     -0.420354
      6.13859      6.14771      4.05790        -0.449180     -0.331304     -0.000455
      4.05790      6.14771      6.13859        -0.000455     -0.331304     -0.449180
      3.99623      4.04353      3.99623        -0.179466      0.000000     -0.179466
 -----------------------------------------------------------------------------------
    total drift:                               -0.000528      0.000000     -0.000528


--------------------------------------------------------------------------------------------------------


    POTLOK:  cpu time    0.16: real time    0.16


--------------------------------------------------------------------------------------------------------


  FORCES: max atom, RMS     0.906832    0.547865
  FORCE total and by dimension    3.050381    0.807011


--------------------------------------------------------------------------------------------------------


    WAVPRE:  cpu time    0.05: real time    0.05
    FEWALD:  cpu time    0.01: real time    0.01
    ORTHCH:  cpu time    0.11: real time    0.11
     LOOP+:  cpu time   27.60: real time   27.64
   RESPFUN:  cpu time    0.00: real time    0.00


----------------------------------------- Iteration    2(   1)  ---------------------------------------


    POTLOK:  cpu time    0.15: real time    0.15
    SETDIJ:  cpu time    0.01: real time    0.01
    EDDIAG:  cpu time    0.30: real time    0.30
  RMM-DIIS:  cpu time    1.18: real time    1.21
    ORTHCH:  cpu time    0.02: real time    0.02
       DOS:  cpu time    0.00: real time    0.00
    CHARGE:  cpu time    0.18: real time    0.18
    MIXING:  cpu time    0.00: real time    0.00
    --------------------------------------------
      LOOP:  cpu time    1.85: real time    1.88

 eigenvalue-minimisations  :   288
 total energy-change (2. order) :-0.4095364E+00  (-0.2676133E+00)
 number of electron   92.0000000 magnetization 
 augmentation part    -1.1352155 magnetization 

 Broyden mixing:
  rms(total) = 0.39943E-01    rms(broyden)= 0.39936E-01
  rms(prec ) = 0.13544E+00
  weight for this iteration     100.00

 Free energy of the ion-electron system (eV)
  ---------------------------------------------------
  alpha Z        PSCENC =        -7.38313139
  Ewald energy   TEWEN  =     -2153.54012915
  -1/2 Hartree   DENC   =       -52.58777136
  -exchange  EXHF       =         0.00000000
  -V(xc)+E(xc)   XCENC  =      -792.36938401
  PAW double counting   =      1085.31583057     -116.12913954
  entropy T*S    EENTRO =        -0.03827310
  eigenvalues    EBANDS =       295.49355300
  atomic energy  EATOM  =      1629.13144109
  ---------------------------------------------------
  free energy    TOTEN  =      -112.10700389 eV

  energy without entropy =     -112.06873080  energy(sigma->0) =     -112.09424620


--------------------------------------------------------------------------------------------------------




----------------------------------------- Iteration    2(   2)  ---------------------------------------


    POTLOK:  cpu time    0.15: real time    0.15
    SETDIJ:  cpu time    0.01: real time    0.01
    EDDIAG:  cpu time    0.30: real time    0.30
  RMM-DIIS:  cpu time    1.22: real time    1.22
    ORTHCH:  cpu time    0.02: real time    0.02
       DOS:  cpu time    0.00: real time    0.00
    CHARGE:  cpu time    0.18: real time    0.18
    MIXING:  cpu time    0.00: real time    0.00
    --------------------------------------------
      LOOP:  cpu time    1.88: real time    1.89

 eigenvalue-minimisations  :   291
 total energy-change (2. order) : 0.1981661E-01  (-0.5173488E-02)
 number of electron   92.0000000 magnetization 
 augmentation part    -1.1360435 magnetization 

 Broyden mixing:
  rms(total) = 0.13722E-01    rms(broyden)= 0.13721E-01
  rms(prec ) = 0.27538E-01
  weight for this iteration     100.00

 eigenvalues of (default mixing * dielectric matrix)
  average eigenvalue GAMMA=   1.2033
  1.2033

 Free energy of the ion-electron system (eV)
  ---------------------------------------------------
  alpha Z        PSCENC =        -7.38313139
  Ewald energy   TEWEN  =     -2153.54012915
  -1/2 Hartree   DENC   =       -51.98009715
  -exchange  EXHF       =         0.00000000
  -V(xc)+E(xc)   XCENC  =      -792.38722640
  PAW double counting   =      1084.98727206     -115.78821305
  entropy T*S    EENTRO =        -0.04708181
  eigenvalues    EBANDS =       294.91997852
  atomic energy  EATOM  =      1629.13144109
  ---------------------------------------------------
  free energy    TOTEN  =      -112.08718728 eV

  energy without entropy =     -112.04010547  energy(sigma->0) =     -112.07149335


--------------------------------------------------------------------------------------------------------




----------------------------------------- Iteration    2(   3)  ---------------------------------------


    POTLOK:  cpu time    0.15: real time    0.15
    SETDIJ:  cpu time    0.01: real time    0.01
    EDDIAG:  cpu time    0.30: real time    0.30
  RMM-DIIS:  cpu time    1.21: real time    1.21
    ORTHCH:  cpu time    0.02: real time    0.02
       DOS:  cpu time    0.00: real time    0.00
    CHARGE:  cpu time    0.18: real time    0.18
    MIXING:  cpu time    0.00: real time    0.00
    --------------------------------------------
      LOOP:  cpu time    1.88: real time    1.88

 eigenvalue-minimisations  :   291
 total energy-change (2. order) : 0.6752514E-03  (-0.3448659E-03)
 number of electron   92.0000000 magnetization 
 augmentation part    -1.1359905 magnetization 

 Broyden mixing:
  rms(total) = 0.71325E-02    rms(broyden)= 0.71324E-02
  rms(prec ) = 0.10899E-01
  weight for this iteration     100.00

 eigenvalues of (default mixing * dielectric matrix)
  average eigenvalue GAMMA=   1.4225
  1.8466  0.9984

 Free energy of the ion-electron system (eV)
  ---------------------------------------------------
  alpha Z        PSCENC =        -7.38313139
  Ewald energy   TEWEN  =     -2153.54012915
  -1/2 Hartree   DENC   =       -51.92817828
  -exchange  EXHF       =         0.00000000
  -V(xc)+E(xc)   XCENC  =      -792.39354619
  PAW double counting   =      1084.82591294     -115.61969336
  entropy T*S    EENTRO =        -0.04654668
  eigenvalues    EBANDS =       294.86735899
  atomic energy  EATOM  =      1629.13144109
  ---------------------------------------------------
  free energy    TOTEN  =      -112.08651203 eV

  energy without entropy =     -112.03996535  energy(sigma->0) =     -112.07099647


--------------------------------------------------------------------------------------------------------




----------------------------------------- Iteration    2(   4)  ---------------------------------------


    POTLOK:  cpu time    0.15: real time    0.15
    SETDIJ:  cpu time    0.01: real time    0.01
    EDDIAG:  cpu time    0.30: real time    0.30
  RMM-DIIS:  cpu time    1.04: real time    1.04
    ORTHCH:  cpu time    0.02: real time    0.02
       DOS:  cpu time    0.00: real time    0.00
    --------------------------------------------
      LOOP:  cpu time    1.52: real time    1.52

 eigenvalue-minimisations  :   247
 total energy-change (2. order) : 0.8514360E-05  (-0.4146183E-04)
 number of electron   92.0000000 magnetization 
 augmentation part    -1.1359905 magnetization 

 Free energy of the ion-electron system (eV)
  ---------------------------------------------------
  alpha Z        PSCENC =        -7.38313139
  Ewald energy   TEWEN  =     -2153.54012915
  -1/2 Hartree   DENC   =       -51.90661522
  -exchange  EXHF       =         0.00000000
  -V(xc)+E(xc)   XCENC  =      -792.39777043
  PAW double counting   =      1084.70358146     -115.49174970
  entropy T*S    EENTRO =        -0.04656177
  eigenvalues    EBANDS =       294.84443159
  atomic energy  EATOM  =      1629.13144109
  ---------------------------------------------------
  free energy    TOTEN  =      -112.08650352 eV

  energy without entropy =     -112.03994175  energy(sigma->0) =     -112.07098293


[...]
  alpha Z        PSCENC =        -7.38313139
  Ewald energy   TEWEN  =     -2181.68354223
  -1/2 Hartree   DENC   =       -27.12346806
  -exchange  EXHF       =         0.00000000
  -V(xc)+E(xc)   XCENC  =      -792.88062856
  PAW double counting   =      1083.51562925     -114.25620914
  entropy T*S    EENTRO =        -0.03877795
  eigenvalues    EBANDS =       298.14444214
  atomic energy  EATOM  =      1629.13144109
  ---------------------------------------------------
  free energy    TOTEN  =      -112.57424484 eV

  energy without entropy =     -112.53546689  energy(sigma->0) =     -112.56131886


--------------------------------------------------------------------------------------------------------




 average (electrostatic) potential at core
  the test charge radii are     1.0406  1.0714
  (the norm of the test charge is              1.0000)
       1 -73.0296       2 -73.1361       3 -73.0372       4 -73.0372       5 -73.0802
       6 -73.1080       7 -73.0595       8 -72.9694       9 -73.0409      10 -73.0372
      11 -73.0372      12 -73.0463      13 -73.0692      14 -73.0595      15 -72.9694
      16 -73.0802      17 -73.1080      18 -72.9694      19 -73.0595      20 -73.1102
      21 -72.9191      22 -73.0318      23 -73.0318      24 -73.0463      25 -73.0692
      26 -72.9694      27 -73.0595      28 -73.0469      29 -73.0318      30 -73.0318
      31 -50.4221
 
 
 
 E-fermi :   7.8534     XC(G=0): -10.0131     alpha+bet :-14.3074
   add alpha+bet to get absolut eigen values

 k-point   1 :       0.2500    0.2500    0.2500
  band No.  band energies     occupation 
      1      -2.9538      2.00000
      2      -1.9235      2.00000
      3      -1.8730      2.00000
      4      -1.6393      2.00000
      5      -0.8023      2.00000
      6      -0.7490      2.00000
      7      -0.3838      2.00000
      8       0.2938      2.00000
      9       0.3326      2.00000
     10       0.5044      2.00000
     11       0.6135      2.00000
     12       1.3476      2.00000
     13       1.4019      2.00000
     14       1.4197      2.00000
     15       1.5537      2.00000
     16       1.7302      2.00000
     17       1.9671      2.00000
     18       2.6629      2.00000
     19       2.6785      2.00000
     20       2.8501      2.00000
     21       3.5424      2.00000
     22       3.6132      2.00000
     23       3.6600      2.00000
     24       3.7138      2.00000
     25       3.7518      2.00000
     26       4.0384      2.00000
     27       4.5413      2.00000
     28       4.5957      2.00000
     29       4.6350      2.00000
     30       4.7566      2.00000
     31       4.8136      2.00000
     32       4.8844      2.00000
     33       4.9347      2.00000
     34       5.0580      2.00000
     35       5.2414      2.00000
     36       5.7192      2.00000
     37       5.8335      2.00000
     38       6.3349      2.00000
     39       6.7373      2.00000
     40       6.7630      2.00000
     41       6.7969      2.00000
     42       6.9711      2.00000
     43       7.0137      2.00000
     44       7.0729      2.00000
     45       7.1151      2.00000
     46       7.8148      1.31998
     47       7.8464      1.05885
     48       7.9407      0.33310
     49       8.0800     -0.06801
     50       8.1653     -0.04984
     51       8.2294     -0.02308
     52       8.2575     -0.01494
     53       8.3305     -0.00380
     54       8.4174     -0.00049
     55       9.0917      0.00000
     56       9.1547      0.00000
     57       9.1649      0.00000
     58       9.3951      0.00000
     59       9.4170      0.00000
     60       9.4793      0.00000
     61       9.9805      0.00000
     62       9.9861      0.00000
     63      10.0693      0.00000
     64      10.1179      0.00000
     65      10.1880      0.00000
     66      10.2127      0.00000
     67      10.5312      0.00000
     68      10.6759      0.00000
     69      10.7035      0.00000
     70      10.9329      0.00000
     71      11.0348      0.00000
     72      11.2555      0.00000

 k-point   2 :      -0.2500    0.2500    0.2500
  band No.  band energies     occupation 
      1      -2.9567      2.00000
      2      -1.9169      2.00000
      3      -1.8160      2.00000
      4      -1.7068      2.00000
      5      -0.8010      2.00000
      6      -0.6660      2.00000
      7      -0.5200      2.00000
      8       0.2990      2.00000
      9       0.3999      2.00000
     10       0.4342      2.00000
     11       0.6855      2.00000
     12       1.3763      2.00000
     13       1.4608      2.00000
     14       1.4728      2.00000
     15       1.5064      2.00000
     16       1.7269      2.00000
     17       1.8720      2.00000
     18       2.6311      2.00000
     19       2.7362      2.00000
     20       2.7736      2.00000
     21       3.5527      2.00000
     22       3.6257      2.00000
     23       3.6541      2.00000
     24       3.6886      2.00000
     25       3.7652      2.00000
     26       4.0067      2.00000
     27       4.5715      2.00000
     28       4.6542      2.00000
     29       4.6764      2.00000
     30       4.7243      2.00000
     31       4.7433      2.00000
     32       4.9159      2.00000
     33       4.9347      2.00000
     34       5.0559      2.00000
     35       5.1806      2.00000
     36       5.7321      2.00000
     37       5.9528      2.00000
     38       6.2624      2.00000
     39       6.7559      2.00000
     40       6.7762      2.00000
     41       6.8816      2.00000
     42       7.0054      2.00000
     43       7.0231      2.00000
     44       7.0592      2.00000
     45       7.1353      2.00000
     46       7.8465      1.05832
     47       7.9127      0.52172
     48       7.9791      0.13496
     49       8.0691     -0.06294
     50       8.1291     -0.06506
     51       8.1382     -0.06172
     52       8.1815     -0.04237
     53       8.2270     -0.02388
     54       8.2766     -0.01079
     55       9.1350      0.00000
     56       9.1586      0.00000
     57       9.3033      0.00000
     58       9.3974      0.00000
     59       9.4024      0.00000
     60       9.4818      0.00000
     61       9.9860      0.00000
     62       9.9947      0.00000
     63      10.0118      0.00000
     64      10.0741      0.00000
     65      10.1198      0.00000
     66      10.1791      0.00000
     67      10.5726      0.00000
     68      10.6217      0.00000
     69      10.6643      0.00000
     70      10.9540      0.00000
     71      11.1855      0.00000
     72      11.2656      0.00000


--------------------------------------------------------------------------------------------------------


 soft charge-density along one line, spin component           1
         0         1         2         3         4         5         6         7         8         9
 total charge-density along one line
 
 pseudopotential strength for first ion, spin component:           1
  8.459  -0.005   0.000   0.000   0.000   0.000   0.000   0.000
 -0.005   0.000   0.000   0.000   0.000   0.000   0.000   0.000
  0.000   0.000   1.988   0.000   0.000  -0.026   0.000   0.000
  0.000   0.000   0.000   1.988   0.000   0.000  -0.026   0.000
  0.000   0.000   0.000   0.000   1.988   0.000   0.000  -0.026
  0.000   0.000  -0.026   0.000   0.000  -0.012   0.000   0.000
  0.000   0.000   0.000  -0.026   0.000   0.000  -0.012   0.000
  0.000   0.000   0.000   0.000  -0.026   0.000   0.000  -0.012
 total augmentation occupancy for first ion, spin component:           1
  1.316  -0.504   0.000  -0.004  -0.004   0.000   0.006   0.006
 -0.504   0.480   0.000   0.006   0.006   0.000  -0.004  -0.004
  0.000   0.000   0.730   0.000   0.000  -0.180   0.000   0.000
 -0.004   0.006   0.000   0.744  -0.002   0.000  -0.183   0.001
 -0.004   0.006   0.000  -0.002   0.744   0.000   0.001  -0.183
  0.000   0.000  -0.180   0.000   0.000   0.050   0.000   0.000
  0.006  -0.004   0.000  -0.183   0.001   0.000   0.051   0.000
  0.006  -0.004   0.000   0.001  -0.183   0.000   0.000   0.051


------------------------ aborting loop because EDIFF is reached ----------------------------------------




--------------------------------------------------------------------------------------------------------



  FREE ENERGIE OF THE ION-ELECTRON SYSTEM (eV)
  ---------------------------------------------------
  free  energy   TOTEN  =      -112.574245 eV

  energy  without entropy=     -112.535467  energy(sigma->0) =     -112.561319
 
    CHARGE:  cpu time    0.18: real time    0.18
    FORLOC:  cpu time    0.04: real time    0.04
    FORNL :  cpu time    0.46: real time    0.46
    STRESS:  cpu time    1.00: real time    1.00
    FORCOR:  cpu time    0.17: real time    0.17
    FORHAR:  cpu time    0.07: real time    0.07
    MIXING:  cpu time    0.00: real time    0.00

  FORCE on cell =-STRESS in cart. coord.  units (eV):
  Direction    XX          YY          ZZ          XY          YZ          ZX
  --------------------------------------------------------------------------------------
  Alpha Z    -7.38313    -7.38313    -7.38313
  Ewald    -724.25065  -733.19113  -724.25065     0.00000     0.00000     5.52941
  Hartree    11.09285     4.93897    11.09285     0.00000     0.00000     3.04831
  E(xc)    -260.83763  -260.90028  -260.83763     0.00000     0.00000     0.06562
  Local     -18.77279    -3.66822   -18.77279     0.00000     0.00000    -8.39581
  n-local   576.96929   577.31984   576.96934     0.29734    -1.10328    -0.53184
  augment   -30.46735   -30.57180   -30.46734     0.00001     0.00000    -0.03185
  Kinetic   452.00235   456.11795   452.00237    -3.68307     0.91129     2.17924
  Fock        0.00000     0.00000     0.00000     0.00000     0.00000     0.00000
  -------------------------------------------------------------------------------------
  Total      -1.64701     2.66220    -1.64701     0.00000     0.00000     1.86307
  in kB      -4.98926     8.06455    -4.98926     0.00000     0.00000     5.64378
  external pressure =       -0.64 kB  Pullay stress =        0.00 kB


 VOLUME and BASIS-vectors are now :
 -----------------------------------------------------------------------------
  energy-cutoff  :      300.00
  volume of cell :      528.90
      direct lattice vectors                 reciprocal lattice vectors
     8.087052000  0.000000000  0.000000000     0.123654454  0.000000000  0.000000000
     0.000000000  8.087052000  0.000000000     0.000000000  0.123654454  0.000000000
     0.000000000  0.000000000  8.087052000     0.000000000  0.000000000  0.123654454

  length of vectors
     8.087052000  8.087052000  8.087052000     0.123654454  0.123654454  0.123654454


 FORCES acting on ions
    electron-ion (+dipol)            ewald-force                    non-local-force                 convergence-correction
 -----------------------------------------------------------------------------------------------
   -.301E+01 0.423E-13 -.301E+01   0.268E+01 0.408E-14 0.268E+01   0.330E+00 0.000E+00 0.330E+00   0.377E-02 -.129E-12 0.377E-02
   -.120E+01 -.291E-13 -.120E+01   0.115E+01 -.155E-14 0.115E+01   0.668E-01 0.000E+00 0.668E-01   -.504E-02 -.546E-13 -.504E-02
   -.527E+00 -.861E+01 -.754E+01   0.613E+00 0.880E+01 0.775E+01   -.127E+00 -.210E+00 -.241E+00   -.103E-02 0.507E-03 0.261E-02
   -.754E+01 -.861E+01 -.527E+00   0.775E+01 0.880E+01 0.613E+00   -.241E+00 -.210E+00 -.127E+00   0.261E-02 0.508E-03 -.103E-02
   0.202E+01 -.983E-14 -.272E+01   -.208E+01 -.245E-14 0.247E+01   0.811E-01 -.434E-18 0.263E+00   -.265E-02 -.622E-13 -.244E-02
   0.122E+01 -.262E-14 -.448E+00   -.106E+01 -.216E-15 0.640E+00   -.179E+00 -.217E-18 -.219E+00   0.242E-02 0.479E-13 0.261E-02
   0.733E+00 -.326E+01 -.280E+01   -.813E+00 0.329E+01 0.264E+01   0.931E-01 -.437E-01 0.169E+00   -.580E-03 0.136E-02 0.527E-03
   0.779E+01 -.116E+02 -.502E+01   -.788E+01 0.118E+02 0.497E+01   0.672E-01 -.212E+00 0.483E-01   -.814E-03 0.542E-02 0.156E-02
   -.759E+01 0.216E-13 -.759E+01   0.776E+01 0.318E-14 0.776E+01   -.209E+00 0.000E+00 -.209E+00   0.284E-02 0.148E-12 0.285E-02
   -.527E+00 0.861E+01 -.754E+01   0.613E+00 -.880E+01 0.775E+01   -.127E+00 0.210E+00 -.241E+00   -.103E-02 -.507E-03 0.261E-02
   -.754E+01 0.861E+01 -.527E+00   0.775E+01 -.880E+01 0.613E+00   -.241E+00 0.210E+00 -.127E+00   0.261E-02 -.508E-03 -.103E-02
   0.777E+01 0.114E-12 -.780E+01   -.785E+01 0.894E-14 0.797E+01   0.935E-01 -.139E-16 -.115E+00   -.179E-02 0.569E-13 -.457E-04
   0.399E+01 -.181E-13 -.419E+01   -.416E+01 -.624E-15 0.425E+01   0.162E+00 0.000E+00 -.971E-01   -.379E-03 -.426E-13 0.235E-02
   0.733E+00 0.326E+01 -.280E+01   -.813E+00 -.329E+01 0.264E+01   0.931E-01 0.437E-01 0.169E+00   -.580E-03 -.136E-02 0.527E-03
   0.779E+01 0.116E+02 -.502E+01   -.788E+01 -.118E+02 0.497E+01   0.672E-01 0.212E+00 0.483E-01   -.814E-03 -.542E-02 0.156E-02
   -.272E+01 0.303E-13 0.202E+01   0.247E+01 -.366E-15 -.208E+01   0.263E+00 0.000E+00 0.811E-01   -.244E-02 0.125E-12 -.265E-02
   -.448E+00 0.367E-13 0.122E+01   0.640E+00 0.111E-13 -.106E+01   -.219E+00 0.000E+00 -.179E+00   0.261E-02 -.455E-13 0.242E-02
   -.502E+01 -.116E+02 0.779E+01   0.497E+01 0.118E+02 -.788E+01   0.483E-01 -.212E+00 0.672E-01   0.156E-02 0.542E-02 -.815E-03
   -.280E+01 -.326E+01 0.733E+00   0.264E+01 0.329E+01 -.813E+00   0.169E+00 -.437E-01 0.931E-01   0.526E-03 0.136E-02 -.580E-03
   0.292E+01 0.177E-13 0.292E+01   -.270E+01 0.310E-15 -.270E+01   -.239E+00 0.000E+00 -.239E+00   0.340E-02 -.376E-13 0.340E-02
   0.132E+01 -.349E-13 0.132E+01   -.115E+01 0.938E-14 -.115E+01   -.163E+00 0.000E+00 -.163E+00   -.220E-02 -.265E-13 -.220E-02
   0.402E+01 -.655E+01 0.258E+01   -.417E+01 0.657E+01 -.243E+01   0.199E+00 -.551E-01 -.138E+00   -.158E-02 0.934E-03 -.711E-03
   0.258E+01 -.655E+01 0.402E+01   -.243E+01 0.657E+01 -.417E+01   -.138E+00 -.551E-01 0.199E+00   -.710E-03 0.934E-03 -.158E-02
   -.780E+01 0.172E-13 0.777E+01   0.797E+01 -.989E-14 -.785E+01   -.115E+00 0.139E-16 0.935E-01   -.471E-04 -.124E-12 -.179E-02
   -.419E+01 0.869E-13 0.399E+01   0.425E+01 -.233E-14 -.416E+01   -.971E-01 0.173E-17 0.162E+00   0.235E-02 0.449E-13 -.380E-03
   -.502E+01 0.116E+02 0.779E+01   0.497E+01 -.118E+02 -.788E+01   0.483E-01 0.212E+00 0.672E-01   0.156E-02 -.542E-02 -.815E-03
   -.280E+01 0.326E+01 0.733E+00   0.264E+01 -.329E+01 -.813E+00   0.169E+00 0.437E-01 0.931E-01   0.526E-03 -.136E-02 -.580E-03
   0.410E+01 0.126E-13 0.410E+01   -.416E+01 0.674E-15 -.416E+01   0.806E-01 0.000E+00 0.806E-01   -.160E-02 0.430E-13 -.161E-02
   0.402E+01 0.655E+01 0.258E+01   -.417E+01 -.657E+01 -.243E+01   0.199E+00 0.551E-01 -.138E+00   -.158E-02 -.934E-03 -.711E-03
   0.258E+01 0.655E+01 0.402E+01   -.243E+01 -.657E+01 -.417E+01   -.138E+00 0.551E-01 0.199E+00   -.710E-03 -.934E-03 -.158E-02
   0.518E+01 -.164E-13 0.518E+01   -.512E+01 -.258E-14 -.512E+01   -.543E-01 0.000E+00 -.543E-01   -.163E-02 0.135E-13 -.163E-02
 -----------------------------------------------------------------------------------------------
   0.562E-01 -.225E-12 0.562E-01   0.888E-15 -.159E-13 -.355E-14   -.557E-01 -.167E-15 -.557E-01   -.398E-03 -.456E-13 -.398E-03
 
 
 POSITION                                       TOTAL-FORCE (eV/Angst)
 -----------------------------------------------------------------------------------
      8.07859      0.00000      8.07859         0.000397      0.000000      0.000397
      2.01540      0.00000      2.01540         0.013162      0.000000      0.013162
      2.03392      2.05736      0.04374        -0.043014     -0.015739     -0.023442
      0.04374      2.05736      2.03392        -0.023442     -0.015739     -0.043014
      4.04448      0.00000      8.05985         0.023326      0.000000      0.017368
      6.09634      0.00000      2.02468        -0.021012      0.000000     -0.024596
      6.07315      2.01412      8.07035         0.011696     -0.013289      0.011087
      4.04529      2.00143      1.98489        -0.019706     -0.036616     -0.002388
      0.03499      4.04353      0.03499        -0.028841      0.000000     -0.028841
      2.03392      6.02969      0.04374        -0.043014      0.015739     -0.023442
      0.04374      6.02969      2.03392        -0.023442      0.015739     -0.043014
      4.03348      4.04353      0.02528         0.005010      0.000000      0.052008
      6.08618      4.04353      2.00162        -0.007265      0.000000     -0.031467
      6.07315      6.07293      8.07035         0.011696      0.013289      0.011087
      4.04529      6.08562      1.98489        -0.019706      0.036616     -0.002388
      8.05985      0.00000      4.04448         0.017368      0.000000      0.023326
      2.02468      0.00000      6.09634        -0.024596      0.000000     -0.021012
      1.98489      2.00143      4.04529        -0.002388     -0.036616     -0.019706
      8.07035      2.01412      6.07315         0.011087     -0.013289      0.011696
      4.05769      0.00000      4.05769        -0.020902      0.000000     -0.020902
      6.06882      0.00000      6.06882         0.008105      0.000000      0.008105
      6.06259      2.01861      4.04334         0.050312     -0.033806      0.010423
      4.04334      2.01861      6.06259         0.010423     -0.033806      0.050312
      0.02528      4.04353      4.03348         0.052008      0.000000      0.005010
      2.00162      4.04353      6.08618        -0.031467      0.000000     -0.007265
      1.98489      6.08562      4.04529        -0.002388      0.036616     -0.019706
      8.07035      6.07293      6.07315         0.011087      0.013289      0.011696
      6.07283      4.04353      6.07283         0.023368      0.000000      0.023368
      6.06259      6.06844      4.04334         0.050312      0.033806      0.010423
      4.04334      6.06844      6.06259         0.010423      0.033806      0.050312
      3.95628      4.04353      3.95628         0.001407      0.000000      0.001407
 -----------------------------------------------------------------------------------
    total drift:                                0.000166      0.000000      0.000166
 d Force = 0.1161600E-01[ 0.123E-03, 0.231E-01]  d Energy = 0.1160464E-01 0.114E-04
 d Force = 0.1803125E+01[ 0.167E+01, 0.194E+01]  d Ewald  = 0.1803052E+01 0.729E-04


--------------------------------------------------------------------------------------------------------


    POTLOK:  cpu time    0.16: real time    0.16


--------------------------------------------------------------------------------------------------------


  FORCES: max atom, RMS     0.061504    0.040100
  FORCE total and by dimension    0.223265    0.052008


--------------------------------------------------------------------------------------------------------


  
 reached required accuracy - stopping structural energy minimisation
     LOOP+:  cpu time    7.43: real time    7.46
    4ORBIT:  cpu time    0.00: real time    0.00

 total amount of memory used by VASP on root node  60642. kBytes
========================================================================

   base      :    30000. kBytes
   nonl-proj :     4692. kBytes
   fftplans  :     2983. kBytes
   grid      :    21626. kBytes
   one-center:       95. kBytes
   wavefun   :     1246. kBytes
 
  
  
 General timing and accounting informations for this job:
 ========================================================
  
                  Total CPU time used (sec):       67.088
                            User time (sec):       66.949
                          System time (sec):        0.139
                         Elapsed time (sec):       67.333
  
                   Maximum memory used (kb):           0.
                   Average memory used (kb):           0.
  
                          Minor page faults:        23218
                          Major page faults:            0
                 Voluntary context switches:         2479
