ITEM: TIMESTEP
304
ITEM: NUMBER OF ATOMS
309
ITEM: BOX BOUNDS pp pp pp
0 500
0 500
0 500
ITEM: ATOMS id type x y z c_pea 
1 1 267.359 258.763 265.651 -2.08947 
2 1 268.579 267.391 263.466 -1.98435 
3 1 257.233 256.536 255.363 -1.58349 
4 1 258.023 264.962 264.226 -2.96185 
5 1 262.449 256.473 255.741 -2.70233 
6 1 258.601 269.942 259.388 -2.23506 
7 1 263.294 270.063 257.668 -2.04158 
8 1 260.583 266.615 267.689 -2.76413 
9 1 263.526 256.81 264.444 -2.77 
10 1 266.129 266.665 259.816 -2.97237 
11 1 252.822 266.725 263.236 -1.5048 
12 1 264.406 255.22 254.34 -1.60428 
13 1 260.167 266.15 252.264 -1.92615 
14 1 259.182 267.089 265.493 -2.91924 
15 1 268.249 263.152 265.225 -2.59265 
16 1 257.846 267.593 255.377 -2.59246 
17 1 259.912 269.659 264.029 -2.41307 
18 1 259.294 269.084 267.412 -1.78435 
19 1 257.963 267.381 263.182 -2.87909 
20 1 256.222 253.788 260.507 -1.7136 
21 1 256.618 255.068 257.748 -1.76335 
22 1 256.411 258.234 269.897 -1.47089 
23 1 254.857 261 265.528 -2.6134 
24 1 264.71 266.281 265.254 -2.95818 
25 1 262.868 259.988 267.178 -2.85291 
26 1 265.56 253.135 257.728 -1.65716 
27 1 264.334 260.481 255.647 -2.90037 
28 1 255.06 267.016 258.791 -2.05497 
29 1 255.096 265.082 263.791 -3.10527 
30 1 264.033 264.643 269.473 -2.24511 
31 1 257.175 267.774 260.646 -2.71151 
32 1 260.871 255.467 265.401 -2.63834 
33 1 255.711 256.122 264.022 -2.50252 
34 1 263.162 252.575 258.993 -1.79131 
35 1 269.29 262.841 261.233 -2.81187 
36 1 258.479 263.534 257.49 -3.12121 
37 1 263.726 265.507 257.52 -3.17773 
38 1 265.655 266.67 254.312 -1.91573 
39 1 262.364 264.822 251.164 -1.36372 
40 1 267.276 255.321 258.194 -2.03396 
41 1 257.856 266.78 267.911 -2.20163 
42 1 267.055 262.325 262.728 -3.15221 
43 1 260.122 271.236 261.431 -1.90239 
44 1 261.256 261.524 268.67 -2.93664 
45 1 257.454 269.201 265.2 -1.8294 
46 1 259.841 264.592 266.179 -2.90692 
47 1 256.926 265.291 261.795 -2.87661 
48 1 259.651 267.358 259.316 -2.92703 
49 1 264.1 253.245 261.723 -2.10097 
50 1 257.294 262.728 259.821 -2.96977 
51 1 259.346 257.828 265.808 -3.00517 
52 1 259.193 269.883 254.517 -1.733 
53 1 268.652 266.461 260.903 -2.36524 
54 1 261.659 267.523 257.503 -2.89688 
55 1 264.404 267.883 261.619 -3.15527 
56 1 263.717 264.73 254.818 -2.8529 
57 1 263.331 262.663 252.58 -2.18662 
58 1 261.45 259.513 261.864 -3.11152 
59 1 259.563 253.431 264.151 -2.0324 
60 1 255.643 259.249 267.482 -2.67599 
61 1 262.185 259.038 255.142 -2.82992 
62 1 258.748 263.648 252.607 -2.04037 
63 1 262.047 265.833 265.378 -3.16213 
64 1 270.848 262.77 257.646 -1.72759 
65 1 256.85 253.831 263.303 -1.96897 
66 1 266.189 262.377 251.99 -1.45898 
67 1 254.216 256.685 266.296 -1.85591 
68 1 269.013 261.069 256.613 -2.50968 
69 1 264.698 270.261 262.927 -2.4852 
70 1 257.367 267.849 257.983 -2.52108 
71 1 254.837 261.664 259.709 -2.76048 
72 1 263.37 259.915 269.79 -2.23206 
73 1 263.257 265.784 262.895 -3.21375 
74 1 267.303 265.768 265.265 -2.66931 
75 1 262.003 268.706 268.665 -1.79531 
76 1 259.576 259.793 263.748 -3.20889 
77 1 261.351 269.434 259.503 -3.07691 
78 1 262.069 272.116 259.624 -1.48319 
79 1 256.072 255.981 268.325 -1.52483 
80 1 260.873 267.171 263.409 -3.16363 
81 1 253.026 257.59 258.452 -1.12065 
82 1 257.472 261.204 256.309 -2.89175 
83 1 260.659 271.271 257.492 -1.58074 
84 1 261.931 257.812 266.242 -2.77102 
85 1 253.281 262.451 256.639 -1.61569 
86 1 256.472 262.885 264.631 -2.96088 
87 1 252.636 261.616 261.411 -1.91535 
88 1 257.89 261.238 253.638 -2.2274 
89 1 265.875 261.215 269.81 -1.73317 
90 1 255.798 262.981 257.481 -3.09664 
91 1 266.642 263.838 269.605 -1.48241 
92 1 263.343 260.021 253.006 -2.09683 
93 1 268.259 268.006 258.632 -1.61303 
94 1 264.692 263.546 261.843 -3.16534 
95 1 267.834 261.826 254.336 -2.11661 
96 1 268.419 257.807 262.548 -1.81442 
97 1 268.276 260.386 261.303 -2.7557 
98 1 258.268 267.953 252.771 -1.47659 
99 1 262.191 260.1 264.432 -3.29557 
100 1 253.061 259.207 266.474 -1.79033 
101 1 260.254 260.234 266.352 -3.13123 
102 1 255.208 264.471 259.758 -3.08019 
103 1 263.22 257.476 268.568 -2.01763 
104 1 254.64 264.322 254.966 -1.89738 
105 1 261.874 267.108 260.905 -3.24725 
106 1 266.483 261.229 265.067 -2.70881 
107 1 258.63 254.458 259.529 -2.48178 
108 1 256.843 257.286 266.114 -2.81171 
109 1 264.616 259.191 265.024 -3.06021 
110 1 261.152 260.707 271.219 -1.63229 
111 1 257.488 269.966 262.434 -1.77232 
112 1 259.114 262.451 267.462 -2.89611 
113 1 265.554 260.163 267.356 -2.74265 
114 1 261.481 265.174 256.076 -2.9098 
115 1 254.959 260.327 257.215 -2.37379 
116 1 259.035 260.948 261.127 -3.02442 
117 1 268.674 258.132 259.845 -2.10513 
118 1 258.497 255.897 264.121 -2.92572 
119 1 257.158 260.295 258.787 -2.97552 
120 1 252.333 264.45 264.647 -1.63621 
121 1 264.586 254.88 259.508 -2.77113 
122 1 259.504 259.041 259.425 -2.97701 
123 1 257.188 263.513 255.067 -2.79667 
124 1 265.942 269.362 258.941 -2.03187 
125 1 260.493 252.22 259.753 -1.54359 
126 1 258.268 259.988 268.172 -2.86639 
127 1 254.007 261.466 268.087 -1.777 
128 1 261.8 266.125 270.047 -1.92525 
129 1 265.617 263.959 258.654 -2.98954 
130 1 253.901 265.048 257.417 -2.08389 
131 1 254.744 266.678 261.402 -2.22405 
132 1 257.114 270.054 256.433 -1.40615 
133 1 254.307 255.023 262.044 -1.62052 
134 1 265.982 265.9 262.602 -3.22866 
135 1 265.604 263.794 264.451 -3.32622 
136 1 262.183 254.935 263.13 -2.81695 
137 1 263.561 262.358 271.008 -1.66794 
138 1 268.634 263.761 256.163 -2.31758 
139 1 270.014 265.335 265.039 -1.58037 
140 1 253.803 266.455 265.803 -1.64834 
141 1 270.1 264.727 259.398 -1.99804 
142 1 257.231 256.055 261.666 -3.12186 
143 1 267.803 265.4 258.175 -2.64206 
144 1 268.998 258.407 257.195 -2.09346 
145 1 260.814 258.842 268.641 -2.71455 
146 1 259.594 261.088 257.825 -3.02431 
147 1 264.767 257.908 254.854 -2.64473 
148 1 270.057 260.754 259.325 -2.43005 
149 1 266.701 256.453 260.674 -2.618 
150 1 266.488 259.535 263.108 -2.73862 
151 1 260.871 254.156 257.962 -2.2479 
152 1 255.237 261.636 254.815 -2.07837 
153 1 258.483 257.357 268.384 -2.29619 
154 1 263.825 262.224 268.321 -2.91629 
155 1 259.821 255.115 261.913 -3.00475 
156 1 268.186 261.105 267.16 -1.67887 
157 1 260.589 267.413 254.927 -2.89557 
158 1 257.524 260.014 265.596 -3.25453 
159 1 253.023 257.104 263.688 -1.75788 
160 1 266.617 268.047 266.632 -1.85427 
161 1 263.872 265.439 260.238 -3.0525 
162 1 260.558 264.477 263.627 -3.07478 
163 1 261.304 261.346 259.881 -3.02402 
164 1 259.79 260.097 255.284 -2.87647 
165 1 268.718 259.165 254.498 -1.50427 
166 1 263.24 255.314 266.7 -1.98136 
167 1 263.761 267.798 259.018 -2.91467 
168 1 266.032 259.993 253.542 -2.05603 
169 1 258.914 259.166 270.64 -1.64164 
170 1 262.141 258.818 259.416 -2.9641 
171 1 257.624 257.168 259.237 -3.05878 
172 1 259.765 263.494 259.868 -2.99965 
173 1 266.024 264.694 256.157 -2.9736 
174 1 252.684 266.008 259.739 -1.5292 
175 1 263.715 260.566 260.712 -2.93331 
176 1 261.302 263.064 257.598 -3.0325 
177 1 259.09 262.292 264.773 -3.34008 
178 1 260.643 258.979 252.857 -1.62711 
179 1 254.878 260.326 262.181 -2.93491 
180 1 259.534 267.709 269.906 -1.38368 
181 1 255.995 263.252 252.673 -1.4489 
182 1 261.432 265.326 258.963 -3.14003 
183 1 266.091 261.853 260.285 -3.14362 
184 1 262.723 257.208 253.142 -1.6525 
185 1 263.168 253.959 256.565 -2.06177 
186 1 268.343 264.677 263.032 -2.77987 
187 1 259.128 256.04 257.197 -2.58676 
188 1 264.287 257.461 259.878 -2.80343 
189 1 256.715 263.645 269.326 -1.84393 
190 1 262.062 269.465 262.217 -2.91308 
191 1 265.225 257.26 266.719 -2.12893 
192 1 260.866 256.097 268.054 -1.91981 
193 1 266.12 257.003 263.922 -2.4634 
194 1 257.277 264.383 266.755 -2.84701 
195 1 257.259 260.92 263.098 -2.93965 
196 1 255.196 267.636 256.067 -1.5955 
197 1 267.498 260.259 258.639 -2.93743 
198 1 255.081 257.671 261.998 -2.70011 
199 1 256.551 261.901 267.272 -2.71986 
200 1 268.401 264.57 267.514 -1.61065 
201 1 256.608 265.48 256.792 -3.04077 
202 1 252.747 259.977 263.828 -2.17994 
203 1 261.536 262.507 265.986 -3.22121 
204 1 265.043 267.882 269.036 -1.37646 
205 1 264.464 255.888 262.054 -2.89589 
206 1 270.45 262.88 263.676 -1.86966 
207 1 266.689 259.546 256.182 -2.81832 
208 1 264.445 261.236 263.137 -3.0917 
209 1 255.356 268.08 263.601 -1.9356 
210 1 259.557 265.736 261.456 -3.33706 
211 1 265.265 262.637 254.463 -2.81341 
212 1 259.637 268.61 261.555 -2.76021 
213 1 261.059 257.538 263.737 -3.04616 
214 1 253.845 262.503 263.688 -2.55471 
215 1 266.698 254.289 255.57 -1.28396 
216 1 266.36 257.863 258.227 -2.9671 
217 1 257.154 259.075 261.108 -2.90028 
218 1 261.348 264.17 253.617 -2.74262 
219 1 268.253 262.801 258.749 -3.06489 
220 1 265.845 265.611 267.629 -2.53874 
221 1 266.801 254.629 262.747 -1.54333 
222 1 262.605 270.655 264.732 -1.91516 
223 1 263.501 267.514 255.666 -2.41482 
224 1 262.234 260.594 257.393 -3.24409 
225 1 266.5 262.122 256.82 -3.13945 
226 1 262.968 263.391 263.926 -3.05021 
227 1 258.553 255.191 266.756 -2.07805 
228 1 257.433 258.213 263.578 -3.0372 
229 1 265.691 258.384 269.358 -1.32658 
230 1 258.617 252.684 261.639 -1.77732 
231 1 270.823 265.064 262.039 -1.70696 
232 1 264.826 260.584 258.297 -3.22706 
233 1 262.238 261.945 254.999 -3.03479 
234 1 270.206 291.008 274.693 0 
235 1 265.689 270.53 265.439 -1.47997 
236 1 266.053 259.169 260.576 -2.85343 
237 1 258.858 261.935 270.081 -2.25792 
238 1 256.256 260.941 269.781 -1.83124 
239 1 264.013 268.807 266.607 -2.27169 
240 1 259.272 266.075 257.127 -3.00928 
241 1 259.557 268.928 257.012 -2.65514 
242 1 262.73 272.076 262.293 -1.54324 
243 1 254.945 258.999 259.652 -2.57594 
244 1 259.215 264.685 269.023 -2.52752 
245 1 258.536 263.237 262.281 -3.15216 
246 1 259.737 262.759 255.301 -3.067 
247 1 266.148 262.951 267.084 -2.92528 
248 1 255.124 256.24 259.715 -2.26861 
249 1 268.88 260.6 263.999 -2.32268 
250 1 267.564 270.365 263.404 -1.40697 
251 1 253.354 264.322 261.792 -2.46286 
252 1 263.838 270.231 260.363 -2.48507 
253 1 263.772 258.352 257.305 -3.19247 
254 1 267.009 268.586 261.434 -2.46203 
255 1 258.249 258.627 256.964 -3.0251 
256 1 271.809 262.746 260.322 -1.50868 
257 1 262.7 266.633 253.234 -2.23029 
258 1 264.003 258.563 262.454 -3.22656 
259 1 262.56 256.179 258.352 -2.95641 
260 1 260.266 256.521 259.548 -2.96943 
261 1 256.414 259.132 254.987 -1.87175 
262 1 264.595 254.345 264.366 -1.95584 
263 1 264.928 255.944 256.967 -2.92276 
264 1 257.748 265.413 259.284 -3.18393 
265 1 265.835 267.228 257.168 -2.58403 
266 1 255.293 265.707 268.018 -1.5779 
267 1 256.068 254.427 266.022 -1.54237 
268 1 263.336 268.154 264.082 -2.81 
269 1 264.892 264.866 252.389 -1.88887 
270 1 255.704 257.703 257.369 -2.34047 
271 1 260.55 254.627 255.275 -1.44965 
272 1 260.866 258.136 257.259 -3.1117 
273 1 263.364 262.898 259.43 -3.05962 
274 1 264.046 261.734 265.682 -2.81099 
275 1 266.349 271.221 260.977 -1.37232 
276 1 252.754 263.309 259.226 -1.84805 
277 1 256.476 266.666 265.587 -2.51996 
278 1 260.621 261.65 252.891 -2.15601 
279 1 259.077 265.299 254.634 -2.71805 
280 1 267.106 264.3 260.74 -2.94833 
281 1 261.396 252.523 262.308 -1.91706 
282 1 261.103 263.474 270.641 -1.93938 
283 1 261.703 264.155 268.1 -3.03589 
284 1 262.21 253.08 265.085 -1.53762 
285 1 262.094 256.966 261.374 -3.05998 
286 1 268.073 266.47 255.679 -1.62585 
287 1 261.456 268.444 265.925 -2.624 
288 1 263.23 266.484 267.661 -2.75962 
289 1 266.042 268.188 263.984 -2.70408 
290 1 270.873 260.685 262.007 -1.60269 
291 1 260.978 261.951 262.781 -3.12201 
292 1 261.028 268.825 252.694 -1.44183 
293 1 252.321 261.905 265.891 -1.69388 
294 1 263.91 262.886 256.835 -3.17886 
295 1 263.801 264.168 266.499 -2.92728 
296 1 266.727 253.506 260.272 -1.48281 
297 1 271.408 259.914 257.095 -1.09437 
298 1 267.261 264.446 253.768 -1.96 
299 1 267.198 256.944 255.726 -2.03432 
300 1 256.573 265.84 253.741 -1.96838 
301 1 259.893 257.335 254.887 -2.33261 
302 1 254.517 263.694 266.268 -2.65381 
303 1 261.794 269.717 255.449 -1.91711 
304 1 259.361 257.768 261.757 -3.11997 
305 1 255.769 262.915 261.974 -2.98999 
306 1 255.047 258.656 264.549 -2.78771 
307 1 261.987 254.491 260.433 -2.92017 
308 1 261.894 264.037 261.365 -3.13785 
309 1 252.725 258.788 261.27 -1.78881 
