    3    3    1    1
  0.2274357E+02  0.4086266E-09  0.4086266E-09  0.4086266E-09  0.1000000E-16
  1.000000000000000E-004
  CAR 
 unknown system                          
    9    1    8
 
  0.2500000E+00  0.2500000E+00  0.2500000E+00  0.1000000E+01
   1       -2.967484
   2        1.307584
   3        1.313468
   4        1.974772
   5        5.686957
   6        5.694088
   7        6.751359
   8        9.581680
