Processors received = 12
script running on host compute-1-20.local
PBS_NODEFILE
compute-1-20
compute-1-20
compute-1-20
compute-1-20
compute-1-20
compute-1-20
compute-1-20
compute-1-20
compute-1-20
compute-1-20
compute-1-20
compute-1-20
 running on   12 nodes
 distr:  one band on    1 nodes,   12 groups
 vasp.5.2.2 15Apr09 complex 
 POSCAR found type information on POSCAR  Al Pt Au Ag
 POSCAR found :  4 types and   32 ions

 ----------------------------------------------------------------------------- 
|                                                                             |
|  ADVICE TO THIS USER RUNNING 'VASP/VAMP'   (HEAR YOUR MASTER'S VOICE ...):  |
|                                                                             |
|      You have a (more or less) 'large supercell' and for larger cells       |
|      it might be more efficient to use real space projection operators      |
|      So try LREAL= Auto  in the INCAR   file.                               |
|      Mind: If you want to do a very accurate calculations keep the          |
|      reciprocal projection scheme          (i.e. LREAL=.FALSE.)             |
|                                                                             |
 ----------------------------------------------------------------------------- 

 LDA part: xc-table for Pade appr. of Perdew
 POSCAR, INCAR and KPOINTS ok, starting setup
 FFT: planning ...(           1 )
 reading WAVECAR
 entering main loop
       N       E                     dE             d eps       ncg     rms          rms(c)
RMM:   1     0.473301973566E+03    0.47330E+03   -0.22551E+04    84   0.627E+02
RMM:   2     0.476689318890E+02   -0.42563E+03   -0.41484E+03    84   0.144E+02
RMM:   3    -0.495162658909E+02   -0.97185E+02   -0.88840E+02    84   0.621E+01
RMM:   4    -0.862562071577E+02   -0.36740E+02   -0.24910E+02    84   0.536E+01
RMM:   5    -0.100536986733E+03   -0.14281E+02   -0.10986E+02    84   0.388E+01
RMM:   6    -0.107223140087E+03   -0.66862E+01   -0.58937E+01    84   0.276E+01
RMM:   7    -0.110982974228E+03   -0.37598E+01   -0.32821E+01    84   0.206E+01
RMM:   8    -0.113106637806E+03   -0.21237E+01   -0.19522E+01    84   0.148E+01
RMM:   9    -0.116064790878E+03   -0.29582E+01   -0.28118E+01   204   0.116E+01
RMM:  10    -0.116339730067E+03   -0.27494E+00   -0.25208E+00   198   0.145E+00
RMM:  11    -0.116361897365E+03   -0.22167E-01   -0.14047E-01   182   0.726E-01
RMM:  12    -0.116365387958E+03   -0.34906E-02   -0.32371E-02   158   0.147E-01    0.155E+01
RMM:  13    -0.112580827139E+03    0.37846E+01   -0.91126E+01   175   0.246E+01    0.729E+00
RMM:  14    -0.109502299531E+03    0.30785E+01   -0.40719E+00   168   0.712E+00    0.350E+00
RMM:  15    -0.109227379848E+03    0.27492E+00   -0.33005E+00   174   0.506E+00    0.216E+00
RMM:  16    -0.109125041541E+03    0.10234E+00   -0.16718E-01   172   0.114E+00    0.123E+00
RMM:  17    -0.109074681629E+03    0.50360E-01   -0.91623E-02   170   0.923E-01    0.441E-01
RMM:  18    -0.109068439099E+03    0.62425E-02   -0.49192E-02   182   0.597E-01    0.700E-02
RMM:  19    -0.109069044844E+03   -0.60575E-03   -0.73853E-03   184   0.204E-01    0.103E-01
RMM:  20    -0.109068649756E+03    0.39509E-03   -0.15235E-03   161   0.114E-01    0.132E-02
RMM:  21    -0.109068661703E+03   -0.11947E-04   -0.10770E-04   111   0.276E-02
   1 F= -.10906866E+03 E0= -.10906835E+03  d E =-.109069E+03
 curvature:   0.00 expect dE= 0.000E+00 dE for cont linesearch  0.000E+00
 trial: gam= 0.00000 g(F)=  0.367E+00 g(S)=  0.000E+00 ort = 0.000E+00 (trialstep = 0.100E+01)
 search vector abs. value=  0.367E+00
 bond charge predicted
       N       E                     dE             d eps       ncg     rms          rms(c)
RMM:   1    -0.109388844121E+03   -0.32019E+00   -0.27320E+01   168   0.126E+01    0.937E-01
RMM:   2    -0.109394530483E+03   -0.56864E-02   -0.84556E-01   169   0.311E+00    0.777E-01
RMM:   3    -0.109379957927E+03    0.14573E-01   -0.12190E-01   184   0.873E-01    0.390E-01
RMM:   4    -0.109376909404E+03    0.30485E-02   -0.81299E-03   174   0.297E-01    0.222E-01
RMM:   5    -0.109375995165E+03    0.91424E-03   -0.31397E-03   170   0.141E-01    0.831E-02
RMM:   6    -0.109375882937E+03    0.11223E-03   -0.56687E-04   125   0.779E-02    0.216E-02
RMM:   7    -0.109375889522E+03   -0.65859E-05   -0.18814E-04   114   0.459E-02
   2 F= -.10937589E+03 E0= -.10937227E+03  d E =-.307228E+00
 ZBRENT: can't locate minimum, use default step
 trial-energy change:   -0.307228  1 .order   -0.308639   -0.367186   -0.250091
 step:   4.0000(harm=  3.1358)  dis= 0.09106  next Energy=  -109.713513 (dE=-0.645E+00)
 bond charge predicted
       N       E                     dE             d eps       ncg     rms          rms(c)
RMM:   1    -0.112346724406E+03   -0.29708E+01   -0.26331E+02   171   0.393E+01    0.485E+00
RMM:   2    -0.110891704800E+03    0.14550E+01   -0.19706E+01   168   0.146E+01    0.494E+00
RMM:   3    -0.109838407521E+03    0.10533E+01   -0.14274E+00   169   0.411E+00    0.263E+00
RMM:   4    -0.109609809649E+03    0.22860E+00   -0.94914E-01   168   0.288E+00    0.633E-01
RMM:   5    -0.109614202319E+03   -0.43927E-02   -0.12817E-01   189   0.745E-01    0.336E-01
RMM:   6    -0.109613092583E+03    0.11097E-02   -0.81295E-03   168   0.269E-01    0.218E-01
RMM:   7    -0.109611742440E+03    0.13501E-02   -0.38970E-03   170   0.174E-01    0.631E-02
RMM:   8    -0.109611735871E+03    0.65688E-05   -0.15680E-03   148   0.115E-01    0.296E-02
RMM:   9    -0.109611707800E+03    0.28071E-04   -0.13487E-04   110   0.342E-02
   3 F= -.10961171E+03 E0= -.10961523E+03  d E =-.543046E+00
 curvature:  -1.31 expect dE=-0.117E+00 dE for cont linesearch -0.249E-01
 trial: gam= 0.00000 g(F)=  0.894E-01 g(S)=  0.000E+00 ort =-0.836E-01 (trialstep = 0.160E+01)
 search vector abs. value=  0.894E-01
 bond charge predicted
       N       E                     dE             d eps       ncg     rms          rms(c)
RMM:   1    -0.109737928074E+03   -0.12619E+00   -0.26397E+00   168   0.401E+00    0.510E-01
RMM:   2    -0.109719043461E+03    0.18885E-01   -0.64603E-02   168   0.752E-01    0.203E-01
RMM:   3    -0.109717816446E+03    0.12270E-02   -0.99564E-03   169   0.273E-01    0.958E-02
RMM:   4    -0.109717650344E+03    0.16610E-03   -0.95683E-04   151   0.112E-01    0.558E-02
RMM:   5    -0.109717610513E+03    0.39831E-04   -0.15595E-04   108   0.443E-02
   4 F= -.10971761E+03 E0= -.10972542E+03  d E =-.105903E+00
 trial-energy change:   -0.105903  1 .order   -0.105656   -0.143010   -0.068302
 step:   3.0628(harm=  3.0628)  dis= 0.05001  next Energy=  -109.748587 (dE=-0.137E+00)
 bond charge predicted
       N       E                     dE             d eps       ncg     rms          rms(c)
RMM:   1    -0.109756163596E+03   -0.38513E-01   -0.21991E+00   168   0.365E+00    0.386E-01
RMM:   2    -0.109746896313E+03    0.92673E-02   -0.41795E-02   170   0.620E-01    0.174E-01
RMM:   3    -0.109745819661E+03    0.10767E-02   -0.72724E-03   169   0.230E-01    0.823E-02
RMM:   4    -0.109745676488E+03    0.14317E-03   -0.69138E-04   143   0.943E-02    0.455E-02
RMM:   5    -0.109745654572E+03    0.21916E-04   -0.11576E-04   107   0.411E-02
   5 F= -.10974565E+03 E0= -.10975374E+03  d E =-.133947E+00
 curvature:  -1.53 expect dE=-0.341E-01 dE for cont linesearch -0.650E-03
 trial: gam= 0.31767 g(F)=  0.222E-01 g(S)=  0.000E+00 ort =-0.616E-02 (trialstep = 0.189E+01)
 search vector abs. value=  0.273E-01
 bond charge predicted
       N       E                     dE             d eps       ncg     rms          rms(c)
RMM:   1    -0.109774139222E+03   -0.28463E-01   -0.94866E+00   168   0.683E+00    0.517E-01
RMM:   2    -0.109783107784E+03   -0.89686E-02   -0.26657E-01   170   0.171E+00    0.411E-01
RMM:   3    -0.109781197995E+03    0.19098E-02   -0.46957E-02   186   0.478E-01    0.239E-01
RMM:   4    -0.109780099954E+03    0.10980E-02   -0.17629E-03   163   0.147E-01    0.154E-01
RMM:   5    -0.109779529940E+03    0.57001E-03   -0.25062E-03   166   0.129E-01    0.279E-02
RMM:   6    -0.109779534346E+03   -0.44058E-05   -0.20997E-04   111   0.483E-02
   6 F= -.10977953E+03 E0= -.10978964E+03  d E =-.338798E-01
 ZBRENT: can't locate minimum, use default step
 trial-energy change:   -0.033880  1 .order   -0.034038   -0.038380   -0.029696
 step:   7.5703(harm=  8.3642)  dis= 0.08226  next Energy=  -109.830465 (dE=-0.848E-01)
 bond charge predicted
       N       E                     dE             d eps       ncg     rms          rms(c)
RMM:   1    -0.110308502262E+03   -0.52897E+00   -0.90878E+01   168   0.218E+01    0.283E+00
RMM:   2    -0.110138806015E+03    0.16970E+00   -0.68796E+00   170   0.959E+00    0.288E+00
RMM:   3    -0.109864046290E+03    0.27476E+00   -0.65177E-01   178   0.236E+00    0.159E+00
RMM:   4    -0.109802684977E+03    0.61361E-01   -0.13949E-01   168   0.121E+00    0.812E-01
RMM:   5    -0.109788721935E+03    0.13963E-01   -0.11248E-01   176   0.866E-01    0.164E-01
RMM:   6    -0.109788812454E+03   -0.90518E-04   -0.72213E-03   187   0.189E-01    0.665E-02
RMM:   7    -0.109788790062E+03    0.22392E-04   -0.39637E-04   118   0.661E-02
   7 F= -.10978879E+03 E0= -.10979575E+03  d E =-.431355E-01
 curvature:  -5.55 expect dE=-0.483E+00 dE for cont linesearch -0.463E-01
 trial: gam= 0.00000 g(F)=  0.869E-01 g(S)=  0.000E+00 ort =-0.151E-01 (trialstep = 0.953E+00)
 search vector abs. value=  0.869E-01
 reached required accuracy - stopping structural energy minimisation
