  32  32   0   0
  0.1652794E+02  0.8087040E-09  0.8087040E-09  0.8087040E-09  0.5000000E-15
  1.000000000000000E-004
  CAR 
 unknown system                          
     12.45725242     -5.24203034  301      7.91233362      1.00000000
     -5.242  0.0000E+00  0.0000E+00
     -5.183  0.0000E+00  0.0000E+00
     -5.124  0.0000E+00  0.0000E+00
     -5.065  0.0000E+00  0.0000E+00
     -5.006  0.0000E+00  0.0000E+00
     -4.947  0.0000E+00  0.0000E+00
     -4.888 -0.1579E-29 -0.9317E-31
     -4.829 -0.1777E-27 -0.1058E-28
     -4.770 -0.1690E-25 -0.1008E-26
     -4.711 -0.1348E-23 -0.8053E-25
     -4.652 -0.9015E-22 -0.5399E-23
     -4.593 -0.5055E-20 -0.3037E-21
     -4.534 -0.2376E-18 -0.1432E-19
     -4.475 -0.9359E-17 -0.5665E-18
     -4.416 -0.2989E-15 -0.1820E-16
     -4.357 -0.8263E-14 -0.5057E-15
     -4.298 -0.1902E-12 -0.1173E-13
     -4.239 -0.3661E-11 -0.2277E-12
     -4.180 -0.5885E-10 -0.3700E-11
     -4.121 -0.7890E-09 -0.5025E-10
     -4.062 -0.8812E-08 -0.5701E-09
     -4.003 -0.8181E-07 -0.5397E-08
     -3.944 -0.6299E-06 -0.4256E-07
     -3.885 -0.4008E-05 -0.2790E-06
     -3.826 -0.2098E-04 -0.1517E-05
     -3.767 -0.8960E-04 -0.6803E-05
     -3.708 -0.3087E-03 -0.2502E-04
     -3.649 -0.8397E-03 -0.7456E-04
     -3.590 -0.1723E-02 -0.1762E-03
     -3.531 -0.2339E-02 -0.3142E-03
     -3.472 -0.8008E-03 -0.3614E-03
     -3.413  0.5613E-02 -0.3024E-04
     -3.354  0.1800E-01  0.1032E-02
     -3.295  0.3290E-01  0.2973E-02
     -3.236  0.4279E-01  0.5498E-02
     -3.177  0.4158E-01  0.7951E-02
     -3.118  0.3005E-01  0.9724E-02
     -3.059  0.1513E-01  0.1062E-01
     -3.000  0.3831E-02  0.1084E-01
     -2.941 -0.1415E-02  0.1076E-01
     -2.882 -0.2307E-02  0.1062E-01
     -2.823 -0.1531E-02  0.1053E-01
     -2.764 -0.7013E-03  0.1049E-01
     -2.705 -0.2453E-03  0.1048E-01
     -2.646 -0.6809E-04  0.1047E-01
     -2.587 -0.1529E-04  0.1047E-01
     -2.528 -0.2808E-05  0.1047E-01
     -2.469 -0.4246E-06  0.1047E-01
     -2.410 -0.5311E-07  0.1047E-01
     -2.351 -0.5511E-08  0.1047E-01
     -2.292 -0.4756E-09  0.1047E-01
     -2.233 -0.3421E-10  0.1047E-01
     -2.174 -0.2212E-11  0.1047E-01
     -2.115 -0.3299E-11  0.1047E-01
     -2.056 -0.5329E-10  0.1047E-01
     -1.997 -0.7432E-09  0.1047E-01
     -1.938 -0.8666E-08  0.1047E-01
     -1.879 -0.8439E-07  0.1047E-01
     -1.820 -0.6853E-06  0.1047E-01
     -1.761 -0.4634E-05  0.1047E-01
     -1.702 -0.2601E-04  0.1047E-01
     -1.643 -0.1208E-03  0.1046E-01
     -1.584 -0.4610E-03  0.1044E-01
     -1.525 -0.1431E-02  0.1035E-01
     -1.466 -0.3540E-02  0.1014E-01
     -1.407 -0.6665E-02  0.9749E-02
     -1.348 -0.8294E-02  0.9259E-02
     -1.289 -0.1828E-02  0.9151E-02
     -1.230  0.2200E-01  0.1045E-01
     -1.171  0.6817E-01  0.1447E-01
     -1.112  0.1282E+00  0.2203E-01
     -1.053  0.1786E+00  0.3257E-01
     -0.994  0.1941E+00  0.4403E-01
     -0.935  0.1670E+00  0.5388E-01
     -0.876  0.1150E+00  0.6066E-01
     -0.817  0.6756E-01  0.6465E-01
     -0.758  0.4235E-01  0.6715E-01
     -0.699  0.3573E-01  0.6925E-01
     -0.640  0.3313E-01  0.7121E-01
     -0.581  0.2523E-01  0.7270E-01
     -0.522  0.1336E-01  0.7349E-01
     -0.463  0.3409E-02  0.7369E-01
     -0.404 -0.1514E-02  0.7360E-01
     -0.345 -0.2384E-02  0.7346E-01
     -0.286 -0.1599E-02  0.7336E-01
     -0.227 -0.7418E-03  0.7332E-01
     -0.168 -0.2628E-03  0.7330E-01
     -0.109 -0.7386E-04  0.7330E-01
     -0.050 -0.1679E-04  0.7330E-01
      0.009 -0.3139E-05  0.7330E-01
      0.068 -0.6648E-06  0.7330E-01
      0.127 -0.1494E-05  0.7330E-01
      0.186 -0.9061E-05  0.7330E-01
      0.245 -0.4720E-04  0.7330E-01
      0.304 -0.2019E-03  0.7328E-01
      0.363 -0.7033E-03  0.7324E-01
      0.422 -0.1968E-02  0.7313E-01
      0.481 -0.4313E-02  0.7287E-01
      0.540 -0.6967E-02  0.7246E-01
      0.599 -0.6672E-02  0.7207E-01
      0.658  0.2560E-02  0.7222E-01
      0.717  0.2696E-01  0.7381E-01
      0.776  0.6902E-01  0.7788E-01
      0.835  0.1254E+00  0.8528E-01
      0.894  0.1875E+00  0.9634E-01
      0.953  0.2411E+00  0.1106E+00
      1.012  0.2691E+00  0.1264E+00
      1.071  0.2591E+00  0.1417E+00
      1.130  0.2145E+00  0.1544E+00
      1.189  0.1558E+00  0.1636E+00
      1.248  0.1065E+00  0.1699E+00
      1.307  0.7806E-01  0.1745E+00
      1.366  0.6634E-01  0.1784E+00
      1.425  0.5941E-01  0.1819E+00
      1.484  0.4812E-01  0.1847E+00
      1.543  0.3231E-01  0.1866E+00
      1.602  0.2047E-01  0.1878E+00
      1.661  0.2303E-01  0.1892E+00
      1.720  0.4371E-01  0.1918E+00
      1.779  0.7620E-01  0.1963E+00
      1.838  0.1095E+00  0.2027E+00
      1.897  0.1360E+00  0.2108E+00
      1.956  0.1527E+00  0.2198E+00
      2.015  0.1573E+00  0.2291E+00
      2.074  0.1458E+00  0.2377E+00
      2.133  0.1192E+00  0.2447E+00
      2.192  0.8853E-01  0.2499E+00
      2.251  0.6881E-01  0.2540E+00
      2.310  0.6644E-01  0.2579E+00
      2.369  0.7410E-01  0.2623E+00
      2.428  0.7948E-01  0.2669E+00
      2.487  0.7705E-01  0.2715E+00
      2.546  0.7056E-01  0.2757E+00
      2.605  0.6690E-01  0.2796E+00
      2.664  0.6976E-01  0.2837E+00
      2.723  0.7708E-01  0.2883E+00
      2.782  0.8185E-01  0.2931E+00
      2.841  0.7634E-01  0.2976E+00
      2.900  0.5803E-01  0.3010E+00
      2.959  0.3240E-01  0.3029E+00
      3.018  0.9352E-02  0.3035E+00
      3.077 -0.2534E-02  0.3033E+00
      3.136  0.1443E-02  0.3034E+00
      3.195  0.2264E-01  0.3048E+00
      3.254  0.5909E-01  0.3082E+00
      3.313  0.1038E+00  0.3144E+00
      3.372  0.1447E+00  0.3229E+00
      3.431  0.1700E+00  0.3329E+00
      3.490  0.1749E+00  0.3433E+00
      3.549  0.1636E+00  0.3529E+00
      3.608  0.1426E+00  0.3613E+00
      3.667  0.1160E+00  0.3682E+00
      3.726  0.8821E-01  0.3734E+00
      3.785  0.6783E-01  0.3774E+00
      3.844  0.6250E-01  0.3811E+00
      3.903  0.6938E-01  0.3851E+00
      3.962  0.7501E-01  0.3896E+00
      4.021  0.6740E-01  0.3935E+00
      4.080  0.4741E-01  0.3963E+00
      4.139  0.2742E-01  0.3980E+00
      4.198  0.1950E-01  0.3991E+00
      4.257  0.2509E-01  0.4006E+00
      4.316  0.3471E-01  0.4026E+00
      4.375  0.3721E-01  0.4048E+00
      4.434  0.3006E-01  0.4066E+00
      4.493  0.2148E-01  0.4079E+00
      4.552  0.2269E-01  0.4092E+00
      4.611  0.3759E-01  0.4114E+00
      4.670  0.5903E-01  0.4149E+00
      4.729  0.7477E-01  0.4193E+00
      4.788  0.7735E-01  0.4239E+00
      4.847  0.6908E-01  0.4280E+00
      4.906  0.5872E-01  0.4314E+00
      4.965  0.5544E-01  0.4347E+00
      5.024  0.6527E-01  0.4386E+00
      5.083  0.8830E-01  0.4438E+00
      5.142  0.1149E+00  0.4505E+00
      5.201  0.1278E+00  0.4581E+00
      5.260  0.1144E+00  0.4648E+00
      5.319  0.7863E-01  0.4695E+00
      5.378  0.3803E-01  0.4717E+00
      5.437  0.8852E-02  0.4722E+00
      5.496 -0.4246E-02  0.4720E+00
      5.555 -0.6263E-02  0.4716E+00
      5.614 -0.4131E-02  0.4714E+00
      5.673 -0.1913E-02  0.4713E+00
      5.732 -0.6832E-03  0.4712E+00
      5.791 -0.1951E-03  0.4712E+00
      5.850 -0.4538E-04  0.4712E+00
      5.909 -0.8837E-05  0.4712E+00
      5.968 -0.2610E-05  0.4712E+00
      6.027 -0.7817E-05  0.4712E+00
      6.086 -0.3892E-04  0.4712E+00
      6.145 -0.1628E-03  0.4712E+00
      6.204 -0.5539E-03  0.4712E+00
      6.263 -0.1508E-02  0.4711E+00
      6.322 -0.3168E-02  0.4709E+00
      6.380 -0.4682E-02  0.4706E+00
      6.439 -0.3091E-02  0.4704E+00
      6.498  0.6501E-02  0.4708E+00
      6.557  0.2779E-01  0.4724E+00
      6.616  0.5837E-01  0.4759E+00
      6.675  0.8807E-01  0.4811E+00
      6.734  0.1044E+00  0.4872E+00
      6.793  0.1013E+00  0.4932E+00
      6.852  0.8464E-01  0.4982E+00
      6.911  0.6748E-01  0.5022E+00
      6.970  0.6202E-01  0.5059E+00
      7.029  0.7243E-01  0.5101E+00
      7.088  0.9366E-01  0.5157E+00
      7.147  0.1157E+00  0.5225E+00
      7.206  0.1313E+00  0.5302E+00
      7.265  0.1425E+00  0.5386E+00
      7.324  0.1586E+00  0.5480E+00
      7.383  0.1839E+00  0.5588E+00
      7.442  0.2083E+00  0.5711E+00
      7.501  0.2125E+00  0.5837E+00
      7.560  0.1863E+00  0.5947E+00
      7.619  0.1391E+00  0.6029E+00
      7.678  0.9391E-01  0.6084E+00
      7.737  0.6815E-01  0.6124E+00
      7.796  0.6206E-01  0.6161E+00
      7.855  0.6253E-01  0.6198E+00
      7.914  0.5721E-01  0.6231E+00
      7.973  0.4549E-01  0.6258E+00
      8.032  0.3770E-01  0.6281E+00
      8.091  0.4405E-01  0.6307E+00
      8.150  0.6338E-01  0.6344E+00
      8.209  0.8302E-01  0.6393E+00
      8.268  0.9014E-01  0.6446E+00
      8.327  0.8205E-01  0.6494E+00
      8.386  0.6509E-01  0.6533E+00
      8.445  0.4764E-01  0.6561E+00
      8.504  0.3708E-01  0.6583E+00
      8.563  0.3952E-01  0.6606E+00
      8.622  0.5554E-01  0.6639E+00
      8.681  0.7608E-01  0.6684E+00
      8.740  0.8790E-01  0.6736E+00
      8.799  0.8537E-01  0.6786E+00
      8.858  0.7482E-01  0.6830E+00
      8.917  0.6705E-01  0.6870E+00
      8.976  0.6859E-01  0.6910E+00
      9.035  0.8059E-01  0.6958E+00
      9.094  0.1020E+00  0.7018E+00
      9.153  0.1307E+00  0.7095E+00
      9.212  0.1617E+00  0.7191E+00
      9.271  0.1880E+00  0.7301E+00
      9.330  0.2040E+00  0.7422E+00
      9.389  0.2093E+00  0.7545E+00
      9.448  0.2064E+00  0.7667E+00
      9.507  0.1979E+00  0.7784E+00
      9.566  0.1852E+00  0.7893E+00
      9.625  0.1690E+00  0.7993E+00
      9.684  0.1495E+00  0.8081E+00
      9.743  0.1257E+00  0.8155E+00
      9.802  0.9841E-01  0.8213E+00
      9.861  0.7408E-01  0.8257E+00
      9.920  0.6274E-01  0.8294E+00
      9.979  0.6747E-01  0.8334E+00
     10.038  0.7904E-01  0.8380E+00
     10.097  0.8507E-01  0.8430E+00
     10.156  0.8304E-01  0.8479E+00
     10.215  0.8052E-01  0.8527E+00
     10.274  0.8386E-01  0.8576E+00
     10.333  0.9046E-01  0.8630E+00
     10.392  0.9205E-01  0.8684E+00
     10.451  0.8247E-01  0.8733E+00
     10.510  0.6209E-01  0.8769E+00
     10.569  0.3715E-01  0.8791E+00
     10.628  0.1555E-01  0.8800E+00
     10.687  0.2143E-02  0.8802E+00
     10.746 -0.3108E-02  0.8800E+00
     10.805 -0.3425E-02  0.8798E+00
     10.864 -0.2118E-02  0.8797E+00
     10.923 -0.9545E-03  0.8796E+00
     10.982 -0.3358E-03  0.8796E+00
     11.041 -0.9486E-04  0.8796E+00
     11.100 -0.2182E-04  0.8796E+00
     11.159 -0.4119E-05  0.8796E+00
     11.218 -0.6421E-06  0.8796E+00
     11.277 -0.8293E-07  0.8796E+00
     11.336 -0.8897E-08  0.8796E+00
     11.395 -0.7945E-09  0.8796E+00
     11.454 -0.5914E-10  0.8796E+00
     11.513 -0.3674E-11  0.8796E+00
     11.572 -0.1907E-12  0.8796E+00
     11.631 -0.8237E-14  0.8796E+00
     11.690 -0.3153E-15  0.8796E+00
     11.749  0.0000E+00  0.8796E+00
     11.808  0.0000E+00  0.8796E+00
     11.867  0.0000E+00  0.8796E+00
     11.926  0.0000E+00  0.8796E+00
     11.985  0.0000E+00  0.8796E+00
     12.044  0.0000E+00  0.8796E+00
     12.103  0.0000E+00  0.8796E+00
     12.162  0.0000E+00  0.8796E+00
     12.221  0.0000E+00  0.8796E+00
     12.280  0.0000E+00  0.8796E+00
     12.339  0.0000E+00  0.8796E+00
     12.398  0.0000E+00  0.8796E+00
     12.457  0.0000E+00  0.8796E+00
