   32   32  191    1
  0.1652794E+02  0.8087040E-09  0.8087040E-09  0.8087040E-09  0.5000000E-15
  1.000000000000000E-004
  CAR 
 unknown system                          
  119    1   84
 
  0.0000000E+00  0.0000000E+00  0.0000000E+00  0.1000000E+01
   1       -3.242030
   2       -1.112379
   3       -1.073559
   4       -1.018808
   5       -0.987660
   6       -0.978583
   7       -0.701676
   8        0.819840
   9        0.831740
  10        0.941190
  11        0.963816
  12        0.997929
  13        1.026051
  14        1.055911
  15        1.068437
  16        1.167227
  17        1.304717
  18        1.449983
  19        1.775781
  20        1.834097
  21        1.931735
  22        1.997137
  23        2.063958
  24        2.101172
  25        2.325025
  26        2.409662
  27        2.573115
  28        2.739338
  29        2.837496
  30        3.272806
  31        3.379152
  32        3.420429
  33        3.430283
  34        3.537744
  35        3.621276
  36        3.670469
  37        3.900791
  38        3.981016
  39        4.328524
  40        4.668963
  41        4.766732
  42        4.954100
  43        5.151081
  44        5.178481
  45        5.221648
  46        6.652249
  47        6.715684
  48        6.817447
  49        7.007468
  50        7.135428
  51        7.186132
  52        7.239600
  53        7.379333
  54        7.394781
  55        7.450797
  56        7.490868
  57        7.518615
  58        7.573396
  59        7.772728
  60        7.897276
  61        8.185268
  62        8.221719
  63        8.406364
  64        8.690040
  65        8.709995
  66        8.900357
  67        9.044689
  68        9.137160
  69        9.230255
  70        9.256462
  71        9.288616
  72        9.368170
  73        9.426307
  74        9.440675
  75        9.526967
  76        9.572476
  77        9.620341
  78        9.748049
  79        9.759694
  80       10.025326
  81       10.046899
  82       10.242012
  83       10.347294
  84       10.457252
