 vasp.5.2.2 15Apr09 complex 
 executed on             LinuxIFC date 2017.01.11  13:34:27
 running on   12 nodes
 distr:  one band on    1 nodes,   12 groups


--------------------------------------------------------------------------------------------------------


 INCAR:
 POTCAR:   PAW_PBE Al 04Jan2001                   
 POTCAR:   PAW_PBE Pt 05Jan2001                   
 POTCAR:   PAW_PBE Au 06Sep2000                   
 POTCAR:   PAW_PBE Ag 06Sep2000                   
 POTCAR:   PAW_PBE Al 04Jan2001                   
   VRHFIN =Al: s2p1                                                             
   LEXCH  = PE                                                                  
   EATOM  =    53.5387 eV,    3.9350 Ry                                         
                                                                                
   TITEL  = PAW_PBE Al 04Jan2001                                                
   LULTRA =        F    use ultrasoft PP ?                                      
   IUNSCR =        1    unscreen: 0-lin 1-nonlin 2-no                           
   RPACOR =    1.500    partial core radius                                     
   POMASS =   26.982; ZVAL   =    3.000    mass and valenz                      
   RCORE  =    1.900    outmost cutoff radius                                   
   RWIGS  =    2.650; RWIGS  =    1.402    wigner-seitz radius (au A)           
   ENMAX  =  240.300; ENMIN  =  180.225 eV                                      
   ICORE  =        2    local potential                                         
   LCOR   =        T    correct aug charges                                     
   LPAW   =        T    paw PP                                                  
   EAUG   =  291.052                                                            
   DEXC   =    -.041                                                            
   RMAX   =    2.974    core radius for proj-oper                               
   RAUG   =    1.300    factor for augmentation sphere                          
   RDEP   =    1.966    radius for radial grids                                 
   QCUT   =   -4.203; QGAM   =    8.405    optimization parameters              
                                                                                
   Description                                                                  
     l     E      TYP  RCUT    TYP  RCUT                                        
     0   .000     23  1.900                                                     
     0   .000     23  1.900                                                     
     1   .000     23  1.900                                                     
     1  1.000     23  1.900                                                     
     2   .000      7  1.900                                                     
  local pseudopotential read in
  partial core-charges read in
  atomic valenz-charges read in
  non local Contribution for L=           0  read in
    real space projection operators read in
  non local Contribution for L=           0  read in
    real space projection operators read in
  non local Contribution for L=           1  read in
    real space projection operators read in
  non local Contribution for L=           1  read in
    real space projection operators read in
    PAW grid and wavefunctions read in
 
   number of l-projection  operators is LMAX  =           4
   number of lm-projection operators is LMMAX =           8
 
 POTCAR:   PAW_PBE Pt 05Jan2001                   
   VRHFIN =Pt: s1d9                                                             
   LEXCH  = PE                                                                  
   EATOM  =   729.1171 eV,   53.5886 Ry                                         
                                                                                
   TITEL  = PAW_PBE Pt 05Jan2001                                                
   LULTRA =        F    use ultrasoft PP ?                                      
   IUNSCR =        1    unscreen: 0-lin 1-nonlin 2-no                           
   RPACOR =    2.330    partial core radius                                     
   POMASS =  195.080; ZVAL   =   10.000    mass and valenz                      
   RCORE  =    2.500    outmost cutoff radius                                   
   RWIGS  =    2.750; RWIGS  =    1.455    wigner-seitz radius (au A)           
   ENMAX  =  230.283; ENMIN  =  172.712 eV                                      
   RCLOC  =    1.896    cutoff for local pot                                    
   LCOR   =        T    correct aug charges                                     
   LPAW   =        T    paw PP                                                  
   EAUG   =  358.966                                                            
   DEXC   =    -.039                                                            
   RMAX   =    3.038    core radius for proj-oper                               
   RAUG   =    1.300    factor for augmentation sphere                          
   RDEP   =    2.590    radius for radial grids                                 
   QCUT   =   -4.114; QGAM   =    8.228    optimization parameters              
                                                                                
   Description                                                                  
     l     E      TYP  RCUT    TYP  RCUT                                        
     2   .000     23  2.500                                                     
     2   .000     23  2.500                                                     
     0   .000     23  2.500                                                     
     0   .000     23  2.500                                                     
     1  -.200     23  2.500                                                     
     1  1.500     23  2.500                                                     
     3   .000      7   .000                                                     
  local pseudopotential read in
  partial core-charges read in
  atomic valenz-charges read in
  non local Contribution for L=           2  read in
    real space projection operators read in
  non local Contribution for L=           2  read in
    real space projection operators read in
  non local Contribution for L=           0  read in
    real space projection operators read in
  non local Contribution for L=           0  read in
    real space projection operators read in
  non local Contribution for L=           1  read in
    real space projection operators read in
  non local Contribution for L=           1  read in
    real space projection operators read in
    PAW grid and wavefunctions read in
 
   number of l-projection  operators is LMAX  =           6
   number of lm-projection operators is LMMAX =          18
 
 POTCAR:   PAW_PBE Au 06Sep2000                   
   VRHFIN =Au: s1d10                                                            
   LEXCH  = PE                                                                  
   EATOM  =   926.0567 eV,   68.0632 Ry                                         
                                                                                
   TITEL  = PAW_PBE Au 06Sep2000                                                
   LULTRA =        F    use ultrasoft PP ?                                      
   IUNSCR =        1    unscreen: 0-lin 1-nonlin 2-no                           
   RPACOR =    2.330    partial core radius                                     
   POMASS =  196.966; ZVAL   =   11.000    mass and valenz                      
   RCORE  =    2.500    outmost cutoff radius                                   
   RWIGS  =    2.840; RWIGS  =    1.503    wigner-seitz radius (au A)           
   ENMAX  =  229.948; ENMIN  =  172.461 eV                                      
   RCLOC  =    1.964    cutoff for local pot                                    
   LCOR   =        T    correct aug charges                                     
   LPAW   =        T    paw PP                                                  
   EAUG   =  356.670                                                            
   DEXC   =    -.025                                                            
   RMAX   =    3.041    core radius for proj-oper                               
   RAUG   =    1.300    factor for augmentation sphere                          
   RDEP   =    2.598    radius for radial grids                                 
   QCUT   =   -4.111; QGAM   =    8.222    optimization parameters              
                                                                                
   Description                                                                  
     l     E      TYP  RCUT    TYP  RCUT                                        
     2   .000     23  2.500                                                     
     2   .000     23  2.500                                                     
     0   .000     23  2.500                                                     
     0   .000     23  2.500                                                     
     1  -.200     23  2.500                                                     
     1   .000     23  2.500                                                     
     3   .000      7   .000                                                     
  local pseudopotential read in
  partial core-charges read in
  atomic valenz-charges read in
  non local Contribution for L=           2  read in
    real space projection operators read in
  non local Contribution for L=           2  read in
    real space projection operators read in
  non local Contribution for L=           0  read in
    real space projection operators read in
  non local Contribution for L=           0  read in
    real space projection operators read in
  non local Contribution for L=           1  read in
    real space projection operators read in
  non local Contribution for L=           1  read in
    real space projection operators read in
    PAW grid and wavefunctions read in
 
   number of l-projection  operators is LMAX  =           6
   number of lm-projection operators is LMMAX =          18
 
 POTCAR:   PAW_PBE Ag 06Sep2000                   
   VRHFIN =Ag : s1 d10                                                          
   LEXCH  = PE                                                                  
   EATOM  =  1037.4134 eV,   76.2477 Ry                                         
                                                                                
   TITEL  = PAW_PBE Ag 06Sep2000                                                
   LULTRA =        F    use ultrasoft PP ?                                      
   IUNSCR =        1    unscreen: 0-lin 1-nonlin 2-no                           
   RPACOR =    2.000    partial core radius                                     
   POMASS =  107.868; ZVAL   =   11.000    mass and valenz                      
   RCORE  =    2.400    outmost cutoff radius                                   
   RWIGS  =    2.840; RWIGS  =    1.503    wigner-seitz radius (au A)           
   ENMAX  =  249.846; ENMIN  =  187.385 eV                                      
   RCLOC  =    1.962    cutoff for local pot                                    
   LCOR   =        T    correct aug charges                                     
   LPAW   =        T    paw PP                                                  
   EAUG   =  412.496                                                            
   DEXC   =    -.047                                                            
   RMAX   =    2.917    core radius for proj-oper                               
   RAUG   =    1.300    factor for augmentation sphere                          
   RDEP   =    2.416    radius for radial grids                                 
   QCUT   =   -4.285; QGAM   =    8.570    optimization parameters              
                                                                                
   Description                                                                  
     l     E      TYP  RCUT    TYP  RCUT                                        
     2   .000     23  2.400                                                     
     2   .000     23  2.400                                                     
     0   .000     23  2.400                                                     
     0   .000     23  2.400                                                     
     1  -.200     23  2.400                                                     
     1  1.500     23  2.400                                                     
     3   .000      7   .000                                                     
  local pseudopotential read in
  partial core-charges read in
  atomic valenz-charges read in
  non local Contribution for L=           2  read in
    real space projection operators read in
  non local Contribution for L=           2  read in
    real space projection operators read in
  non local Contribution for L=           0  read in
    real space projection operators read in
  non local Contribution for L=           0  read in
    real space projection operators read in
  non local Contribution for L=           1  read in
    real space projection operators read in
  non local Contribution for L=           1  read in
    real space projection operators read in
    PAW grid and wavefunctions read in
 
   number of l-projection  operators is LMAX  =           6
   number of lm-projection operators is LMMAX =          18
 

 ----------------------------------------------------------------------------- 
|                                                                             |
|  ADVICE TO THIS USER RUNNING 'VASP/VAMP'   (HEAR YOUR MASTER'S VOICE ...):  |
|                                                                             |
|      You have a (more or less) 'large supercell' and for larger cells       |
|      it might be more efficient to use real space projection operators      |
|      So try LREAL= Auto  in the INCAR   file.                               |
|      Mind: If you want to do a very accurate calculations keep the          |
|      reciprocal projection scheme          (i.e. LREAL=.FALSE.)             |
|                                                                             |
 ----------------------------------------------------------------------------- 

 PAW_PBE Al 04Jan2001                   :
 energy of atom  1       EATOM=  -53.5387
 kinetic energy error for atom=    0.0011 (will be added to EATOM!!)
 PAW_PBE Pt 05Jan2001                   :
 energy of atom  2       EATOM= -729.1171
 kinetic energy error for atom=    0.0416 (will be added to EATOM!!)
 PAW_PBE Au 06Sep2000                   :
 energy of atom  3       EATOM= -926.0567
 kinetic energy error for atom=    0.0455 (will be added to EATOM!!)
 PAW_PBE Ag 06Sep2000                   :
 energy of atom  4       EATOM=-1037.4134
 kinetic energy error for atom=    0.0535 (will be added to EATOM!!)
 
 
 POSCAR: Al29 Ag1 Pt1 Au1                        
  positions in direct lattice
  velocities in cartesian coordinates
 exchange correlation table for  LEXCH =        8
   RHO(1)=    0.500       N(1)  =     2000
   RHO(2)=  100.500       N(2)  =     4000

 VTST: version 2.03d, (02/18/09)

 CHAIN: initializing optimizer
 
 OPT: Using VASP Conjugate-Gradient optimizer
 CHAIN: Read ICHAIN            0
 


--------------------------------------------------------------------------------------------------------


 ion  position               nearest neighbor table
   1  0.000  0.000  0.000-   2 2.86   3 2.86   4 2.86   5 2.86   6 2.86  10 2.86  13 2.86  17 2.86
                            19 2.86  25 2.86  30 2.86  32 2.86
   2  0.250  0.000  0.250-   1 2.86   3 2.86   4 2.86   7 2.86  10 2.86  14 2.86  15 2.86  16 2.86
                            18 2.86  24 2.86  30 2.86  31 2.86
   3  0.250  0.250  0.000-   1 2.86   2 2.86   4 2.86   7 2.86   8 2.86   9 2.86  11 2.86  17 2.86
                            21 2.86  23 2.86  31 2.86  32 2.86
   4  0.000  0.250  0.250-   1 2.86   2 2.86   3 2.86   5 2.86   6 2.86   8 2.86   9 2.86  12 2.86
                            15 2.86  16 2.86  20 2.86  22 2.86
   5  0.750  0.000  0.250-   1 2.86   4 2.86   6 2.86   7 2.86  10 2.86  13 2.86  14 2.86  15 2.86
                            18 2.86  20 2.86  28 2.86  31 2.86
   6  0.750  0.250  0.000-   1 2.86   4 2.86   5 2.86   7 2.86   8 2.86  11 2.86  12 2.86  17 2.86
                            19 2.86  21 2.86  27 2.86  31 2.86
   7  0.500  0.250  0.250-   2 2.86   3 2.86   5 2.86   6 2.86   9 2.86  11 2.86  12 2.86  16 2.86
                            18 2.86  20 2.86  26 2.86  31 2.86
   8  0.000  0.500  0.000-   3 2.86   4 2.86   6 2.86   9 2.86  10 2.86  12 2.86  13 2.86  17 2.86
                            23 2.86  25 2.86  27 2.86  30 2.86
   9  0.250  0.500  0.250-   3 2.86   4 2.86   7 2.86   8 2.86  10 2.86  11 2.86  14 2.86  16 2.86
                            22 2.86  24 2.86  26 2.86  30 2.86
  10  0.000  0.750  0.250-   1 2.86   2 2.86   5 2.86   8 2.86   9 2.86  12 2.86  13 2.86  15 2.86
                            22 2.86  24 2.86  28 2.86  30 2.86
  11  0.500  0.500  0.000-   3 2.86   6 2.86   7 2.86   9 2.86  12 2.86  13 2.86  14 2.86  21 2.86
                            23 2.86  27 2.86  29 2.86  30 2.86
  12  0.750  0.500  0.250-   4 2.86   6 2.86   7 2.86   8 2.86  10 2.86  11 2.86  13 2.86  14 2.86
                            20 2.86  22 2.86  26 2.86  28 2.86
  13  0.750  0.750  0.000-   1 2.86   5 2.86   8 2.86  10 2.86  11 2.86  12 2.86  14 2.86  19 2.86
                            25 2.86  27 2.86  29 2.86  31 2.86
  14  0.500  0.750  0.250-   2 2.86   5 2.86   9 2.86  11 2.86  12 2.86  13 2.86  18 2.86  24 2.86
                            26 2.86  28 2.86  30 2.86  31 2.86
  15  0.000  0.000  0.500-   2 2.86   4 2.86   5 2.86  10 2.86  16 2.86  17 2.86  19 2.86  20 2.86
                            24 2.86  25 2.86  28 2.86  32 2.86
  16  0.250  0.250  0.500-   2 2.86   4 2.86   7 2.86   9 2.86  15 2.86  17 2.86  18 2.86  21 2.86
                            22 2.86  23 2.86  26 2.86  32 2.86
  17  0.000  0.250  0.750-   1 2.86   3 2.86   6 2.86   8 2.86  15 2.86  16 2.86  19 2.86  20 2.86
                            22 2.86  23 2.86  27 2.86  32 2.86
  18  0.500  0.000  0.500-   2 2.86   5 2.86   7 2.86  14 2.86  16 2.86  19 2.86  20 2.86  21 2.86
                            24 2.86  28 2.86  29 2.86  32 2.86
  19  0.750  0.000  0.750-   1 2.86   6 2.86  13 2.86  15 2.86  17 2.86  18 2.86  20 2.86  21 2.86
                            25 2.86  28 2.86  29 2.86  31 2.86
  20  0.750  0.250  0.500-   4 2.86   5 2.86   7 2.86  12 2.86  15 2.86  17 2.86  18 2.86  19 2.86
                            21 2.86  22 2.86  26 2.86  27 2.86
  21  0.500  0.250  0.750-   3 2.86   6 2.86  11 2.86  16 2.86  18 2.86  19 2.86  20 2.86  23 2.86
                            26 2.86  27 2.86  31 2.86  32 2.86
  22  0.000  0.500  0.500-   4 2.86   9 2.86  10 2.86  12 2.86  16 2.86  17 2.86  20 2.86  23 2.86
                            24 2.86  25 2.86  27 2.86  28 2.86
  23  0.250  0.500  0.750-   3 2.86   8 2.86  11 2.86  16 2.86  17 2.86  21 2.86  22 2.86  24 2.86
                            25 2.86  26 2.86  29 2.86  30 2.86
  24  0.250  0.750  0.500-   2 2.86   9 2.86  10 2.86  14 2.86  15 2.86  18 2.86  22 2.86  23 2.86
                            25 2.86  26 2.86  29 2.86  32 2.86
  25  0.000  0.750  0.750-   1 2.86   8 2.86  13 2.86  15 2.86  19 2.86  22 2.86  23 2.86  24 2.86
                            27 2.86  28 2.86  30 2.86  32 2.86
  26  0.500  0.500  0.500-   7 2.86   9 2.86  12 2.86  14 2.86  16 2.86  20 2.86  21 2.86  23 2.86
                            24 2.86  27 2.86  28 2.86  29 2.86
  27  0.750  0.500  0.750-   6 2.86   8 2.86  11 2.86  13 2.86  17 2.86  20 2.86  21 2.86  22 2.86
                            25 2.86  26 2.86  28 2.86  29 2.86
  28  0.750  0.750  0.500-   5 2.86  10 2.86  12 2.86  14 2.86  15 2.86  18 2.86  19 2.86  22 2.86
                            25 2.86  26 2.86  27 2.86  29 2.86
  29  0.500  0.750  0.750-  11 2.86  13 2.86  18 2.86  19 2.86  23 2.86  24 2.86  26 2.86  27 2.86
                            28 2.86  30 2.86  31 2.86  32 2.86
  30  0.250  0.750  0.000-   1 2.86   2 2.86   8 2.86   9 2.86  10 2.86  11 2.86  14 2.86  23 2.86
                            25 2.86  29 2.86  31 2.86  32 2.86
  31  0.500  0.000  0.000-   2 2.86   3 2.86   5 2.86   6 2.86   7 2.86  13 2.86  14 2.86  19 2.86
                            21 2.86  29 2.86  30 2.86  32 2.86
  32  0.250  0.000  0.750-   1 2.86   3 2.86  15 2.86  16 2.86  17 2.86  18 2.86  21 2.86  24 2.86
                            25 2.86  29 2.86  30 2.86  31 2.86
 
  LATTYP: Found a simple cubic cell.
 ALAT       =     8.0870400000
  
  Lattice vectors:
  
 A1 = (   8.0870400000,   0.0000000000,   0.0000000000)
 A2 = (   0.0000000000,   8.0870400000,   0.0000000000)
 A3 = (   0.0000000000,   0.0000000000,   8.0870400000)
 Subroutine PRICEL returns:
 Original cell was already a primitive cell.
 

Analysis of symmetry for initial positions (statically):

 Routine SETGRP: Setting up the symmetry group for a 
 simple cubic supercell.


 Subroutine GETGRP returns: Found  1 space group operations
 (whereof  1 operations were pure point group operations)
 out of a pool of 48 trial point group operations.


The static configuration has the point symmetry C_1 .

Analysis of symmetry for dynamics (positions and initial velocities):

 Subroutine DYNSYM returns: Found  1 space group operations
 (whereof  1 operations were pure point group operations)
 out of a pool of  1 trial space group operations
 (whereof  1 operations were pure point group operations)
 and found also     1 'primitive' translations


The dynamic configuration has the point symmetry C_1 .
 
 
 KPOINTS: Automatic kpoint scheme                 

Automatic generation of k-mesh.
 
 Subroutine IBZKPT returns following result:
 ===========================================
 
 Found      1 irreducible k-points:
 
 Following reciprocal coordinates:
            Coordinates               Weight
  0.000000  0.000000  0.000000      1.000000
 
 Following cartesian coordinates:
            Coordinates               Weight
  0.000000  0.000000  0.000000      1.000000
 


--------------------------------------------------------------------------------------------------------




 Dimension of arrays:
   k-points           NKPTS =      1   k-points in BZ     NKDIM =      1   number of bands    NBANDS=     84
   number of dos      NEDOS =    301   number of ions     NIONS =     32
   non local maximal  LDIM  =      6   non local SUM 2l+1 LMDIM =     18
   total plane-waves  NPLWV = 110592
   max r-space proj   IRMAX =      1   max aug-charges    IRDMAX=  12985
   dimension x,y,z NGX =    48 NGY =   48 NGZ =   48
   dimension x,y,z NGXF=    96 NGYF=   96 NGZF=   96
   support grid    NGXF=    96 NGYF=   96 NGZF=   96
   ions per type =              29   1   1   1
 NGX,Y,Z   is equivalent  to a cutoff of   9.87,  9.87,  9.87 a.u.
 NGXF,Y,Z  is equivalent  to a cutoff of  19.73, 19.73, 19.73 a.u.


 I would recommend the setting:
   dimension x,y,z NGX =    46 NGY =   46 NGZ =   46
 SYSTEM =  unknown system                          
 POSCAR =  Al29 Ag1 Pt1 Au1                        

 Startparameter for this run:
   NWRITE =      2    write-flag & timer
   PREC   = accura    medium, high low
   ISTART =      0    job   : 0-new  1-cont  2-samecut
   ICHARG =      2    charge: 1-file 2-atom 10-const
   ISPIN  =      1    spin polarized calculation?
   LNONCOLLINEAR =      F non collinear calculations
   LSORBIT =      F    spin-orbit coupling
   INIWAV =      1    electr: 0-lowe 1-rand  2-diag
   LASPH  =      F    aspherical Exc in radial PAW
   METAGGA=      F    non-selfconsistent MetaGGA calc.

 Electronic Relaxation 1
   ENCUT  =  300.0 eV  22.05 Ry    4.70 a.u.  11.42 11.42 11.42*2*pi/ulx,y,z
   ENINI  =  300.0     initial cutoff
   ENAUG  =  412.5 eV  augmentation charge cutoff
   NELM   =     60;   NELMIN=  2; NELMDL=-12     # of ELM steps 
   EDIFF  = 0.1E-03   stopping-criterion for ELM
   LREAL  =      F    real-space projection
   LCOMPAT=      F    compatible to vasp.4.4
   LREAL_COMPAT= F    compatible to vasp.4.5.1-3
   GGA_COMPAT  = T    GGA compatible to vasp.4.4-vasp.4.6
   LMAXPAW     = -100 max onsite density
   LMAXMIX     =    2 max onsite mixed and CHGCAR
   VOSKOWN=      0    Vosko Wilk Nusair interpolation
   ROPT   =    0.00000   0.00000   0.00000   0.00000
 Ionic relaxation
   EDIFFG = 0.5E-01   stopping-criterion for IOM
   NSW    =    191    number of steps for IOM
   NBLOCK =      1;   KBLOCK =    191    inner block; outer block 
   IBRION =      2    ionic relax: 0-MD 1-quasi-New 2-CG
   NFREE  =      1    steps in history (QN), initial steepest desc. (CG)
   ISIF   =      2    stress and relaxation
   IWAVPR =     11    prediction:  0-non 1-charg 2-wave 3-comb
   ISYM   =      2    0-nonsym 1-usesym 2-fastsym
   LCORR  =      T    Harris-Foulkes like correction to forces

   POTIM  = 0.5000    time-step for ionic-motion
   TEIN   =    0.0    initial temperature
   TEBEG  =    0.0;   TEEND  =   0.0 temperature during run
   SMASS  =  -3.00    Nose mass-parameter (am)
   estimated Nose-frequenzy (Omega)   =  0.10E-29 period in steps =****** mass=  -0.149E-26a.u.
   NPACO  =    256;   APACO  = 16.0  distance and # of slots for P.C.
   PSTRESS=    0.0 pullay stress

  Mass of Ions in am
   POMASS =  26.98195.08196.97107.87
  Ionic Valenz
   ZVAL   =   3.00 10.00 11.00 11.00
  Atomic Wigner-Seitz radii
   RWIGS  =  -1.00 -1.00 -1.00 -1.00
   NELECT =     119.0000    total number of electrons
   NUPDOWN=      -1.0000    fix difference up-down

 DOS related values:
   EMIN   =  10.00;   EMAX   =-10.00  energy-range for DOS
   EFERMI =   0.00
   ISMEAR =     1;   SIGMA  =   0.20  broadening in eV -4-tet -1-fermi 0-gaus

 Electronic relaxation 2 (details)
   IALGO  =     48    algorithm
   LDIAG  =      T    sub-space diagonalisation
   IMIX   =      4    mixing-type and parameters
     AMIX     =   0.40;   BMIX     =  1.00
     AMIX_MAG =   1.60;   BMIX_MAG =  1.00
     AMIN     =   0.10
     WC   =   100.;   INIMIX=   1;  MIXPRE=   1

 Intra band minimization:
   WEIMIN = 0.0010     energy-eigenvalue tresh-hold
   EBREAK =  0.33E-06  absolut break condition
   DEPER  =   0.30     relativ break condition  

   TIME   =   0.40     timestep for ELM

  volume/ion in A,a.u.               =      16.53       111.54
  Fermi-wavevector in a.u.,A,eV,Ry     =   0.995713  1.881625 13.489423  0.991445
  Thomas-Fermi vector in A             =   2.127752
 
 Write flags
   LWAVE  =      F    write WAVECAR
   LCHARG =      F    write CHGCAR
   LVTOT  =      F    write LOCPOT, local potential
   LELF   =      F    write electronic localiz. function (ELF)
   LORBIT =      0    0 simple, 1 ext, 2 COOP (PROOUT)


 Dipole corrections
   LMONO  =      F    monopole corrections only (constant potential shift)
   LDIPOL =      F    correct potential (dipole corrections)
   IDIPOL =      0    1-x, 2-y, 3-z, 4-all directions 
   EPSILON=  1.0000000 bulk dielectric constant

 Exchange correlation treatment:
   GGA     =    --    GGA type
   LEXCH   =     8    internal setting for exchange type
   VOSKOWN=      0    Vosko Wilk Nusair interpolation
   LHFCALC =     F    Hartree Fock is set to
   LHFONE  =     F    Hartree Fock one center treatment
   AEXX    =    0.0000 exact exchange contribution

 Linear response parameters
   LEPSILON=     F    determine dielectric tensor
   LRPA    =     F    only Hartree local field effects (RPA)
   LNABLA  =     F    use nabla operator in PAW spheres
   LVEL    =     F    velocity operator in full k-point grid
   LINTERFAST=   F  fast interpolation
   KINTER  =     0    interpolate to denser k-point grid
   CSHIFT  =0.1000    complex shift for real part using Kramers Kronig
   OMEGAMAX=  -1.0    maximum frequency

 Orbital magnetization related:
   ORBITALMAG=     F  switch on orbital magnetization
   LCHIMAG   =     F  perturbation theory with respect to B field



--------------------------------------------------------------------------------------------------------


 conjugate gradient relaxation of ions
 charge density and potential will be updated during run
 non-spin polarized calculation
 RMM-DIIS sequential band-by-band
 perform sub-space diagonalisation
    before iterative eigenvector-optimisation
 modified Broyden-mixing scheme, WC =      100.0
 initial mixing is a Kerker type mixing with AMIX =  0.4000 and BMIX =      1.0000
 Hartree-type preconditioning will be used
 using additional bands           24
 reciprocal scheme for non local part
 use partial core corrections
 calculate Harris-corrections to forces 
   (improved forces if not selfconsistent)
 use gradient corrections 
 use of overlap-Matrix (Vanderbilt PP)
 Methfessel and Paxton  Order N= 1 SIGMA  =   0.20


--------------------------------------------------------------------------------------------------------


  energy-cutoff  :      300.00
  volume of cell :      528.89
      direct lattice vectors                 reciprocal lattice vectors
     8.087040000  0.000000000  0.000000000     0.123654638  0.000000000  0.000000000
     0.000000000  8.087040000  0.000000000     0.000000000  0.123654638  0.000000000
     0.000000000  0.000000000  8.087040000     0.000000000  0.000000000  0.123654638

  length of vectors
     8.087040000  8.087040000  8.087040000     0.123654638  0.123654638  0.123654638


 
 k-points in units of 2pi/SCALE and weight: Automatic kpoint scheme                 
   0.00000000  0.00000000  0.00000000       1.000
 
 k-points in reciprocal lattice and weights: Automatic kpoint scheme                 
   0.00000000  0.00000000  0.00000000       1.000
 
 position of ions in fractional coordinates (direct lattice) 
   0.00000000  0.00000000  0.00000000
   0.25000000  0.00000000  0.25000000
   0.25000000  0.25000000  0.00000000
   0.00000000  0.25000000  0.25000000
   0.75000000  0.00000000  0.25000000
   0.75000000  0.25000000  0.00000000
   0.50000000  0.25000000  0.25000000
   0.00000000  0.50000000  0.00000000
   0.25000000  0.50000000  0.25000000
   0.00000000  0.75000000  0.25000000
   0.50000000  0.50000000  0.00000000
   0.75000000  0.50000000  0.25000000
   0.75000000  0.75000000  0.00000000
   0.50000000  0.75000000  0.25000000
   0.00000000  0.00000000  0.50000000
   0.25000000  0.25000000  0.50000000
   0.00000000  0.25000000  0.75000000
   0.50000000  0.00000000  0.50000000
   0.75000000  0.00000000  0.75000000
   0.75000000  0.25000000  0.50000000
   0.50000000  0.25000000  0.75000000
   0.00000000  0.50000000  0.50000000
   0.25000000  0.50000000  0.75000000
   0.25000000  0.75000000  0.50000000
   0.00000000  0.75000000  0.75000000
   0.50000000  0.50000000  0.50000000
   0.75000000  0.50000000  0.75000000
   0.75000000  0.75000000  0.50000000
   0.50000000  0.75000000  0.75000000
   0.25000000  0.75000000  0.00000000
   0.50000000  0.00000000  0.00000000
   0.25000000  0.00000000  0.75000000
 
 position of ions in cartesian coordinates  (Angst):
   0.00000000  0.00000000  0.00000000
   2.02176000  0.00000000  2.02176000
   2.02176000  2.02176000  0.00000000
   0.00000000  2.02176000  2.02176000
   6.06528000  0.00000000  2.02176000
   6.06528000  2.02176000  0.00000000
   4.04352000  2.02176000  2.02176000
   0.00000000  4.04352000  0.00000000
   2.02176000  4.04352000  2.02176000
   0.00000000  6.06528000  2.02176000
   4.04352000  4.04352000  0.00000000
   6.06528000  4.04352000  2.02176000
   6.06528000  6.06528000  0.00000000
   4.04352000  6.06528000  2.02176000
   0.00000000  0.00000000  4.04352000
   2.02176000  2.02176000  4.04352000
   0.00000000  2.02176000  6.06528000
   4.04352000  0.00000000  4.04352000
   6.06528000  0.00000000  6.06528000
   6.06528000  2.02176000  4.04352000
   4.04352000  2.02176000  6.06528000
   0.00000000  4.04352000  4.04352000
   2.02176000  4.04352000  6.06528000
   2.02176000  6.06528000  4.04352000
   0.00000000  6.06528000  6.06528000
   4.04352000  4.04352000  4.04352000
   6.06528000  4.04352000  6.06528000
   6.06528000  6.06528000  4.04352000
   4.04352000  6.06528000  6.06528000
   2.02176000  6.06528000  0.00000000
   4.04352000  0.00000000  0.00000000
   2.02176000  0.00000000  6.06528000
 


--------------------------------------------------------------------------------------------------------


 k-point  1 :  0.00000.00000.0000  plane waves:    6235

 maximum and minimum number of plane-waves per node :    6235   6235

 maximum number of plane-waves:    6235
 maximal index in each direction: 
   IXMAX= 11   IYMAX= 11   IZMAX= 11
   IXMIN=-11   IYMIN=-11   IZMIN=-11

 NGX is ok and might be reduce to  46
 NGY is ok and might be reduce to  46
 NGZ is ok and might be reduce to  46

 serial   3D FFT for wavefunctions
 parallel 3D FFT for charge:
    minimum data exchange during FFTs selected (reduces bandwidth)


 total amount of memory used by VASP on root node  63831. kBytes
========================================================================

   base      :    30000. kBytes
   nonl-proj :     6789. kBytes
   fftplans  :     2983. kBytes
   grid      :    22831. kBytes
   one-center:      497. kBytes
   wavefun   :      731. kBytes
 
 Broyden mixing: mesh for mixing (old mesh)
   NGX = 23   NGY = 23   NGZ = 23
  (NGX  = 96   NGY  = 96   NGZ  = 96)
  gives a total of  12167 points

 initial charge density was supplied:
 charge density of overlapping atoms calculated
 number of electron  119.0000000 magnetization 
 keeping initial charge density in first step


--------------------------------------------------------------------------------------------------------


 Maximum index for augmentation-charges         1043 (set IRDMAX)


--------------------------------------------------------------------------------------------------------


 First call to EWALD:  gamma=   0.219
 Maximum number of real-space cells 3x 3x 3
 Maximum number of reciprocal cells 3x 3x 3

    FEWALD:  cpu time    0.01: real time    0.01
   RESPFUN:  cpu time    0.00: real time    0.00


----------------------------------------- Iteration    1(   1)  ---------------------------------------


    POTLOK:  cpu time    0.16: real time    0.16
    SETDIJ:  cpu time    0.02: real time    0.02
    EDDIAG:  cpu time    0.18: real time    0.18
  RMM-DIIS:  cpu time    0.42: real time    0.42
    ORTHCH:  cpu time    0.01: real time    0.01
       DOS:  cpu time    0.00: real time    0.00
    --------------------------------------------
      LOOP:  cpu time    0.79: real time    0.79

 eigenvalue-minimisations  :    84
 total energy-change (2. order) : 0.4733020E+03  (-0.2255071E+04)
 number of electron  119.0000000 magnetization 
 augmentation part   119.0000000 magnetization 

 Free energy of the ion-electron system (eV)
  ---------------------------------------------------
  alpha Z        PSCENC =       100.06042719
  Ewald energy   TEWEN  =     -3849.86428143
  -1/2 Hartree   DENC   =     -1344.76041401
  -exchange  EXHF       =         0.00000000
  -V(xc)+E(xc)   XCENC  =      -752.21553222
  PAW double counting   =      3222.50049718    -2197.73173776
  entropy T*S    EENTRO =        -0.05314925
  eigenvalues    EBANDS =      1050.32840689
  atomic energy  EATOM  =      4245.03775698
  ---------------------------------------------------
  free energy    TOTEN  =       473.30197357 eV

  energy without entropy =      473.35512282  energy(sigma->0) =      473.31968998


--------------------------------------------------------------------------------------------------------




----------------------------------------- Iteration    1(   2)  ---------------------------------------


    EDDIAG:  cpu time    0.18: real time    0.18
  RMM-DIIS:  cpu time    0.41: real time    0.41
    ORTHCH:  cpu time    0.01: real time    0.01
       DOS:  cpu time    0.00: real time    0.00
    --------------------------------------------
      LOOP:  cpu time    0.60: real time    0.61

 eigenvalue-minimisations  :    84
 total energy-change (2. order) :-0.4256330E+03  (-0.4148381E+03)
 number of electron  119.0000000 magnetization 
 augmentation part   119.0000000 magnetization 

 Free energy of the ion-electron system (eV)
  ---------------------------------------------------
  alpha Z        PSCENC =       100.06042719
  Ewald energy   TEWEN  =     -3849.86428143
  -1/2 Hartree   DENC   =     -1344.76041401
  -exchange  EXHF       =         0.00000000
  -V(xc)+E(xc)   XCENC  =      -752.21553222
  PAW double counting   =      3222.50049718    -2197.73173776
  entropy T*S    EENTRO =        -0.01209142
  eigenvalues    EBANDS =       624.65430738
  atomic energy  EATOM  =      4245.03775698
  ---------------------------------------------------
  free energy    TOTEN  =        47.66893189 eV

  energy without entropy =       47.68102331  energy(sigma->0) =       47.67296236


--------------------------------------------------------------------------------------------------------




----------------------------------------- Iteration    1(   3)  ---------------------------------------


    EDDIAG:  cpu time    0.18: real time    0.18
  RMM-DIIS:  cpu time    0.41: real time    0.41
    ORTHCH:  cpu time    0.01: real time    0.01
       DOS:  cpu time    0.00: real time    0.00
    --------------------------------------------
      LOOP:  cpu time    0.60: real time    0.61

 eigenvalue-minimisations  :    84
 total energy-change (2. order) :-0.9718520E+02  (-0.8883957E+02)
 number of electron  119.0000000 magnetization 
 augmentation part   119.0000000 magnetization 

 Free energy of the ion-electron system (eV)
  ---------------------------------------------------
  alpha Z        PSCENC =       100.06042719
  Ewald energy   TEWEN  =     -3849.86428143
  -1/2 Hartree   DENC   =     -1344.76041401
  -exchange  EXHF       =         0.00000000
  -V(xc)+E(xc)   XCENC  =      -752.21553222
  PAW double counting   =      3222.50049718    -2197.73173776
  entropy T*S    EENTRO =        -0.03482543
  eigenvalues    EBANDS =       527.49184362
  atomic energy  EATOM  =      4245.03775698
  ---------------------------------------------------
  free energy    TOTEN  =       -49.51626589 eV

  energy without entropy =      -49.48144046  energy(sigma->0) =      -49.50465741


--------------------------------------------------------------------------------------------------------




----------------------------------------- Iteration    1(   4)  ---------------------------------------


    EDDIAG:  cpu time    0.18: real time    0.18
  RMM-DIIS:  cpu time    0.42: real time    0.42
    ORTHCH:  cpu time    0.01: real time    0.01
       DOS:  cpu time    0.00: real time    0.00
    --------------------------------------------
      LOOP:  cpu time    0.61: real time    0.61

 eigenvalue-minimisations  :    84
 total energy-change (2. order) :-0.3673994E+02  (-0.2491050E+02)
 number of electron  119.0000000 magnetization 
 augmentation part   119.0000000 magnetization 

 Free energy of the ion-electron system (eV)
  ---------------------------------------------------
  alpha Z        PSCENC =       100.06042719
  Ewald energy   TEWEN  =     -3849.86428143
  -1/2 Hartree   DENC   =     -1344.76041401
  -exchange  EXHF       =         0.00000000
  -V(xc)+E(xc)   XCENC  =      -752.21553222
  PAW double counting   =      3222.50049718    -2197.73173776
  entropy T*S    EENTRO =         0.02058808
  eigenvalues    EBANDS =       490.69648884
  atomic energy  EATOM  =      4245.03775698
  ---------------------------------------------------
  free energy    TOTEN  =       -86.25620716 eV

  energy without entropy =      -86.27679523  energy(sigma->0) =      -86.26306985


--------------------------------------------------------------------------------------------------------




----------------------------------------- Iteration    1(   5)  ---------------------------------------


    EDDIAG:  cpu time    0.18: real time    0.18
  RMM-DIIS:  cpu time    0.41: real time    0.41
    ORTHCH:  cpu time    0.01: real time    0.01
       DOS:  cpu time    0.00: real time    0.00
    --------------------------------------------
      LOOP:  cpu time    0.60: real time    0.61

 eigenvalue-minimisations  :    84
 total energy-change (2. order) :-0.1428078E+02  (-0.1098605E+02)
 number of electron  119.0000000 magnetization 
 augmentation part   119.0000000 magnetization 

 Free energy of the ion-electron system (eV)
  ---------------------------------------------------
  alpha Z        PSCENC =       100.06042719
  Ewald energy   TEWEN  =     -3849.86428143
  -1/2 Hartree   DENC   =     -1344.76041401
  -exchange  EXHF       =         0.00000000
  -V(xc)+E(xc)   XCENC  =      -752.21553222
  PAW double counting   =      3222.50049718    -2197.73173776
  entropy T*S    EENTRO =         0.03842990
  eigenvalues    EBANDS =       476.39786744
  atomic energy  EATOM  =      4245.03775698
  ---------------------------------------------------
  free energy    TOTEN  =      -100.53698673 eV

  energy without entropy =     -100.57541663  energy(sigma->0) =     -100.54979670


--------------------------------------------------------------------------------------------------------




----------------------------------------- Iteration    1(   6)  ---------------------------------------


    EDDIAG:  cpu time    0.18: real time    0.18
  RMM-DIIS:  cpu time    0.41: real time    0.41
    ORTHCH:  cpu time    0.01: real time    0.01
       DOS:  cpu time    0.00: real time    0.00
    --------------------------------------------
      LOOP:  cpu time    0.60: real time    0.60

 eigenvalue-minimisations  :    84
 total energy-change (2. order) :-0.6686153E+01  (-0.5893741E+01)
 number of electron  119.0000000 magnetization 
 augmentation part   119.0000000 magnetization 

 Free energy of the ion-electron system (eV)
  ---------------------------------------------------
  alpha Z        PSCENC =       100.06042719
  Ewald energy   TEWEN  =     -3849.86428143
  -1/2 Hartree   DENC   =     -1344.76041401
  -exchange  EXHF       =         0.00000000
  -V(xc)+E(xc)   XCENC  =      -752.21553222
  PAW double counting   =      3222.50049718    -2197.73173776
  entropy T*S    EENTRO =        -0.00197646
  eigenvalues    EBANDS =       469.75212045
  atomic energy  EATOM  =      4245.03775698
  ---------------------------------------------------
  free energy    TOTEN  =      -107.22314009 eV

  energy without entropy =     -107.22116363  energy(sigma->0) =     -107.22248127


--------------------------------------------------------------------------------------------------------




----------------------------------------- Iteration    1(   7)  ---------------------------------------


    EDDIAG:  cpu time    0.18: real time    0.18
  RMM-DIIS:  cpu time    0.42: real time    0.42
    ORTHCH:  cpu time    0.01: real time    0.01
       DOS:  cpu time    0.00: real time    0.00
    --------------------------------------------
      LOOP:  cpu time    0.61: real time    0.61

 eigenvalue-minimisations  :    84
 total energy-change (2. order) :-0.3759834E+01  (-0.3282143E+01)
 number of electron  119.0000000 magnetization 
 augmentation part   119.0000000 magnetization 

 Free energy of the ion-electron system (eV)
  ---------------------------------------------------
  alpha Z        PSCENC =       100.06042719
  Ewald energy   TEWEN  =     -3849.86428143
  -1/2 Hartree   DENC   =     -1344.76041401
  -exchange  EXHF       =         0.00000000
  -V(xc)+E(xc)   XCENC  =      -752.21553222
  PAW double counting   =      3222.50049718    -2197.73173776
  entropy T*S    EENTRO =        -0.01303032
  eigenvalues    EBANDS =       466.00334016
  atomic energy  EATOM  =      4245.03775698
  ---------------------------------------------------
  free energy    TOTEN  =      -110.98297423 eV

  energy without entropy =     -110.96994391  energy(sigma->0) =     -110.97863079


--------------------------------------------------------------------------------------------------------




----------------------------------------- Iteration    1(   8)  ---------------------------------------


    EDDIAG:  cpu time    0.18: real time    0.18
  RMM-DIIS:  cpu time    0.41: real time    0.41
    ORTHCH:  cpu time    0.01: real time    0.01
       DOS:  cpu time    0.00: real time    0.00
    --------------------------------------------
      LOOP:  cpu time    0.60: real time    0.60

 eigenvalue-minimisations  :    84
 total energy-change (2. order) :-0.2123664E+01  (-0.1952178E+01)
 number of electron  119.0000000 magnetization 
 augmentation part   119.0000000 magnetization 

 Free energy of the ion-electron system (eV)
  ---------------------------------------------------
  alpha Z        PSCENC =       100.06042719
  Ewald energy   TEWEN  =     -3849.86428143
  -1/2 Hartree   DENC   =     -1344.76041401
  -exchange  EXHF       =         0.00000000
  -V(xc)+E(xc)   XCENC  =      -752.21553222
  PAW double counting   =      3222.50049718    -2197.73173776
  entropy T*S    EENTRO =         0.02719412
  eigenvalues    EBANDS =       463.83945215
  atomic energy  EATOM  =      4245.03775698
  ---------------------------------------------------
  free energy    TOTEN  =      -113.10663781 eV

  energy without entropy =     -113.13383192  energy(sigma->0) =     -113.11570251


--------------------------------------------------------------------------------------------------------




----------------------------------------- Iteration    1(   9)  ---------------------------------------


    EDDIAG:  cpu time    0.18: real time    0.18
  RMM-DIIS:  cpu time    0.93: real time    0.93
    ORTHCH:  cpu time    0.01: real time    0.01
       DOS:  cpu time    0.00: real time    0.00
    --------------------------------------------
      LOOP:  cpu time    1.12: real time    1.13

 eigenvalue-minimisations  :   204
 total energy-change (2. order) :-0.2958153E+01  (-0.2811807E+01)
 number of electron  119.0000000 magnetization 
 augmentation part   119.0000000 magnetization 

 Free energy of the ion-electron system (eV)
  ---------------------------------------------------
  alpha Z        PSCENC =       100.06042719
  Ewald energy   TEWEN  =     -3849.86428143
  -1/2 Hartree   DENC   =     -1344.76041401
  -exchange  EXHF       =         0.00000000
  -V(xc)+E(xc)   XCENC  =      -752.21553222
  PAW double counting   =      3222.50049718    -2197.73173776
  entropy T*S    EENTRO =         0.02070780
  eigenvalues    EBANDS =       460.88778540
  atomic energy  EATOM  =      4245.03775698
  ---------------------------------------------------
  free energy    TOTEN  =      -116.06479088 eV

  energy without entropy =     -116.08549868  energy(sigma->0) =     -116.07169348


--------------------------------------------------------------------------------------------------------




----------------------------------------- Iteration    1(  10)  ---------------------------------------


    EDDIAG:  cpu time    0.18: real time    0.18
  RMM-DIIS:  cpu time    0.88: real time    0.88
    ORTHCH:  cpu time    0.01: real time    0.01
       DOS:  cpu time    0.00: real time    0.00
    --------------------------------------------
      LOOP:  cpu time    1.07: real time    1.07

 eigenvalue-minimisations  :   198
 total energy-change (2. order) :-0.2749392E+00  (-0.2520843E+00)
 number of electron  119.0000000 magnetization 
 augmentation part   119.0000000 magnetization 

 Free energy of the ion-electron system (eV)
  ---------------------------------------------------
  alpha Z        PSCENC =       100.06042719
  Ewald energy   TEWEN  =     -3849.86428143
  -1/2 Hartree   DENC   =     -1344.76041401
  -exchange  EXHF       =         0.00000000
  -V(xc)+E(xc)   XCENC  =      -752.21553222
  PAW double counting   =      3222.50049718    -2197.73173776
  entropy T*S    EENTRO =         0.02123319
  eigenvalues    EBANDS =       460.61232082
  atomic energy  EATOM  =      4245.03775698
  ---------------------------------------------------
  free energy    TOTEN  =      -116.33973007 eV

  energy without entropy =     -116.36096326  energy(sigma->0) =     -116.34680780


--------------------------------------------------------------------------------------------------------




----------------------------------------- Iteration    1(  11)  ---------------------------------------


    EDDIAG:  cpu time    0.18: real time    0.18
  RMM-DIIS:  cpu time    0.82: real time    0.83
    ORTHCH:  cpu time    0.01: real time    0.01
       DOS:  cpu time    0.00: real time    0.00
    --------------------------------------------
      LOOP:  cpu time    1.02: real time    1.02

 eigenvalue-minimisations  :   182
 total energy-change (2. order) :-0.2216730E-01  (-0.1404659E-01)
 number of electron  119.0000000 magnetization 
 augmentation part   119.0000000 magnetization 

 Free energy of the ion-electron system (eV)
  ---------------------------------------------------
  alpha Z        PSCENC =       100.06042719
  Ewald energy   TEWEN  =     -3849.86428143
  -1/2 Hartree   DENC   =     -1344.76041401
  -exchange  EXHF       =         0.00000000
  -V(xc)+E(xc)   XCENC  =      -752.21553222
  PAW double counting   =      3222.50049718    -2197.73173776
  entropy T*S    EENTRO =         0.02118293
  eigenvalues    EBANDS =       460.59020378
  atomic energy  EATOM  =      4245.03775698
  ---------------------------------------------------
  free energy    TOTEN  =      -116.36189736 eV

  energy without entropy =     -116.38308029  energy(sigma->0) =     -116.36895834


--------------------------------------------------------------------------------------------------------




----------------------------------------- Iteration    1(  12)  ---------------------------------------


    EDDIAG:  cpu time    0.18: real time    0.18
  RMM-DIIS:  cpu time    0.74: real time    0.74
    ORTHCH:  cpu time    0.01: real time    0.01
       DOS:  cpu time    0.00: real time    0.00
    CHARGE:  cpu time    0.11: real time    0.11
    MIXING:  cpu time    0.00: real time    0.00
    --------------------------------------------
      LOOP:  cpu time    1.04: real time    1.04

 eigenvalue-minimisations  :   158
 total energy-change (2. order) :-0.3490593E-02  (-0.3237066E-02)
 number of electron  119.0000032 magnetization 
 augmentation part     9.4865890 magnetization 

 Broyden mixing:
  rms(total) = 0.15543E+01    rms(broyden)= 0.15540E+01
  rms(prec ) = 0.32589E+01
  weight for this iteration     100.00

 Free energy of the ion-electron system (eV)
  ---------------------------------------------------
  alpha Z        PSCENC =       100.06042719
  Ewald energy   TEWEN  =     -3849.86428143
  -1/2 Hartree   DENC   =     -1344.76041401
  -exchange  EXHF       =         0.00000000
  -V(xc)+E(xc)   XCENC  =      -752.21553222
  PAW double counting   =      3222.50049718    -2197.73173776
  entropy T*S    EENTRO =         0.02118243
  eigenvalues    EBANDS =       460.58671369
  atomic energy  EATOM  =      4245.03775698
  ---------------------------------------------------
  free energy    TOTEN  =      -116.36538796 eV

  energy without entropy =     -116.38657038  energy(sigma->0) =     -116.37244877


--------------------------------------------------------------------------------------------------------




----------------------------------------- Iteration    1(  13)  ---------------------------------------


    POTLOK:  cpu time    0.16: real time    0.16
    SETDIJ:  cpu time    0.02: real time    0.02
    EDDIAG:  cpu time    0.18: real time    0.18
  RMM-DIIS:  cpu time    0.80: real time    0.80
    ORTHCH:  cpu time    0.01: real time    0.01
       DOS:  cpu time    0.00: real time    0.00
    CHARGE:  cpu time    0.11: real time    0.11
    MIXING:  cpu time    0.00: real time    0.00
    --------------------------------------------
      LOOP:  cpu time    1.28: real time    1.93

 eigenvalue-minimisations  :   175
 total energy-change (2. order) : 0.3784561E+01  (-0.9112596E+01)
 number of electron  119.0000043 magnetization 
 augmentation part    12.0851222 magnetization 

 Broyden mixing:
  rms(total) = 0.72935E+00    rms(broyden)= 0.72914E+00
  rms(prec ) = 0.15502E+01
  weight for this iteration     100.00

 eigenvalues of (default mixing * dielectric matrix)
  average eigenvalue GAMMA=   0.7343
  0.7343

 Free energy of the ion-electron system (eV)
  ---------------------------------------------------
  alpha Z        PSCENC =       100.06042719
  Ewald energy   TEWEN  =     -3849.86428143
  -1/2 Hartree   DENC   =     -1219.00473175
  -exchange  EXHF       =         0.00000000
  -V(xc)+E(xc)   XCENC  =      -753.76773262
  PAW double counting   =      3032.32687370    -2011.80151733
  entropy T*S    EENTRO =         0.01403348
  eigenvalues    EBANDS =       344.41834464
  atomic energy  EATOM  =      4245.03775698
  ---------------------------------------------------
  free energy    TOTEN  =      -112.58082714 eV

  energy without entropy =     -112.59486062  energy(sigma->0) =     -112.58550496


--------------------------------------------------------------------------------------------------------




----------------------------------------- Iteration    1(  14)  ---------------------------------------


    POTLOK:  cpu time    0.16: real time    0.16
    SETDIJ:  cpu time    0.02: real time    0.02
    EDDIAG:  cpu time    0.18: real time    0.18
  RMM-DIIS:  cpu time    0.74: real time    0.74
    ORTHCH:  cpu time    0.01: real time    0.01
       DOS:  cpu time    0.00: real time    0.00
    CHARGE:  cpu time    0.11: real time    0.11
    MIXING:  cpu time    0.00: real time    0.00
    --------------------------------------------
      LOOP:  cpu time    1.22: real time    1.22

 eigenvalue-minimisations  :   168
 total energy-change (2. order) : 0.3078528E+01  (-0.4071919E+00)
 number of electron  119.0000041 magnetization 
 augmentation part    11.6706455 magnetization 

 Broyden mixing:
  rms(total) = 0.35019E+00    rms(broyden)= 0.35019E+00
  rms(prec ) = 0.60915E+00
  weight for this iteration     100.00

 eigenvalues of (default mixing * dielectric matrix)
  average eigenvalue GAMMA=   1.3773
  0.8233  1.9314

 Free energy of the ion-electron system (eV)
  ---------------------------------------------------
  alpha Z        PSCENC =       100.06042719
  Ewald energy   TEWEN  =     -3849.86428143
  -1/2 Hartree   DENC   =     -1255.20158934
  -exchange  EXHF       =         0.00000000
  -V(xc)+E(xc)   XCENC  =      -752.50380957
  PAW double counting   =      3143.54889543    -2125.24725379
  entropy T*S    EENTRO =        -0.00669502
  eigenvalues    EBANDS =       384.67425003
  atomic energy  EATOM  =      4245.03775698
  ---------------------------------------------------
  free energy    TOTEN  =      -109.50229953 eV

  energy without entropy =     -109.49560451  energy(sigma->0) =     -109.50006786


--------------------------------------------------------------------------------------------------------




----------------------------------------- Iteration    1(  15)  ---------------------------------------


    POTLOK:  cpu time    0.16: real time    0.16
    SETDIJ:  cpu time    0.02: real time    0.02
    EDDIAG:  cpu time    0.18: real time    0.18
  RMM-DIIS:  cpu time    0.78: real time    0.78
    ORTHCH:  cpu time    0.01: real time    0.01
       DOS:  cpu time    0.00: real time    0.00
    CHARGE:  cpu time    0.11: real time    0.11
    MIXING:  cpu time    0.00: real time    0.00
    --------------------------------------------
      LOOP:  cpu time    1.26: real time    1.26

 eigenvalue-minimisations  :   174
 total energy-change (2. order) : 0.2749197E+00  (-0.3300509E+00)
 number of electron  119.0000039 magnetization 
 augmentation part    11.1997354 magnetization 

 Broyden mixing:
  rms(total) = 0.21616E+00    rms(broyden)= 0.21611E+00
  rms(prec ) = 0.38361E+00
  weight for this iteration     100.00

 eigenvalues of (default mixing * dielectric matrix)
  average eigenvalue GAMMA=   1.2685
  2.3569  0.7242  0.7242

 Free energy of the ion-electron system (eV)
  ---------------------------------------------------
  alpha Z        PSCENC =       100.06042719
  Ewald energy   TEWEN  =     -3849.86428143
  -1/2 Hartree   DENC   =     -1276.05108555
  -exchange  EXHF       =         0.00000000
  -V(xc)+E(xc)   XCENC  =      -751.18732981
  PAW double counting   =      3235.49867815    -2219.28893726
  entropy T*S    EENTRO =         0.00844417
  eigenvalues    EBANDS =       406.55894770
  atomic energy  EATOM  =      4245.03775698
  ---------------------------------------------------
  free energy    TOTEN  =      -109.22737985 eV

  energy without entropy =     -109.23582402  energy(sigma->0) =     -109.23019457


--------------------------------------------------------------------------------------------------------




----------------------------------------- Iteration    1(  16)  ---------------------------------------


    POTLOK:  cpu time    0.16: real time    0.16
    SETDIJ:  cpu time    0.02: real time    0.02
    EDDIAG:  cpu time    0.18: real time    0.18
  RMM-DIIS:  cpu time    0.79: real time    0.79
    ORTHCH:  cpu time    0.01: real time    0.01
       DOS:  cpu time    0.00: real time    0.00
    CHARGE:  cpu time    0.11: real time    0.11
    MIXING:  cpu time    0.00: real time    0.00
    --------------------------------------------
      LOOP:  cpu time    1.27: real time    1.27

 eigenvalue-minimisations  :   172
 total energy-change (2. order) : 0.1023383E+00  (-0.1671771E-01)
 number of electron  119.0000039 magnetization 
 augmentation part    11.2172687 magnetization 

 Broyden mixing:
  rms(total) = 0.12280E+00    rms(broyden)= 0.12279E+00
  rms(prec ) = 0.23852E+00
  weight for this iteration     100.00

 eigenvalues of (default mixing * dielectric matrix)
  average eigenvalue GAMMA=   1.2123
  2.5731  0.8052  0.8052  0.6659

 Free energy of the ion-electron system (eV)
  ---------------------------------------------------
  alpha Z        PSCENC =       100.06042719
  Ewald energy   TEWEN  =     -3849.86428143
  -1/2 Hartree   DENC   =     -1272.93222165
  -exchange  EXHF       =         0.00000000
  -V(xc)+E(xc)   XCENC  =      -750.59164565
  PAW double counting   =      3259.33734943    -2244.47184420
  entropy T*S    EENTRO =         0.00236622
  eigenvalues    EBANDS =       404.29705158
  atomic energy  EATOM  =      4245.03775698
  ---------------------------------------------------
  free energy    TOTEN  =      -109.12504154 eV

  energy without entropy =     -109.12740776  energy(sigma->0) =     -109.12583028


--------------------------------------------------------------------------------------------------------




----------------------------------------- Iteration    1(  17)  ---------------------------------------


    POTLOK:  cpu time    0.16: real time    0.16
    SETDIJ:  cpu time    0.02: real time    0.02
    EDDIAG:  cpu time    0.18: real time    0.18
  RMM-DIIS:  cpu time    0.78: real time    0.78
    ORTHCH:  cpu time    0.01: real time    0.01
       DOS:  cpu time    0.00: real time    0.00
    CHARGE:  cpu time    0.11: real time    0.11
    MIXING:  cpu time    0.00: real time    0.00
    --------------------------------------------
      LOOP:  cpu time    1.26: real time    1.26

 eigenvalue-minimisations  :   170
 total energy-change (2. order) : 0.5035991E-01  (-0.9162314E-02)
 number of electron  119.0000040 magnetization 
 augmentation part    11.3009230 magnetization 

 Broyden mixing:
  rms(total) = 0.44076E-01    rms(broyden)= 0.44071E-01
  rms(prec ) = 0.90407E-01
  weight for this iteration     100.00

 eigenvalues of (default mixing * dielectric matrix)
  average eigenvalue GAMMA=   1.2213
  2.5947  1.0910  0.8195  0.8195  0.7821

 Free energy of the ion-electron system (eV)
  ---------------------------------------------------
  alpha Z        PSCENC =       100.06042719
  Ewald energy   TEWEN  =     -3849.86428143
  -1/2 Hartree   DENC   =     -1268.40830786
  -exchange  EXHF       =         0.00000000
  -V(xc)+E(xc)   XCENC  =      -750.42126553
  PAW double counting   =      3260.85155103    -2246.35531678
  entropy T*S    EENTRO =        -0.00007443
  eigenvalues    EBANDS =       400.02482921
  atomic energy  EATOM  =      4245.03775698
  ---------------------------------------------------
  free energy    TOTEN  =      -109.07468163 eV

  energy without entropy =     -109.07460720  energy(sigma->0) =     -109.07465682


--------------------------------------------------------------------------------------------------------




----------------------------------------- Iteration    1(  18)  ---------------------------------------


    POTLOK:  cpu time    0.16: real time    0.16
    SETDIJ:  cpu time    0.02: real time    0.02
    EDDIAG:  cpu time    0.18: real time    0.18
  RMM-DIIS:  cpu time    0.84: real time    0.84
    ORTHCH:  cpu time    0.01: real time    0.01
       DOS:  cpu time    0.00: real time    0.00
    CHARGE:  cpu time    0.11: real time    0.11
    MIXING:  cpu time    0.00: real time    0.00
    --------------------------------------------
      LOOP:  cpu time    1.32: real time    1.32

 eigenvalue-minimisations  :   182
 total energy-change (2. order) : 0.6242530E-02  (-0.4919181E-02)
 number of electron  119.0000040 magnetization 
 augmentation part    11.3563101 magnetization 

 Broyden mixing:
  rms(total) = 0.70017E-02    rms(broyden)= 0.69797E-02
  rms(prec ) = 0.10676E-01
  weight for this iteration     100.00

 eigenvalues of (default mixing * dielectric matrix)
  average eigenvalue GAMMA=   1.2761
  2.5910  1.8042  0.8724  0.8724  0.7584  0.7584

 Free energy of the ion-electron system (eV)
  ---------------------------------------------------
  alpha Z        PSCENC =       100.06042719
  Ewald energy   TEWEN  =     -3849.86428143
  -1/2 Hartree   DENC   =     -1266.14014354
  -exchange  EXHF       =         0.00000000
  -V(xc)+E(xc)   XCENC  =      -750.44284728
  PAW double counting   =      3255.98264875    -2241.40259729
  entropy T*S    EENTRO =        -0.00120953
  eigenvalues    EBANDS =       397.70180705
  atomic energy  EATOM  =      4245.03775698
  ---------------------------------------------------
  free energy    TOTEN  =      -109.06843910 eV

  energy without entropy =     -109.06722957  energy(sigma->0) =     -109.06803592


--------------------------------------------------------------------------------------------------------




----------------------------------------- Iteration    1(  19)  ---------------------------------------


    POTLOK:  cpu time    0.16: real time    0.16
    SETDIJ:  cpu time    0.02: real time    0.02
    EDDIAG:  cpu time    0.18: real time    0.18
  RMM-DIIS:  cpu time    0.86: real time    0.86
    ORTHCH:  cpu time    0.01: real time    0.01
       DOS:  cpu time    0.00: real time    0.00
    CHARGE:  cpu time    0.11: real time    0.11
    MIXING:  cpu time    0.00: real time    0.00
    --------------------------------------------
      LOOP:  cpu time    1.34: real time    1.34

 eigenvalue-minimisations  :   184
 total energy-change (2. order) :-0.6057451E-03  (-0.7385284E-03)
 number of electron  119.0000040 magnetization 
 augmentation part    11.3725993 magnetization 

 Broyden mixing:
  rms(total) = 0.10340E-01    rms(broyden)= 0.10337E-01
  rms(prec ) = 0.20412E-01
  weight for this iteration     100.00

 eigenvalues of (default mixing * dielectric matrix)
  average eigenvalue GAMMA=   1.2947
  2.6164  2.2694  0.8835  0.8835  0.8148  0.8148  0.7808

 Free energy of the ion-electron system (eV)
  ---------------------------------------------------
  alpha Z        PSCENC =       100.06042719
  Ewald energy   TEWEN  =     -3849.86428143
  -1/2 Hartree   DENC   =     -1265.79160315
  -exchange  EXHF       =         0.00000000
  -V(xc)+E(xc)   XCENC  =      -750.43378996
  PAW double counting   =      3254.75557770    -2240.07971871
  entropy T*S    EENTRO =        -0.00132985
  eigenvalues    EBANDS =       397.24791639
  atomic energy  EATOM  =      4245.03775698
  ---------------------------------------------------
  free energy    TOTEN  =      -109.06904484 eV

  energy without entropy =     -109.06771500  energy(sigma->0) =     -109.06860156


--------------------------------------------------------------------------------------------------------




----------------------------------------- Iteration    1(  20)  ---------------------------------------


    POTLOK:  cpu time    0.16: real time    0.16
    SETDIJ:  cpu time    0.02: real time    0.02
    EDDIAG:  cpu time    0.18: real time    0.18
  RMM-DIIS:  cpu time    0.73: real time    0.73
    ORTHCH:  cpu time    0.01: real time    0.01
       DOS:  cpu time    0.00: real time    0.00
    CHARGE:  cpu time    0.11: real time    0.11
    MIXING:  cpu time    0.00: real time    0.00
    --------------------------------------------
      LOOP:  cpu time    1.21: real time    1.21

 eigenvalue-minimisations  :   161
 total energy-change (2. order) : 0.3950879E-03  (-0.1523465E-03)
 number of electron  119.0000040 magnetization 
 augmentation part    11.3611161 magnetization 

 Broyden mixing:
  rms(total) = 0.13181E-02    rms(broyden)= 0.13162E-02
  rms(prec ) = 0.21892E-02
  weight for this iteration     100.00

 eigenvalues of (default mixing * dielectric matrix)
  average eigenvalue GAMMA=   1.2845
  2.6545  2.3256  1.1955  0.8743  0.8743  0.8237  0.7640  0.7640

 Free energy of the ion-electron system (eV)
  ---------------------------------------------------
  alpha Z        PSCENC =       100.06042719
  Ewald energy   TEWEN  =     -3849.86428143
  -1/2 Hartree   DENC   =     -1266.47082999
  -exchange  EXHF       =         0.00000000
  -V(xc)+E(xc)   XCENC  =      -750.40938509
  PAW double counting   =      3256.06505280    -2241.35520349
  entropy T*S    EENTRO =        -0.00093293
  eigenvalues    EBANDS =       397.86874622
  atomic energy  EATOM  =      4245.03775698
  ---------------------------------------------------
  free energy    TOTEN  =      -109.06864976 eV

  energy without entropy =     -109.06771682  energy(sigma->0) =     -109.06833878


--------------------------------------------------------------------------------------------------------




----------------------------------------- Iteration    1(  21)  ---------------------------------------


    POTLOK:  cpu time    0.16: real time    0.16
    SETDIJ:  cpu time    0.02: real time    0.02
    EDDIAG:  cpu time    0.18: real time    0.18
  RMM-DIIS:  cpu time    0.55: real time    0.55
    ORTHCH:  cpu time    0.01: real time    0.01
       DOS:  cpu time    0.00: real time    0.00
    --------------------------------------------
      LOOP:  cpu time    0.92: real time    0.92

 eigenvalue-minimisations  :   111
 total energy-change (2. order) :-0.1194659E-04  (-0.1077017E-04)
 number of electron  119.0000040 magnetization 
 augmentation part    11.3611161 magnetization 

 Free energy of the ion-electron system (eV)
  ---------------------------------------------------
  alpha Z        PSCENC =       100.06042719
  Ewald energy   TEWEN  =     -3849.86428143
  -1/2 Hartree   DENC   =     -1266.52362635
  -exchange  EXHF       =         0.00000000
  -V(xc)+E(xc)   XCENC  =      -750.40361658
  PAW double counting   =      3256.00938210    -2241.28000811
  entropy T*S    EENTRO =        -0.00092569
  eigenvalues    EBANDS =       397.89623020
  atomic energy  EATOM  =      4245.03775698
  ---------------------------------------------------
  free energy    TOTEN  =      -109.06866170 eV

  energy without entropy =     -109.06773601  energy(sigma->0) =     -109.06835314


--------------------------------------------------------------------------------------------------------




 average (electrostatic) potential at core
  the test charge radii are     1.0406  1.2059  1.2098  1.1249
  (the norm of the test charge is              1.0000)
       1 -73.0830       2 -73.1234       3 -73.0961       4 -72.7803       5 -72.7379
       6 -72.7175       7 -72.8840       8 -72.7833       9 -72.7545      10 -72.8527
      11 -72.9413      12 -72.7428      13 -72.9574      14 -73.0582      15 -72.7502
      16 -72.6836      17 -72.8774      18 -72.9227      19 -72.9648      20 -72.6744
      21 -73.0377      22 -72.7166      23 -72.9531      24 -72.9311      25 -73.0355
      26 -72.6909      27 -72.6509      28 -72.6259      29 -73.1898      30 -49.3863
      31 -44.9202      32 -38.3250
 
 
 
 E-fermi :   7.9132     XC(G=0): -10.4264     alpha+bet :-14.4403
   add alpha+bet to get absolut eigen values

 k-point   1 :       0.0000    0.0000    0.0000
  band No.  band energies     occupation 
      1      -3.2072      2.00000
      2      -1.0647      2.00000
      3      -1.0551      2.00000
      4      -1.0452      2.00000
      5      -0.9537      2.00000
      6      -0.8625      2.00000
      7      -0.6855      2.00000
      8       0.6734      2.00000
      9       0.7945      2.00000
     10       0.8143      2.00000
     11       0.8549      2.00000
     12       0.9525      2.00000
     13       0.9752      2.00000
     14       1.0495      2.00000
     15       1.0714      2.00000
     16       1.1516      2.00000
     17       1.2462      2.00000
     18       1.3854      2.00000
     19       1.4636      2.00000
     20       1.7060      2.00000
     21       1.7673      2.00000
     22       1.8326      2.00000
     23       1.9509      2.00000
     24       1.9682      2.00000
     25       2.1708      2.00000
     26       2.1744      2.00000
     27       2.4854      2.00000
     28       2.6402      2.00000
     29       2.7401      2.00000
     30       3.3585      2.00000
     31       3.3965      2.00000
     32       3.4424      2.00000
     33       3.4511      2.00000
     34       3.5729      2.00000
     35       3.6476      2.00000
     36       3.8159      2.00000
     37       4.1633      2.00000
     38       4.2716      2.00000
     39       4.3830      2.00000
     40       4.6936      2.00000
     41       4.9077      2.00000
     42       4.9630      2.00000
     43       5.1594      2.00000
     44       5.1670      2.00000
     45       5.2277      2.00000
     46       6.7776      2.00000
     47       6.8423      2.00000
     48       6.9311      2.00000
     49       6.9670      2.00000
     50       7.1273      2.00000
     51       7.1735      2.00000
     52       7.3035      2.00014
     53       7.3818      2.00112
     54       7.4676      2.00715
     55       7.4803      2.00907
     56       7.6612      2.07055
     57       7.6871      2.06781
     58       7.7906      1.85156
     59       7.8268      1.66066
     60       7.8646      1.39764
     61       8.2352     -0.04519
     62       8.3002     -0.01962
     63       8.4537     -0.00089
     64       8.7227      0.00000
     65       8.8163      0.00000
     66       8.8968      0.00000
     67       9.0935      0.00000
     68       9.1271      0.00000
     69       9.2147      0.00000
     70       9.2887      0.00000
     71       9.3031      0.00000
     72       9.3489      0.00000
     73       9.3862      0.00000
     74       9.4437      0.00000
     75       9.4583      0.00000
     76       9.6050      0.00000
     77       9.6178      0.00000
     78       9.6442      0.00000
     79       9.7925      0.00000
     80       9.9494      0.00000
     81      10.0895      0.00000
     82      10.4067      0.00000
     83      10.5033      0.00000
     84      10.9553      0.00000


--------------------------------------------------------------------------------------------------------


 soft charge-density along one line, spin component           1
         0         1         2         3         4         5         6         7         8         9
 total charge-density along one line
 
 pseudopotential strength for first ion, spin component:           1
  8.457  -0.005   0.000  -0.001   0.001   0.000   0.000   0.000
 -0.005   0.000   0.000   0.000   0.000   0.000   0.000   0.000
  0.000   0.000   1.986   0.000   0.000  -0.025   0.000   0.000
 -0.001   0.000   0.000   1.986   0.000   0.000  -0.025   0.000
  0.001   0.000   0.000   0.000   1.986   0.000   0.000  -0.025
  0.000   0.000  -0.025   0.000   0.000  -0.012   0.000   0.000
  0.000   0.000   0.000  -0.025   0.000   0.000  -0.012   0.000
  0.000   0.000   0.000   0.000  -0.025   0.000   0.000  -0.012
 total augmentation occupancy for first ion, spin component:           1
  1.171  -0.551   0.024   0.004  -0.032  -0.005  -0.003   0.008
 -0.551   0.473   0.013   0.001  -0.019  -0.003  -0.001   0.005
  0.024   0.013   0.809  -0.012   0.000  -0.184   0.002   0.005
  0.004   0.001  -0.012   0.792   0.011   0.002  -0.177   0.001
 -0.032  -0.019   0.000   0.011   0.769   0.005   0.001  -0.182
 -0.005  -0.003  -0.184   0.002   0.005   0.050   0.000  -0.002
 -0.003  -0.001   0.002  -0.177   0.001   0.000   0.048  -0.001
  0.008   0.005   0.005   0.001  -0.182  -0.002  -0.001   0.051


------------------------ aborting loop because EDIFF is reached ----------------------------------------




--------------------------------------------------------------------------------------------------------



  FREE ENERGIE OF THE ION-ELECTRON SYSTEM (eV)
  ---------------------------------------------------
  free  energy   TOTEN  =      -109.068662 eV

  energy  without entropy=     -109.067736  energy(sigma->0) =     -109.068353
 
    CHARGE:  cpu time    0.10: real time    0.10
    FORLOC:  cpu time    0.04: real time    0.04
    FORNL :  cpu time    0.32: real time    0.32
    STRESS:  cpu time    0.73: real time    0.73
    FORCOR:  cpu time    0.19: real time    0.19
    FORHAR:  cpu time    0.08: real time    0.08
    MIXING:  cpu time    0.01: real time    0.01

  FORCE on cell =-STRESS in cart. coord.  units (eV):
  Direction    XX          YY          ZZ          XY          YZ          ZX
  --------------------------------------------------------------------------------------
  Alpha Z   100.06043   100.06043   100.06043
  Ewald   -1275.26486 -1299.34946 -1275.26486   104.62735  -104.62735   119.57411
  Hartree   427.51532   407.34809   431.31420    85.47312   -88.64691   100.43445
  E(xc)    -399.67450  -399.73249  -399.66192    -0.09134     0.08771    -0.07617
  Local    -214.31078  -171.49497  -217.50433  -193.04476   196.08602  -222.18832
  n-local   378.47611   379.02712   378.17822     1.40275    -1.27844     1.00166
  augment    99.63055    99.85167    99.62132     0.12743    -0.11079     0.01474
  Kinetic   877.59500   880.59460   875.35163     3.05840    -2.78988     2.06018
  Fock        0.00000     0.00000     0.00000     0.00000     0.00000     0.00000
  -------------------------------------------------------------------------------------
  Total      -5.97273    -3.69501    -7.90531     1.55295    -1.27963     0.82064
  in kB     -18.09316   -11.19329   -23.94752     4.70435    -3.87639     2.48597
  external pressure =      -17.74 kB  Pullay stress =        0.00 kB


 VOLUME and BASIS-vectors are now :
 -----------------------------------------------------------------------------
  energy-cutoff  :      300.00
  volume of cell :      528.89
      direct lattice vectors                 reciprocal lattice vectors
     8.087040000  0.000000000  0.000000000     0.123654638  0.000000000  0.000000000
     0.000000000  8.087040000  0.000000000     0.000000000  0.123654638  0.000000000
     0.000000000  0.000000000  8.087040000     0.000000000  0.000000000  0.123654638

  length of vectors
     8.087040000  8.087040000  8.087040000     0.123654638  0.123654638  0.123654638


 FORCES acting on ions
    electron-ion (+dipol)            ewald-force                    non-local-force                 convergence-correction
 -----------------------------------------------------------------------------------------------
   0.460E+02 -.213E+02 -.246E+02   -.468E+02 0.218E+02 0.250E+02   0.871E+00 -.669E+00 -.229E+00   0.626E-02 -.431E-02 -.189E-02
   0.244E+02 -.214E+02 -.458E+02   -.250E+02 0.218E+02 0.468E+02   0.467E+00 -.657E+00 -.108E+01   0.311E-02 -.442E-02 -.741E-02
   0.243E+02 -.489E+02 -.245E+02   -.250E+02 0.499E+02 0.250E+02   0.558E+00 -.809E+00 -.304E+00   0.293E-02 -.724E-02 -.193E-02
   0.955E+01 -.104E+02 -.938E+01   -.106E+02 0.113E+02 0.106E+02   0.579E+00 -.524E+00 -.718E+00   0.166E-02 -.366E-02 -.215E-02
   -.243E+02 -.450E+01 -.286E+02   0.250E+02 0.493E+01 0.299E+02   -.456E+00 -.222E+00 -.914E+00   -.316E-02 -.142E-02 -.452E-02
   -.245E+02 -.297E+02 -.545E+01   0.250E+02 0.306E+02 0.564E+01   -.434E+00 -.640E+00 -.624E-01   -.264E-02 -.505E-02 0.461E-04
   -.975E+01 -.298E+02 -.288E+02   0.106E+02 0.306E+02 0.299E+02   -.376E+00 -.521E+00 -.741E+00   -.163E-02 -.527E-02 -.406E-02
   0.268E+02 0.215E+02 -.546E+01   -.275E+02 -.218E+02 0.564E+01   0.740E+00 0.542E+00 -.537E-01   0.409E-02 0.397E-02 -.645E-03
   0.534E+01 0.214E+02 -.265E+02   -.564E+01 -.218E+02 0.275E+02   0.129E+00 0.591E+00 -.921E+00   0.154E-02 0.425E-02 -.451E-02
   0.268E+02 0.105E+02 -.266E+02   -.275E+02 -.113E+02 0.275E+02   0.636E+00 0.330E+00 -.776E+00   0.459E-02 0.384E-02 -.511E-02
   -.265E+02 0.213E+02 -.523E+01   0.275E+02 -.218E+02 0.564E+01   -.101E+01 0.675E+00 -.160E+00   -.442E-02 0.454E-02 -.362E-03
   -.507E+01 0.424E+01 -.958E+01   0.564E+01 -.493E+01 0.106E+02   -.357E+00 0.444E+00 -.683E+00   -.165E-02 0.140E-02 -.171E-02
   -.243E+02 0.294E+02 -.515E+01   0.250E+02 -.306E+02 0.564E+01   -.571E+00 0.927E+00 -.217E+00   -.320E-02 0.544E-02 -.469E-03
   -.268E+02 0.298E+02 -.460E+02   0.275E+02 -.306E+02 0.468E+02   -.679E+00 0.539E+00 -.906E+00   -.454E-02 0.528E-02 -.700E-02
   0.289E+02 -.444E+01 0.246E+02   -.299E+02 0.493E+01 -.250E+02   0.625E+00 -.282E+00 0.175E+00   0.353E-02 -.120E-02 0.190E-02
   0.528E+01 -.298E+02 0.247E+02   -.564E+01 0.306E+02 -.250E+02   0.203E+00 -.512E+00 0.166E+00   0.836E-03 -.449E-02 0.178E-02
   0.290E+02 -.298E+02 0.965E+01   -.299E+02 0.306E+02 -.106E+02   0.481E+00 -.414E+00 0.453E+00   0.357E-02 -.497E-02 0.223E-02
   -.287E+02 -.415E+01 0.245E+02   0.299E+02 0.493E+01 -.250E+02   -.799E+00 -.407E+00 0.262E+00   -.355E-02 -.171E-02 0.136E-02
   -.243E+02 -.421E+01 0.286E+02   0.250E+02 0.493E+01 -.299E+02   -.502E+00 -.378E+00 0.998E+00   -.254E-02 -.195E-02 0.460E-02
   -.503E+01 -.103E+02 0.524E+01   0.564E+01 0.113E+02 -.564E+01   -.430E+00 -.676E+00 0.276E+00   -.929E-03 -.256E-02 -.145E-03
   -.290E+02 -.490E+02 0.288E+02   0.299E+02 0.499E+02 -.299E+02   -.503E+00 -.578E+00 0.728E+00   -.364E-02 -.639E-02 0.413E-02
   0.956E+01 0.417E+01 0.525E+01   -.106E+02 -.493E+01 -.564E+01   0.659E+00 0.498E+00 0.240E+00   0.146E-02 0.124E-02 0.643E-03
   0.510E+01 0.213E+02 0.264E+02   -.564E+01 -.218E+02 -.275E+02   0.260E+00 0.651E+00 0.106E+01   0.124E-02 0.428E-02 0.480E-02
   0.500E+01 0.295E+02 0.245E+02   -.564E+01 -.306E+02 -.250E+02   0.336E+00 0.788E+00 0.312E+00   0.133E-02 0.478E-02 0.188E-02
   0.462E+02 0.298E+02 0.267E+02   -.468E+02 -.306E+02 -.275E+02   0.664E+00 0.411E+00 0.752E+00   0.598E-02 0.502E-02 0.508E-02
   -.978E+01 0.400E+01 0.525E+01   0.106E+02 -.493E+01 -.564E+01   -.389E+00 0.509E+00 0.180E+00   -.141E-02 0.156E-02 -.116E-03
[...]

 Broyden mixing:
  rms(total) = 0.66463E-02    rms(broyden)= 0.66412E-02
  rms(prec ) = 0.94702E-02
  weight for this iteration     100.00

 eigenvalues of (default mixing * dielectric matrix)
  average eigenvalue GAMMA=   1.1819
  2.2541  0.8828  0.8828  1.1069  0.7832

 Free energy of the ion-electron system (eV)
  ---------------------------------------------------
  alpha Z        PSCENC =       100.06042719
  Ewald energy   TEWEN  =     -3988.36456543
  -1/2 Hartree   DENC   =     -1129.26425139
  -exchange  EXHF       =         0.00000000
  -V(xc)+E(xc)   XCENC  =      -750.26498730
  PAW double counting   =      3246.31783102    -2231.08743370
  entropy T*S    EENTRO =         0.02110400
  eigenvalues    EBANDS =       397.75530618
  atomic energy  EATOM  =      4245.03775698
  ---------------------------------------------------
  free energy    TOTEN  =      -109.78881245 eV

  energy without entropy =     -109.80991645  energy(sigma->0) =     -109.79584712


--------------------------------------------------------------------------------------------------------




----------------------------------------- Iteration    7(   7)  ---------------------------------------


    POTLOK:  cpu time    0.16: real time    0.16
    SETDIJ:  cpu time    0.02: real time    0.02
    EDDIAG:  cpu time    0.18: real time    0.18
  RMM-DIIS:  cpu time    0.57: real time    0.57
    ORTHCH:  cpu time    0.01: real time    0.01
       DOS:  cpu time    0.00: real time    0.00
    --------------------------------------------
      LOOP:  cpu time    0.94: real time    0.94

 eigenvalue-minimisations  :   118
 total energy-change (2. order) : 0.2239238E-04  (-0.3963680E-04)
 number of electron  119.0000000 magnetization 
 augmentation part    11.3612360 magnetization 

 Free energy of the ion-electron system (eV)
  ---------------------------------------------------
  alpha Z        PSCENC =       100.06042719
  Ewald energy   TEWEN  =     -3988.36456543
  -1/2 Hartree   DENC   =     -1129.18826308
  -exchange  EXHF       =         0.00000000
  -V(xc)+E(xc)   XCENC  =      -750.26505025
  PAW double counting   =      3246.01229034    -2230.78311303
  entropy T*S    EENTRO =         0.02088920
  eigenvalues    EBANDS =       397.68083802
  atomic energy  EATOM  =      4245.03775698
  ---------------------------------------------------
  free energy    TOTEN  =      -109.78879006 eV

  energy without entropy =     -109.80967926  energy(sigma->0) =     -109.79575313


--------------------------------------------------------------------------------------------------------




 average (electrostatic) potential at core
  the test charge radii are     1.0406  1.2059  1.2098  1.1249
  (the norm of the test charge is              1.0000)
       1 -73.1405       2 -73.1724       3 -73.2378       4 -72.5380       5 -72.6526
       6 -72.7258       7 -72.8996       8 -72.6838       9 -72.6736      10 -72.7444
      11 -73.0211      12 -72.4699      13 -73.0117      14 -73.0840      15 -72.7172
      16 -72.7156      17 -72.8411      18 -73.0760      19 -73.0762      20 -72.4894
      21 -73.1137      22 -72.4862      23 -73.0080      24 -72.9964      25 -73.0385
      26 -72.6422      27 -72.5153      28 -72.6009      29 -73.3036      30 -49.5787
      31 -44.7722      32 -38.1183
 
 
 
 E-fermi :   7.9123     XC(G=0): -10.4180     alpha+bet :-14.4403
   add alpha+bet to get absolut eigen values

 k-point   1 :       0.0000    0.0000    0.0000
  band No.  band energies     occupation 
      1      -3.2420      2.00000
      2      -1.1124      2.00000
      3      -1.0736      2.00000
      4      -1.0188      2.00000
      5      -0.9877      2.00000
      6      -0.9786      2.00000
      7      -0.7017      2.00000
      8       0.8198      2.00000
      9       0.8317      2.00000
     10       0.9412      2.00000
     11       0.9638      2.00000
     12       0.9979      2.00000
     13       1.0261      2.00000
     14       1.0559      2.00000
     15       1.0684      2.00000
     16       1.1672      2.00000
     17       1.3047      2.00000
     18       1.4500      2.00000
     19       1.7758      2.00000
     20       1.8341      2.00000
     21       1.9317      2.00000
     22       1.9971      2.00000
     23       2.0640      2.00000
     24       2.1012      2.00000
     25       2.3250      2.00000
     26       2.4097      2.00000
     27       2.5731      2.00000
     28       2.7393      2.00000
     29       2.8375      2.00000
     30       3.2728      2.00000
     31       3.3792      2.00000
     32       3.4204      2.00000
     33       3.4303      2.00000
     34       3.5377      2.00000
     35       3.6213      2.00000
     36       3.6705      2.00000
     37       3.9008      2.00000
     38       3.9810      2.00000
     39       4.3285      2.00000
     40       4.6690      2.00000
     41       4.7667      2.00000
     42       4.9541      2.00000
     43       5.1511      2.00000
     44       5.1785      2.00000
     45       5.2216      2.00000
     46       6.6522      2.00000
     47       6.7157      2.00000
     48       6.8174      2.00000
     49       7.0075      2.00000
     50       7.1354      2.00000
     51       7.1861      2.00000
     52       7.2396      2.00002
     53       7.3793      2.00107
     54       7.3948      2.00155
     55       7.4508      2.00524
     56       7.4909      2.01113
     57       7.5186      2.01767
     58       7.5734      2.03756
     59       7.7727      1.91837
     60       7.8973      1.12703
     61       8.1853     -0.06596
     62       8.2217     -0.05104
     63       8.4064     -0.00264
     64       8.6900      0.00000
     65       8.7100      0.00000
     66       8.9004      0.00000
     67       9.0447      0.00000
     68       9.1372      0.00000
     69       9.2303      0.00000
     70       9.2565      0.00000
     71       9.2886      0.00000
     72       9.3682      0.00000
     73       9.4263      0.00000
     74       9.4407      0.00000
     75       9.5270      0.00000
     76       9.5725      0.00000
     77       9.6203      0.00000
     78       9.7480      0.00000
     79       9.7597      0.00000
     80      10.0253      0.00000
     81      10.0469      0.00000
     82      10.2420      0.00000
     83      10.3473      0.00000
     84      10.4573      0.00000


--------------------------------------------------------------------------------------------------------


 soft charge-density along one line, spin component           1
         0         1         2         3         4         5         6         7         8         9
 total charge-density along one line
 
 pseudopotential strength for first ion, spin component:           1
  8.458  -0.005   0.000   0.000   0.001   0.000   0.000   0.000
 -0.005   0.000   0.000   0.000   0.000   0.000   0.000   0.000
  0.000   0.000   1.985   0.000   0.000  -0.025   0.000   0.000
  0.000   0.000   0.000   1.985   0.000   0.000  -0.025   0.000
  0.001   0.000   0.000   0.000   1.986   0.000   0.000  -0.025
  0.000   0.000  -0.025   0.000   0.000  -0.012   0.000   0.000
  0.000   0.000   0.000  -0.025   0.000   0.000  -0.012   0.000
  0.000   0.000   0.000   0.000  -0.025   0.000   0.000  -0.012
 total augmentation occupancy for first ion, spin component:           1
  1.180  -0.533   0.020   0.010  -0.033   0.004   0.001   0.014
 -0.533   0.443   0.026   0.004  -0.010  -0.011  -0.001  -0.002
  0.020   0.026   0.805   0.009   0.002  -0.178  -0.001   0.004
  0.010   0.004   0.009   0.801  -0.013  -0.001  -0.173   0.001
 -0.033  -0.010   0.002  -0.013   0.719   0.004   0.001  -0.172
  0.004  -0.011  -0.178  -0.001   0.004   0.048   0.000  -0.001
  0.001  -0.001  -0.001  -0.173   0.001   0.000   0.046   0.000
  0.014  -0.002   0.004   0.001  -0.172  -0.001   0.000   0.048


------------------------ aborting loop because EDIFF is reached ----------------------------------------




--------------------------------------------------------------------------------------------------------



  FREE ENERGIE OF THE ION-ELECTRON SYSTEM (eV)
  ---------------------------------------------------
  free  energy   TOTEN  =      -109.788790 eV

  energy  without entropy=     -109.809679  energy(sigma->0) =     -109.795753
 
    CHARGE:  cpu time    0.10: real time    0.10
    FORLOC:  cpu time    0.04: real time    0.04
    FORNL :  cpu time    0.32: real time    0.32
    STRESS:  cpu time    0.74: real time    0.74
    FORCOR:  cpu time    0.19: real time    0.19
    FORHAR:  cpu time    0.08: real time    0.08
    MIXING:  cpu time    0.00: real time    0.01

  FORCE on cell =-STRESS in cart. coord.  units (eV):
  Direction    XX          YY          ZZ          XY          YZ          ZX
  --------------------------------------------------------------------------------------
  Alpha Z   100.06043   100.06043   100.06043
  Ewald   -1317.77840 -1346.00396 -1324.59593    85.10093   -75.94158    89.26764
  Hartree   384.59695   365.30594   379.72028    75.31364   -70.33047    79.56254
  E(xc)    -400.22240  -400.43581  -400.22585    -0.21938     0.16560    -0.00427
  Local    -128.77313   -84.82818  -117.99651  -163.19222   148.54903  -168.89351
  n-local   379.68474   381.32498   379.61003     1.90903    -1.34760    -0.49916
  augment    99.56707    99.74585    99.54693     0.11207    -0.20282     0.33251
  Kinetic   877.19011   882.66003   878.64798     2.57880    -1.96799     0.92634
  Fock        0.00000     0.00000     0.00000     0.00000     0.00000     0.00000
  -------------------------------------------------------------------------------------
  Total      -5.67463    -2.17072    -5.23264     1.60287    -1.07584     0.69210
  in kB     -17.19014    -6.57575   -15.85123     4.85557    -3.25904     2.09656
  external pressure =      -13.21 kB  Pullay stress =        0.00 kB


 VOLUME and BASIS-vectors are now :
 -----------------------------------------------------------------------------
  energy-cutoff  :      300.00
  volume of cell :      528.89
      direct lattice vectors                 reciprocal lattice vectors
     8.087040000  0.000000000  0.000000000     0.123654638  0.000000000  0.000000000
     0.000000000  8.087040000  0.000000000     0.000000000  0.123654638  0.000000000
     0.000000000  0.000000000  8.087040000     0.000000000  0.000000000  0.123654638

  length of vectors
     8.087040000  8.087040000  8.087040000     0.123654638  0.123654638  0.123654638


 FORCES acting on ions
    electron-ion (+dipol)            ewald-force                    non-local-force                 convergence-correction
 -----------------------------------------------------------------------------------------------
   0.367E+02 -.230E+02 -.195E+02   -.378E+02 0.229E+02 0.195E+02   0.129E+01 -.482E-01 -.104E+00   -.155E-01 0.438E-02 -.487E-03
   0.210E+02 -.224E+02 -.393E+02   -.207E+02 0.218E+02 0.405E+02   -.317E+00 0.492E+00 -.135E+01   0.129E-02 0.500E-02 0.159E-01
   0.184E+02 -.338E+02 -.175E+02   -.201E+02 0.346E+02 0.187E+02   0.173E+01 -.923E+00 -.129E+01   -.131E-02 0.782E-03 0.207E-02
   0.275E+01 -.176E+01 -.356E+01   -.476E+01 0.356E+01 0.583E+01   0.182E+01 -.150E+01 -.208E+01   -.444E-02 -.976E-03 0.457E-02
   -.185E+02 0.846E+00 -.253E+02   0.199E+02 0.499E+00 0.271E+02   -.132E+01 -.140E+01 -.171E+01   0.105E-02 -.278E-02 0.583E-02
   -.198E+02 -.228E+02 0.173E+01   0.207E+02 0.244E+02 -.361E+00   -.997E+00 -.175E+01 -.147E+01   0.141E-02 -.146E-02 0.114E-02
   -.341E+01 -.245E+02 -.255E+02   0.507E+01 0.258E+02 0.271E+02   -.154E+01 -.108E+01 -.156E+01   0.373E-02 -.184E-02 0.607E-02
   0.282E+02 0.270E+02 0.182E+01   -.295E+02 -.271E+02 -.939E+00   0.141E+01 0.121E+00 -.955E+00   -.146E-01 -.538E-02 0.259E-02
   -.265E+01 0.248E+02 -.285E+02   0.186E+01 -.253E+02 0.299E+02   0.830E+00 0.476E+00 -.151E+01   -.113E-02 -.574E-02 0.142E-01
   0.305E+02 0.225E+01 -.320E+02   -.310E+02 -.333E+01 0.327E+02   0.312E+00 0.107E+01 -.434E+00   -.144E-01 0.565E-03 0.135E-01
   -.243E+02 0.163E+02 -.367E+00   0.255E+02 -.165E+02 0.626E+00   -.129E+01 0.324E+00 -.245E+00   0.124E-01 -.661E-02 0.796E-03
   0.138E+01 -.893E+00 -.104E+02   -.168E+00 -.674E+00 0.105E+02   -.996E+00 0.144E+01 0.380E+00   0.207E-02 0.344E-02 0.437E-02
   -.122E+02 0.218E+02 -.731E+00   0.126E+02 -.237E+02 0.165E+01   -.537E+00 0.199E+01 -.829E+00   0.535E-02 0.148E-02 0.415E-03
   -.259E+02 0.238E+02 -.371E+02   0.258E+02 -.242E+02 0.385E+02   0.578E-01 0.359E+00 -.161E+01   0.103E-01 0.235E-02 0.158E-01
   0.232E+02 0.848E+00 0.175E+02   -.246E+02 0.929E+00 -.185E+02   0.135E+01 -.185E+01 0.107E+01   -.536E-02 -.272E-02 -.128E-02
   -.218E+01 -.212E+02 0.171E+02   0.393E+00 0.226E+02 -.180E+02   0.185E+01 -.144E+01 0.945E+00   0.211E-03 -.181E-02 -.172E-02
   0.209E+02 -.200E+02 0.344E+01   -.224E+02 0.217E+02 -.553E+01   0.160E+01 -.160E+01 0.206E+01   -.456E-02 -.275E-02 -.382E-02
   -.241E+02 -.200E+01 0.103E+02   0.250E+02 0.263E+01 -.118E+02   -.652E+00 -.441E+00 0.168E+01   0.382E-02 -.320E-02 -.331E-02
   -.117E+02 -.201E+01 0.262E+02   0.134E+02 0.224E+01 -.270E+02   -.184E+01 -.864E-01 0.628E+00   0.290E-02 -.368E-02 -.419E-02
   0.183E+01 -.464E+01 0.364E+00   -.525E+00 0.584E+01 -.100E+01   -.134E+01 -.105E+01 0.468E+00   -.371E-03 -.293E-02 -.173E-02
   -.193E+02 -.308E+02 0.219E+02   0.207E+02 0.332E+02 -.234E+02   -.138E+01 -.256E+01 0.147E+01   0.432E-02 -.146E-03 -.530E-02
   0.777E+01 -.112E+01 0.139E+01   -.838E+01 -.583E+00 -.175E+01   0.282E+00 0.167E+01 0.790E-01   -.377E-02 0.368E-02 -.261E-02
   -.580E+00 0.181E+02 0.263E+02   0.401E+00 -.184E+02 -.272E+02   0.137E+00 0.440E+00 0.104E+01   0.247E-03 -.615E-02 -.136E-01
   0.267E+00 0.214E+02 0.130E+02   -.157E+01 -.233E+02 -.134E+02   0.113E+01 0.180E+01 0.594E+00   0.661E-03 0.115E-02 -.414E-02
   0.362E+02 0.209E+02 0.271E+02   -.377E+02 -.216E+02 -.274E+02   0.174E+01 0.811E+00 0.306E+00   -.151E-01 0.260E-02 -.106E-01
   -.390E+01 0.143E+01 -.458E+00   0.583E+01 -.223E+01 -.455E+00   -.184E+01 0.592E+00 0.759E+00   0.323E-02 0.298E-02 -.132E-02
   0.275E+01 0.520E+00 0.482E+01   -.131E+01 -.160E+01 -.669E+01   -.136E+01 0.920E+00 0.181E+01   0.361E-03 0.361E-02 -.364E-02
   -.558E+00 0.199E+01 0.111E+01   0.118E+01 -.411E+01 -.161E+01   -.405E+00 0.215E+01 0.298E+00   0.720E-03 0.269E-02 -.145E-02
   -.370E+02 0.384E+02 0.358E+02   0.375E+02 -.394E+02 -.364E+02   -.550E+00 0.105E+01 0.660E+00   0.123E-01 0.419E-03 -.129E-01
   0.343E+02 0.908E+02 -.402E+02   -.351E+02 -.917E+02 0.407E+02   0.728E+00 0.821E+00 -.429E+00   -.193E-01 -.411E-02 0.224E-01
   -.116E+03 -.476E+02 -.549E+02   0.116E+03 0.480E+02 0.549E+02   -.384E+00 -.362E+00 -.513E-01   0.458E-01 0.148E-01 0.738E-02
   0.563E+02 -.528E+02 0.126E+03   -.565E+02 0.530E+02 -.127E+03   0.300E+00 -.277E+00 0.419E+00   -.855E-02 0.269E-01 -.581E-01
 -----------------------------------------------------------------------------------------------
   0.170E+00 -.193E+00 0.969E+00   0.568E-13 0.142E-13 0.995E-13   -.175E+00 0.156E+00 -.948E+00   0.370E-02 0.246E-01 -.134E-01
 
 
 POSITION                                       TOTAL-FORCE (eV/Angst)
 -----------------------------------------------------------------------------------
     -0.02142     -0.04546     -0.00191         0.126121     -0.156019     -0.071897
      2.06456     -0.07746      2.02554        -0.033491     -0.105365     -0.114766
      1.94669      2.04805      0.06311         0.056460     -0.098356     -0.076696
     -0.05856      2.08150      2.07891        -0.196125      0.298449      0.191914
      6.14260      0.05160      2.05820         0.005823     -0.056406      0.031523
      6.11514      2.08948      0.05950        -0.123765     -0.098402     -0.108768
      4.12148      2.07433      2.06859         0.122402      0.169091      0.056049
     -0.07043      4.02123      0.04251         0.073632      0.003073     -0.068356
      1.98721      4.00878      2.07883         0.036661     -0.020319     -0.084656
     -0.03249      6.02399      2.05043        -0.279103     -0.008781      0.247739
      4.04699      4.05284      0.01177        -0.129023      0.050140      0.015646
      6.09853      4.00590      1.97025         0.215000     -0.121078      0.487267
      6.07642      6.00482      0.04079        -0.156934      0.062997      0.093810
      4.01867      6.05916      2.05792         0.014182     -0.009668     -0.185240
     -0.02762      0.07322      3.97460        -0.009808     -0.070509      0.046547
      1.95177      2.07546      3.98305         0.064344     -0.082026      0.119173
     -0.05280      2.09101      5.97530         0.017467      0.046311     -0.029005
      4.07669      0.03258      3.94998         0.258405      0.188721      0.184931
      6.15319      0.01046      6.05453        -0.121536      0.146246     -0.191903
      6.12600      2.06504      4.01408        -0.033417      0.140039     -0.173719
      4.12260      2.18584      5.98847         0.039130     -0.119587     -0.004642
      0.01683      3.99913      4.03605        -0.327741     -0.034161     -0.289132
      2.02196      4.04127      6.06802        -0.041071      0.069517      0.047860
      1.96696      5.99423      4.01127        -0.169787     -0.058115      0.187436
     -0.07828      6.02806      6.06894         0.224855      0.096548      0.054664
      4.14141      4.05411      3.98556         0.100552     -0.203122     -0.155479
      6.14077      4.03387      5.98325         0.084276     -0.156718     -0.068718
      6.08274      5.96009      4.01511         0.218159      0.035330     -0.204558
      4.03350      6.05332      6.08165        -0.010583      0.147538      0.045609
      1.80492      5.84350      0.16401        -0.117850     -0.081737      0.079288
      4.12828      0.09128      0.06029         0.027199      0.056407     -0.074362
      2.00017      0.01323      6.02592         0.065566     -0.030037      0.012441
 -----------------------------------------------------------------------------------
    total drift:                               -0.001260     -0.012025      0.007376
 d Force = 0.1684904E-02[-0.857E-01, 0.891E-01]  d Energy = 0.9255715E-02-0.757E-02
 d Force = 0.1314938E+02[ 0.114E+02, 0.149E+02]  d Ewald  = 0.1314599E+02 0.339E-02


--------------------------------------------------------------------------------------------------------


    POTLOK:  cpu time    0.17: real time    0.17


--------------------------------------------------------------------------------------------------------


  FORCES: max atom, RMS     0.546182    0.237246
  FORCE total and by dimension    1.342067    0.487267


--------------------------------------------------------------------------------------------------------


  
 reached required accuracy - stopping structural energy minimisation
     LOOP+:  cpu time   10.29: real time   10.31
    4ORBIT:  cpu time    0.00: real time    0.00

 total amount of memory used by VASP on root node  63831. kBytes
========================================================================

   base      :    30000. kBytes
   nonl-proj :     6789. kBytes
   fftplans  :     2983. kBytes
   grid      :    22831. kBytes
   one-center:      497. kBytes
   wavefun   :      731. kBytes
 
  
  
 General timing and accounting informations for this job:
 ========================================================
  
                  Total CPU time used (sec):       80.096
                            User time (sec):       79.931
                          System time (sec):        0.165
                         Elapsed time (sec):       81.528
  
                   Maximum memory used (kb):           0.
                   Average memory used (kb):           0.
  
                          Minor page faults:        24002
                          Major page faults:           27
                 Voluntary context switches:         2763
