   7   7   0   0
  0.2544720E+02  0.5626600E-09  0.5626600E-09  0.5626600E-09  0.5000000E-15
  1.000000000000000E-004
  CAR 
 unknown system                          
     10.47076302    -14.53461185  301      2.50191539      1.00000000
    -14.535  0.0000E+00  0.0000E+00  0.0000E+00  0.0000E+00
    -14.451  0.0000E+00  0.0000E+00  0.0000E+00  0.0000E+00
    -14.368  0.0000E+00  0.0000E+00  0.0000E+00  0.0000E+00
    -14.285  0.0000E+00  0.0000E+00  0.0000E+00  0.0000E+00
    -14.201 -0.1966E-28  0.0000E+00 -0.1639E-29  0.0000E+00
    -14.118 -0.2025E-25 -0.2476E-26 -0.1689E-26 -0.2063E-27
    -14.035 -0.1213E-22 -0.1669E-23 -0.1013E-23 -0.1393E-24
    -13.951 -0.5132E-20 -0.7922E-21 -0.4287E-21 -0.6617E-22
    -13.868 -0.1533E-17 -0.2657E-18 -0.1282E-18 -0.2221E-19
    -13.784 -0.3236E-15 -0.6295E-16 -0.2710E-16 -0.5269E-17
    -13.701 -0.4755E-13 -0.1053E-13 -0.3990E-14 -0.8832E-15
    -13.618 -0.4906E-11 -0.1206E-11 -0.4129E-12 -0.1014E-12
    -13.534 -0.3623E-09 -0.1001E-09 -0.3061E-10 -0.8446E-11
    -13.451 -0.1885E-07 -0.5862E-08 -0.1602E-08 -0.4970E-09
    -13.368 -0.6908E-06 -0.2419E-06 -0.5918E-07 -0.2066E-07
    -13.284 -0.1780E-04 -0.7025E-05 -0.1543E-05 -0.6062E-06
    -13.201 -0.3218E-03 -0.1434E-03 -0.2836E-04 -0.1256E-04
    -13.118 -0.4067E-02 -0.2049E-02 -0.3673E-03 -0.1834E-03
    -13.034 -0.3568E-01 -0.2039E-01 -0.3341E-02 -0.1883E-02
    -12.951 -0.2143E+00 -0.1395E+00 -0.2120E-01 -0.1351E-01
    -12.868 -0.8507E+00 -0.6376E+00 -0.9210E-01 -0.6665E-01
    -12.784 -0.2016E+01 -0.1807E+01 -0.2602E+00 -0.2172E+00
    -12.701 -0.1565E+01 -0.2297E+01 -0.3906E+00 -0.4087E+00
    -12.618  0.6577E+01  0.3457E+01  0.1576E+00 -0.1205E+00
    -12.534  0.2680E+02  0.2178E+02  0.2392E+01  0.1695E+01
    -12.451  0.4978E+02  0.4669E+02  0.6541E+01  0.5587E+01
    -12.367  0.5537E+02  0.5736E+02  0.1116E+02  0.1037E+02
    -12.284  0.3742E+02  0.4246E+02  0.1427E+02  0.1391E+02
    -12.201  0.1318E+02  0.1696E+02  0.1537E+02  0.1532E+02
    -12.117 -0.2047E+00  0.9494E+00  0.1536E+02  0.1540E+02
    -12.034 -0.2559E+01 -0.2702E+01  0.1514E+02  0.1517E+02
    -11.951 -0.1296E+01 -0.1548E+01  0.1504E+02  0.1505E+02
    -11.867 -0.3544E+00 -0.4529E+00  0.1501E+02  0.1501E+02
    -11.784 -0.6152E-01 -0.8297E-01  0.1500E+02  0.1500E+02
    -11.701 -0.7139E-02 -0.1010E-01  0.1500E+02  0.1500E+02
    -11.617 -0.5666E-03 -0.8382E-03  0.1500E+02  0.1500E+02
    -11.534 -0.3112E-04 -0.4805E-04  0.1500E+02  0.1500E+02
    -11.451 -0.1192E-05 -0.1917E-05  0.1500E+02  0.1500E+02
    -11.367 -0.3193E-07 -0.5347E-07  0.1500E+02  0.1500E+02
    -11.284 -0.6007E-09 -0.1046E-08  0.1500E+02  0.1500E+02
    -11.201 -0.7941E-11 -0.1439E-10  0.1500E+02  0.1500E+02
    -11.117 -0.7459E-13 -0.1412E-12  0.1500E+02  0.1500E+02
    -11.034  0.0000E+00  0.0000E+00  0.1500E+02  0.1500E+02
    -10.951 -0.2010E-26  0.0000E+00  0.1500E+02  0.1500E+02
    -10.867 -0.1310E-23  0.0000E+00  0.1500E+02  0.1500E+02
    -10.784 -0.6024E-21  0.0000E+00  0.1500E+02  0.1500E+02
    -10.700 -0.1949E-18 -0.2033E-28  0.1500E+02  0.1500E+02
    -10.617 -0.4439E-16 -0.1681E-25  0.1500E+02  0.1500E+02
    -10.534 -0.7107E-14 -0.9802E-23  0.1500E+02  0.1500E+02
    -10.450 -0.7735E-12 -0.4025E-20  0.1500E+02  0.1500E+02
    -10.367 -0.6075E-10 -0.1163E-17  0.1500E+02  0.1500E+02
    -10.284 -0.3336E-08 -0.2365E-15  0.1500E+02  0.1500E+02
    -10.200 -0.1279E-06 -0.3313E-13  0.1500E+02  0.1500E+02
    -10.117 -0.3406E-05 -0.3278E-11  0.1500E+02  0.1500E+02
    -10.034 -0.6274E-04 -0.2294E-09  0.1500E+02  0.1500E+02
     -9.950 -0.7917E-03 -0.1123E-07  0.1500E+02  0.1500E+02
     -9.867 -0.6744E-02 -0.3829E-06  0.1500E+02  0.1500E+02
     -9.784 -0.3768E-01 -0.9064E-05  0.1500E+02  0.1500E+02
     -9.700 -0.1292E+00 -0.1480E-03  0.1499E+02  0.1500E+02
     -9.617 -0.2150E+00 -0.1649E-02  0.1497E+02  0.1500E+02
     -9.534  0.1386E+00 -0.1231E-01  0.1498E+02  0.1500E+02
     -9.450  0.1514E+01 -0.5942E-01  0.1511E+02  0.1499E+02
     -9.367  0.3428E+01 -0.1687E+00  0.1539E+02  0.1498E+02
     -9.283  0.4091E+01 -0.1823E+00  0.1573E+02  0.1496E+02
     -9.200  0.2749E+01  0.4585E+00  0.1596E+02  0.1500E+02
     -9.117  0.8691E+00  0.2145E+01  0.1603E+02  0.1518E+02
     -9.033 -0.9060E-01  0.3862E+01  0.1603E+02  0.1550E+02
     -8.950 -0.2006E+00  0.3840E+01  0.1601E+02  0.1582E+02
     -8.867 -0.8683E-01  0.2105E+01  0.1600E+02  0.1600E+02
     -8.783 -0.2185E-01  0.4350E+00  0.1600E+02  0.1604E+02
     -8.700 -0.1281E-01 -0.1861E+00  0.1600E+02  0.1602E+02
     -8.617 -0.5845E-01 -0.1663E+00  0.1599E+02  0.1601E+02
     -8.533 -0.2185E+00 -0.5792E-01  0.1598E+02  0.1600E+02
     -8.450 -0.4296E+00 -0.1283E-01  0.1594E+02  0.1600E+02
     -8.367  0.1815E-01 -0.1047E-01  0.1594E+02  0.1600E+02
     -8.283  0.2341E+01 -0.5462E-01  0.1614E+02  0.1599E+02
     -8.200  0.6089E+01 -0.2091E+00  0.1664E+02  0.1598E+02
     -8.117  0.8124E+01 -0.4245E+00  0.1732E+02  0.1594E+02
     -8.033  0.6825E+01 -0.2134E-01  0.1789E+02  0.1594E+02
     -7.950  0.4783E+01  0.2236E+01  0.1829E+02  0.1613E+02
     -7.867  0.4008E+01  0.5998E+01  0.1862E+02  0.1663E+02
     -7.783  0.3196E+01  0.8046E+01  0.1889E+02  0.1730E+02
     -7.700  0.1549E+01  0.6435E+01  0.1902E+02  0.1783E+02
     -7.616  0.1961E+00  0.3955E+01  0.1903E+02  0.1816E+02
     -7.533 -0.2175E+00  0.3478E+01  0.1902E+02  0.1845E+02
     -7.450 -0.1459E+00  0.3660E+01  0.1900E+02  0.1876E+02
     -7.366 -0.4549E-01  0.2517E+01  0.1900E+02  0.1897E+02
     -7.283 -0.8611E-02  0.8004E+00  0.1900E+02  0.1903E+02
     -7.200 -0.1064E-02 -0.1031E+00  0.1900E+02  0.1903E+02
     -7.116 -0.8858E-04 -0.2011E+00  0.1900E+02  0.1901E+02
     -7.033 -0.5044E-05 -0.8616E-01  0.1900E+02  0.1900E+02
     -6.950 -0.1984E-06 -0.2056E-01  0.1900E+02  0.1900E+02
     -6.866 -0.5422E-08 -0.3116E-02  0.1900E+02  0.1900E+02
     -6.783 -0.1033E-09 -0.3140E-03  0.1900E+02  0.1900E+02
     -6.700 -0.1377E-11 -0.2150E-04  0.1900E+02  0.1900E+02
     -6.616 -0.1332E-13 -0.1013E-05  0.1900E+02  0.1900E+02
     -6.533  0.0000E+00 -0.3305E-07  0.1900E+02  0.1900E+02
     -6.450  0.0000E+00 -0.7513E-09  0.1900E+02  0.1900E+02
     -6.366  0.0000E+00 -0.1193E-10  0.1900E+02  0.1900E+02
     -6.283  0.0000E+00 -0.1332E-12  0.1900E+02  0.1900E+02
     -6.199  0.0000E+00  0.0000E+00  0.1900E+02  0.1900E+02
     -6.116  0.0000E+00  0.0000E+00  0.1900E+02  0.1900E+02
     -6.033  0.0000E+00  0.0000E+00  0.1900E+02  0.1900E+02
     -5.949  0.0000E+00  0.0000E+00  0.1900E+02  0.1900E+02
     -5.866  0.0000E+00  0.0000E+00  0.1900E+02  0.1900E+02
     -5.783  0.0000E+00  0.0000E+00  0.1900E+02  0.1900E+02
     -5.699  0.0000E+00  0.0000E+00  0.1900E+02  0.1900E+02
     -5.616  0.0000E+00  0.0000E+00  0.1900E+02  0.1900E+02
     -5.533  0.0000E+00  0.0000E+00  0.1900E+02  0.1900E+02
     -5.449  0.0000E+00  0.0000E+00  0.1900E+02  0.1900E+02
     -5.366 -0.1245E-26  0.0000E+00  0.1900E+02  0.1900E+02
     -5.283 -0.8633E-24  0.0000E+00  0.1900E+02  0.1900E+02
     -5.199 -0.4220E-21 -0.5144E-27  0.1900E+02  0.1900E+02
     -5.116 -0.1452E-18 -0.3734E-24  0.1900E+02  0.1900E+02
     -5.033 -0.3518E-16 -0.1911E-21  0.1900E+02  0.1900E+02
     -4.949 -0.5991E-14 -0.6888E-19  0.1900E+02  0.1900E+02
     -4.866 -0.6943E-12 -0.1747E-16  0.1900E+02  0.1900E+02
     -4.783 -0.5803E-10 -0.3116E-14  0.1900E+02  0.1900E+02
     -4.699 -0.3394E-08 -0.3786E-12  0.1900E+02  0.1900E+02
     -4.616 -0.1386E-06 -0.3315E-10  0.1900E+02  0.1900E+02
     -4.532 -0.3936E-05 -0.2031E-08  0.1900E+02  0.1900E+02
     -4.449 -0.7737E-04 -0.8696E-07  0.1900E+02  0.1900E+02
     -4.366 -0.1044E-02 -0.2591E-05  0.1900E+02  0.1900E+02
     -4.282 -0.9543E-02 -0.5347E-04  0.1900E+02  0.1900E+02
     -4.199 -0.5759E-01 -0.7586E-03  0.1899E+02  0.1900E+02
     -4.116 -0.2170E+00 -0.7305E-02  0.1898E+02  0.1900E+02
     -4.032 -0.4268E+00 -0.4665E-01  0.1894E+02  0.1900E+02
     -3.949  0.2777E-01 -0.1880E+00  0.1894E+02  0.1898E+02
     -3.866  0.2395E+01 -0.4122E+00  0.1914E+02  0.1895E+02
     -3.782  0.6256E+01 -0.1174E+00  0.1966E+02  0.1894E+02
     -3.699  0.8262E+01  0.1957E+01  0.2035E+02  0.1910E+02
     -3.616  0.6163E+01  0.5768E+01  0.2087E+02  0.1958E+02
     -3.532  0.2307E+01  0.8230E+01  0.2106E+02  0.2027E+02
     -3.449 -0.3258E-02  0.6626E+01  0.2106E+02  0.2082E+02
     -3.366 -0.4246E+00  0.2771E+01  0.2102E+02  0.2105E+02
     -3.282 -0.2112E+00  0.1700E+00  0.2101E+02  0.2106E+02
     -3.199 -0.5531E-01 -0.4314E+00  0.2100E+02  0.2103E+02
     -3.115 -0.9064E-02 -0.2416E+00  0.2100E+02  0.2101E+02
     -3.032 -0.1004E-02 -0.6784E-01  0.2100E+02  0.2100E+02
     -2.949 -0.3949E-03 -0.1177E-01  0.2100E+02  0.2100E+02
     -2.865 -0.3194E-02 -0.1344E-02  0.2100E+02  0.2100E+02
     -2.782 -0.2095E-01 -0.1145E-03  0.2100E+02  0.2100E+02
     -2.699 -0.8722E-01 -0.1780E-03  0.2099E+02  0.2100E+02
     -2.615 -0.2010E+00 -0.1879E-02  0.2097E+02  0.2100E+02
     -2.532 -0.8862E-01 -0.1369E-01  0.2097E+02  0.2100E+02
     -2.449  0.8761E+00 -0.6425E-01  0.2104E+02  0.2099E+02
     -2.365  0.2758E+01 -0.1757E+00  0.2127E+02  0.2098E+02
     -2.282  0.4093E+01 -0.1697E+00  0.2161E+02  0.2096E+02
     -2.199  0.3420E+01  0.5307E+00  0.2190E+02  0.2101E+02
     -2.115  0.1506E+01  0.2265E+01  0.2202E+02  0.2120E+02
     -2.032  0.1349E+00  0.3922E+01  0.2203E+02  0.2152E+02
     -1.949 -0.2151E+00  0.3772E+01  0.2201E+02  0.2184E+02
     -1.865 -0.1287E+00  0.1986E+01  0.2200E+02  0.2200E+02
     -1.782 -0.3742E-01  0.3683E+00  0.2200E+02  0.2204E+02
     -1.699 -0.6684E-02 -0.1957E+00  0.2200E+02  0.2202E+02
     -1.615 -0.7833E-03 -0.1591E+00  0.2200E+02  0.2201E+02
     -1.532 -0.6407E-04 -0.5337E-01  0.2200E+02  0.2200E+02
     -1.448 -0.4860E-04 -0.1066E-01  0.2200E+02  0.2200E+02
     -1.365 -0.6668E-03 -0.1382E-02  0.2200E+02  0.2200E+02
     -1.282 -0.6710E-02 -0.1288E-03  0.2200E+02  0.2200E+02
     -1.198 -0.4529E-01 -0.1602E-03  0.2200E+02  0.2200E+02
     -1.115 -0.1969E+00 -0.1878E-02  0.2198E+02  0.2200E+02
     -1.032 -0.4950E+00 -0.1553E-01  0.2194E+02  0.2200E+02
     -0.948 -0.3861E+00 -0.8405E-01  0.2191E+02  0.2199E+02
     -0.865  0.1681E+01 -0.2774E+00  0.2205E+02  0.2197E+02
     -0.782  0.6476E+01 -0.4321E+00  0.2259E+02  0.2193E+02
     -0.698  0.1106E+02  0.3599E+00  0.2351E+02  0.2196E+02
     -0.615  0.1097E+02  0.3169E+01  0.2442E+02  0.2223E+02
     -0.532  0.6343E+01  0.6870E+01  0.2495E+02  0.2280E+02
     -0.448  0.1666E+01  0.8304E+01  0.2509E+02  0.2349E+02
     -0.365 -0.3429E+00  0.6855E+01  0.2506E+02  0.2406E+02
     -0.282 -0.4741E+00  0.5055E+01  0.2502E+02  0.2448E+02
     -0.198 -0.1987E+00  0.3816E+01  0.2500E+02  0.2480E+02
     -0.115 -0.6399E-01  0.2224E+01  0.2500E+02  0.2499E+02
     -0.031 -0.8306E-01  0.6060E+00  0.2499E+02  0.2504E+02
      0.052 -0.2077E+00 -0.1590E+00  0.2497E+02  0.2502E+02
      0.135 -0.2313E+00 -0.2257E+00  0.2496E+02  0.2501E+02
      0.219  0.4527E+00 -0.1817E+00  0.2499E+02  0.2499E+02
      0.302  0.2362E+01 -0.2290E+00  0.2519E+02  0.2497E+02
      0.385  0.4868E+01 -0.2733E-01  0.2560E+02  0.2497E+02
      0.469  0.6391E+01  0.1080E+01  0.2613E+02  0.2506E+02
      0.552  0.5859E+01  0.2966E+01  0.2662E+02  0.2531E+02
      0.635  0.3558E+01  0.3984E+01  0.2691E+02  0.2564E+02
      0.719  0.9402E+00  0.2987E+01  0.2699E+02  0.2589E+02
      0.802 -0.3011E+00  0.1501E+01  0.2697E+02  0.2601E+02
      0.885  0.1026E+01  0.1739E+01  0.2705E+02  0.2616E+02
      0.969  0.4740E+01  0.3217E+01  0.2745E+02  0.2643E+02
      1.052  0.7954E+01  0.3506E+01  0.2811E+02  0.2672E+02
      1.135  0.7312E+01  0.2317E+01  0.2872E+02  0.2691E+02
      1.219  0.3628E+01  0.2486E+01  0.2902E+02  0.2712E+02
      1.302  0.5567E+00  0.5437E+01  0.2907E+02  0.2757E+02
      1.385 -0.4120E+00  0.8008E+01  0.2903E+02  0.2824E+02
      1.469 -0.2969E+00  0.6718E+01  0.2901E+02  0.2880E+02
      1.552 -0.9464E-01  0.2940E+01  0.2900E+02  0.2904E+02
      1.636 -0.1913E-01  0.2440E+00  0.2900E+02  0.2906E+02
      1.719 -0.1127E-01 -0.4310E+00  0.2900E+02  0.2903E+02
      1.802 -0.5518E-01 -0.2538E+00  0.2899E+02  0.2901E+02
      1.886 -0.2104E+00 -0.7322E-01  0.2898E+02  0.2900E+02
      1.969 -0.4243E+00 -0.1300E-01  0.2894E+02  0.2900E+02
      2.052 -0.7514E-02 -0.1653E-02  0.2894E+02  0.2900E+02
      2.136  0.2295E+01 -0.1856E-02  0.2913E+02  0.2900E+02
      2.219  0.6150E+01 -0.1457E-01  0.2964E+02  0.2900E+02
      2.302  0.8262E+01 -0.7993E-01  0.3033E+02  0.2899E+02
      2.386  0.6269E+01 -0.2681E+00  0.3086E+02  0.2897E+02
      2.469  0.2408E+01 -0.4276E+00  0.3106E+02  0.2893E+02
      2.552  0.3224E-01  0.3429E+00  0.3106E+02  0.2896E+02
      2.636 -0.4271E+00  0.3178E+01  0.3102E+02  0.2923E+02
      2.719 -0.2178E+00  0.6980E+01  0.3101E+02  0.2981E+02
      2.802 -0.5792E-01  0.8144E+01  0.3100E+02  0.3049E+02
      2.886 -0.9612E-02  0.5342E+01  0.3100E+02  0.3093E+02
      2.969 -0.1053E-02  0.1619E+01  0.3100E+02  0.3107E+02
      3.053 -0.7815E-04 -0.2136E+00  0.3100E+02  0.3105E+02
      3.136 -0.3981E-05 -0.3941E+00  0.3100E+02  0.3102E+02
      3.219 -0.1403E-06 -0.1656E+00  0.3100E+02  0.3100E+02
      3.303 -0.4346E-08 -0.3891E-01  0.3100E+02  0.3100E+02
      3.386 -0.3917E-07 -0.5815E-02  0.3100E+02  0.3100E+02
      3.469 -0.1178E-05 -0.5783E-03  0.3100E+02  0.3100E+02
      3.553 -0.2458E-04 -0.3912E-04  0.3100E+02  0.3100E+02
      3.636 -0.3527E-03 -0.2120E-05  0.3100E+02  0.3100E+02
      3.719 -0.3436E-02 -0.7352E-05  0.3100E+02  0.3100E+02
      3.803 -0.2222E-01 -0.1224E-03  0.3100E+02  0.3100E+02
      3.886 -0.9089E-01 -0.1402E-02  0.3099E+02  0.3100E+02
      3.969 -0.2039E+00 -0.1079E-01  0.3097E+02  0.3100E+02
      4.053 -0.7300E-01 -0.5386E-01  0.3097E+02  0.3099E+02
      4.136  0.9285E+00 -0.1600E+00  0.3104E+02  0.3098E+02
      4.219  0.2805E+01 -0.1950E+00  0.3128E+02  0.3096E+02
      4.303  0.3996E+01  0.3726E+00  0.3161E+02  0.3100E+02
      4.386  0.3038E+01  0.1976E+01  0.3186E+02  0.3116E+02
      4.469  0.1055E+01  0.3665E+01  0.3195E+02  0.3147E+02
      4.553  0.8950E+00  0.3584E+01  0.3203E+02  0.3176E+02
      4.636  0.3849E+01  0.1877E+01  0.3235E+02  0.3192E+02
      4.720  0.7474E+01  0.1380E+01  0.3297E+02  0.3204E+02
      4.803  0.7763E+01  0.4017E+01  0.3362E+02  0.3237E+02
      4.886  0.4429E+01  0.7494E+01  0.3399E+02  0.3300E+02
      4.970  0.1003E+01  0.7672E+01  0.3407E+02  0.3364E+02
      5.053 -0.3499E+00  0.4297E+01  0.3404E+02  0.3399E+02
      5.136 -0.3460E+00  0.9274E+00  0.3401E+02  0.3407E+02
      5.220 -0.1246E+00 -0.3628E+00  0.3400E+02  0.3404E+02
      5.303 -0.2627E-01 -0.3387E+00  0.3400E+02  0.3401E+02
      5.386 -0.3574E-02 -0.1197E+00  0.3400E+02  0.3400E+02
      5.470 -0.3811E-03 -0.2486E-01  0.3400E+02  0.3400E+02
      5.553 -0.7399E-03 -0.3337E-02  0.3400E+02  0.3400E+02
      5.636 -0.6233E-02 -0.3186E-03  0.3400E+02  0.3400E+02
      5.720 -0.3545E-01 -0.2959E-03  0.3400E+02  0.3400E+02
      5.803 -0.1243E+00 -0.2809E-02  0.3399E+02  0.3400E+02
      5.886 -0.2156E+00 -0.1892E-01  0.3397E+02  0.3400E+02
      5.970  0.1068E+00 -0.8117E-01  0.3398E+02  0.3399E+02
      6.053  0.1439E+01 -0.1955E+00  0.3410E+02  0.3398E+02
      6.136  0.3362E+01 -0.1131E+00  0.3438E+02  0.3397E+02
      6.220  0.4106E+01  0.7849E+00  0.3472E+02  0.3403E+02
      6.303  0.2828E+01  0.2639E+01  0.3496E+02  0.3425E+02
      6.387  0.9315E+00  0.4063E+01  0.3503E+02  0.3459E+02
      6.470 -0.7848E-01  0.3515E+01  0.3503E+02  0.3488E+02
      6.553 -0.2433E+00  0.1620E+01  0.3501E+02  0.3502E+02
      6.637 -0.2580E+00  0.1831E+00  0.3498E+02  0.3503E+02
      6.720 -0.4178E+00 -0.2331E+00  0.3495E+02  0.3501E+02
      6.803 -0.2109E+00 -0.2378E+00  0.3493E+02  0.3499E+02
      6.887  0.1641E+01 -0.3506E+00  0.3507E+02  0.3496E+02
      6.970  0.5370E+01 -0.4082E+00  0.3552E+02  0.3493E+02
      7.053  0.8129E+01  0.6607E+00  0.3619E+02  0.3499E+02
      7.137  0.6846E+01  0.3831E+01  0.3676E+02  0.3530E+02
      7.220  0.2825E+01  0.7448E+01  0.3700E+02  0.3593E+02
      7.303 -0.5534E-01  0.7860E+01  0.3700E+02  0.3658E+02
      7.387  0.3543E+00  0.4479E+01  0.3703E+02  0.3695E+02
      7.470  0.3789E+01  0.7365E+00  0.3734E+02  0.3702E+02
      7.553  0.7514E+01 -0.4245E+00  0.3797E+02  0.3698E+02
      7.637  0.7788E+01  0.1646E+01  0.3862E+02  0.3712E+02
      7.720  0.4435E+01  0.5691E+01  0.3899E+02  0.3759E+02
      7.804  0.9632E+00  0.8209E+01  0.3907E+02  0.3828E+02
      7.887 -0.4956E+00  0.6569E+01  0.3902E+02  0.3882E+02
      7.970 -0.5537E+00  0.2703E+01  0.3898E+02  0.3905E+02
      8.054  0.1408E+00  0.8996E-01  0.3899E+02  0.3906E+02
      8.137  0.1763E+01 -0.5981E+00  0.3914E+02  0.3901E+02
      8.220  0.3638E+01 -0.4232E+00  0.3944E+02  0.3897E+02
      8.304  0.4006E+01  0.3743E+00  0.3977E+02  0.3900E+02
      8.387  0.2465E+01  0.2103E+01  0.3998E+02  0.3918E+02
      8.470  0.6613E+00  0.3844E+01  0.4004E+02  0.3950E+02
      8.554 -0.1429E+00  0.3857E+01  0.4002E+02  0.3982E+02
      8.637 -0.1868E+00  0.2135E+01  0.4001E+02  0.4000E+02
      8.720 -0.7295E-01  0.4527E+00  0.4000E+02  0.4004E+02
      8.804 -0.1630E-01 -0.1833E+00  0.4000E+02  0.4002E+02
      8.887 -0.2332E-02 -0.1681E+00  0.4000E+02  0.4001E+02
      8.970 -0.2227E-03 -0.5903E-01  0.4000E+02  0.4000E+02
      9.054 -0.1448E-04 -0.1221E-01  0.4000E+02  0.4000E+02
      9.137 -0.6486E-06 -0.1631E-02  0.4000E+02  0.4000E+02
      9.220 -0.2015E-07 -0.1461E-03  0.4000E+02  0.4000E+02
      9.304 -0.4359E-09 -0.8933E-05  0.4000E+02  0.4000E+02
      9.387 -0.6593E-11 -0.3767E-06  0.4000E+02  0.4000E+02
      9.471 -0.6926E-13 -0.1103E-07  0.4000E+02  0.4000E+02
      9.554  0.0000E+00 -0.2249E-09  0.4000E+02  0.4000E+02
      9.637  0.0000E+00 -0.3210E-11  0.4000E+02  0.4000E+02
      9.721  0.0000E+00 -0.3197E-13  0.4000E+02  0.4000E+02
      9.804  0.0000E+00  0.0000E+00  0.4000E+02  0.4000E+02
      9.887  0.0000E+00  0.0000E+00  0.4000E+02  0.4000E+02
      9.971  0.0000E+00  0.0000E+00  0.4000E+02  0.4000E+02
     10.054  0.0000E+00  0.0000E+00  0.4000E+02  0.4000E+02
     10.137  0.0000E+00  0.0000E+00  0.4000E+02  0.4000E+02
     10.221  0.0000E+00  0.0000E+00  0.4000E+02  0.4000E+02
     10.304  0.0000E+00  0.0000E+00  0.4000E+02  0.4000E+02
     10.387  0.0000E+00  0.0000E+00  0.4000E+02  0.4000E+02
     10.471  0.0000E+00  0.0000E+00  0.4000E+02  0.4000E+02
