    7    7    1    2
  0.2544720E+02  0.5626600E-09  0.5626600E-09  0.5626600E-09  0.5000000E-15
  1.000000000000000E-004
  CAR 
 unknown system                          
   60    1   40
 
  0.2500000E+00  0.2500000E+00  0.2500000E+00  0.1000000E+01
   1      -12.534612    -12.507618
   2      -12.507413    -12.482953
   3      -12.507413    -12.482952
   4      -12.475945    -12.454872
   5      -12.449559    -12.431575
   6      -12.449559    -12.431574
   7      -12.423857    -12.408215
   8      -12.423856    -12.408215
   9      -12.418740    -12.403249
  10      -12.405039    -12.391393
  11      -12.405039    -12.391392
  12      -12.392073    -12.378812
  13      -12.386987    -12.376919
  14      -12.373179    -12.363662
  15      -12.373178    -12.363661
  16       -9.340832     -9.034266
  17       -8.159786     -7.822972
  18       -8.159786     -7.822972
  19       -7.881873     -7.507659
  20       -3.741692     -3.564059
  21       -3.741692     -3.564059
  22       -2.308365     -2.037700
  23       -0.724396     -0.511710
  24       -0.724396     -0.511709
  25       -0.646515     -0.261328
  26        0.371688      0.597893
  27        0.526107      0.984732
  28        1.039069      1.357865
  29        1.039069      1.357865
  30        2.262032      2.741799
  31        2.262032      2.741799
  32        4.273419      4.474689
  33        4.723365      4.887496
  34        4.723366      4.887497
  35        6.165881      6.365225
  36        7.030013      7.228766
  37        7.030013      7.228766
  38        7.557513      7.770451
  39        7.557513      7.770451
  40        8.234353      8.470763
