       N       E                     dE             d eps       ncg     rms          rms(c)
DAV:   1     0.425458874586E+03    0.42546E+03   -0.20142E+04   184   0.165E+03
DAV:   2     0.447593679440E+02   -0.38070E+03   -0.36435E+03   160   0.472E+02
DAV:   3    -0.216928197571E+02   -0.66452E+02   -0.65351E+02   200   0.146E+02
DAV:   4    -0.246328531846E+02   -0.29400E+01   -0.29353E+01   192   0.364E+01
DAV:   5    -0.246802144308E+02   -0.47361E-01   -0.47357E-01   192   0.468E+00    0.118E+01
DAV:   6    -0.249134225848E+02   -0.23321E+00   -0.12453E+00   208   0.943E+00    0.465E+00
DAV:   7    -0.250225420216E+02   -0.10912E+00   -0.27595E-01   200   0.422E+00    0.168E+00
DAV:   8    -0.250106783191E+02    0.11864E-01   -0.97662E-02   192   0.128E+00    0.674E-01
DAV:   9    -0.250163249022E+02   -0.56466E-02   -0.21232E-02   184   0.686E-01    0.253E-01
DAV:  10    -0.250176207522E+02   -0.12958E-02   -0.29823E-03   192   0.353E-01    0.952E-02
DAV:  11    -0.250179514385E+02   -0.33069E-03   -0.73557E-04   176   0.170E-01    0.381E-02
DAV:  12    -0.250180461773E+02   -0.94739E-04   -0.15566E-04   152   0.762E-02
   1 F= -.25018046E+02 E0= -.25034798E+02  d E =0.502562E-01  mag=     2.1411
