  33  33   0   0
  0.1602717E+02  0.8087052E-09  0.8087052E-09  0.8087052E-09  0.5000000E-15
  1.000000000000000E-004
  CAR 
 unknown system                          
     13.19855186     -5.13653851  301      8.43235145      1.00000000
     -5.137  0.0000E+00  0.0000E+00
     -5.075  0.0000E+00  0.0000E+00
     -5.014  0.0000E+00  0.0000E+00
     -4.953  0.0000E+00  0.0000E+00
     -4.892  0.0000E+00  0.0000E+00
     -4.831  0.0000E+00  0.0000E+00
     -4.770 -0.4290E-29 -0.2622E-30
     -4.709 -0.5490E-27 -0.3382E-28
     -4.648 -0.5856E-25 -0.3613E-26
     -4.586 -0.5172E-23 -0.3197E-24
     -4.525 -0.3781E-21 -0.2343E-22
     -4.464 -0.2288E-19 -0.1422E-20
     -4.403 -0.1146E-17 -0.7143E-19
     -4.342 -0.4743E-16 -0.2970E-17
     -4.281 -0.1576E-14 -0.9931E-16
     -4.220 -0.4438E-13 -0.2812E-14
     -4.159 -0.1033E-11 -0.6592E-13
     -4.098 -0.1981E-10 -0.1276E-11
     -4.036 -0.3129E-09 -0.2040E-10
     -3.975 -0.4066E-08 -0.2689E-09
     -3.914 -0.4337E-07 -0.2919E-08
     -3.853 -0.3788E-06 -0.2607E-07
     -3.792 -0.2699E-05 -0.1910E-06
     -3.731 -0.1562E-04 -0.1146E-05
     -3.670 -0.7282E-04 -0.5596E-05
     -3.609 -0.2703E-03 -0.2211E-04
     -3.547 -0.7810E-03 -0.6985E-04
     -3.486 -0.1677E-02 -0.1723E-03
     -3.425 -0.2333E-02 -0.3149E-03
     -3.364 -0.6996E-03 -0.3577E-03
     -3.303  0.6214E-02  0.2208E-04
     -3.242  0.1943E-01  0.1209E-02
     -3.181  0.3465E-01  0.3327E-02
     -3.120  0.4340E-01  0.5980E-02
     -3.059  0.3987E-01  0.8417E-02
     -2.997  0.2647E-01  0.1003E-01
     -2.936  0.1147E-01  0.1074E-01
     -2.875  0.1593E-02  0.1083E-01
     -2.814 -0.2062E-02  0.1071E-01
     -2.753 -0.2085E-02  0.1058E-01
     -2.692 -0.1146E-02  0.1051E-01
     -2.631 -0.4494E-03  0.1048E-01
     -2.570 -0.1350E-03  0.1047E-01
     -2.509 -0.3200E-04  0.1047E-01
     -2.447 -0.6086E-05  0.1047E-01
     -2.386 -0.9370E-06  0.1047E-01
     -2.325 -0.1175E-06  0.1047E-01
     -2.264 -0.1204E-07  0.1047E-01
     -2.203 -0.1015E-08  0.1047E-01
     -2.142 -0.1158E-09  0.1047E-01
     -2.081 -0.7223E-09  0.1047E-01
     -2.020 -0.9239E-08  0.1047E-01
     -1.958 -0.9754E-07  0.1047E-01
     -1.897 -0.8430E-06  0.1047E-01
     -1.836 -0.5944E-05  0.1047E-01
     -1.775 -0.3402E-04  0.1047E-01
     -1.714 -0.1568E-03  0.1046E-01
     -1.653 -0.5748E-03  0.1042E-01
     -1.592 -0.1638E-02  0.1032E-01
     -1.531 -0.3457E-02  0.1011E-01
     -1.470 -0.4670E-02  0.9827E-02
     -1.408 -0.1052E-02  0.9763E-02
     -1.347  0.1324E-01  0.1057E-01
     -1.286  0.3953E-01  0.1299E-01
     -1.225  0.6815E-01  0.1715E-01
     -1.164  0.8208E-01  0.2217E-01
     -1.103  0.7256E-01  0.2660E-01
     -1.042  0.5133E-01  0.2974E-01
     -0.981  0.4285E-01  0.3236E-01
     -0.919  0.6128E-01  0.3611E-01
     -0.858  0.9545E-01  0.4194E-01
     -0.797  0.1181E+00  0.4916E-01
     -0.736  0.1110E+00  0.5594E-01
     -0.675  0.8143E-01  0.6092E-01
     -0.614  0.5214E-01  0.6411E-01
     -0.553  0.3876E-01  0.6647E-01
     -0.492  0.3786E-01  0.6879E-01
     -0.431  0.3631E-01  0.7101E-01
     -0.369  0.2704E-01  0.7266E-01
     -0.308  0.1364E-01  0.7349E-01
     -0.247  0.3068E-02  0.7368E-01
     -0.186 -0.1707E-02  0.7358E-01
     -0.125 -0.2290E-02  0.7344E-01
     -0.064 -0.1404E-02  0.7335E-01
     -0.003 -0.5953E-03  0.7331E-01
      0.058 -0.1912E-03  0.7330E-01
      0.120 -0.4872E-04  0.7330E-01
      0.181 -0.1362E-04  0.7330E-01
      0.242 -0.2500E-04  0.7330E-01
      0.303 -0.1136E-03  0.7329E-01
      0.364 -0.4386E-03  0.7326E-01
      0.425 -0.1328E-02  0.7318E-01
      0.486 -0.3026E-02  0.7300E-01
      0.547 -0.4673E-02  0.7271E-01
      0.608 -0.2796E-02  0.7254E-01
      0.670  0.8371E-02  0.7305E-01
      0.731  0.3200E-01  0.7501E-01
      0.792  0.6200E-01  0.7880E-01
      0.853  0.8382E-01  0.8392E-01
      0.914  0.8635E-01  0.8920E-01
      0.975  0.7237E-01  0.9362E-01
      1.036  0.5422E-01  0.9693E-01
      1.097  0.4189E-01  0.9949E-01
      1.159  0.4019E-01  0.1020E+00
      1.220  0.5413E-01  0.1053E+00
      1.281  0.8723E-01  0.1106E+00
      1.342  0.1320E+00  0.1187E+00
      1.403  0.1684E+00  0.1289E+00
      1.464  0.1779E+00  0.1398E+00
      1.525  0.1620E+00  0.1497E+00
      1.586  0.1417E+00  0.1584E+00
      1.647  0.1364E+00  0.1667E+00
      1.709  0.1434E+00  0.1755E+00
      1.770  0.1430E+00  0.1842E+00
      1.831  0.1208E+00  0.1916E+00
      1.892  0.8148E-01  0.1966E+00
      1.953  0.4092E-01  0.1991E+00
      2.014  0.1210E-01  0.1998E+00
      2.075 -0.1897E-02  0.1997E+00
      2.136 -0.5306E-02  0.1994E+00
      2.197 -0.4057E-02  0.1992E+00
      2.259 -0.2086E-02  0.1990E+00
      2.320 -0.8139E-03  0.1990E+00
      2.381 -0.2508E-03  0.1990E+00
      2.442 -0.6257E-04  0.1990E+00
      2.503 -0.1624E-04  0.1990E+00
      2.564 -0.2321E-04  0.1990E+00
      2.625 -0.9501E-04  0.1989E+00
      2.686 -0.3363E-03  0.1989E+00
      2.748 -0.9236E-03  0.1989E+00
      2.809 -0.1857E-02  0.1988E+00
      2.870 -0.2291E-02  0.1986E+00
      2.931  0.9921E-04  0.1986E+00
      2.992  0.8190E-02  0.1991E+00
      3.053  0.2207E-01  0.2005E+00
      3.114  0.3603E-01  0.2027E+00
      3.175  0.4087E-01  0.2052E+00
      3.236  0.3180E-01  0.2071E+00
      3.298  0.1471E-01  0.2080E+00
      3.359  0.4577E-02  0.2083E+00
      3.420  0.1703E-01  0.2093E+00
      3.481  0.5807E-01  0.2129E+00
      3.542  0.1179E+00  0.2201E+00
      3.603  0.1750E+00  0.2308E+00
      3.664  0.2087E+00  0.2435E+00
      3.725  0.2099E+00  0.2564E+00
      3.787  0.1819E+00  0.2675E+00
      3.848  0.1349E+00  0.2757E+00
      3.909  0.8281E-01  0.2808E+00
      3.970  0.3855E-01  0.2831E+00
      4.031  0.9815E-02  0.2837E+00
      4.092 -0.3265E-02  0.2835E+00
      4.153 -0.5933E-02  0.2832E+00
      4.214 -0.4275E-02  0.2829E+00
      4.275 -0.2138E-02  0.2828E+00
      4.337 -0.8195E-03  0.2827E+00
      4.398 -0.2494E-03  0.2827E+00
      4.459 -0.6452E-04  0.2827E+00
      4.520 -0.3358E-04  0.2827E+00
      4.581 -0.1056E-03  0.2827E+00
      4.642 -0.4043E-03  0.2827E+00
      4.703 -0.1256E-02  0.2826E+00
      4.764 -0.3022E-02  0.2824E+00
      4.826 -0.5240E-02  0.2821E+00
      4.887 -0.4934E-02  0.2818E+00
      4.948  0.4270E-02  0.2821E+00
      5.009  0.2894E-01  0.2838E+00
      5.070  0.6789E-01  0.2880E+00
      5.131  0.1066E+00  0.2945E+00
      5.192  0.1239E+00  0.3021E+00
      5.253  0.1086E+00  0.3087E+00
      5.314  0.7020E-01  0.3130E+00
      5.376  0.3010E-01  0.3148E+00
      5.437  0.4252E-02  0.3151E+00
      5.498 -0.5372E-02  0.3148E+00
      5.559 -0.5558E-02  0.3144E+00
      5.620 -0.3185E-02  0.3142E+00
      5.681 -0.1507E-02  0.3141E+00
      5.742 -0.1129E-02  0.3141E+00
      5.803 -0.1720E-02  0.3140E+00
      5.865 -0.2377E-02  0.3138E+00
      5.926 -0.1045E-02  0.3138E+00
      5.987  0.5133E-02  0.3141E+00
      6.048  0.1706E-01  0.3151E+00
      6.109  0.3056E-01  0.3170E+00
      6.170  0.3822E-01  0.3193E+00
      6.231  0.3755E-01  0.3216E+00
      6.292  0.3638E-01  0.3238E+00
      6.353  0.4615E-01  0.3267E+00
      6.415  0.6815E-01  0.3308E+00
      6.476  0.8969E-01  0.3363E+00
      6.537  0.9642E-01  0.3422E+00
      6.598  0.8656E-01  0.3475E+00
      6.659  0.7186E-01  0.3519E+00
      6.720  0.6638E-01  0.3559E+00
      6.781  0.7463E-01  0.3605E+00
      6.842  0.8822E-01  0.3659E+00
      6.904  0.9395E-01  0.3716E+00
      6.965  0.8669E-01  0.3769E+00
      7.026  0.7415E-01  0.3815E+00
      7.087  0.6961E-01  0.3857E+00
      7.148  0.8102E-01  0.3907E+00
      7.209  0.1061E+00  0.3972E+00
      7.270  0.1354E+00  0.4054E+00
      7.331  0.1591E+00  0.4152E+00
      7.392  0.1732E+00  0.4257E+00
      7.454  0.1804E+00  0.4368E+00
      7.515  0.1859E+00  0.4481E+00
      7.576  0.1898E+00  0.4597E+00
      7.637  0.1842E+00  0.4710E+00
      7.698  0.1594E+00  0.4807E+00
      7.759  0.1147E+00  0.4877E+00
      7.820  0.6269E-01  0.4916E+00
      7.881  0.2103E-01  0.4928E+00
      7.942  0.1364E-02  0.4929E+00
      8.004  0.4031E-02  0.4932E+00
      8.065  0.2063E-01  0.4944E+00
      8.126  0.3988E-01  0.4969E+00
      8.187  0.5302E-01  0.5001E+00
      8.248  0.5688E-01  0.5036E+00
      8.309  0.5363E-01  0.5069E+00
      8.370  0.4931E-01  0.5099E+00
      8.431  0.5159E-01  0.5130E+00
      8.493  0.6501E-01  0.5170E+00
      8.554  0.8705E-01  0.5223E+00
      8.615  0.1114E+00  0.5291E+00
      8.676  0.1344E+00  0.5374E+00
      8.737  0.1557E+00  0.5469E+00
      8.798  0.1726E+00  0.5574E+00
      8.859  0.1793E+00  0.5684E+00
      8.920  0.1704E+00  0.5788E+00
      8.981  0.1473E+00  0.5878E+00
      9.043  0.1238E+00  0.5954E+00
      9.104  0.1192E+00  0.6026E+00
      9.165  0.1399E+00  0.6112E+00
      9.226  0.1706E+00  0.6216E+00
      9.287  0.1891E+00  0.6332E+00
      9.348  0.1878E+00  0.6446E+00
      9.409  0.1753E+00  0.6554E+00
      9.470  0.1605E+00  0.6652E+00
      9.532  0.1441E+00  0.6740E+00
      9.593  0.1273E+00  0.6818E+00
      9.654  0.1162E+00  0.6889E+00
      9.715  0.1125E+00  0.6957E+00
      9.776  0.1069E+00  0.7023E+00
      9.837  0.8826E-01  0.7077E+00
      9.898  0.5696E-01  0.7111E+00
      9.959  0.2499E-01  0.7127E+00
     10.020  0.3737E-02  0.7129E+00
     10.082 -0.4590E-02  0.7126E+00
     10.143 -0.4961E-02  0.7123E+00
     10.204 -0.3045E-02  0.7121E+00
     10.265 -0.1846E-02  0.7120E+00
     10.326 -0.2132E-02  0.7119E+00
     10.387 -0.3494E-02  0.7117E+00
     10.448 -0.4018E-02  0.7114E+00
     10.509  0.5663E-03  0.7115E+00
     10.571  0.1538E-01  0.7124E+00
     10.632  0.4099E-01  0.7149E+00
     10.693  0.6846E-01  0.7191E+00
     10.754  0.8253E-01  0.7241E+00
     10.815  0.7355E-01  0.7286E+00
     10.876  0.4673E-01  0.7315E+00
     10.937  0.1916E-01  0.7327E+00
     10.998  0.8116E-02  0.7332E+00
     11.059  0.2093E-01  0.7344E+00
     11.121  0.5056E-01  0.7375E+00
     11.182  0.7833E-01  0.7423E+00
     11.243  0.8551E-01  0.7475E+00
     11.304  0.6766E-01  0.7517E+00
     11.365  0.3731E-01  0.7539E+00
     11.426  0.1146E-01  0.7547E+00
     11.487 -0.1742E-02  0.7545E+00
     11.548 -0.4658E-02  0.7543E+00
     11.610 -0.3259E-02  0.7541E+00
     11.671 -0.1495E-02  0.7540E+00
     11.732 -0.5111E-03  0.7539E+00
     11.793 -0.1362E-03  0.7539E+00
     11.854 -0.2894E-04  0.7539E+00
     11.915 -0.4955E-05  0.7539E+00
     11.976 -0.6891E-06  0.7539E+00
     12.037 -0.7822E-07  0.7539E+00
     12.098 -0.7272E-08  0.7539E+00
     12.160 -0.5551E-09  0.7539E+00
     12.221 -0.3485E-10  0.7539E+00
     12.282 -0.1802E-11  0.7539E+00
     12.343 -0.7685E-13  0.7539E+00
     12.404 -0.2739E-14  0.7539E+00
     12.465 -0.7609E-16  0.7539E+00
     12.526  0.0000E+00  0.7539E+00
     12.587  0.0000E+00  0.7539E+00
     12.648  0.0000E+00  0.7539E+00
     12.710  0.0000E+00  0.7539E+00
     12.771  0.0000E+00  0.7539E+00
     12.832  0.0000E+00  0.7539E+00
     12.893  0.0000E+00  0.7539E+00
     12.954  0.0000E+00  0.7539E+00
     13.015  0.0000E+00  0.7539E+00
     13.076  0.0000E+00  0.7539E+00
     13.137  0.0000E+00  0.7539E+00
     13.199  0.0000E+00  0.7539E+00
