 vasp.5.2.2 15Apr09 complex 
 executed on             LinuxIFC date 2016.11.30  12:59:07
 running on    8 nodes
 distr:  one band on    1 nodes,    8 groups


--------------------------------------------------------------------------------------------------------


 INCAR:
 POTCAR:   PAW_PBE Al 04Jan2001                   
 POTCAR:   PAW_PBE Mg 05Jan2001                   
 POTCAR:   PAW_PBE Al 04Jan2001                   
   VRHFIN =Al: s2p1                                                             
   LEXCH  = PE                                                                  
   EATOM  =    53.5387 eV,    3.9350 Ry                                         
                                                                                
   TITEL  = PAW_PBE Al 04Jan2001                                                
   LULTRA =        F    use ultrasoft PP ?                                      
   IUNSCR =        1    unscreen: 0-lin 1-nonlin 2-no                           
   RPACOR =    1.500    partial core radius                                     
   POMASS =   26.982; ZVAL   =    3.000    mass and valenz                      
   RCORE  =    1.900    outmost cutoff radius                                   
   RWIGS  =    2.650; RWIGS  =    1.402    wigner-seitz radius (au A)           
   ENMAX  =  240.300; ENMIN  =  180.225 eV                                      
   ICORE  =        2    local potential                                         
   LCOR   =        T    correct aug charges                                     
   LPAW   =        T    paw PP                                                  
   EAUG   =  291.052                                                            
   DEXC   =    -.041                                                            
   RMAX   =    2.974    core radius for proj-oper                               
   RAUG   =    1.300    factor for augmentation sphere                          
   RDEP   =    1.966    radius for radial grids                                 
   QCUT   =   -4.203; QGAM   =    8.405    optimization parameters              
                                                                                
   Description                                                                  
     l     E      TYP  RCUT    TYP  RCUT                                        
     0   .000     23  1.900                                                     
     0   .000     23  1.900                                                     
     1   .000     23  1.900                                                     
     1  1.000     23  1.900                                                     
     2   .000      7  1.900                                                     
  local pseudopotential read in
  partial core-charges read in
  atomic valenz-charges read in
  non local Contribution for L=           0  read in
    real space projection operators read in
  non local Contribution for L=           0  read in
    real space projection operators read in
  non local Contribution for L=           1  read in
    real space projection operators read in
  non local Contribution for L=           1  read in
    real space projection operators read in
    PAW grid and wavefunctions read in
 
   number of l-projection  operators is LMAX  =           4
   number of lm-projection operators is LMMAX =           8
 
 POTCAR:   PAW_PBE Mg 05Jan2001                   
   VRHFIN =Mg: s2p0                                                             
   LEXCH  = PE                                                                  
   EATOM  =    23.0029 eV,    1.6907 Ry                                         
                                                                                
   TITEL  = PAW_PBE Mg 05Jan2001                                                
   LULTRA =        F    use ultrasoft PP ?                                      
   IUNSCR =        1    unscreen: 0-lin 1-nonlin 2-no                           
   RPACOR =    2.000    partial core radius                                     
   POMASS =   24.305; ZVAL   =    2.000    mass and valenz                      
   RCORE  =    2.000    outmost cutoff radius                                   
   RWIGS  =    2.880; RWIGS  =    1.524    wigner-seitz radius (au A)           
   ENMAX  =  210.012; ENMIN  =  157.509 eV                                      
   ICORE  =        2    local potential                                         
   LCOR   =        T    correct aug charges                                     
   LPAW   =        T    paw PP                                                  
   EAUG   =  274.554                                                            
   DEXC   =    -.136                                                            
   RMAX   =    3.182    core radius for proj-oper                               
   RAUG   =    1.300    factor for augmentation sphere                          
   RDEP   =    2.025    radius for radial grids                                 
   QCUT   =   -3.929; QGAM   =    7.858    optimization parameters              
                                                                                
   Description                                                                  
     l     E      TYP  RCUT    TYP  RCUT                                        
     0   .000     23  2.000                                                     
     0  2.000     23  2.000                                                     
     1   .000     23  2.000                                                     
     1  2.000     23  2.000                                                     
     2   .000     23  2.000                                                     
  local pseudopotential read in
  partial core-charges read in
  atomic valenz-charges read in
  non local Contribution for L=           0  read in
    real space projection operators read in
  non local Contribution for L=           0  read in
    real space projection operators read in
  non local Contribution for L=           1  read in
    real space projection operators read in
  non local Contribution for L=           1  read in
    real space projection operators read in
    PAW grid and wavefunctions read in
 
   number of l-projection  operators is LMAX  =           4
   number of lm-projection operators is LMMAX =           8
 

 ----------------------------------------------------------------------------- 
|                                                                             |
|  ADVICE TO THIS USER RUNNING 'VASP/VAMP'   (HEAR YOUR MASTER'S VOICE ...):  |
|                                                                             |
|      You have a (more or less) 'large supercell' and for larger cells       |
|      it might be more efficient to use real space projection operators      |
|      So try LREAL= Auto  in the INCAR   file.                               |
|      Mind: If you want to do a very accurate calculations keep the          |
|      reciprocal projection scheme          (i.e. LREAL=.FALSE.)             |
|                                                                             |
 ----------------------------------------------------------------------------- 

 PAW_PBE Al 04Jan2001                   :
 energy of atom  1       EATOM=  -53.5387
 kinetic energy error for atom=    0.0011 (will be added to EATOM!!)
 PAW_PBE Mg 05Jan2001                   :
 energy of atom  2       EATOM=  -23.0029
 kinetic energy error for atom=    0.0002 (will be added to EATOM!!)
 
 
 POSCAR: Mg1 Al32                                
  positions in direct lattice
  velocities in cartesian coordinates
 exchange correlation table for  LEXCH =        8
   RHO(1)=    0.500       N(1)  =     2000
   RHO(2)=  100.500       N(2)  =     4000

 VTST: version 2.03d, (02/18/09)

 CHAIN: initializing optimizer
 
 OPT: Using VASP Conjugate-Gradient optimizer
 CHAIN: Read ICHAIN            0
 


--------------------------------------------------------------------------------------------------------


 ion  position               nearest neighbor table
   1  0.000  0.000  0.000-   2 2.86   3 2.86   4 2.86   6 2.86   7 2.86  11 2.86  12 2.86  15 2.86
                            18 2.86  20 2.86  22 2.86  28 2.86
   2  0.250  0.000  0.250-   1 2.86   3 2.86   4 2.86   5 2.86   8 2.86  11 2.86  12 2.86  16 2.86
                            17 2.86  19 2.86  21 2.86  27 2.86
   3  0.250  0.250  0.000-   1 2.86   2 2.86   4 2.86   5 2.86   8 2.86   9 2.86  10 2.86  13 2.86
                            18 2.86  20 2.86  24 2.86  26 2.86
   4  0.000  0.250  0.250-   1 2.86   2 2.86   3 2.86   6 2.86   7 2.86   9 2.86  10 2.86  14 2.86
                            17 2.86  19 2.86  23 2.86  25 2.86
   5  0.500  0.000  0.000-   2 2.86   3 2.86   6 2.86   7 2.86   8 2.86  11 2.86  15 2.86  16 2.86
                            18 2.86  22 2.86  24 2.86  32 2.86
   6  0.750  0.000  0.250-   1 2.86   4 2.86   5 2.86   7 2.86   8 2.86  12 2.86  15 2.86  16 2.86
                            17 2.86  21 2.86  23 2.86  31 2.86
   7  0.750  0.250  0.000-   1 2.86   4 2.86   5 2.86   6 2.86   8 2.86   9 2.86  13 2.86  14 2.86
                            20 2.86  22 2.86  24 2.86  30 2.86
   8  0.500  0.250  0.250-   2 2.86   3 2.86   5 2.86   6 2.86   7 2.86  10 2.86  13 2.86  14 2.86
                            19 2.86  21 2.86  23 2.86  29 2.86
   9  0.000  0.500  0.000-   3 2.86   4 2.86   7 2.86  10 2.86  11 2.86  12 2.86  14 2.86  15 2.86
                            20 2.86  26 2.86  28 2.86  30 2.86
  10  0.250  0.500  0.250-   3 2.86   4 2.86   8 2.86   9 2.86  11 2.86  12 2.86  13 2.86  16 2.86
                            19 2.86  25 2.86  27 2.86  29 2.86
  11  0.250  0.750  0.000-   1 2.86   2 2.86   5 2.86   9 2.86  10 2.86  12 2.86  13 2.86  16 2.86
                            18 2.86  26 2.86  28 2.86  32 2.86
  12  0.000  0.750  0.250-   1 2.86   2 2.86   6 2.86   9 2.86  10 2.86  11 2.86  14 2.86  15 2.86
                            17 2.86  25 2.86  27 2.86  31 2.86
  13  0.500  0.500  0.000-   3 2.86   7 2.86   8 2.86  10 2.86  11 2.86  14 2.86  15 2.86  16 2.86
                            24 2.86  26 2.86  30 2.86  32 2.86  33 3.30
  14  0.750  0.500  0.250-   4 2.86   7 2.86   8 2.86   9 2.86  12 2.86  13 2.86  15 2.86  16 2.86
                            23 2.86  25 2.86  29 2.86  31 2.86
  15  0.750  0.750  0.000-   1 2.86   5 2.86   6 2.86   9 2.86  12 2.86  13 2.86  14 2.86  16 2.86
                            22 2.86  28 2.86  30 2.86  32 2.86  33 2.94
  16  0.500  0.750  0.250-   2 2.86   5 2.86   6 2.86  10 2.86  11 2.86  13 2.86  14 2.86  15 2.86
                            21 2.86  27 2.86  29 2.86  31 2.86
  17  0.000  0.000  0.500-   2 2.86   4 2.86   6 2.86  12 2.86  18 2.86  19 2.86  20 2.86  22 2.86
                            23 2.86  27 2.86  28 2.86  31 2.86
  18  0.250  0.000  0.750-   1 2.86   3 2.86   5 2.86  11 2.86  17 2.86  19 2.86  20 2.86  21 2.86
                            24 2.86  27 2.86  28 2.86  32 2.86
  19  0.250  0.250  0.500-   2 2.86   4 2.86   8 2.86  10 2.86  17 2.86  18 2.86  20 2.86  21 2.86
                            24 2.86  25 2.86  26 2.86  29 2.86
  20  0.000  0.250  0.750-   1 2.86   3 2.86   7 2.86   9 2.86  17 2.86  18 2.86  19 2.86  22 2.86
                            23 2.86  25 2.86  26 2.86  30 2.86
  21  0.500  0.000  0.500-   2 2.86   6 2.86   8 2.86  16 2.86  18 2.86  19 2.86  22 2.86  23 2.86
                            24 2.86  27 2.86  31 2.86  32 2.86  33 3.30
  22  0.750  0.000  0.750-   1 2.86   5 2.86   7 2.86  15 2.86  17 2.86  20 2.86  21 2.86  23 2.86
                            24 2.86  28 2.86  31 2.86  32 2.86  33 2.94
  23  0.750  0.250  0.500-   4 2.86   6 2.86   8 2.86  14 2.86  17 2.86  20 2.86  21 2.86  22 2.86
                            24 2.86  25 2.86  29 2.86  30 2.86
  24  0.500  0.250  0.750-   3 2.86   5 2.86   7 2.86  13 2.86  18 2.86  19 2.86  21 2.86  22 2.86
                            23 2.86  26 2.86  29 2.86  30 2.86
  25  0.000  0.500  0.500-   4 2.86  10 2.86  12 2.86  14 2.86  19 2.86  20 2.86  23 2.86  26 2.86
                            27 2.86  28 2.86  30 2.86  31 2.86  33 3.30
  26  0.250  0.500  0.750-   3 2.86   9 2.86  11 2.86  13 2.86  19 2.86  20 2.86  24 2.86  25 2.86
                            27 2.86  28 2.86  29 2.86  32 2.86
  27  0.250  0.750  0.500-   2 2.86  10 2.86  12 2.86  16 2.86  17 2.86  18 2.86  21 2.86  25 2.86
                            26 2.86  28 2.86  29 2.86  32 2.86
  28  0.000  0.750  0.750-   1 2.86   9 2.86  11 2.86  15 2.86  17 2.86  18 2.86  22 2.86  25 2.86
                            26 2.86  27 2.86  30 2.86  31 2.86  33 2.94
  29  0.500  0.500  0.500-  33 2.24  10 2.86  14 2.86  16 2.86  19 2.86  23 2.86  24 2.86  26 2.86
                            27 2.86  30 2.86  31 2.86  32 2.86   8 2.86
  30  0.750  0.500  0.750-  33 1.65   9 2.86  13 2.86  15 2.86  20 2.86  23 2.86  24 2.86  25 2.86
                            28 2.86  29 2.86  31 2.86  32 2.86   7 2.86
  31  0.750  0.750  0.500-  33 1.65  12 2.86  14 2.86  16 2.86  17 2.86  21 2.86  22 2.86  25 2.86
                            28 2.86  29 2.86  30 2.86  32 2.86   6 2.86
  32  0.500  0.750  0.750-  33 1.65  11 2.86  13 2.86  15 2.86  18 2.86  21 2.86  22 2.86  26 2.86
                            27 2.86  29 2.86  30 2.86  31 2.86   5 2.86
  33  0.660  0.660  0.660-  30 1.65  31 1.65  32 1.65  29 2.24  15 2.94  22 2.94  28 2.94  25 3.30
                            21 3.30  13 3.30
 

 ----------------------------------------------------------------------------- 
|                                                                             |
|           W    W    AA    RRRRR   N    N  II  N    N   GGGG   !!!           |
|           W    W   A  A   R    R  NN   N  II  NN   N  G    G  !!!           |
|           W    W  A    A  R    R  N N  N  II  N N  N  G       !!!           |
|           W WW W  AAAAAA  RRRRR   N  N N  II  N  N N  G  GGG   !            |
|           WW  WW  A    A  R   R   N   NN  II  N   NN  G    G                |
|           W    W  A    A  R    R  N    N  II  N    N   GGGG   !!!           |
|                                                                             |
|      The distance between some ions is very small                           |
|      please check the nearest neigbor list in the OUTCAR file               |
|          I HOPE YOU KNOW, WHAT YOU ARE  DOING                               |
|                                                                             |
 ----------------------------------------------------------------------------- 

  LATTYP: Found a simple cubic cell.
 ALAT       =     8.0870520000
  
  Lattice vectors:
  
 A1 = (   8.0870520000,   0.0000000000,   0.0000000000)
 A2 = (   0.0000000000,   8.0870520000,   0.0000000000)
 A3 = (   0.0000000000,   0.0000000000,   8.0870520000)
 Subroutine PRICEL returns:
 Original cell was already a primitive cell.
 

Analysis of symmetry for initial positions (statically):

 Routine SETGRP: Setting up the symmetry group for a 
 simple cubic supercell.


 Subroutine GETGRP returns: Found  6 space group operations
 (whereof  6 operations were pure point group operations)
 out of a pool of 48 trial point group operations.


The static configuration has the point symmetry C_3v.

Analysis of symmetry for dynamics (positions and initial velocities):

 Subroutine DYNSYM returns: Found  6 space group operations
 (whereof  6 operations were pure point group operations)
 out of a pool of  6 trial space group operations
 (whereof  6 operations were pure point group operations)
 and found also     1 'primitive' translations


The dynamic configuration has the point symmetry C_3v.
 
 
 KPOINTS: Automatic kpoint scheme                 

Automatic generation of k-mesh.
 
 Subroutine IBZKPT returns following result:
 ===========================================
 
 Found      1 irreducible k-points:
 
 Following reciprocal coordinates:
            Coordinates               Weight
  0.000000  0.000000  0.000000      1.000000
 
 Following cartesian coordinates:
            Coordinates               Weight
  0.000000  0.000000  0.000000      1.000000
 


--------------------------------------------------------------------------------------------------------




 Dimension of arrays:
   k-points           NKPTS =      1   k-points in BZ     NKDIM =      1   number of bands    NBANDS=     72
   number of dos      NEDOS =    301   number of ions     NIONS =     33
   non local maximal  LDIM  =      4   non local SUM 2l+1 LMDIM =      8
   total plane-waves  NPLWV = 110592
   max r-space proj   IRMAX =      1   max aug-charges    IRDMAX=   9081
   dimension x,y,z NGX =    48 NGY =   48 NGZ =   48
   dimension x,y,z NGXF=    96 NGYF=   96 NGZF=   96
   support grid    NGXF=    96 NGYF=   96 NGZF=   96
   ions per type =              32   1
 NGX,Y,Z   is equivalent  to a cutoff of   9.87,  9.87,  9.87 a.u.
 NGXF,Y,Z  is equivalent  to a cutoff of  19.73, 19.73, 19.73 a.u.


 I would recommend the setting:
   dimension x,y,z NGX =    46 NGY =   46 NGZ =   46
 SYSTEM =  unknown system                          
 POSCAR =  Mg1 Al32                                

 Startparameter for this run:
   NWRITE =      2    write-flag & timer
   PREC   = accura    medium, high low
   ISTART =      0    job   : 0-new  1-cont  2-samecut
   ICHARG =      2    charge: 1-file 2-atom 10-const
   ISPIN  =      1    spin polarized calculation?
   LNONCOLLINEAR =      F non collinear calculations
   LSORBIT =      F    spin-orbit coupling
   INIWAV =      1    electr: 0-lowe 1-rand  2-diag
   LASPH  =      F    aspherical Exc in radial PAW
   METAGGA=      F    non-selfconsistent MetaGGA calc.

 Electronic Relaxation 1
   ENCUT  =  300.0 eV  22.05 Ry    4.70 a.u.  11.42 11.42 11.42*2*pi/ulx,y,z
   ENINI  =  300.0     initial cutoff
   ENAUG  =  291.1 eV  augmentation charge cutoff
   NELM   =     60;   NELMIN=  2; NELMDL=-12     # of ELM steps 
   EDIFF  = 0.1E-03   stopping-criterion for ELM
   LREAL  =      F    real-space projection
   LCOMPAT=      F    compatible to vasp.4.4
   LREAL_COMPAT= F    compatible to vasp.4.5.1-3
   GGA_COMPAT  = T    GGA compatible to vasp.4.4-vasp.4.6
   LMAXPAW     = -100 max onsite density
   LMAXMIX     =    2 max onsite mixed and CHGCAR
   VOSKOWN=      0    Vosko Wilk Nusair interpolation
   ROPT   =    0.00000   0.00000
 Ionic relaxation
   EDIFFG = 0.5E-01   stopping-criterion for IOM
   NSW    =    191    number of steps for IOM
   NBLOCK =      1;   KBLOCK =    191    inner block; outer block 
   IBRION =      2    ionic relax: 0-MD 1-quasi-New 2-CG
   NFREE  =      1    steps in history (QN), initial steepest desc. (CG)
   ISIF   =      2    stress and relaxation
   IWAVPR =     11    prediction:  0-non 1-charg 2-wave 3-comb
   ISYM   =      2    0-nonsym 1-usesym 2-fastsym
   LCORR  =      T    Harris-Foulkes like correction to forces

   POTIM  = 0.5000    time-step for ionic-motion
   TEIN   =    0.0    initial temperature
   TEBEG  =    0.0;   TEEND  =   0.0 temperature during run
   SMASS  =  -3.00    Nose mass-parameter (am)
   estimated Nose-frequenzy (Omega)   =  0.10E-29 period in steps =****** mass=  -0.149E-26a.u.
   NPACO  =    256;   APACO  = 16.0  distance and # of slots for P.C.
   PSTRESS=    0.0 pullay stress

  Mass of Ions in am
   POMASS =  26.98 24.30
  Ionic Valenz
   ZVAL   =   3.00  2.00
  Atomic Wigner-Seitz radii
   RWIGS  =  -1.00 -1.00
   NELECT =      98.0000    total number of electrons
   NUPDOWN=      -1.0000    fix difference up-down

 DOS related values:
   EMIN   =  10.00;   EMAX   =-10.00  energy-range for DOS
   EFERMI =   0.00
   ISMEAR =     1;   SIGMA  =   0.20  broadening in eV -4-tet -1-fermi 0-gaus

 Electronic relaxation 2 (details)
   IALGO  =     48    algorithm
   LDIAG  =      T    sub-space diagonalisation
   IMIX   =      4    mixing-type and parameters
     AMIX     =   0.40;   BMIX     =  1.00
     AMIX_MAG =   1.60;   BMIX_MAG =  1.00
     AMIN     =   0.10
     WC   =   100.;   INIMIX=   1;  MIXPRE=   1

 Intra band minimization:
   WEIMIN = 0.0010     energy-eigenvalue tresh-hold
   EBREAK =  0.38E-06  absolut break condition
   DEPER  =   0.30     relativ break condition  

   TIME   =   0.40     timestep for ELM

  volume/ion in A,a.u.               =      16.03       108.16
  Fermi-wavevector in a.u.,A,eV,Ry     =   0.933312  1.763703 11.851632  0.871070
  Thomas-Fermi vector in A             =   2.060000
 
 Write flags
   LWAVE  =      F    write WAVECAR
   LCHARG =      F    write CHGCAR
   LVTOT  =      F    write LOCPOT, local potential
   LELF   =      F    write electronic localiz. function (ELF)
   LORBIT =      0    0 simple, 1 ext, 2 COOP (PROOUT)


 Dipole corrections
   LMONO  =      F    monopole corrections only (constant potential shift)
   LDIPOL =      F    correct potential (dipole corrections)
   IDIPOL =      0    1-x, 2-y, 3-z, 4-all directions 
   EPSILON=  1.0000000 bulk dielectric constant

 Exchange correlation treatment:
   GGA     =    --    GGA type
   LEXCH   =     8    internal setting for exchange type
   VOSKOWN=      0    Vosko Wilk Nusair interpolation
   LHFCALC =     F    Hartree Fock is set to
   LHFONE  =     F    Hartree Fock one center treatment
   AEXX    =    0.0000 exact exchange contribution

 Linear response parameters
   LEPSILON=     F    determine dielectric tensor
   LRPA    =     F    only Hartree local field effects (RPA)
   LNABLA  =     F    use nabla operator in PAW spheres
   LVEL    =     F    velocity operator in full k-point grid
   LINTERFAST=   F  fast interpolation
   KINTER  =     0    interpolate to denser k-point grid
   CSHIFT  =0.1000    complex shift for real part using Kramers Kronig
   OMEGAMAX=  -1.0    maximum frequency

 Orbital magnetization related:
   ORBITALMAG=     F  switch on orbital magnetization
   LCHIMAG   =     F  perturbation theory with respect to B field



--------------------------------------------------------------------------------------------------------


 conjugate gradient relaxation of ions
 charge density and potential will be updated during run
 non-spin polarized calculation
 RMM-DIIS sequential band-by-band
 perform sub-space diagonalisation
    before iterative eigenvector-optimisation
 modified Broyden-mixing scheme, WC =      100.0
 initial mixing is a Kerker type mixing with AMIX =  0.4000 and BMIX =      1.0000
 Hartree-type preconditioning will be used
 using additional bands           23
 reciprocal scheme for non local part
 use partial core corrections
 calculate Harris-corrections to forces 
   (improved forces if not selfconsistent)
 use gradient corrections 
 use of overlap-Matrix (Vanderbilt PP)
 Methfessel and Paxton  Order N= 1 SIGMA  =   0.20


--------------------------------------------------------------------------------------------------------


  energy-cutoff  :      300.00
  volume of cell :      528.90
      direct lattice vectors                 reciprocal lattice vectors
     8.087052000  0.000000000  0.000000000     0.123654454  0.000000000  0.000000000
     0.000000000  8.087052000  0.000000000     0.000000000  0.123654454  0.000000000
     0.000000000  0.000000000  8.087052000     0.000000000  0.000000000  0.123654454

  length of vectors
     8.087052000  8.087052000  8.087052000     0.123654454  0.123654454  0.123654454


 
 k-points in units of 2pi/SCALE and weight: Automatic kpoint scheme                 
   0.00000000  0.00000000  0.00000000       1.000
 
 k-points in reciprocal lattice and weights: Automatic kpoint scheme                 
   0.00000000  0.00000000  0.00000000       1.000
 
 position of ions in fractional coordinates (direct lattice) 
   0.00000000  0.00000000  0.00000000
   0.25000000  0.00000000  0.25000000
   0.25000000  0.25000000  0.00000000
   0.00000000  0.25000000  0.25000000
   0.50000000  0.00000000  0.00000000
   0.75000000  0.00000000  0.25000000
   0.75000000  0.25000000  0.00000000
   0.50000000  0.25000000  0.25000000
   0.00000000  0.50000000  0.00000000
   0.25000000  0.50000000  0.25000000
   0.25000000  0.75000000  0.00000000
   0.00000000  0.75000000  0.25000000
   0.50000000  0.50000000  0.00000000
   0.75000000  0.50000000  0.25000000
   0.75000000  0.75000000  0.00000000
   0.50000000  0.75000000  0.25000000
   0.00000000  0.00000000  0.50000000
   0.25000000  0.00000000  0.75000000
   0.25000000  0.25000000  0.50000000
   0.00000000  0.25000000  0.75000000
   0.50000000  0.00000000  0.50000000
   0.75000000  0.00000000  0.75000000
   0.75000000  0.25000000  0.50000000
   0.50000000  0.25000000  0.75000000
   0.00000000  0.50000000  0.50000000
   0.25000000  0.50000000  0.75000000
   0.25000000  0.75000000  0.50000000
   0.00000000  0.75000000  0.75000000
   0.50000000  0.50000000  0.50000000
   0.75000000  0.50000000  0.75000000
   0.75000000  0.75000000  0.50000000
   0.50000000  0.75000000  0.75000000
   0.66000000  0.66000000  0.66000000
 
 position of ions in cartesian coordinates  (Angst):
   0.00000000  0.00000000  0.00000000
   2.02176300  0.00000000  2.02176300
   2.02176300  2.02176300  0.00000000
   0.00000000  2.02176300  2.02176300
   4.04352600  0.00000000  0.00000000
   6.06528900  0.00000000  2.02176300
   6.06528900  2.02176300  0.00000000
   4.04352600  2.02176300  2.02176300
   0.00000000  4.04352600  0.00000000
   2.02176300  4.04352600  2.02176300
   2.02176300  6.06528900  0.00000000
   0.00000000  6.06528900  2.02176300
   4.04352600  4.04352600  0.00000000
   6.06528900  4.04352600  2.02176300
   6.06528900  6.06528900  0.00000000
   4.04352600  6.06528900  2.02176300
   0.00000000  0.00000000  4.04352600
   2.02176300  0.00000000  6.06528900
   2.02176300  2.02176300  4.04352600
   0.00000000  2.02176300  6.06528900
   4.04352600  0.00000000  4.04352600
   6.06528900  0.00000000  6.06528900
   6.06528900  2.02176300  4.04352600
   4.04352600  2.02176300  6.06528900
   0.00000000  4.04352600  4.04352600
   2.02176300  4.04352600  6.06528900
   2.02176300  6.06528900  4.04352600
   0.00000000  6.06528900  6.06528900
   4.04352600  4.04352600  4.04352600
   6.06528900  4.04352600  6.06528900
   6.06528900  6.06528900  4.04352600
   4.04352600  6.06528900  6.06528900
   5.33745432  5.33745432  5.33745432
 


--------------------------------------------------------------------------------------------------------


 k-point  1 :  0.00000.00000.0000  plane waves:    6235

 maximum and minimum number of plane-waves per node :    6235   6235

 maximum number of plane-waves:    6235
 maximal index in each direction: 
   IXMAX= 11   IYMAX= 11   IZMAX= 11
   IXMIN=-11   IYMIN=-11   IZMIN=-11

 NGX is ok and might be reduce to  46
 NGY is ok and might be reduce to  46
 NGZ is ok and might be reduce to  46

 serial   3D FFT for wavefunctions
 parallel 3D FFT for charge:
    minimum data exchange during FFTs selected (reduces bandwidth)


 total amount of memory used by VASP on root node  62502. kBytes
========================================================================

   base      :    30000. kBytes
   nonl-proj :     4093. kBytes
   fftplans  :     4240. kBytes
   grid      :    23132. kBytes
   one-center:      101. kBytes
   wavefun   :      936. kBytes
 
 Broyden mixing: mesh for mixing (old mesh)
   NGX = 23   NGY = 23   NGZ = 23
  (NGX  = 96   NGY  = 96   NGZ  = 96)
  gives a total of  12167 points

 initial charge density was supplied:
 charge density of overlapping atoms calculated
 number of electron   98.0000000 magnetization 
 keeping initial charge density in first step


--------------------------------------------------------------------------------------------------------


 Maximum index for augmentation-charges         1113 (set IRDMAX)


--------------------------------------------------------------------------------------------------------


 First call to EWALD:  gamma=   0.219
 Maximum number of real-space cells 3x 3x 3
 Maximum number of reciprocal cells 3x 3x 3

    FEWALD:  cpu time    0.01: real time    0.01
   RESPFUN:  cpu time    0.00: real time    0.01


----------------------------------------- Iteration    1(   1)  ---------------------------------------


    POTLOK:  cpu time    0.25: real time    0.25
    SETDIJ:  cpu time    0.02: real time    0.02
    EDDIAG:  cpu time    0.23: real time    0.23
  RMM-DIIS:  cpu time    0.54: real time    0.54
    ORTHCH:  cpu time    0.01: real time    0.01
       DOS:  cpu time    0.00: real time    0.00
    --------------------------------------------
      LOOP:  cpu time    1.06: real time    1.08

 eigenvalue-minimisations  :    72
 total energy-change (2. order) : 0.2986419E+03  (-0.1735169E+04)
 number of electron   98.0000000 magnetization 
 augmentation part    98.0000000 magnetization 

 Free energy of the ion-electron system (eV)
  ---------------------------------------------------
  alpha Z        PSCENC =        -8.27954604
  Ewald energy   TEWEN  =     -2377.69944848
  -1/2 Hartree   DENC   =        -9.50491146
  -exchange  EXHF       =         0.00000000
  -V(xc)+E(xc)   XCENC  =      -846.35400825
  PAW double counting   =      1149.32568210     -115.70169129
  entropy T*S    EENTRO =         0.02492223
  eigenvalues    EBANDS =       770.62421699
  atomic energy  EATOM  =      1736.20668909
  ---------------------------------------------------
  free energy    TOTEN  =       298.64190488 eV

  energy without entropy =      298.61698265  energy(sigma->0) =      298.63359747


--------------------------------------------------------------------------------------------------------




----------------------------------------- Iteration    1(   2)  ---------------------------------------


    EDDIAG:  cpu time    0.23: real time    0.23
  RMM-DIIS:  cpu time    0.54: real time    0.54
    ORTHCH:  cpu time    0.01: real time    0.01
       DOS:  cpu time    0.00: real time    0.00
    --------------------------------------------
      LOOP:  cpu time    0.79: real time    0.79

 eigenvalue-minimisations  :    72
 total energy-change (2. order) :-0.2978952E+03  (-0.2906956E+03)
 number of electron   98.0000000 magnetization 
 augmentation part    98.0000000 magnetization 

 Free energy of the ion-electron system (eV)
  ---------------------------------------------------
  alpha Z        PSCENC =        -8.27954604
  Ewald energy   TEWEN  =     -2377.69944848
  -1/2 Hartree   DENC   =        -9.50491146
  -exchange  EXHF       =         0.00000000
  -V(xc)+E(xc)   XCENC  =      -846.35400825
  PAW double counting   =      1149.32568210     -115.70169129
  entropy T*S    EENTRO =        -0.00483344
  eigenvalues    EBANDS =       472.75878120
  atomic energy  EATOM  =      1736.20668909
  ---------------------------------------------------
  free energy    TOTEN  =         0.74671342 eV

  energy without entropy =        0.75154686  energy(sigma->0) =        0.74832457


--------------------------------------------------------------------------------------------------------




----------------------------------------- Iteration    1(   3)  ---------------------------------------


    EDDIAG:  cpu time    0.23: real time    0.23
  RMM-DIIS:  cpu time    0.54: real time    0.54
    ORTHCH:  cpu time    0.01: real time    0.01
       DOS:  cpu time    0.00: real time    0.00
    --------------------------------------------
      LOOP:  cpu time    0.79: real time    0.79

 eigenvalue-minimisations  :    72
 total energy-change (2. order) :-0.5574972E+02  (-0.5727775E+02)
 number of electron   98.0000000 magnetization 
 augmentation part    98.0000000 magnetization 

 Free energy of the ion-electron system (eV)
  ---------------------------------------------------
  alpha Z        PSCENC =        -8.27954604
  Ewald energy   TEWEN  =     -2377.69944848
  -1/2 Hartree   DENC   =        -9.50491146
  -exchange  EXHF       =         0.00000000
  -V(xc)+E(xc)   XCENC  =      -846.35400825
  PAW double counting   =      1149.32568210     -115.70169129
  entropy T*S    EENTRO =        -0.10387696
  eigenvalues    EBANDS =       417.10810179
  atomic energy  EATOM  =      1736.20668909
  ---------------------------------------------------
  free energy    TOTEN  =       -55.00300950 eV

  energy without entropy =      -54.89913255  energy(sigma->0) =      -54.96838385


--------------------------------------------------------------------------------------------------------




----------------------------------------- Iteration    1(   4)  ---------------------------------------


    EDDIAG:  cpu time    0.23: real time    0.23
  RMM-DIIS:  cpu time    0.54: real time    0.54
    ORTHCH:  cpu time    0.01: real time    0.01
       DOS:  cpu time    0.00: real time    0.00
    --------------------------------------------
      LOOP:  cpu time    0.79: real time    0.79

 eigenvalue-minimisations  :    72
 total energy-change (2. order) :-0.1803819E+02  (-0.1433315E+02)
 number of electron   98.0000000 magnetization 
 augmentation part    98.0000000 magnetization 

 Free energy of the ion-electron system (eV)
  ---------------------------------------------------
  alpha Z        PSCENC =        -8.27954604
  Ewald energy   TEWEN  =     -2377.69944848
  -1/2 Hartree   DENC   =        -9.50491146
  -exchange  EXHF       =         0.00000000
  -V(xc)+E(xc)   XCENC  =      -846.35400825
  PAW double counting   =      1149.32568210     -115.70169129
  entropy T*S    EENTRO =         0.08038124
  eigenvalues    EBANDS =       398.88565073
  atomic energy  EATOM  =      1736.20668909
  ---------------------------------------------------
  free energy    TOTEN  =       -73.04120236 eV

  energy without entropy =      -73.12158360  energy(sigma->0) =      -73.06799611


--------------------------------------------------------------------------------------------------------




----------------------------------------- Iteration    1(   5)  ---------------------------------------


    EDDIAG:  cpu time    0.23: real time    0.23
  RMM-DIIS:  cpu time    0.54: real time    0.54
    ORTHCH:  cpu time    0.01: real time    0.01
       DOS:  cpu time    0.00: real time    0.00
    --------------------------------------------
      LOOP:  cpu time    0.79: real time    0.79

 eigenvalue-minimisations  :    72
 total energy-change (2. order) :-0.8248665E+01  (-0.5755112E+01)
 number of electron   98.0000000 magnetization 
 augmentation part    98.0000000 magnetization 

 Free energy of the ion-electron system (eV)
  ---------------------------------------------------
  alpha Z        PSCENC =        -8.27954604
  Ewald energy   TEWEN  =     -2377.69944848
  -1/2 Hartree   DENC   =        -9.50491146
  -exchange  EXHF       =         0.00000000
  -V(xc)+E(xc)   XCENC  =      -846.35400825
  PAW double counting   =      1149.32568210     -115.70169129
  entropy T*S    EENTRO =         0.00988588
  eigenvalues    EBANDS =       390.70748132
  atomic energy  EATOM  =      1736.20668909
  ---------------------------------------------------
  free energy    TOTEN  =       -81.28986713 eV

  energy without entropy =      -81.29975302  energy(sigma->0) =      -81.29316243


--------------------------------------------------------------------------------------------------------




----------------------------------------- Iteration    1(   6)  ---------------------------------------


    EDDIAG:  cpu time    0.23: real time    0.23
  RMM-DIIS:  cpu time    0.54: real time    0.54
    ORTHCH:  cpu time    0.01: real time    0.01
       DOS:  cpu time    0.00: real time    0.00
    --------------------------------------------
      LOOP:  cpu time    0.79: real time    0.79

 eigenvalue-minimisations  :    72
 total energy-change (2. order) :-0.2986925E+01  (-0.2324104E+01)
 number of electron   98.0000000 magnetization 
 augmentation part    98.0000000 magnetization 

 Free energy of the ion-electron system (eV)
  ---------------------------------------------------
  alpha Z        PSCENC =        -8.27954604
  Ewald energy   TEWEN  =     -2377.69944848
  -1/2 Hartree   DENC   =        -9.50491146
  -exchange  EXHF       =         0.00000000
  -V(xc)+E(xc)   XCENC  =      -846.35400825
  PAW double counting   =      1149.32568210     -115.70169129
  entropy T*S    EENTRO =        -0.05512334
  eigenvalues    EBANDS =       387.78556557
  atomic energy  EATOM  =      1736.20668909
  ---------------------------------------------------
  free energy    TOTEN  =       -84.27679210 eV

  energy without entropy =      -84.22166877  energy(sigma->0) =      -84.25841766


--------------------------------------------------------------------------------------------------------




----------------------------------------- Iteration    1(   7)  ---------------------------------------


    EDDIAG:  cpu time    0.23: real time    0.23
  RMM-DIIS:  cpu time    0.55: real time    0.55
    ORTHCH:  cpu time    0.01: real time    0.01
       DOS:  cpu time    0.00: real time    0.00
    --------------------------------------------
      LOOP:  cpu time    0.79: real time    0.80

 eigenvalue-minimisations  :    72
 total energy-change (2. order) :-0.1144231E+01  (-0.9790861E+00)
 number of electron   98.0000000 magnetization 
 augmentation part    98.0000000 magnetization 

 Free energy of the ion-electron system (eV)
  ---------------------------------------------------
  alpha Z        PSCENC =        -8.27954604
  Ewald energy   TEWEN  =     -2377.69944848
  -1/2 Hartree   DENC   =        -9.50491146
  -exchange  EXHF       =         0.00000000
  -V(xc)+E(xc)   XCENC  =      -846.35400825
  PAW double counting   =      1149.32568210     -115.70169129
  entropy T*S    EENTRO =        -0.08061124
  eigenvalues    EBANDS =       386.66682273
  atomic energy  EATOM  =      1736.20668909
  ---------------------------------------------------
  free energy    TOTEN  =       -85.42102285 eV

  energy without entropy =      -85.34041161  energy(sigma->0) =      -85.39415244


--------------------------------------------------------------------------------------------------------




----------------------------------------- Iteration    1(   8)  ---------------------------------------


    EDDIAG:  cpu time    0.23: real time    0.23
  RMM-DIIS:  cpu time    0.54: real time    0.54
    ORTHCH:  cpu time    0.01: real time    0.01
       DOS:  cpu time    0.00: real time    0.00
    --------------------------------------------
      LOOP:  cpu time    0.79: real time    0.79

 eigenvalue-minimisations  :    72
 total energy-change (2. order) :-0.4930475E+00  (-0.4411243E+00)
 number of electron   98.0000000 magnetization 
 augmentation part    98.0000000 magnetization 

 Free energy of the ion-electron system (eV)
  ---------------------------------------------------
  alpha Z        PSCENC =        -8.27954604
  Ewald energy   TEWEN  =     -2377.69944848
  -1/2 Hartree   DENC   =        -9.50491146
  -exchange  EXHF       =         0.00000000
  -V(xc)+E(xc)   XCENC  =      -846.35400825
  PAW double counting   =      1149.32568210     -115.70169129
  entropy T*S    EENTRO =        -0.09304484
  eigenvalues    EBANDS =       386.18620879
  atomic energy  EATOM  =      1736.20668909
  ---------------------------------------------------
  free energy    TOTEN  =       -85.91407038 eV

  energy without entropy =      -85.82102555  energy(sigma->0) =      -85.88305544


--------------------------------------------------------------------------------------------------------




----------------------------------------- Iteration    1(   9)  ---------------------------------------


    EDDIAG:  cpu time    0.23: real time    0.23
  RMM-DIIS:  cpu time    1.05: real time    1.05
    ORTHCH:  cpu time    0.01: real time    0.01
       DOS:  cpu time    0.00: real time    0.00
    --------------------------------------------
      LOOP:  cpu time    1.30: real time    1.30

 eigenvalue-minimisations  :   157
 total energy-change (2. order) :-0.4125719E+00  (-0.3875240E+00)
 number of electron   98.0000000 magnetization 
 augmentation part    98.0000000 magnetization 

 Free energy of the ion-electron system (eV)
  ---------------------------------------------------
  alpha Z        PSCENC =        -8.27954604
  Ewald energy   TEWEN  =     -2377.69944848
  -1/2 Hartree   DENC   =        -9.50491146
  -exchange  EXHF       =         0.00000000
  -V(xc)+E(xc)   XCENC  =      -846.35400825
  PAW double counting   =      1149.32568210     -115.70169129
  entropy T*S    EENTRO =        -0.09816283
  eigenvalues    EBANDS =       385.77875491
  atomic energy  EATOM  =      1736.20668909
  ---------------------------------------------------
  free energy    TOTEN  =       -86.32664225 eV

  energy without entropy =      -86.22847943  energy(sigma->0) =      -86.29392131


--------------------------------------------------------------------------------------------------------




----------------------------------------- Iteration    1(  10)  ---------------------------------------


    EDDIAG:  cpu time    0.24: real time    0.24
  RMM-DIIS:  cpu time    1.02: real time    1.02
    ORTHCH:  cpu time    0.01: real time    0.01
       DOS:  cpu time    0.00: real time    0.00
    --------------------------------------------
      LOOP:  cpu time    1.27: real time    1.27

 eigenvalue-minimisations  :   146
 total energy-change (2. order) :-0.5855636E-01  (-0.4470532E-01)
 number of electron   98.0000000 magnetization 
 augmentation part    98.0000000 magnetization 

 Free energy of the ion-electron system (eV)
  ---------------------------------------------------
  alpha Z        PSCENC =        -8.27954604
  Ewald energy   TEWEN  =     -2377.69944848
  -1/2 Hartree   DENC   =        -9.50491146
  -exchange  EXHF       =         0.00000000
  -V(xc)+E(xc)   XCENC  =      -846.35400825
  PAW double counting   =      1149.32568210     -115.70169129
  entropy T*S    EENTRO =        -0.09283090
  eigenvalues    EBANDS =       385.71486661
  atomic energy  EATOM  =      1736.20668909
  ---------------------------------------------------
  free energy    TOTEN  =       -86.38519862 eV

  energy without entropy =      -86.29236772  energy(sigma->0) =      -86.35425498


--------------------------------------------------------------------------------------------------------




----------------------------------------- Iteration    1(  11)  ---------------------------------------


    EDDIAG:  cpu time    0.24: real time    0.24
  RMM-DIIS:  cpu time    0.94: real time    0.95
    ORTHCH:  cpu time    0.01: real time    0.01
       DOS:  cpu time    0.00: real time    0.00
    --------------------------------------------
      LOOP:  cpu time    1.20: real time    1.20

 eigenvalue-minimisations  :   138
 total energy-change (2. order) :-0.3816687E-02  (-0.2245008E-02)
 number of electron   98.0000000 magnetization 
 augmentation part    98.0000000 magnetization 

 Free energy of the ion-electron system (eV)
  ---------------------------------------------------
  alpha Z        PSCENC =        -8.27954604
  Ewald energy   TEWEN  =     -2377.69944848
  -1/2 Hartree   DENC   =        -9.50491146
  -exchange  EXHF       =         0.00000000
  -V(xc)+E(xc)   XCENC  =      -846.35400825
  PAW double counting   =      1149.32568210     -115.70169129
  entropy T*S    EENTRO =        -0.09170182
  eigenvalues    EBANDS =       385.70992085
  atomic energy  EATOM  =      1736.20668909
  ---------------------------------------------------
  free energy    TOTEN  =       -86.38901530 eV

  energy without entropy =      -86.29731348  energy(sigma->0) =      -86.35844803


--------------------------------------------------------------------------------------------------------




----------------------------------------- Iteration    1(  12)  ---------------------------------------


    EDDIAG:  cpu time    0.23: real time    0.24
  RMM-DIIS:  cpu time    0.80: real time    0.80
    ORTHCH:  cpu time    0.01: real time    0.01
       DOS:  cpu time    0.00: real time    0.00
    CHARGE:  cpu time    0.16: real time    0.16
    MIXING:  cpu time    0.01: real time    0.01
    --------------------------------------------
      LOOP:  cpu time    1.22: real time    1.22

 eigenvalue-minimisations  :   107
 total energy-change (2. order) :-0.1546535E-03  (-0.1284802E-03)
 number of electron   97.9999993 magnetization 
 augmentation part    -0.8912074 magnetization 

 Broyden mixing:
  rms(total) = 0.77466E+00    rms(broyden)= 0.77465E+00
  rms(prec ) = 0.16192E+01
  weight for this iteration     100.00

 Free energy of the ion-electron system (eV)
  ---------------------------------------------------
  alpha Z        PSCENC =        -8.27954604
  Ewald energy   TEWEN  =     -2377.69944848
  -1/2 Hartree   DENC   =        -9.50491146
  -exchange  EXHF       =         0.00000000
  -V(xc)+E(xc)   XCENC  =      -846.35400825
  PAW double counting   =      1149.32568210     -115.70169129
  entropy T*S    EENTRO =        -0.09151365
  eigenvalues    EBANDS =       385.70957803
  atomic energy  EATOM  =      1736.20668909
  ---------------------------------------------------
  free energy    TOTEN  =       -86.38916996 eV

  energy without entropy =      -86.29765631  energy(sigma->0) =      -86.35866541


--------------------------------------------------------------------------------------------------------




----------------------------------------- Iteration    1(  13)  ---------------------------------------


    POTLOK:  cpu time    0.25: real time    0.25
    SETDIJ:  cpu time    0.02: real time    0.02
    EDDIAG:  cpu time    0.23: real time    0.23
  RMM-DIIS:  cpu time    0.96: real time    0.96
    ORTHCH:  cpu time    0.01: real time    0.01
       DOS:  cpu time    0.00: real time    0.00
    CHARGE:  cpu time    0.17: real time    0.17
    MIXING:  cpu time    0.01: real time    0.01
    --------------------------------------------
      LOOP:  cpu time    1.66: real time    1.66

 eigenvalue-minimisations  :   144
 total energy-change (2. order) : 0.2417784E+01  (-0.9070006E+00)
 number of electron   97.9999993 magnetization 
 augmentation part    -0.9116653 magnetization 

 Broyden mixing:
  rms(total) = 0.43401E+00    rms(broyden)= 0.43401E+00
  rms(prec ) = 0.83932E+00
  weight for this iteration     100.00

 eigenvalues of (default mixing * dielectric matrix)
  average eigenvalue GAMMA=   1.3511
  1.3511

 Free energy of the ion-electron system (eV)
  ---------------------------------------------------
  alpha Z        PSCENC =        -8.27954604
  Ewald energy   TEWEN  =     -2377.69944848
  -1/2 Hartree   DENC   =       -12.51936614
  -exchange  EXHF       =         0.00000000
  -V(xc)+E(xc)   XCENC  =      -844.91171819
  PAW double counting   =      1152.15687975     -118.88633707
  entropy T*S    EENTRO =        -0.12098611
  eigenvalues    EBANDS =       390.08244691
  atomic energy  EATOM  =      1736.20668909
  ---------------------------------------------------
  free energy    TOTEN  =       -83.97138628 eV

  energy without entropy =      -83.85040017  energy(sigma->0) =      -83.93105757


--------------------------------------------------------------------------------------------------------




----------------------------------------- Iteration    1(  14)  ---------------------------------------


    POTLOK:  cpu time    0.25: real time    0.25
    SETDIJ:  cpu time    0.02: real time    0.02
    EDDIAG:  cpu time    0.23: real time    0.23
  RMM-DIIS:  cpu time    0.98: real time    0.98
    ORTHCH:  cpu time    0.01: real time    0.01
       DOS:  cpu time    0.00: real time    0.00
    CHARGE:  cpu time    0.16: real time    0.16
    MIXING:  cpu time    0.01: real time    0.01
    --------------------------------------------
      LOOP:  cpu time    1.66: real time    1.67

 eigenvalue-minimisations  :   144
 total energy-change (2. order) : 0.5364148E+00  (-0.5365131E-01)
 number of electron   97.9999993 magnetization 
 augmentation part    -0.9247844 magnetization 

 Broyden mixing:
  rms(total) = 0.29117E+00    rms(broyden)= 0.29117E+00
  rms(prec ) = 0.42679E+00
  weight for this iteration     100.00

 eigenvalues of (default mixing * dielectric matrix)
  average eigenvalue GAMMA=   1.6107
  0.7500  2.4713

 Free energy of the ion-electron system (eV)
  ---------------------------------------------------
  alpha Z        PSCENC =        -8.27954604
  Ewald energy   TEWEN  =     -2377.69944848
  -1/2 Hartree   DENC   =       -11.66962881
  -exchange  EXHF       =         0.00000000
  -V(xc)+E(xc)   XCENC  =      -844.13852594
  PAW double counting   =      1152.40450425     -119.22022342
  entropy T*S    EENTRO =        -0.11711767
  eigenvalues    EBANDS =       389.07832553
  atomic energy  EATOM  =      1736.20668909
  ---------------------------------------------------
  free energy    TOTEN  =       -83.43497149 eV

  energy without entropy =      -83.31785383  energy(sigma->0) =      -83.39593227


--------------------------------------------------------------------------------------------------------




----------------------------------------- Iteration    1(  15)  ---------------------------------------


    POTLOK:  cpu time    0.25: real time    0.25
    SETDIJ:  cpu time    0.02: real time    0.02
    EDDIAG:  cpu time    0.23: real time    0.23
  RMM-DIIS:  cpu time    1.01: real time    1.01
    ORTHCH:  cpu time    0.01: real time    0.01
       DOS:  cpu time    0.00: real time    0.00
    CHARGE:  cpu time    0.17: real time    0.17
    MIXING:  cpu time    0.01: real time    0.01
    --------------------------------------------
      LOOP:  cpu time    1.70: real time    1.70

 eigenvalue-minimisations  :   144
 total energy-change (2. order) : 0.2760275E+00  (-0.1455218E-01)
 number of electron   97.9999993 magnetization 
 augmentation part    -0.9450382 magnetization 

 Broyden mixing:
  rms(total) = 0.71446E-01    rms(broyden)= 0.71446E-01
  rms(prec ) = 0.11642E+00
  weight for this iteration     100.00

 eigenvalues of (default mixing * dielectric matrix)
  average eigenvalue GAMMA=   1.4656
  2.5809  1.0766  0.7393

 Free energy of the ion-electron system (eV)
  ---------------------------------------------------
  alpha Z        PSCENC =        -8.27954604
  Ewald energy   TEWEN  =     -2377.69944848
  -1/2 Hartree   DENC   =       -12.37016335
  -exchange  EXHF       =         0.00000000
  -V(xc)+E(xc)   XCENC  =      -842.52468373
  PAW double counting   =      1153.94308745     -121.00242158
  entropy T*S    EENTRO =        -0.14302483
  eigenvalues    EBANDS =       388.71056752
  atomic energy  EATOM  =      1736.20668909
  ---------------------------------------------------
  free energy    TOTEN  =       -83.15894395 eV

  energy without entropy =      -83.01591912  energy(sigma->0) =      -83.11126901


--------------------------------------------------------------------------------------------------------




----------------------------------------- Iteration    1(  16)  ---------------------------------------


    POTLOK:  cpu time    0.25: real time    0.25
    SETDIJ:  cpu time    0.02: real time    0.02
    EDDIAG:  cpu time    0.23: real time    0.23
  RMM-DIIS:  cpu time    1.02: real time    1.03
    ORTHCH:  cpu time    0.01: real time    0.01
       DOS:  cpu time    0.00: real time    0.00
    CHARGE:  cpu time    0.17: real time    0.17
    MIXING:  cpu time    0.01: real time    0.01
    --------------------------------------------
      LOOP:  cpu time    1.72: real time    1.73

 eigenvalue-minimisations  :   147
 total energy-change (2. order) : 0.2081589E-01  (-0.3424332E-02)
 number of electron   97.9999993 magnetization 
 augmentation part    -0.9532688 magnetization 

 Broyden mixing:
  rms(total) = 0.12170E-01    rms(broyden)= 0.12170E-01
  rms(prec ) = 0.29338E-01
  weight for this iteration     100.00

 eigenvalues of (default mixing * dielectric matrix)
  average eigenvalue GAMMA=   1.3690
  2.6145  0.7353  1.0630  1.0630

 Free energy of the ion-electron system (eV)
  ---------------------------------------------------
  alpha Z        PSCENC =        -8.27954604
  Ewald energy   TEWEN  =     -2377.69944848
  -1/2 Hartree   DENC   =       -12.70779221
  -exchange  EXHF       =         0.00000000
  -V(xc)+E(xc)   XCENC  =      -841.97553089
  PAW double counting   =      1154.87283194     -122.03764973
  entropy T*S    EENTRO =        -0.12827511
  eigenvalues    EBANDS =       388.61059337
  atomic energy  EATOM  =      1736.20668909
  ---------------------------------------------------
  free energy    TOTEN  =       -83.13812806 eV

  energy without entropy =      -83.00985295  energy(sigma->0) =      -83.09536969


--------------------------------------------------------------------------------------------------------




----------------------------------------- Iteration    1(  17)  ---------------------------------------


    POTLOK:  cpu time    0.25: real time    0.25
    SETDIJ:  cpu time    0.02: real time    0.02
    EDDIAG:  cpu time    0.23: real time    0.23
  RMM-DIIS:  cpu time    0.99: real time    0.99
    ORTHCH:  cpu time    0.01: real time    0.01
       DOS:  cpu time    0.00: real time    0.00
    CHARGE:  cpu time    0.17: real time    0.17
    MIXING:  cpu time    0.01: real time    0.01
    --------------------------------------------
      LOOP:  cpu time    1.69: real time    1.69

 eigenvalue-minimisations  :   147
 total energy-change (2. order) : 0.6721914E-03  (-0.3482516E-03)
 number of electron   97.9999993 magnetization 
 augmentation part    -0.9552357 magnetization 

 Broyden mixing:
  rms(total) = 0.65230E-02    rms(broyden)= 0.65230E-02
  rms(prec ) = 0.10413E-01
  weight for this iteration     100.00

 eigenvalues of (default mixing * dielectric matrix)
  average eigenvalue GAMMA=   1.4244
  2.6259  1.8781  1.0816  0.7682  0.7682

 Free energy of the ion-electron system (eV)
  ---------------------------------------------------
  alpha Z        PSCENC =        -8.27954604
  Ewald energy   TEWEN  =     -2377.69944848
  -1/2 Hartree   DENC   =       -12.74404598
  -exchange  EXHF       =         0.00000000
  -V(xc)+E(xc)   XCENC  =      -841.91744144
  PAW double counting   =      1155.09408899     -122.27845866
  entropy T*S    EENTRO =        -0.13079906
  eigenvalues    EBANDS =       388.61150572
  atomic energy  EATOM  =      1736.20668909
  ---------------------------------------------------
  free energy    TOTEN  =       -83.13745586 eV

  energy without entropy =      -83.00665680  energy(sigma->0) =      -83.09385618


--------------------------------------------------------------------------------------------------------




----------------------------------------- Iteration    1(  18)  ---------------------------------------


    POTLOK:  cpu time    0.25: real time    0.25
    SETDIJ:  cpu time    0.02: real time    0.02
    EDDIAG:  cpu time    0.24: real time    0.24
  RMM-DIIS:  cpu time    0.83: real time    0.83
    ORTHCH:  cpu time    0.01: real time    0.01
       DOS:  cpu time    0.00: real time    0.00
    --------------------------------------------
      LOOP:  cpu time    1.35: real time    1.35

 eigenvalue-minimisations  :   119
 total energy-change (2. order) : 0.5547539E-04  (-0.6497437E-04)
 number of electron   97.9999993 magnetization 
 augmentation part    -0.9552357 magnetization 

 Free energy of the ion-electron system (eV)
  ---------------------------------------------------
  alpha Z        PSCENC =        -8.27954604
  Ewald energy   TEWEN  =     -2377.69944848
  -1/2 Hartree   DENC   =       -12.75971112
  -exchange  EXHF       =         0.00000000
  -V(xc)+E(xc)   XCENC  =      -841.88843082
  PAW double counting   =      1155.29937880     -122.50137462
  entropy T*S    EENTRO =        -0.13097598
  eigenvalues    EBANDS =       388.61601877
  atomic energy  EATOM  =      1736.20668909
  ---------------------------------------------------
  free energy    TOTEN  =       -83.13740039 eV

  energy without entropy =      -83.00642441  energy(sigma->0) =      -83.09374173


--------------------------------------------------------------------------------------------------------




 average (electrostatic) potential at core
  the test charge radii are     1.0406  1.0714
  (the norm of the test charge is              1.0000)
       1 -72.6675       2 -72.7048       3 -72.7048       4 -72.7048       5 -72.5295
       6 -72.5321       7 -72.5321       8 -72.5834       9 -72.5295      10 -72.5834
      11 -72.5321      12 -72.5321      13 -72.5968      14 -72.5678      15 -72.5453
      16 -72.5678      17 -72.5295      18 -72.5321      19 -72.5834      20 -72.5321
      21 -72.5968      22 -72.5453      23 -72.5678      24 -72.5678      25 -72.5968
      26 -72.5678      27 -72.5678      28 -72.5453      29 -72.3886      30 -73.5633
      31 -73.5633      32 -73.5633      33 -53.4523
 
 
 
 E-fermi :   8.3369     XC(G=0): -10.2691     alpha+bet :-15.2356
   add alpha+bet to get absolut eigen values

 k-point   1 :       0.0000    0.0000    0.0000
  band No.  band energies     occupation 
      1      -3.0123      2.00000
      2      -1.0125      2.00000
      3      -0.7291      2.00000
      4      -0.7291      2.00000
      5      -0.7216      2.00000
      6      -0.6727      2.00000
      7      -0.6727      2.00000
      8       1.2503      2.00000
      9       1.3453      2.00000
     10       1.3453      2.00000
     11       1.3570      2.00000
     12       1.5122      2.00000
     13       1.5205      2.00000
     14       1.5205      2.00000
     15       1.5280      2.00000
     16       1.5280      2.00000
     17       1.5350      2.00000
     18       1.5550      2.00000
     19       1.5550      2.00000
     20       3.4785      2.00000
     21       3.5357      2.00000
     22       3.5357      2.00000
     23       3.5849      2.00000
     24       3.7199      2.00000
     25       3.7199      2.00000
     26       3.7759      2.00000
     27       3.7983      2.00000
     28       5.1645      2.00000
     29       5.1645      2.00000
     30       5.2605      2.00000
     31       6.4427      2.00000
     32       6.4673      2.00000
     33       6.4673      2.00000
     34       7.0120      2.00000
     35       7.0120      2.00000
     36       7.2036      2.00000
     37       7.2736      2.00000
     38       7.2736      2.00000
     39       7.3346      2.00000
     40       7.3346      2.00000
     41       7.3491      2.00000
     42       7.3548      2.00000
     43       7.3776      2.00000
     44       7.3776      2.00000
     45       7.3862      2.00000
     46       8.1289      2.05756
     47       8.1965      1.92107
     48       8.1965      1.92107
     49       8.3662      0.75524
     50       8.3764      0.67314
     51       8.3764      0.67314
     52       8.8930     -0.00060
     53       8.8932     -0.00060
     54       9.0106     -0.00002
     55       9.2304      0.00000
     56       9.2324      0.00000
     57       9.2699      0.00000
     58       9.2888      0.00000
     59       9.3179      0.00000
     60       9.3567      0.00000
     61       9.3623      0.00000
     62       9.3900      0.00000
     63       9.4173      0.00000
     64       9.4245      0.00000
     65       9.4325      0.00000
     66       9.4589      0.00000
     67       9.4957      0.00000
     68      10.7528      0.00000
     69      10.6922      0.00000
     70      10.8140      0.00000
     71      10.8795      0.00000
     72      10.9099      0.00000


--------------------------------------------------------------------------------------------------------


 soft charge-density along one line, spin component           1
         0         1         2         3         4         5         6         7         8         9
 total charge-density along one line
 
 pseudopotential strength for first ion, spin component:           1
  8.436  -0.006  -0.001  -0.001  -0.001   0.000   0.000   0.000
 -0.006   0.000   0.000   0.000   0.000   0.000   0.000   0.000
 -0.001   0.000   1.984   0.000   0.000  -0.026   0.000   0.000
 -0.001   0.000   0.000   1.984   0.000   0.000  -0.026   0.000
 -0.001   0.000   0.000   0.000   1.984   0.000   0.000  -0.026
  0.000   0.000  -0.026   0.000   0.000  -0.012   0.000   0.000
  0.000   0.000   0.000  -0.026   0.000   0.000  -0.012   0.000
  0.000   0.000   0.000   0.000  -0.026   0.000   0.000  -0.012
 total augmentation occupancy for first ion, spin component:           1
  1.124  -0.545   0.020   0.020   0.020  -0.004  -0.004  -0.004
 -0.545   0.442   0.016   0.016   0.016  -0.002  -0.002  -0.002
  0.020   0.016   0.763  -0.016  -0.016  -0.174   0.001   0.001
  0.020   0.016  -0.016   0.763  -0.016   0.001  -0.174   0.001
  0.020   0.016  -0.016  -0.016   0.763   0.001   0.001  -0.174
 -0.004  -0.002  -0.174   0.001   0.001   0.047   0.000   0.000
 -0.004  -0.002   0.001  -0.174   0.001   0.000   0.047   0.000
 -0.004  -0.002   0.001   0.001  -0.174   0.000   0.000   0.047


------------------------ aborting loop because EDIFF is reached ----------------------------------------




--------------------------------------------------------------------------------------------------------



  FREE ENERGIE OF THE ION-ELECTRON SYSTEM (eV)
  ---------------------------------------------------
  free  energy   TOTEN  =       -83.137400 eV

  energy  without entropy=      -83.006424  energy(sigma->0) =      -83.093742
 
    CHARGE:  cpu time    0.16: real time    0.16
    FORLOC:  cpu time    0.06: real time    0.06
    FORNL :  cpu time    0.37: real time    0.37
    STRESS:  cpu time    0.62: real time    0.62
    FORCOR:  cpu time    0.29: real time    0.29
    FORHAR:  cpu time    0.11: real time    0.11
    MIXING:  cpu time    0.01: real time    0.01

  FORCE on cell =-STRESS in cart. coord.  units (eV):
  Direction    XX          YY          ZZ          XY          YZ          ZX
  --------------------------------------------------------------------------------------
  Alpha Z    -8.27955    -8.27955    -8.27955
  Ewald    -792.56986  -792.56986  -792.56986   -10.74663   -10.74663   -10.74663
  Hartree     4.26885     4.26885     4.26885     0.02694     0.02694     0.02694
  E(xc)    -281.96152  -281.96152  -281.96152     0.10658     0.10658     0.10658
  Local      11.17099    11.17099    11.17099    -1.72998    -1.72998    -1.72998
  n-local   597.80058   597.80252   597.80176    -0.26737    -0.26641    -0.26700
  augment   -25.88553   -25.88552   -25.88551    -0.01901    -0.01901    -0.01901
  Kinetic   514.41187   514.41073   514.41442    -1.19575    -1.19889    -1.19739
  Fock        0.00000     0.00000     0.00000     0.00000     0.00000     0.00000
  -------------------------------------------------------------------------------------
  Total      18.95735    18.95735    18.95735   -13.82637   -13.82637   -13.82637
  in kB      57.42718    57.42718    57.42718   -41.88399   -41.88399   -41.88399
  external pressure =       57.43 kB  Pullay stress =        0.00 kB


 VOLUME and BASIS-vectors are now :
 -----------------------------------------------------------------------------
  energy-cutoff  :      300.00
  volume of cell :      528.90
      direct lattice vectors                 reciprocal lattice vectors
     8.087052000  0.000000000  0.000000000     0.123654454  0.000000000  0.000000000
     0.000000000  8.087052000  0.000000000     0.000000000  0.123654454  0.000000000
     0.000000000  0.000000000  8.087052000     0.000000000  0.000000000  0.123654454

  length of vectors
     8.087052000  8.087052000  8.087052000     0.123654454  0.123654454  0.123654454


 FORCES acting on ions
    electron-ion (+dipol)            ewald-force                    non-local-force                 convergence-correction
 -----------------------------------------------------------------------------------------------
   -.743E+00 -.743E+00 -.743E+00   0.122E+01 0.122E+01 0.122E+01   -.359E+00 -.359E+00 -.359E+00   0.202E-01 0.202E-01 0.202E-01
   0.874E-01 -.256E+00 0.874E-01   -.634E+00 0.880E+00 -.634E+00   0.336E+00 -.465E+00 0.336E+00   -.112E-01 0.176E-01 -.112E-01
   0.874E-01 0.874E-01 -.256E+00   -.634E+00 -.634E+00 0.880E+00   0.336E+00 0.336E+00 -.465E+00   -.112E-01 -.112E-01 0.176E-01
   -.256E+00 0.874E-01 0.874E-01   0.880E+00 -.634E+00 -.634E+00   -.465E+00 0.336E+00 0.336E+00   0.176E-01 -.112E-01 -.112E-01
   0.120E+01 -.196E+01 -.196E+01   -.137E+01 0.207E+01 0.207E+01   0.243E-01 -.152E+00 -.152E+00   -.201E-01 0.153E-01 0.153E-01
   -.258E+00 -.176E+01 0.131E+01   0.719E+00 0.178E+01 -.140E+01   -.189E+00 -.730E-01 0.113E+00   0.112E-01 0.142E-01 -.648E-02
   -.258E+00 0.131E+01 -.176E+01   0.719E+00 -.140E+01 0.178E+01   -.189E+00 0.113E+00 -.730E-01   0.112E-01 -.648E-02 0.142E-01
   0.663E+00 0.791E+00 0.791E+00   -.930E+00 -.969E+00 -.969E+00   0.183E+00 0.243E+00 0.243E+00   -.174E-01 -.845E-02 -.845E-02
   -.196E+01 0.120E+01 -.196E+01   0.207E+01 -.137E+01 0.207E+01   -.152E+00 0.243E-01 -.152E+00   0.153E-01 -.201E-01 0.153E-01
   0.791E+00 0.663E+00 0.791E+00   -.969E+00 -.930E+00 -.969E+00   0.243E+00 0.183E+00 0.243E+00   -.845E-02 -.174E-01 -.845E-02
   0.131E+01 -.258E+00 -.176E+01   -.140E+01 0.719E+00 0.178E+01   0.113E+00 -.189E+00 -.730E-01   -.648E-02 0.112E-01 0.142E-01
   -.176E+01 -.258E+00 0.131E+01   0.178E+01 0.719E+00 -.140E+01   -.730E-01 -.189E+00 0.113E+00   0.142E-01 0.112E-01 -.648E-02
   0.256E+01 0.256E+01 -.420E+01   -.268E+01 -.268E+01 0.453E+01   0.285E+00 0.285E+00 -.623E+00   -.145E-01 -.145E-01 0.941E-02
   -.141E+01 0.219E+01 0.290E+01   0.124E+01 -.214E+01 -.296E+01   -.672E-02 0.111E+00 0.219E+00   0.756E-02 -.134E-01 -.213E-02
   -.243E+01 -.243E+01 -.715E+01   0.226E+01 0.226E+01 0.699E+01   -.774E-02 -.774E-02 -.206E+00   0.563E-02 0.563E-02 0.140E-01
   0.219E+01 -.141E+01 0.290E+01   -.214E+01 0.124E+01 -.296E+01   0.111E+00 -.672E-02 0.219E+00   -.134E-01 0.756E-02 -.213E-02
   -.196E+01 -.196E+01 0.120E+01   0.207E+01 0.207E+01 -.137E+01   -.152E+00 -.152E+00 0.243E-01   0.153E-01 0.153E-01 -.201E-01
   0.131E+01 -.176E+01 -.258E+00   -.140E+01 0.178E+01 0.719E+00   0.113E+00 -.730E-01 -.189E+00   -.648E-02 0.142E-01 0.112E-01
   0.791E+00 0.791E+00 0.663E+00   -.969E+00 -.969E+00 -.930E+00   0.243E+00 0.243E+00 0.183E+00   -.845E-02 -.845E-02 -.174E-01
   -.176E+01 0.131E+01 -.258E+00   0.178E+01 -.140E+01 0.719E+00   -.730E-01 0.113E+00 -.189E+00   0.142E-01 -.648E-02 0.112E-01
   0.256E+01 -.420E+01 0.256E+01   -.268E+01 0.453E+01 -.268E+01   0.285E+00 -.623E+00 0.285E+00   -.145E-01 0.941E-02 -.145E-01
   -.243E+01 -.715E+01 -.243E+01   0.226E+01 0.699E+01 0.226E+01   -.774E-02 -.206E+00 -.774E-02   0.563E-02 0.140E-01 0.563E-02
   -.141E+01 0.290E+01 0.219E+01   0.124E+01 -.296E+01 -.214E+01   -.672E-02 0.219E+00 0.111E+00   0.756E-02 -.213E-02 -.134E-01
   0.219E+01 0.290E+01 -.141E+01   -.214E+01 -.296E+01 0.124E+01   0.111E+00 0.219E+00 -.672E-02   -.134E-01 -.213E-02 0.756E-02
   -.420E+01 0.256E+01 0.256E+01   0.453E+01 -.268E+01 -.268E+01   -.623E+00 0.285E+00 0.285E+00   0.941E-02 -.145E-01 -.145E-01
   0.290E+01 0.219E+01 -.141E+01   -.296E+01 -.214E+01 0.124E+01   0.219E+00 0.111E+00 -.672E-02   -.213E-02 -.134E-01 0.756E-02
   0.290E+01 -.141E+01 0.219E+01   -.296E+01 0.124E+01 -.214E+01   0.219E+00 -.672E-02 0.111E+00   -.213E-02 0.756E-02 -.134E-01
   -.715E+01 -.243E+01 -.243E+01   0.699E+01 0.226E+01 0.226E+01   -.206E+00 -.774E-02 -.774E-02   0.140E-01 0.563E-02 0.563E-02
   0.102E+02 0.102E+02 0.102E+02   -.917E+01 -.917E+01 -.917E+01   -.233E+01 -.233E+01 -.233E+01   -.707E-02 -.707E-02 -.707E-02
   -.101E+02 0.171E+02 -.101E+02   0.135E+02 -.238E+02 0.135E+02   0.419E+01 -.698E+01 0.419E+01   0.510E-03 -.130E-01 0.511E-03
   -.101E+02 -.101E+02 0.171E+02   0.135E+02 0.135E+02 -.238E+02   0.419E+01 0.419E+01 -.698E+01   0.510E-03 0.510E-03 -.130E-01
   0.171E+02 -.101E+02 -.101E+02   -.238E+02 0.135E+02 0.135E+02   -.698E+01 0.419E+01 0.419E+01   -.130E-01 0.510E-03 0.511E-03
   -.111E+01 -.111E+01 -.111E+01   0.133E+00 0.133E+00 0.133E+00   0.116E+01 0.116E+01 0.116E+01   -.413E-02 -.413E-02 -.413E-02
 -----------------------------------------------------------------------------------------------
   -.538E+00 -.538E+00 -.538E+00   0.794E-14 -.691E-14 -.478E-13   0.543E+00 0.543E+00 0.543E+00   -.391E-02 -.391E-02 -.391E-02
 
 
 POSITION                                       TOTAL-FORCE (eV/Angst)
 -----------------------------------------------------------------------------------
      0.00000      0.00000      0.00000         0.139220      0.139220      0.139220
      2.02176      0.00000      2.02176        -0.222383      0.176988     -0.222383
      2.02176      2.02176      0.00000        -0.222383     -0.222383      0.176988
      0.00000      2.02176      2.02176         0.176988     -0.222383     -0.222383
      4.04353      0.00000      0.00000        -0.169751     -0.024760     -0.024760
      6.06529      0.00000      2.02176         0.282782     -0.037565      0.013768
      6.06529      2.02176      0.00000         0.282782      0.013768     -0.037565
      4.04353      2.02176      2.02176        -0.101389      0.055917      0.055917
      0.00000      4.04353      0.00000        -0.024760     -0.169751     -0.024760
      2.02176      4.04353      2.02176         0.055917     -0.101389      0.055917
      2.02176      6.06529      0.00000         0.013768      0.282782     -0.037565
      0.00000      6.06529      2.02176        -0.037565      0.282782      0.013768
      4.04353      4.04353      0.00000         0.147479      0.147479     -0.285779
      6.06529      4.04353      2.02176        -0.169681      0.152646      0.161123
      6.06529      6.06529      0.00000        -0.172092     -0.172092     -0.348427
      4.04353      6.06529      2.02176         0.152646     -0.169681      0.161123
      0.00000      0.00000      4.04353        -0.024760     -0.024760     -0.169751
      2.02176      0.00000      6.06529         0.013768     -0.037565      0.282782
      2.02176      2.02176      4.04353         0.055917      0.055917     -0.101389
      0.00000      2.02176      6.06529        -0.037565      0.013768      0.282782
      4.04353      0.00000      4.04353         0.147479     -0.285779      0.147479
      6.06529      0.00000      6.06529        -0.172092     -0.348427     -0.172092
      6.06529      2.02176      4.04353        -0.169681      0.161123      0.152646
      4.04353      2.02176      6.06529         0.152646      0.161123     -0.169681
      0.00000      4.04353      4.04353        -0.285779      0.147479      0.147479
      2.02176      4.04353      6.06529         0.161123      0.152646     -0.169681
      2.02176      6.06529      4.04353         0.161123     -0.169681      0.152646
      0.00000      6.06529      6.06529        -0.348427     -0.172092     -0.172092
      4.04353      4.04353      4.04353        -1.323889     -1.323889     -1.323889
      6.06529      4.04353      6.06529         7.523914    -13.688609      7.523914
      6.06529      6.06529      4.04353         7.523914      7.523914    -13.688609
      4.04353      6.06529      6.06529       -13.688609      7.523914      7.523914
      5.33745      5.33745      5.33745         0.179336      0.179336      0.179336
 -----------------------------------------------------------------------------------
    total drift:                                0.000850      0.000850      0.000850


--------------------------------------------------------------------------------------------------------


    POTLOK:  cpu time    0.27: real time    0.27


--------------------------------------------------------------------------------------------------------


  FORCES: max atom, RMS    17.337721    5.250131
  FORCE total and by dimension   30.159707   13.688609


--------------------------------------------------------------------------------------------------------


    WAVPRE:  cpu time    0.09: real time    0.09
    FEWALD:  cpu time    0.01: real time    0.01
    ORTHCH:  cpu time    0.08: real time    0.08
     LOOP+:  cpu time   23.48: real time   23.53
   RESPFUN:  cpu time    0.00: real time    0.00


----------------------------------------- Iteration    2(   1)  ---------------------------------------


    POTLOK:  cpu time    0.25: real time    0.25
    SETDIJ:  cpu time    0.02: real time    0.02
    EDDIAG:  cpu time    0.23: real time    0.23
  RMM-DIIS:  cpu time    0.96: real time    0.96
    ORTHCH:  cpu time    0.01: real time    0.01
       DOS:  cpu time    0.00: real time    0.00
    CHARGE:  cpu time    0.17: real time    0.17
    MIXING:  cpu time    0.01: real time    0.01
    --------------------------------------------
      LOOP:  cpu time    1.65: real time    1.65

 eigenvalue-minimisations  :   144
 total energy-change (2. order) :-0.1704059E+02  (-0.1682656E+02)
 number of electron   97.9999995 magnetization 
 augmentation part    -1.0635661 magnetization 

 Broyden mixing:
  rms(total) = 0.58335E+00    rms(broyden)= 0.58334E+00
  rms(prec ) = 0.17381E+01
  weight for this iteration     100.00

 Free energy of the ion-electron system (eV)
  ---------------------------------------------------
  alpha Z        PSCENC =        -8.27954604
  Ewald energy   TEWEN  =     -2381.90357168
  -1/2 Hartree   DENC   =       -10.86383182
  -exchange  EXHF       =         0.00000000
  -V(xc)+E(xc)   XCENC  =      -841.54464159
  PAW double counting   =      1155.39228887     -122.60259418
  entropy T*S    EENTRO =        -0.07516691
  eigenvalues    EBANDS =       373.49232996
  atomic energy  EATOM  =      1736.20668909
  ---------------------------------------------------
  free energy    TOTEN  =      -100.17804430 eV

  energy without entropy =     -100.10287739  energy(sigma->0) =     -100.15298866


--------------------------------------------------------------------------------------------------------




----------------------------------------- Iteration    2(   2)  ---------------------------------------


    POTLOK:  cpu time    0.25: real time    0.25
    SETDIJ:  cpu time    0.02: real time    0.02
    EDDIAG:  cpu time    0.23: real time    0.23
  RMM-DIIS:  cpu time    0.97: real time    0.97
    ORTHCH:  cpu time    0.01: real time    0.01
       DOS:  cpu time    0.00: real time    0.00
    CHARGE:  cpu time    0.17: real time    0.17
    MIXING:  cpu time    0.01: real time    0.01
    --------------------------------------------
      LOOP:  cpu time    1.66: real time    1.66

 eigenvalue-minimisations  :   145
 total energy-change (2. order) : 0.2591824E+01  (-0.1022216E+01)
 number of electron   97.9999995 magnetization 
 augmentation part    -1.0118195 magnetization 

 Broyden mixing:
  rms(total) = 0.37581E+00    rms(broyden)= 0.37581E+00
  rms(prec ) = 0.10457E+01
  weight for this iteration     100.00

 eigenvalues of (default mixing * dielectric matrix)
  average eigenvalue GAMMA=   0.8891
  0.8891

 Free energy of the ion-electron system (eV)
  ---------------------------------------------------
  alpha Z        PSCENC =        -8.27954604
  Ewald energy   TEWEN  =     -2381.90357168
  -1/2 Hartree   DENC   =       -14.82766732
  -exchange  EXHF       =         0.00000000
  -V(xc)+E(xc)   XCENC  =      -841.39517887
  PAW double counting   =      1155.47496828     -122.64793146
  entropy T*S    EENTRO =        -0.07121630
  eigenvalues    EBANDS =       379.85723356
  atomic energy  EATOM  =      1736.20668909
  ---------------------------------------------------
  free energy    TOTEN  =       -97.58622074 eV

  energy without entropy =      -97.51500444  energy(sigma->0) =      -97.56248197


--------------------------------------------------------------------------------------------------------




----------------------------------------- Iteration    2(   3)  ---------------------------------------


    POTLOK:  cpu time    0.25: real time    0.25
    SETDIJ:  cpu time    0.02: real time    0.02
    EDDIAG:  cpu time    0.23: real time    0.23
  RMM-DIIS:  cpu time    1.01: real time    1.01
    ORTHCH:  cpu time    0.01: real time    0.01
       DOS:  cpu time    0.00: real time    0.00
    CHARGE:  cpu time    0.16: real time    0.16
    MIXING:  cpu time    0.01: real time    0.01
    --------------------------------------------
      LOOP:  cpu time    1.70: real time    1.70

 eigenvalue-minimisations  :   148
 total energy-change (2. order) : 0.1081780E+01  (-0.1987328E+00)
 number of electron   97.9999995 magnetization 
 augmentation part    -0.9965935 magnetization 

 Broyden mixing:
  rms(total) = 0.20260E+00    rms(broyden)= 0.20260E+00
  rms(prec ) = 0.38487E+00
  weight for this iteration     100.00

 eigenvalues of (default mixing * dielectric matrix)
  average eigenvalue GAMMA=   1.2700
  0.7341  1.8060

 Free energy of the ion-electron system (eV)
  ---------------------------------------------------
  alpha Z        PSCENC =        -8.27954604
  Ewald energy   TEWEN  =     -2381.90357168
  -1/2 Hartree   DENC   =       -16.21199250
  -exchange  EXHF       =         0.00000000
  -V(xc)+E(xc)   XCENC  =      -841.27924441
  PAW double counting   =      1156.56521912     -123.76741556
  entropy T*S    EENTRO =        -0.09386141
  eigenvalues    EBANDS =       382.25928287
  atomic energy  EATOM  =      1736.20668909
  ---------------------------------------------------
  free energy    TOTEN  =       -96.50444053 eV

  energy without entropy =      -96.41057912  energy(sigma->0) =      -96.47315339


--------------------------------------------------------------------------------------------------------




----------------------------------------- Iteration    2(   4)  ---------------------------------------


    POTLOK:  cpu time    0.25: real time    0.25
    SETDIJ:  cpu time    0.02: real time    0.02
    EDDIAG:  cpu time    0.23: real time    0.23
  RMM-DIIS:  cpu time    0.97: real time    0.97
    ORTHCH:  cpu time    0.01: real time    0.01
       DOS:  cpu time    0.00: real time    0.00
    CHARGE:  cpu time    0.16: real time    0.16
    MIXING:  cpu time    0.01: real time    0.01
    --------------------------------------------
      LOOP:  cpu time    1.66: real time    1.66

 eigenvalue-minimisations  :   144
 total energy-change (2. order) : 0.1968682E+00  (-0.1102684E+00)
 number of electron   97.9999995 magnetization 
 augmentation part    -0.9832387 magnetization 

 Broyden mixing:
  rms(total) = 0.70649E-01    rms(broyden)= 0.70648E-01
  rms(prec ) = 0.13203E+00
  weight for this iteration     100.00

 eigenvalues of (default mixing * dielectric matrix)
  average eigenvalue GAMMA=   1.1195
  1.7327  0.8129  0.8129

 Free energy of the ion-electron system (eV)
  ---------------------------------------------------
  alpha Z        PSCENC =        -8.27954604
  Ewald energy   TEWEN  =     -2381.90357168
  -1/2 Hartree   DENC   =       -18.33863767
  -exchange  EXHF       =         0.00000000
  -V(xc)+E(xc)   XCENC  =      -841.09783255
  PAW double counting   =      1157.96118451     -125.17389175
  entropy T*S    EENTRO =        -0.09079268
  eigenvalues    EBANDS =       384.40882648
  atomic energy  EATOM  =      1736.20668909
  ---------------------------------------------------
  free energy    TOTEN  =       -96.30757229 eV

  energy without entropy =      -96.21677960  energy(sigma->0) =      -96.27730806


--------------------------------------------------------------------------------------------------------




[...]

 eigenvalue-minimisations  :   145
 total energy-change (2. order) : 0.1588236E-03  (-0.9572057E-04)
 number of electron   98.0000001 magnetization 
 augmentation part    -0.9565306 magnetization 

 Broyden mixing:
  rms(total) = 0.37984E-02    rms(broyden)= 0.37984E-02
  rms(prec ) = 0.58040E-02
  weight for this iteration     100.00

 eigenvalues of (default mixing * dielectric matrix)
  average eigenvalue GAMMA=   1.3599
  2.2152  1.1818  0.6828

 Free energy of the ion-electron system (eV)
  ---------------------------------------------------
  alpha Z        PSCENC =        -8.27954604
  Ewald energy   TEWEN  =     -2353.67758723
  -1/2 Hartree   DENC   =       -48.03944167
  -exchange  EXHF       =         0.00000000
  -V(xc)+E(xc)   XCENC  =      -840.46815264
  PAW double counting   =      1156.75909507     -123.86484044
  entropy T*S    EENTRO =         0.05190449
  eigenvalues    EBANDS =       380.52171853
  atomic energy  EATOM  =      1736.20668909
  ---------------------------------------------------
  free energy    TOTEN  =      -100.79016084 eV

  energy without entropy =     -100.84206533  energy(sigma->0) =     -100.80746234


--------------------------------------------------------------------------------------------------------




----------------------------------------- Iteration   21(   5)  ---------------------------------------


    POTLOK:  cpu time    0.25: real time    0.25
    SETDIJ:  cpu time    0.02: real time    0.02
    EDDIAG:  cpu time    0.23: real time    0.23
  RMM-DIIS:  cpu time    0.69: real time    0.69
    ORTHCH:  cpu time    0.01: real time    0.01
       DOS:  cpu time    0.00: real time    0.00
    --------------------------------------------
      LOOP:  cpu time    1.21: real time    1.21

 eigenvalue-minimisations  :    96
 total energy-change (2. order) :-0.4426274E-05  (-0.5935286E-05)
 number of electron   98.0000001 magnetization 
 augmentation part    -0.9565306 magnetization 

 Free energy of the ion-electron system (eV)
  ---------------------------------------------------
  alpha Z        PSCENC =        -8.27954604
  Ewald energy   TEWEN  =     -2353.67758723
  -1/2 Hartree   DENC   =       -48.04858317
  -exchange  EXHF       =         0.00000000
  -V(xc)+E(xc)   XCENC  =      -840.46750971
  PAW double counting   =      1156.75125954     -123.85656578
  entropy T*S    EENTRO =         0.05202672
  eigenvalues    EBANDS =       380.52965130
  atomic energy  EATOM  =      1736.20668909
  ---------------------------------------------------
  free energy    TOTEN  =      -100.79016527 eV

  energy without entropy =     -100.84219199  energy(sigma->0) =     -100.80750751


--------------------------------------------------------------------------------------------------------




 average (electrostatic) potential at core
  the test charge radii are     1.0406  1.0714
  (the norm of the test charge is              1.0000)
       1 -72.2946       2 -71.8438       3 -71.8438       4 -71.8438       5 -72.4507
       6 -72.2600       7 -72.2600       8 -72.0017       9 -72.4507      10 -72.0017
      11 -72.2600      12 -72.2600      13 -72.6596      14 -72.5891      15 -72.8316
      16 -72.5891      17 -72.4507      18 -72.2600      19 -72.0017      20 -72.2600
      21 -72.6596      22 -72.8316      23 -72.5891      24 -72.5891      25 -72.6596
      26 -72.5891      27 -72.5891      28 -72.8316      29 -72.9246      30 -72.5129
      31 -72.5129      32 -72.5129      33 -50.0278
 
 
 
 E-fermi :   8.4324     XC(G=0): -10.2435     alpha+bet :-15.2356
   add alpha+bet to get absolut eigen values

 k-point   1 :       0.0000    0.0000    0.0000
  band No.  band energies     occupation 
      1      -3.1365      2.00000
      2      -1.1840      2.00000
      3      -1.1840      2.00000
      4      -0.8375      2.00000
      5      -0.8375      2.00000
      6      -0.7657      2.00000
      7      -0.4921      2.00000
      8       0.8466      2.00000
      9       0.8466      2.00000
     10       1.0870      2.00000
     11       1.3326      2.00000
     12       1.3326      2.00000
     13       1.4490      2.00000
     14       1.4640      2.00000
     15       1.4640      2.00000
     16       1.6857      2.00000
     17       1.6857      2.00000
     18       1.7381      2.00000
     19       1.8370      2.00000
     20       3.1471      2.00000
     21       3.5705      2.00000
     22       3.5803      2.00000
     23       3.5803      2.00000
     24       3.7091      2.00000
     25       3.7091      2.00000
     26       3.7591      2.00000
     27       3.8523      2.00000
     28       5.1091      2.00000
     29       5.1890      2.00000
     30       5.1890      2.00000
     31       6.1568      2.00000
     32       6.4634      2.00000
     33       6.4634      2.00000
     34       6.6322      2.00000
     35       6.8506      2.00000
     36       6.8506      2.00000
     37       7.0259      2.00000
     38       7.2188      2.00000
     39       7.2188      2.00000
     40       7.3412      2.00000
     41       7.3976      2.00000
     42       7.3976      2.00000
     43       7.5409      2.00000
     44       7.5409      2.00000
     45       7.6084      2.00000
     46       7.6949      2.00000
     47       7.6949      2.00000
     48       8.1334      2.05579
     49       8.3138      1.83350
     50       8.5601      0.12675
     51       8.5601      0.12674
     52       8.7413     -0.05124
     53       8.7413     -0.05124
     54       8.7823     -0.03288
     55       8.9200     -0.00304
     56       8.9349     -0.00219
     57       8.9349     -0.00219
     58       9.1322     -0.00001
     59       9.2195      0.00000
     60       9.2195      0.00000
     61       9.2916      0.00000
     62       9.2918      0.00000
     63       9.4621      0.00000
     64       9.4621      0.00000
     65       9.4938      0.00000
     66       9.6437      0.00000
     67       9.7565      0.00000
     68       9.7868      0.00000
     69      10.7015      0.00000
     70      10.7660      0.00000
     71      11.1927      0.00000
     72      11.1986      0.00000


--------------------------------------------------------------------------------------------------------


 soft charge-density along one line, spin component           1
         0         1         2         3         4         5         6         7         8         9
 total charge-density along one line
 
 pseudopotential strength for first ion, spin component:           1
  8.437  -0.006   0.000   0.000   0.000   0.000   0.000   0.000
 -0.006   0.000   0.000   0.000   0.000   0.000   0.000   0.000
  0.000   0.000   1.990   0.000   0.000  -0.028   0.000   0.000
  0.000   0.000   0.000   1.990   0.000   0.000  -0.028   0.000
  0.000   0.000   0.000   0.000   1.990   0.000   0.000  -0.028
  0.000   0.000  -0.028   0.000   0.000  -0.012   0.000   0.000
  0.000   0.000   0.000  -0.028   0.000   0.000  -0.012   0.000
  0.000   0.000   0.000   0.000  -0.028   0.000   0.000  -0.012
 total augmentation occupancy for first ion, spin component:           1
  1.111  -0.596   0.000   0.000   0.000  -0.001  -0.001  -0.001
 -0.596   0.500  -0.008  -0.008  -0.008   0.002   0.002   0.002
  0.000  -0.008   0.879   0.041   0.041  -0.197  -0.010  -0.010
  0.000  -0.008   0.041   0.879   0.041  -0.010  -0.197  -0.010
  0.000  -0.008   0.041   0.041   0.879  -0.010  -0.010  -0.197
 -0.001   0.002  -0.197  -0.010  -0.010   0.052   0.003   0.003
 -0.001   0.002  -0.010  -0.197  -0.010   0.003   0.052   0.003
 -0.001   0.002  -0.010  -0.010  -0.197   0.003   0.003   0.052


------------------------ aborting loop because EDIFF is reached ----------------------------------------




--------------------------------------------------------------------------------------------------------



  FREE ENERGIE OF THE ION-ELECTRON SYSTEM (eV)
  ---------------------------------------------------
  free  energy   TOTEN  =      -100.790165 eV

  energy  without entropy=     -100.842192  energy(sigma->0) =     -100.807508
 
    CHARGE:  cpu time    0.17: real time    0.17
    FORLOC:  cpu time    0.06: real time    0.06
    FORNL :  cpu time    0.37: real time    0.37
    STRESS:  cpu time    0.63: real time    0.63
    FORCOR:  cpu time    0.29: real time    0.29
    FORHAR:  cpu time    0.11: real time    0.12
    MIXING:  cpu time    0.01: real time    0.01

  FORCE on cell =-STRESS in cart. coord.  units (eV):
  Direction    XX          YY          ZZ          XY          YZ          ZX
  --------------------------------------------------------------------------------------
  Alpha Z    -8.27955    -8.27955    -8.27955
  Ewald    -784.56229  -784.56229  -784.56229    -0.90992    -0.90992    -0.90992
  Hartree    16.00829    16.00829    16.00829    -0.09568    -0.09568    -0.09568
  E(xc)    -282.92329  -282.92329  -282.92329    -0.02211    -0.02211    -0.02211
  Local     -14.03196   -14.03196   -14.03196     0.03377     0.03377     0.03377
  n-local   595.82479   595.82442   595.82415     0.26447     0.26425     0.26430
  augment   -25.59453   -25.59453   -25.59452     0.00933     0.00934     0.00932
  Kinetic   518.44385   518.44427   518.44478    -1.39245    -1.39296    -1.39303
  Fock        0.00000     0.00000     0.00000     0.00000     0.00000     0.00000
  -------------------------------------------------------------------------------------
  Total      14.88543    14.88543    14.88543    -2.11308    -2.11308    -2.11308
  in kB      45.09217    45.09217    45.09217    -6.40111    -6.40111    -6.40111
  external pressure =       45.09 kB  Pullay stress =        0.00 kB


 VOLUME and BASIS-vectors are now :
 -----------------------------------------------------------------------------
  energy-cutoff  :      300.00
  volume of cell :      528.90
      direct lattice vectors                 reciprocal lattice vectors
     8.087052000  0.000000000  0.000000000     0.123654454  0.000000000  0.000000000
     0.000000000  8.087052000  0.000000000     0.000000000  0.123654454  0.000000000
     0.000000000  0.000000000  8.087052000     0.000000000  0.000000000  0.123654454

  length of vectors
     8.087052000  8.087052000  8.087052000     0.123654454  0.123654454  0.123654454


 FORCES acting on ions
    electron-ion (+dipol)            ewald-force                    non-local-force                 convergence-correction
 -----------------------------------------------------------------------------------------------
   0.549E+01 0.549E+01 0.549E+01   -.557E+01 -.557E+01 -.557E+01   0.452E-01 0.452E-01 0.452E-01   0.218E-02 0.218E-02 0.218E-02
   0.763E+00 0.128E+02 0.763E+00   -.235E+00 -.962E+01 -.235E+00   -.533E+00 -.297E+01 -.533E+00   -.123E-02 -.687E-03 -.123E-02
   0.763E+00 0.763E+00 0.128E+02   -.235E+00 -.235E+00 -.962E+01   -.533E+00 -.533E+00 -.297E+01   -.123E-02 -.123E-02 -.688E-03
   0.128E+02 0.763E+00 0.763E+00   -.962E+01 -.235E+00 -.235E+00   -.297E+01 -.533E+00 -.533E+00   -.687E-03 -.123E-02 -.123E-02
   -.760E+01 0.114E+02 0.114E+02   0.713E+01 -.104E+02 -.104E+02   0.400E+00 -.100E+01 -.100E+01   -.219E-02 0.851E-03 0.849E-03
   -.173E+01 0.718E+01 -.160E+01   0.114E+01 -.533E+01 0.239E+01   0.579E+00 -.181E+01 -.904E+00   0.129E-02 0.191E-02 0.725E-04
   -.173E+01 -.160E+01 0.718E+01   0.114E+01 0.239E+01 -.533E+01   0.579E+00 -.904E+00 -.181E+01   0.129E-02 0.717E-04 0.191E-02
   -.116E+02 -.734E+01 -.734E+01   0.883E+01 0.588E+01 0.588E+01   0.266E+01 0.148E+01 0.148E+01   0.431E-03 -.158E-02 -.158E-02
   0.114E+02 -.760E+01 0.114E+02   -.104E+02 0.713E+01 -.104E+02   -.100E+01 0.400E+00 -.100E+01   0.851E-03 -.219E-02 0.849E-03
   -.734E+01 -.116E+02 -.734E+01   0.588E+01 0.883E+01 0.588E+01   0.148E+01 0.266E+01 0.148E+01   -.158E-02 0.431E-03 -.158E-02
   -.160E+01 -.173E+01 0.718E+01   0.239E+01 0.114E+01 -.533E+01   -.904E+00 0.579E+00 -.181E+01   0.717E-04 0.129E-02 0.191E-02
   0.718E+01 -.173E+01 -.160E+01   -.533E+01 0.114E+01 0.239E+01   -.181E+01 0.579E+00 -.904E+00   0.191E-02 0.129E-02 0.725E-04
   -.133E+02 -.133E+02 0.119E+02   0.116E+02 0.116E+02 -.101E+02   0.161E+01 0.161E+01 -.169E+01   -.636E-03 -.636E-03 0.269E-02
   0.736E+01 -.815E+01 -.593E+01   -.625E+01 0.648E+01 0.476E+01   -.115E+01 0.169E+01 0.127E+01   0.161E-02 -.174E-02 -.341E-02
   0.696E+01 0.696E+01 0.206E+02   -.584E+01 -.584E+01 -.179E+02   -.116E+01 -.116E+01 -.267E+01   -.391E-03 -.391E-03 0.322E-02
   -.815E+01 0.736E+01 -.593E+01   0.648E+01 -.625E+01 0.476E+01   0.169E+01 -.115E+01 0.127E+01   -.174E-02 0.161E-02 -.341E-02
   0.114E+02 0.114E+02 -.760E+01   -.104E+02 -.104E+02 0.713E+01   -.100E+01 -.100E+01 0.400E+00   0.851E-03 0.851E-03 -.219E-02
   -.160E+01 0.718E+01 -.173E+01   0.239E+01 -.533E+01 0.114E+01   -.904E+00 -.181E+01 0.579E+00   0.720E-04 0.191E-02 0.129E-02
   -.734E+01 -.734E+01 -.116E+02   0.588E+01 0.588E+01 0.883E+01   0.148E+01 0.148E+01 0.266E+01   -.158E-02 -.158E-02 0.432E-03
   0.718E+01 -.160E+01 -.173E+01   -.533E+01 0.239E+01 0.114E+01   -.181E+01 -.904E+00 0.579E+00   0.191E-02 0.720E-04 0.129E-02
   -.133E+02 0.119E+02 -.133E+02   0.116E+02 -.101E+02 0.116E+02   0.161E+01 -.169E+01 0.161E+01   -.636E-03 0.269E-02 -.635E-03
   0.696E+01 0.206E+02 0.696E+01   -.584E+01 -.179E+02 -.584E+01   -.116E+01 -.267E+01 -.116E+01   -.391E-03 0.323E-02 -.392E-03
   0.736E+01 -.593E+01 -.815E+01   -.625E+01 0.476E+01 0.648E+01   -.115E+01 0.127E+01 0.169E+01   0.161E-02 -.341E-02 -.173E-02
   -.815E+01 -.593E+01 0.736E+01   0.648E+01 0.476E+01 -.625E+01   0.169E+01 0.127E+01 -.115E+01   -.174E-02 -.341E-02 0.161E-02
   0.119E+02 -.133E+02 -.133E+02   -.101E+02 0.116E+02 0.116E+02   -.169E+01 0.161E+01 0.161E+01   0.269E-02 -.636E-03 -.635E-03
   -.593E+01 -.815E+01 0.736E+01   0.476E+01 0.648E+01 -.625E+01   0.127E+01 0.169E+01 -.115E+01   -.341E-02 -.174E-02 0.161E-02
   -.593E+01 0.736E+01 -.815E+01   0.476E+01 -.625E+01 0.648E+01   0.127E+01 -.115E+01 0.169E+01   -.341E-02 0.161E-02 -.173E-02
   0.206E+02 0.696E+01 0.696E+01   -.179E+02 -.584E+01 -.584E+01   -.267E+01 -.116E+01 -.116E+01   0.323E-02 -.391E-03 -.392E-03
   -.122E+02 -.122E+02 -.122E+02   0.105E+02 0.105E+02 0.105E+02   0.169E+01 0.169E+01 0.169E+01   -.241E-02 -.241E-02 -.240E-02
   0.721E+01 -.271E+02 0.721E+01   -.604E+01 0.220E+02 -.604E+01   -.129E+01 0.520E+01 -.129E+01   0.295E-02 -.472E-02 0.294E-02
   0.721E+01 0.721E+01 -.271E+02   -.604E+01 -.604E+01 0.220E+02   -.129E+01 -.129E+01 0.520E+01   0.295E-02 0.295E-02 -.471E-02
   -.271E+02 0.721E+01 0.721E+01   0.220E+02 -.604E+01 -.604E+01   0.520E+01 -.129E+01 -.129E+01   -.472E-02 0.295E-02 0.294E-02
   0.222E+01 0.222E+01 0.222E+01   -.164E+01 -.164E+01 -.164E+01   -.591E+00 -.591E+00 -.591E+00   0.752E-03 0.752E-03 0.752E-03
 -----------------------------------------------------------------------------------------------
   0.372E+00 0.372E+00 0.372E+00   0.475E-13 -.322E-13 0.469E-13   -.370E+00 -.370E+00 -.370E+00   -.134E-02 -.134E-02 -.134E-02
 
 
 POSITION                                       TOTAL-FORCE (eV/Angst)
 -----------------------------------------------------------------------------------
      0.07845      0.07845      0.07845        -0.026075     -0.026075     -0.026075
      2.02815      0.12716      2.02815        -0.006629      0.153057     -0.006629
      2.02815      2.02815      0.12716        -0.006629     -0.006629      0.153057
      0.12716      2.02815      2.02815         0.153057     -0.006629     -0.006629
      3.94034      0.03770      0.03770        -0.067326      0.066918      0.066918
      5.94980      0.22399      1.98948        -0.005598      0.037708     -0.111954
      5.94980      1.98948      0.22399        -0.005598     -0.111954      0.037708
      3.87638      1.95990      1.95990        -0.113827      0.022211      0.022211
      0.03770      3.94034      0.03770         0.066918     -0.067326      0.066918
      1.95990      3.87638      1.95990         0.022211     -0.113827      0.022211
      1.98948      5.94980      0.22399        -0.111954     -0.005598      0.037708
      0.22399      5.94980      1.98948         0.037708     -0.005598     -0.111954
      3.94796      3.94796      0.04142        -0.051875     -0.051875      0.095301
      6.11858      3.89819      1.91308        -0.040545      0.021796      0.094413
      6.21501      6.21501      0.38825        -0.033912     -0.033912      0.096304
      3.89819      6.11858      1.91308         0.021796     -0.040545      0.094413
      0.03770      0.03770      3.94034         0.066918      0.066918     -0.067326
      1.98948      0.22399      5.94980        -0.111954      0.037708     -0.005598
      1.95990      1.95990      3.87638         0.022211      0.022211     -0.113827
      0.22399      1.98948      5.94980         0.037708     -0.111954     -0.005598
      3.94796      0.04142      3.94796        -0.051875      0.095301     -0.051875
      6.21501      0.38825      6.21501        -0.033912      0.096304     -0.033912
      6.11858      1.91308      3.89819        -0.040545      0.094413      0.021796
      3.89819      1.91308      6.11858         0.021796      0.094413     -0.040545
      0.04142      3.94796      3.94796         0.095301     -0.051875     -0.051875
      1.91308      3.89819      6.11858         0.094413      0.021796     -0.040545
      1.91308      6.11858      3.89819         0.094413     -0.040545      0.021796
      0.38825      6.21501      6.21501         0.096304     -0.033912     -0.033912
      3.95630      3.95630      3.95630        -0.007666     -0.007666     -0.007666
      6.18324      3.23844      6.18324        -0.119245      0.133593     -0.119245
      6.18324      6.18324      3.23844        -0.119245     -0.119245      0.133593
      3.23844      6.18324      6.18324         0.133593     -0.119245     -0.119245
      5.80515      5.80515      5.80515        -0.009938     -0.009938     -0.009938
 -----------------------------------------------------------------------------------
    total drift:                                0.000060      0.000060      0.000063
 d Force = 0.1398494E-01[-0.304E-02, 0.310E-01]  d Energy = 0.1440848E-01-0.424E-03
 d Force = 0.5012148E+00[ 0.326E+00, 0.676E+00]  d Ewald  = 0.5006794E+00 0.535E-03


--------------------------------------------------------------------------------------------------------


    POTLOK:  cpu time    0.27: real time    0.27


--------------------------------------------------------------------------------------------------------


  FORCES: max atom, RMS     0.215142    0.125824
  FORCE total and by dimension    0.722802    0.153057


--------------------------------------------------------------------------------------------------------


  
 reached required accuracy - stopping structural energy minimisation
     LOOP+:  cpu time    9.87: real time    9.88
    4ORBIT:  cpu time    0.00: real time    0.00

 total amount of memory used by VASP on root node  62502. kBytes
========================================================================

   base      :    30000. kBytes
   nonl-proj :     4093. kBytes
   fftplans  :     4240. kBytes
   grid      :    23132. kBytes
   one-center:      101. kBytes
   wavefun   :      936. kBytes
 
  
  
 General timing and accounting informations for this job:
 ========================================================
  
                  Total CPU time used (sec):      224.122
                            User time (sec):      223.922
                          System time (sec):        0.200
                         Elapsed time (sec):      225.743
  
                   Maximum memory used (kb):           0.
                   Average memory used (kb):           0.
  
                          Minor page faults:        20826
                          Major page faults:            0
                 Voluntary context switches:         3589
