<?xml version="1.0" encoding="ISO-8859-1"?>
<modeling>
 <generator>
  <i name="program" type="string">vasp </i>
  <i name="version" type="string">5.2.2  </i>
  <i name="subversion" type="string">15Apr09 complex  parallel </i>
  <i name="platform" type="string">LinuxIFC </i>
  <i name="date" type="string">2016 11 30 </i>
  <i name="time" type="string">12:59:07 </i>
 </generator>
 <incar>
  <i type="string" name="PREC">accurate</i>
  <i type="int" name="IALGO">    48</i>
  <i type="int" name="IBRION">     2</i>
  <i name="EDIFFG">      0.05000000</i>
  <i type="int" name="NSW">   191</i>
  <i type="int" name="ISIF">     2</i>
  <i name="ENCUT">    300.00000000</i>
  <i name="NELECT">     98.00000000</i>
  <i type="int" name="ISMEAR">     1</i>
  <i name="SIGMA">      0.20000000</i>
  <i type="logical" name="LWAVE"> F  </i>
  <i type="logical" name="LCHARG"> F  </i>
  <i type="logical" name="LPEAD"> F  </i>
  <i type="logical" name="LCALCPOL"> F  </i>
  <i type="logical" name="LCALCEPS"> F  </i>
  <v name="EFIELD_PEAD">      0.00000000      0.00000000      0.00000000</v>
  <i type="logical" name="LEFG"> F  </i>
 </incar>
 <kpoints>
  <generation param="Gamma">
   <v type="int" name="divisions">       1        1        1 </v>
   <v name="usershift">      0.00000000       0.00000000       0.00000000 </v>
   <v name="genvec1">      1.00000000       0.00000000       0.00000000 </v>
   <v name="genvec2">      0.00000000       1.00000000       0.00000000 </v>
   <v name="genvec3">      0.00000000       0.00000000       1.00000000 </v>
   <v name="shift">      0.00000000       0.00000000       0.00000000 </v>
  </generation>
  <varray name="kpointlist" >
   <v>       0.00000000       0.00000000       0.00000000 </v>
  </varray>
  <varray name="weights" >
   <v>       1.00000000 </v>
  </varray>
 </kpoints>
 <parameters>
  <separator name="general" >
   <i type="string" name="SYSTEM">unknown system</i>
   <i type="logical" name="LCOMPAT"> F  </i>
  </separator>
  <separator name="electronic" >
   <i type="string" name="PREC">accura</i>
   <i name="ENMAX">    300.00000000</i>
   <i name="ENAUG">    291.05200000</i>
   <i name="EDIFF">      0.00010000</i>
   <i type="int" name="IALGO">    48</i>
   <i type="int" name="IWAVPR">    11</i>
   <i type="int" name="NBANDS">    72</i>
   <i name="NELECT">     98.00000000</i>
   <separator name="electronic smearing" >
    <i type="int" name="ISMEAR">     1</i>
    <i name="SIGMA">      0.20000000</i>
   </separator>
   <separator name="electronic projectors" >
    <i type="logical" name="LREAL"> F  </i>
    <v name="ROPT">      0.00000000      0.00000000</v>
    <i type="int" name="LMAXPAW">  -100</i>
    <i type="int" name="LMAXMIX">     2</i>
   </separator>
   <separator name="electronic startup" >
    <i type="int" name="ISTART">     0</i>
    <i type="int" name="ICHARG">     2</i>
    <i type="int" name="INIWAV">     1</i>
   </separator>
   <separator name="electronic spin" >
    <i type="int" name="ISPIN">     1</i>
    <i type="logical" name="LNONCOLLINEAR"> F  </i>
    <v name="MAGMOM">      1.00000000      1.00000000      1.00000000      1.00000000      1.00000000      1.00000000      1.00000000      1.00000000      1.00000000      1.00000000      1.00000000      1.00000000      1.00000000      1.00000000      1.00000000      1.00000000      1.00000000      1.00000000      1.00000000      1.00000000
      1.00000000      1.00000000      1.00000000      1.00000000      1.00000000      1.00000000      1.00000000      1.00000000      1.00000000      1.00000000      1.00000000      1.00000000      1.00000000</v>
    <i name="NUPDOWN">     -1.00000000</i>
    <i type="logical" name="LSORBIT"> F  </i>
    <v name="SAXIS">      0.00000000      0.00000000      1.00000000</v>
    <i type="logical" name="LSPIRAL"> F  </i>
    <v name="QSPIRAL">      0.00000000      0.00000000      0.00000000</v>
    <i type="logical" name="LZEROZ"> F  </i>
   </separator>
   <separator name="electronic exchange-correlation" >
    <i type="logical" name="LASPH"> F  </i>
    <i type="logical" name="LMETAGGA"> F  </i>
   </separator>
   <separator name="electronic convergence" >
    <i type="int" name="NELM">    60</i>
    <i type="int" name="NELMDL">   -12</i>
    <i type="int" name="NELMIN">     2</i>
    <i name="ENINI">    300.00000000</i>
    <separator name="electronic convergence detail" >
     <i type="logical" name="LDIAG"> T  </i>
     <i name="WEIMIN">      0.00100000</i>
     <i name="EBREAK">      0.00000038</i>
     <i name="DEPER">      0.30000000</i>
     <i type="int" name="NRMM">     4</i>
     <i name="TIME">      0.40000000</i>
    </separator>
   </separator>
   <separator name="electronic mixer" >
    <i name="AMIX">      0.40000000</i>
    <i name="BMIX">      1.00000000</i>
    <i name="AMIN">      0.10000000</i>
    <i name="AMIX_MAG">      1.60000000</i>
    <i name="BMIX_MAG">      1.00000000</i>
    <separator name="electronic mixer details" >
     <i type="int" name="IMIX">     4</i>
     <i type="int" name="MAXMIX">   -45</i>
     <i name="WC">    100.00000000</i>
     <i type="int" name="INIMIX">     1</i>
     <i type="int" name="MIXPRE">     1</i>
     <i type="int" name="MREMOVE">     5</i>
    </separator>
   </separator>
   <separator name="electronic dipolcorrection" >
    <i type="logical" name="LDIPOL"> F  </i>
    <i type="logical" name="LMONO"> F  </i>
    <i type="int" name="IDIPOL">     0</i>
    <i name="EPSILON">      1.00000000</i>
    <v name="DIPOL">   -100.00000000   -100.00000000   -100.00000000</v>
    <i name="EFIELD">      0.00000000</i>
   </separator>
  </separator>
  <separator name="grids" >
   <i type="int" name="NGX">    48</i>
   <i type="int" name="NGY">    48</i>
   <i type="int" name="NGZ">    48</i>
   <i type="int" name="NGXF">    96</i>
   <i type="int" name="NGYF">    96</i>
   <i type="int" name="NGZF">    96</i>
   <i type="logical" name="ADDGRID"> F  </i>
  </separator>
  <separator name="ionic" >
   <i type="int" name="NSW">   191</i>
   <i type="int" name="IBRION">     2</i>
   <i type="int" name="ISIF">     2</i>
   <i name="PSTRESS">      0.00000000</i>
   <i name="EDIFFG">      0.05000000</i>
   <i type="int" name="NFREE">     1</i>
   <i name="POTIM">      0.50000000</i>
   <i name="SMASS">     -3.00000000</i>
  </separator>
  <separator name="ionic md" >
   <i name="TEBEG">      0.00010000</i>
   <i name="TEEND">      0.00010000</i>
   <i type="int" name="NBLOCK">     1</i>
   <i type="int" name="KBLOCK">   191</i>
   <i type="int" name="NPACO">   256</i>
   <i name="APACO">     16.00000000</i>
  </separator>
  <separator name="symmetry" >
   <i type="int" name="ISYM">     2</i>
   <i name="SYMPREC">      0.00001000</i>
  </separator>
  <separator name="dos" >
   <i type="logical" name="LORBIT"> F  </i>
   <v name="RWIGS">     -1.00000000     -1.00000000</v>
   <i type="int" name="NEDOS">   301</i>
   <i name="EMIN">     10.00000000</i>
   <i name="EMAX">    -10.00000000</i>
   <i name="EFERMI">      0.00000000</i>
  </separator>
  <separator name="writing" >
   <i type="int" name="NWRITE">     2</i>
   <i type="logical" name="LWAVE"> F  </i>
   <i type="logical" name="LCHARG"> F  </i>
   <i type="logical" name="LPARD"> F  </i>
   <i type="logical" name="LVTOT"> F  </i>
   <i type="logical" name="LELF"> F  </i>
   <i type="logical" name="LOPTICS"> F  </i>
   <v name="STM">      0.00000000      0.00000000      0.00000000      0.00000000      0.00000000</v>
  </separator>
  <separator name="performance" >
   <i type="int" name="NPAR">     8</i>
   <i type="int" name="NSIM">     4</i>
   <i type="int" name="NBLK">    32</i>
   <i type="logical" name="LPLANE"> T  </i>
   <i type="logical" name="LSCALAPACK"> F  </i>
   <i type="logical" name="LSCAAWARE"> F  </i>
   <i type="logical" name="LSCALU"> F  </i>
   <i type="logical" name="LASYNC"> F  </i>
  </separator>
  <separator name="miscellaneous" >
   <i type="int" name="IDIOT">     3</i>
   <i type="logical" name="LMUSIC"> F  </i>
   <v name="POMASS">     26.98200000     24.30500000</v>
   <i type="logical" name="LCORR"> T  </i>
  </separator>
  <i type="logical" name="LREAL_COMPAT"> F  </i>
  <i type="logical" name="GGA_COMPAT"> T  </i>
  <i type="logical" name="LBERRY"> F  </i>
  <i type="int" name="ICORELEVEL">     0</i>
  <i type="logical" name="LDAU"> F  </i>
  <i type="int" name="I_CONSTRAINED_M">     0</i>
  <separator name="electronic exchange-correlation" >
   <i type="string" name="GGA">--</i>
   <i type="int" name="VOSKOWN">     0</i>
   <i type="logical" name="LHFCALC"> F  </i>
   <i type="logical" name="LHFONE"> F  </i>
   <i type="logical" name="LRHFCALC"> F  </i>
   <i type="logical" name="LTHOMAS"> F  </i>
   <i type="logical" name="LMODELHF"> F  </i>
   <i name="ENCUTFOCK">      0.00000000</i>
   <i name="ENCUT4O">     -1.00000000</i>
   <i type="int" name="EXXOEP">     0</i>
   <i type="int" name="FOURORBIT">     0</i>
   <i name="AEXX">      0.00000000</i>
   <i name="HFALPHA">      0.00000000</i>
   <i name="ALDAX">      1.00000000</i>
   <i name="AGGAX">      1.00000000</i>
   <i name="ALDAC">      1.00000000</i>
   <i name="AGGAC">      1.00000000</i>
   <i type="int" name="NKREDX">     1</i>
   <i type="int" name="NKREDY">     1</i>
   <i type="int" name="NKREDZ">     1</i>
   <i type="logical" name="SHIFTRED"> F  </i>
   <i type="logical" name="ODDONLY"> F  </i>
   <i type="logical" name="EVENONLY"> F  </i>
   <i type="int" name="LMAXFOCK">     0</i>
   <i type="int" name="NMAXFOCKAE">     0</i>
   <i name="HFSCREEN">      0.00000000</i>
   <i name="HFSCREENC">      0.00000000</i>
  </separator>
  <separator name="model GW" >
   <i type="int" name="MODEL_GW">     0</i>
   <i name="MODEL_EPS0">      9.61630031</i>
   <i name="MODEL_ALPHA">      1.00000000</i>
  </separator>
  <separator name="linear response parameters" >
   <i type="logical" name="LEPSILON"> F  </i>
   <i type="logical" name="LRPA"> F  </i>
   <i type="logical" name="LNABLA"> F  </i>
   <i type="logical" name="LVEL"> F  </i>
   <i type="int" name="KINTER">     0</i>
   <i name="CSHIFT">      0.10000000</i>
   <i name="OMEGAMAX">     -1.00000000</i>
  </separator>
  <separator name="orbital magnetization" >
   <i type="logical" name="ORBITALMAG"> F  </i>
   <i type="logical" name="LMAGBLOCH"> F  </i>
   <i type="logical" name="LCHIMAG"> F  </i>
   <i type="logical" name="LGAUGE"> T  </i>
   <i type="int" name="MAGATOM">     0</i>
   <v name="MAGDIPOL">      0.00000000      0.00000000      0.00000000</v>
   <v name="AVECCONST">      0.00000000      0.00000000      0.00000000</v>
  </separator>
  <separator name="response functions" >
   <i type="logical" name="LRPA"> T  </i>
   <i type="logical" name="LTCTE"> F  </i>
   <i type="logical" name="LTETE"> F  </i>
   <i type="logical" name="L2ORDER"> F  </i>
   <i type="logical" name="LGWLF"> F  </i>
   <i name="ENCUTGW">    200.00000000</i>
   <i name="ENCUTGWSOFT">     -2.00000000</i>
   <i name="ENCUTLF">     -1.00000000</i>
   <i type="int" name="LMAXMP2">    -1</i>
   <i name="SCISSOR">      0.00000000</i>
   <i type="int" name="NOMEGA">     0</i>
   <i type="int" name="NOMEGAR">     0</i>
   <i type="int" name="NBANDSGW">    -1</i>
   <i type="int" name="NBANDSLF">    -1</i>
   <i type="int" name="NELM">     1</i>
   <i type="int" name="DIM">     3</i>
   <i type="int" name="ANTIRES">     0</i>
   <i type="logical" name="LUSEW"> F  </i>
   <i name="OMEGAMAX">    -30.00000000</i>
   <i name="OMEGATL">   -200.00000000</i>
   <i type="int" name="OMEGAGRID">     0</i>
   <i name="CSHIFT">     -0.10000000</i>
   <i type="logical" name="SELFENERGY"> F  </i>
   <i type="logical" name="LSPECTRAL"> F  </i>
   <i type="logical" name="ODDONLYGW"> F  </i>
   <i type="logical" name="EVENONLYGW"> F  </i>
   <i type="int" name="NKREDLFX">     1</i>
   <i type="int" name="NKREDLFY">     1</i>
   <i type="int" name="NKREDLFZ">     1</i>
   <i type="int" name="MAXMEM">  1024</i>
   <i type="int" name="TELESCOPE">     0</i>
  </separator>
 </parameters>
 <atominfo>
  <atoms>      33 </atoms>
  <types>       2 </types>
  <array name="atoms" >
   <dimension dim="1">ion</dimension>
   <field type="string">element</field>
   <field type="int">atomtype</field>
   <set>
    <rc><c>Al</c><c>   1</c></rc>
    <rc><c>Al</c><c>   1</c></rc>
    <rc><c>Al</c><c>   1</c></rc>
    <rc><c>Al</c><c>   1</c></rc>
    <rc><c>Al</c><c>   1</c></rc>
    <rc><c>Al</c><c>   1</c></rc>
    <rc><c>Al</c><c>   1</c></rc>
    <rc><c>Al</c><c>   1</c></rc>
    <rc><c>Al</c><c>   1</c></rc>
    <rc><c>Al</c><c>   1</c></rc>
    <rc><c>Al</c><c>   1</c></rc>
    <rc><c>Al</c><c>   1</c></rc>
    <rc><c>Al</c><c>   1</c></rc>
    <rc><c>Al</c><c>   1</c></rc>
    <rc><c>Al</c><c>   1</c></rc>
    <rc><c>Al</c><c>   1</c></rc>
    <rc><c>Al</c><c>   1</c></rc>
    <rc><c>Al</c><c>   1</c></rc>
    <rc><c>Al</c><c>   1</c></rc>
    <rc><c>Al</c><c>   1</c></rc>
    <rc><c>Al</c><c>   1</c></rc>
    <rc><c>Al</c><c>   1</c></rc>
    <rc><c>Al</c><c>   1</c></rc>
    <rc><c>Al</c><c>   1</c></rc>
    <rc><c>Al</c><c>   1</c></rc>
    <rc><c>Al</c><c>   1</c></rc>
    <rc><c>Al</c><c>   1</c></rc>
    <rc><c>Al</c><c>   1</c></rc>
    <rc><c>Al</c><c>   1</c></rc>
    <rc><c>Al</c><c>   1</c></rc>
    <rc><c>Al</c><c>   1</c></rc>
    <rc><c>Al</c><c>   1</c></rc>
    <rc><c>Mg</c><c>   2</c></rc>
   </set>
  </array>
  <array name="atomtypes" >
   <dimension dim="1">type</dimension>
   <field type="int">atomspertype</field>
   <field type="string">element</field>
   <field>mass</field>
   <field>valence</field>
   <field type="string">pseudopotential</field>
   <set>
    <rc><c>  32</c><c>Al</c><c>     26.98200000</c><c>      3.00000000</c><c> PAW_PBE Al 04Jan2001                   </c></rc>
    <rc><c>   1</c><c>Mg</c><c>     24.30500000</c><c>      2.00000000</c><c> PAW_PBE Mg 05Jan2001                   </c></rc>
   </set>
  </array>
 </atominfo>
 <structure name="initialpos" >
  <crystal>
   <varray name="basis" >
    <v>       8.08705200       0.00000000       0.00000000 </v>
    <v>       0.00000000       8.08705200       0.00000000 </v>
    <v>       0.00000000       0.00000000       8.08705200 </v>
   </varray>
   <i name="volume">    528.89651690 </i>
   <varray name="rec_basis" >
    <v>       0.12365445       0.00000000       0.00000000 </v>
    <v>       0.00000000       0.12365445       0.00000000 </v>
    <v>       0.00000000       0.00000000       0.12365445 </v>
   </varray>
  </crystal>
  <varray name="positions" >
   <v>       0.00000000       0.00000000       0.00000000 </v>
   <v>       0.25000000       0.00000000       0.25000000 </v>
   <v>       0.25000000       0.25000000       0.00000000 </v>
   <v>       0.00000000       0.25000000       0.25000000 </v>
   <v>       0.50000000       0.00000000       0.00000000 </v>
   <v>       0.75000000       0.00000000       0.25000000 </v>
   <v>       0.75000000       0.25000000       0.00000000 </v>
   <v>       0.50000000       0.25000000       0.25000000 </v>
   <v>       0.00000000       0.50000000       0.00000000 </v>
   <v>       0.25000000       0.50000000       0.25000000 </v>
   <v>       0.25000000       0.75000000       0.00000000 </v>
   <v>       0.00000000       0.75000000       0.25000000 </v>
   <v>       0.50000000       0.50000000       0.00000000 </v>
   <v>       0.75000000       0.50000000       0.25000000 </v>
   <v>       0.75000000       0.75000000       0.00000000 </v>
   <v>       0.50000000       0.75000000       0.25000000 </v>
   <v>       0.00000000       0.00000000       0.50000000 </v>
   <v>       0.25000000       0.00000000       0.75000000 </v>
   <v>       0.25000000       0.25000000       0.50000000 </v>
   <v>       0.00000000       0.25000000       0.75000000 </v>
   <v>       0.50000000       0.00000000       0.50000000 </v>
   <v>       0.75000000       0.00000000       0.75000000 </v>
   <v>       0.75000000       0.25000000       0.50000000 </v>
   <v>       0.50000000       0.25000000       0.75000000 </v>
   <v>       0.00000000       0.50000000       0.50000000 </v>
   <v>       0.25000000       0.50000000       0.75000000 </v>
   <v>       0.25000000       0.75000000       0.50000000 </v>
   <v>       0.00000000       0.75000000       0.75000000 </v>
   <v>       0.50000000       0.50000000       0.50000000 </v>
   <v>       0.75000000       0.50000000       0.75000000 </v>
   <v>       0.75000000       0.75000000       0.50000000 </v>
   <v>       0.50000000       0.75000000       0.75000000 </v>
   <v>       0.66000000       0.66000000       0.66000000 </v>
  </varray>
 </structure>
 <calculation>
  <scstep>
   <time name="diag">    0.23    0.23</time>
   <time name="diis">    0.54    0.54</time>
   <time name="orth">    0.01    0.01</time>
   <time name="total">    1.06    1.08</time>
   <energy>
    <i name="alphaZ">     -8.27954604 </i>
    <i name="ewald">  -2377.69944848 </i>
    <i name="hartreedc">     -9.50491146 </i>
    <i name="XCdc">   -846.35400825 </i>
    <i name="pawpsdc">   1149.32568210 </i>
    <i name="pawaedc">   -115.70169129 </i>
    <i name="eentropy">      0.02492223 </i>
    <i name="bandstr">    770.62421699 </i>
    <i name="atom">   1736.20668909 </i>
    <i name="e_fr_energy">    298.64190488 </i>
    <i name="e_wo_entrp">    298.61698265 </i>
    <i name="e_0_energy">    298.63359747 </i>
   </energy>
  </scstep>
  <scstep>
   <time name="diag">    0.23    0.23</time>
   <time name="diis">    0.54    0.54</time>
   <time name="orth">    0.01    0.01</time>
   <time name="total">    0.79    0.79</time>
   <energy>
    <i name="e_fr_energy">      0.74671342 </i>
    <i name="e_wo_entrp">      0.75154686 </i>
    <i name="e_0_energy">      0.74832457 </i>
   </energy>
  </scstep>
  <scstep>
   <time name="diag">    0.23    0.23</time>
   <time name="diis">    0.54    0.54</time>
   <time name="orth">    0.01    0.01</time>
   <time name="total">    0.79    0.79</time>
   <energy>
    <i name="e_fr_energy">    -55.00300950 </i>
    <i name="e_wo_entrp">    -54.89913255 </i>
    <i name="e_0_energy">    -54.96838385 </i>
   </energy>
  </scstep>
  <scstep>
   <time name="diag">    0.23    0.23</time>
   <time name="diis">    0.54    0.54</time>
   <time name="orth">    0.01    0.01</time>
   <time name="total">    0.79    0.79</time>
   <energy>
    <i name="e_fr_energy">    -73.04120236 </i>
    <i name="e_wo_entrp">    -73.12158360 </i>
    <i name="e_0_energy">    -73.06799611 </i>
   </energy>
  </scstep>
  <scstep>
   <time name="diag">    0.23    0.23</time>
   <time name="diis">    0.54    0.54</time>
   <time name="orth">    0.01    0.01</time>
   <time name="total">    0.79    0.79</time>
   <energy>
    <i name="e_fr_energy">    -81.28986713 </i>
    <i name="e_wo_entrp">    -81.29975302 </i>
    <i name="e_0_energy">    -81.29316243 </i>
   </energy>
  </scstep>
  <scstep>
   <time name="diag">    0.23    0.23</time>
   <time name="diis">    0.54    0.54</time>
   <time name="orth">    0.01    0.01</time>
   <time name="total">    0.79    0.79</time>
   <energy>
    <i name="e_fr_energy">    -84.27679210 </i>
    <i name="e_wo_entrp">    -84.22166877 </i>
    <i name="e_0_energy">    -84.25841766 </i>
   </energy>
  </scstep>
  <scstep>
   <time name="diag">    0.23    0.23</time>
   <time name="diis">    0.55    0.55</time>
   <time name="orth">    0.01    0.01</time>
   <time name="total">    0.79    0.80</time>
   <energy>
    <i name="e_fr_energy">    -85.42102285 </i>
    <i name="e_wo_entrp">    -85.34041161 </i>
    <i name="e_0_energy">    -85.39415244 </i>
   </energy>
  </scstep>
  <scstep>
   <time name="diag">    0.23    0.23</time>
   <time name="diis">    0.54    0.54</time>
   <time name="orth">    0.01    0.01</time>
   <time name="total">    0.79    0.79</time>
   <energy>
    <i name="e_fr_energy">    -85.91407038 </i>
    <i name="e_wo_entrp">    -85.82102555 </i>
    <i name="e_0_energy">    -85.88305544 </i>
   </energy>
  </scstep>
  <scstep>
   <time name="diag">    0.23    0.23</time>
   <time name="diis">    1.05    1.05</time>
   <time name="orth">    0.01    0.01</time>
   <time name="total">    1.30    1.30</time>
   <energy>
    <i name="e_fr_energy">    -86.32664225 </i>
    <i name="e_wo_entrp">    -86.22847943 </i>
    <i name="e_0_energy">    -86.29392131 </i>
   </energy>
  </scstep>
  <scstep>
   <time name="diag">    0.24    0.24</time>
   <time name="diis">    1.02    1.02</time>
   <time name="orth">    0.01    0.01</time>
   <time name="total">    1.27    1.27</time>
   <energy>
    <i name="e_fr_energy">    -86.38519862 </i>
    <i name="e_wo_entrp">    -86.29236772 </i>
    <i name="e_0_energy">    -86.35425498 </i>
   </energy>
  </scstep>
  <scstep>
   <time name="diag">    0.24    0.24</time>
   <time name="diis">    0.94    0.95</time>
   <time name="orth">    0.01    0.01</time>
   <time name="total">    1.20    1.20</time>
   <energy>
    <i name="e_fr_energy">    -86.38901530 </i>
    <i name="e_wo_entrp">    -86.29731348 </i>
    <i name="e_0_energy">    -86.35844803 </i>
   </energy>
  </scstep>
  <scstep>
   <time name="diag">    0.23    0.24</time>
   <time name="diis">    0.80    0.80</time>
   <time name="orth">    0.01    0.01</time>
   <time name="total">    1.22    1.22</time>
   <energy>
    <i name="e_fr_energy">    -86.38916996 </i>
    <i name="e_wo_entrp">    -86.29765631 </i>
    <i name="e_0_energy">    -86.35866541 </i>
   </energy>
  </scstep>
  <scstep>
   <time name="diag">    0.23    0.23</time>
   <time name="diis">    0.96    0.96</time>
   <time name="orth">    0.01    0.01</time>
   <time name="total">    1.66    1.66</time>
   <energy>
    <i name="e_fr_energy">    -83.97138628 </i>
    <i name="e_wo_entrp">    -83.85040017 </i>
    <i name="e_0_energy">    -83.93105757 </i>
   </energy>
  </scstep>
  <scstep>
   <time name="diag">    0.23    0.23</time>
   <time name="diis">    0.98    0.98</time>
   <time name="orth">    0.01    0.01</time>
   <time name="total">    1.66    1.67</time>
   <energy>
    <i name="e_fr_energy">    -83.43497149 </i>
    <i name="e_wo_entrp">    -83.31785383 </i>
    <i name="e_0_energy">    -83.39593227 </i>
   </energy>
  </scstep>
  <scstep>
   <time name="diag">    0.23    0.23</time>
   <time name="diis">    1.01    1.01</time>
   <time name="orth">    0.01    0.01</time>
   <time name="total">    1.70    1.70</time>
   <energy>
    <i name="e_fr_energy">    -83.15894395 </i>
    <i name="e_wo_entrp">    -83.01591912 </i>
    <i name="e_0_energy">    -83.11126901 </i>
   </energy>
  </scstep>
  <scstep>
   <time name="diag">    0.23    0.23</time>
   <time name="diis">    1.02    1.03</time>
   <time name="orth">    0.01    0.01</time>
   <time name="total">    1.72    1.73</time>
   <energy>
    <i name="e_fr_energy">    -83.13812806 </i>
    <i name="e_wo_entrp">    -83.00985295 </i>
    <i name="e_0_energy">    -83.09536969 </i>
   </energy>
  </scstep>
  <scstep>
   <time name="diag">    0.23    0.23</time>
   <time name="diis">    0.99    0.99</time>
   <time name="orth">    0.01    0.01</time>
   <time name="total">    1.69    1.69</time>
   <energy>
    <i name="e_fr_energy">    -83.13745586 </i>
    <i name="e_wo_entrp">    -83.00665680 </i>
    <i name="e_0_energy">    -83.09385618 </i>
   </energy>
  </scstep>
  <scstep>
   <time name="diag">    0.24    0.24</time>
   <time name="diis">    0.83    0.83</time>
   <time name="orth">    0.01    0.01</time>
   <time name="total">    1.35    1.35</time>
   <energy>
    <i name="alphaZ">     -8.27954604 </i>
    <i name="ewald">  -2377.69944848 </i>
    <i name="hartreedc">    -12.75971112 </i>
    <i name="XCdc">   -841.88843082 </i>
    <i name="pawpsdc">   1155.29937880 </i>
    <i name="pawaedc">   -122.50137462 </i>
    <i name="eentropy">     -0.13097598 </i>
    <i name="bandstr">    388.61601877 </i>
    <i name="atom">   1736.20668909 </i>
    <i name="e_fr_energy">    -83.13740039 </i>
    <i name="e_wo_entrp">    -83.00642441 </i>
    <i name="e_0_energy">    -83.09374173 </i>
   </energy>
  </scstep>
  <structure>
   <crystal>
    <varray name="basis" >
     <v>       8.08705200       0.00000000       0.00000000 </v>
     <v>       0.00000000       8.08705200       0.00000000 </v>
     <v>       0.00000000       0.00000000       8.08705200 </v>
    </varray>
    <i name="volume">    528.89651690 </i>
    <varray name="rec_basis" >
     <v>       0.12365445       0.00000000       0.00000000 </v>
     <v>       0.00000000       0.12365445       0.00000000 </v>
     <v>       0.00000000       0.00000000       0.12365445 </v>
    </varray>
   </crystal>
   <varray name="positions" >
    <v>       0.00000000       0.00000000       0.00000000 </v>
    <v>       0.25000000       0.00000000       0.25000000 </v>
    <v>       0.25000000       0.25000000       0.00000000 </v>
    <v>       0.00000000       0.25000000       0.25000000 </v>
    <v>       0.50000000       0.00000000       0.00000000 </v>
    <v>       0.75000000       0.00000000       0.25000000 </v>
    <v>       0.75000000       0.25000000       0.00000000 </v>
    <v>       0.50000000       0.25000000       0.25000000 </v>
    <v>       0.00000000       0.50000000       0.00000000 </v>
    <v>       0.25000000       0.50000000       0.25000000 </v>
    <v>       0.25000000       0.75000000       0.00000000 </v>
    <v>       0.00000000       0.75000000       0.25000000 </v>
    <v>       0.50000000       0.50000000       0.00000000 </v>
    <v>       0.75000000       0.50000000       0.25000000 </v>
    <v>       0.75000000       0.75000000       0.00000000 </v>
    <v>       0.50000000       0.75000000       0.25000000 </v>
    <v>       0.00000000       0.00000000       0.50000000 </v>
    <v>       0.25000000       0.00000000       0.75000000 </v>
    <v>       0.25000000       0.25000000       0.50000000 </v>
    <v>       0.00000000       0.25000000       0.75000000 </v>
    <v>       0.50000000       0.00000000       0.50000000 </v>
    <v>       0.75000000       0.00000000       0.75000000 </v>
    <v>       0.75000000       0.25000000       0.50000000 </v>
    <v>       0.50000000       0.25000000       0.75000000 </v>
    <v>       0.00000000       0.50000000       0.50000000 </v>
    <v>       0.25000000       0.50000000       0.75000000 </v>
    <v>       0.25000000       0.75000000       0.50000000 </v>
    <v>       0.00000000       0.75000000       0.75000000 </v>
    <v>       0.50000000       0.50000000       0.50000000 </v>
    <v>       0.75000000       0.50000000       0.75000000 </v>
    <v>       0.75000000       0.75000000       0.50000000 </v>
    <v>       0.50000000       0.75000000       0.75000000 </v>
    <v>       0.66000000       0.66000000       0.66000000 </v>
   </varray>
  </structure>
  <varray name="forces" >
   <v>       0.13922013       0.13922013       0.13922013 </v>
   <v>      -0.22238258       0.17698820      -0.22238258 </v>
   <v>      -0.22238258      -0.22238258       0.17698820 </v>
   <v>       0.17698820      -0.22238258      -0.22238258 </v>
   <v>      -0.16975136      -0.02476022      -0.02476022 </v>
   <v>       0.28278239      -0.03756475       0.01376773 </v>
   <v>       0.28278239       0.01376773      -0.03756475 </v>
   <v>      -0.10138878       0.05591737       0.05591737 </v>
   <v>      -0.02476022      -0.16975136      -0.02476022 </v>
   <v>       0.05591737      -0.10138878       0.05591737 </v>
   <v>       0.01376773       0.28278239      -0.03756475 </v>
   <v>      -0.03756475       0.28278239       0.01376773 </v>
   <v>       0.14747927       0.14747927      -0.28577869 </v>
   <v>      -0.16968106       0.15264638       0.16112342 </v>
   <v>      -0.17209166      -0.17209166      -0.34842688 </v>
   <v>       0.15264638      -0.16968106       0.16112342 </v>
   <v>      -0.02476022      -0.02476022      -0.16975136 </v>
   <v>       0.01376773      -0.03756475       0.28278239 </v>
   <v>       0.05591737       0.05591737      -0.10138878 </v>
   <v>      -0.03756475       0.01376773       0.28278239 </v>
   <v>       0.14747927      -0.28577869       0.14747927 </v>
   <v>      -0.17209166      -0.34842688      -0.17209166 </v>
   <v>      -0.16968106       0.16112342       0.15264638 </v>
   <v>       0.15264638       0.16112342      -0.16968106 </v>
   <v>      -0.28577869       0.14747927       0.14747927 </v>
   <v>       0.16112342       0.15264638      -0.16968106 </v>
   <v>       0.16112342      -0.16968106       0.15264638 </v>
   <v>      -0.34842688      -0.17209166      -0.17209166 </v>
   <v>      -1.32388941      -1.32388941      -1.32388941 </v>
   <v>       7.52391354     -13.68860866       7.52391354 </v>
   <v>       7.52391354       7.52391354     -13.68860866 </v>
   <v>     -13.68860866       7.52391354       7.52391354 </v>
   <v>       0.17933582       0.17933582       0.17933582 </v>
  </varray>
  <varray name="stress" >
   <v>      57.42718291     -41.88398508     -41.88398508 </v>
   <v>     -41.88398508      57.42718291     -41.88398508 </v>
   <v>     -41.88398508     -41.88398508      57.42718291 </v>
  </varray>
  <energy>
   <i name="e_fr_energy">    -83.13740039 </i>
   <i name="e_wo_entrp">    -83.09374173 </i>
   <i name="e_0_energy">     -0.13097598 </i>
  </energy>
  <time name="totalsc">   23.48   23.53</time>
 </calculation>
 <calculation>
  <scstep>
   <time name="diag">    0.23    0.23</time>
   <time name="diis">    0.96    0.96</time>
   <time name="orth">    0.01    0.01</time>
   <time name="total">    1.65    1.65</time>
   <energy>
    <i name="alphaZ">     -8.27954604 </i>
    <i name="ewald">  -2381.90357168 </i>
    <i name="hartreedc">    -10.86383182 </i>
    <i name="XCdc">   -841.54464159 </i>
    <i name="pawpsdc">   1155.39228887 </i>
    <i name="pawaedc">   -122.60259418 </i>
    <i name="eentropy">     -0.07516691 </i>
    <i name="bandstr">    373.49232996 </i>
    <i name="atom">   1736.20668909 </i>
    <i name="e_fr_energy">   -100.17804430 </i>
    <i name="e_wo_entrp">   -100.10287739 </i>
    <i name="e_0_energy">   -100.15298866 </i>
   </energy>
  </scstep>
  <scstep>
   <time name="diag">    0.23    0.23</time>
   <time name="diis">    0.97    0.97</time>
   <time name="orth">    0.01    0.01</time>
   <time name="total">    1.66    1.66</time>
   <energy>
    <i name="e_fr_energy">    -97.58622074 </i>
    <i name="e_wo_entrp">    -97.51500444 </i>
    <i name="e_0_energy">    -97.56248197 </i>
   </energy>
  </scstep>
  <scstep>
   <time name="diag">    0.23    0.23</time>
   <time name="diis">    1.01    1.01</time>
   <time name="orth">    0.01    0.01</time>
   <time name="total">    1.70    1.70</time>
   <energy>
    <i name="e_fr_energy">    -96.50444053 </i>
    <i name="e_wo_entrp">    -96.41057912 </i>
    <i name="e_0_energy">    -96.47315339 </i>
   </energy>
  </scstep>
  <scstep>
   <time name="diag">    0.23    0.23</time>
   <time name="diis">    0.97    0.97</time>
   <time name="orth">    0.01    0.01</time>
   <time name="total">    1.66    1.66</time>
   <energy>
    <i name="e_fr_energy">    -96.30757229 </i>
    <i name="e_wo_entrp">    -96.21677960 </i>
    <i name="e_0_energy">    -96.27730806 </i>
   </energy>
  </scstep>
  <scstep>
   <time name="diag">    0.23    0.23</time>
   <time name="diis">    1.02    1.02</time>
   <time name="orth">    0.01    0.01</time>
   <time name="total">    1.71    1.71</time>
   <energy>
    <i name="e_fr_energy">    -96.29640606 </i>
    <i name="e_wo_entrp">    -96.21132554 </i>
    <i name="e_0_energy">    -96.26804589 </i>
   </energy>
  </scstep>
  <scstep>
   <time name="diag">    0.23    0.23</time>
   <time name="diis">    0.99    0.99</time>
   <time name="orth">    0.01    0.01</time>
   <time name="total">    1.68    1.68</time>
   <energy>
    <i name="e_fr_energy">    -96.29467662 </i>
    <i name="e_wo_entrp">    -96.20981990 </i>
    <i name="e_0_energy">    -96.26639105 </i>
   </energy>
  </scstep>
  <scstep>
   <time name="diag">    0.23    0.23</time>
   <time name="diis">    1.00    1.00</time>
   <time name="orth">    0.01    0.01</time>
   <time name="total">    1.69    1.70</time>
   <energy>
    <i name="e_fr_energy">    -96.29239517 </i>
    <i name="e_wo_entrp">    -96.20817565 </i>
    <i name="e_0_energy">    -96.26432199 </i>
   </energy>
  </scstep>
  <scstep>
   <time name="diag">    0.23    0.23</time>
   <time name="diis">    0.88    0.88</time>
   <time name="orth">    0.01    0.01</time>
   <time name="total">    1.57    1.57</time>
   <energy>
    <i name="e_fr_energy">    -96.29246699 </i>
    <i name="e_wo_entrp">    -96.20817338 </i>
    <i name="e_0_energy">    -96.26436912 </i>
   </energy>
  </scstep>
  <scstep>
   <time name="diag">    0.23    0.23</time>
   <time name="diis">    0.73    0.73</time>
   <time name="orth">    0.01    0.01</time>
   <time name="total">    1.25    1.25</time>
   <energy>
    <i name="alphaZ">     -8.27954604 </i>
    <i name="ewald">  -2381.90357168 </i>
    <i name="hartreedc">    -18.28663231 </i>
    <i name="XCdc">   -841.04966421 </i>
    <i name="pawpsdc">   1157.82703849 </i>
    <i name="pawaedc">   -124.98715712 </i>
    <i name="eentropy">     -0.08437767 </i>
    <i name="bandstr">    384.26478336 </i>
    <i name="atom">   1736.20668909 </i>
    <i name="e_fr_energy">    -96.29243809 </i>
    <i name="e_wo_entrp">    -96.20806042 </i>
    <i name="e_0_energy">    -96.26431220 </i>
   </energy>
  </scstep>
  <structure>
   <crystal>
    <varray name="basis" >
     <v>       8.08705200       0.00000000       0.00000000 </v>
     <v>       0.00000000       8.08705200       0.00000000 </v>
     <v>       0.00000000       0.00000000       8.08705200 </v>
    </varray>
    <i name="volume">    528.89651690 </i>
    <varray name="rec_basis" >
     <v>       0.12365445       0.00000000       0.00000000 </v>
     <v>       0.00000000       0.12365445       0.00000000 </v>
     <v>       0.00000000       0.00000000       0.12365445 </v>
    </varray>
   </crystal>
   <varray name="positions" >
    <v>       0.00083051       0.00083051       0.00083051 </v>
    <v>       0.24867339       0.00105581       0.24867339 </v>
    <v>       0.24867339       0.24867339       0.00105581 </v>
    <v>       0.00105581       0.24867339       0.24867339 </v>
    <v>       0.49898736      -0.00014771      -0.00014771 </v>
    <v>       0.75168692      -0.00022409       0.25008213 </v>
    <v>       0.75168692       0.25008213      -0.00022409 </v>
    <v>       0.49939517       0.25033357       0.25033357 </v>
    <v>      -0.00014771       0.49898736      -0.00014771 </v>
    <v>       0.25033357       0.49939517       0.25033357 </v>
    <v>       0.25008213       0.75168692      -0.00022409 </v>
    <v>      -0.00022409       0.75168692       0.25008213 </v>
    <v>       0.50087978       0.50087978      -0.00170479 </v>
    <v>       0.74898778       0.50091060       0.25096117 </v>
    <v>       0.74897340       0.74897340      -0.00207851 </v>
    <v>       0.50091060       0.74898778       0.25096117 </v>
    <v>      -0.00014771      -0.00014771       0.49898736 </v>
    <v>       0.25008213      -0.00022409       0.75168692 </v>
    <v>       0.25033357       0.25033357       0.49939517 </v>
    <v>      -0.00022409       0.25008213       0.75168692 </v>
    <v>       0.50087978      -0.00170479       0.50087978 </v>
    <v>       0.74897340      -0.00207851       0.74897340 </v>
    <v>       0.74898778       0.25096117       0.50091060 </v>
    <v>       0.50091060       0.25096117       0.74898778 </v>
    <v>      -0.00170479       0.50087978       0.50087978 </v>
    <v>       0.25096117       0.50091060       0.74898778 </v>
    <v>       0.25096117       0.74898778       0.50091060 </v>
    <v>      -0.00207851       0.74897340       0.74897340 </v>
    <v>       0.49210244       0.49210244       0.49210244 </v>
    <v>       0.79488330       0.41834171       0.79488330 </v>
    <v>       0.79488330       0.79488330       0.41834171 </v>
    <v>       0.41834171       0.79488330       0.79488330 </v>
    <v>       0.66106981       0.66106981       0.66106981 </v>
   </varray>
  </structure>
  <varray name="forces" >
   <v>       0.10051188       0.10051188       0.10051188 </v>
   <v>      -0.04276643       0.28451884      -0.04276643 </v>
   <v>      -0.04276643      -0.04276643       0.28451884 </v>
   <v>       0.28451884      -0.04276643      -0.04276643 </v>
   <v>       0.39539193       0.84259213       0.84259213 </v>
   <v>      -0.98902158       2.88360244      -2.37435407 </v>
   <v>      -0.98902158      -2.37435407       2.88360244 </v>
   <v>       0.13456853      -0.22464477      -0.22464477 </v>
   <v>       0.84259213       0.39539193       0.84259213 </v>
   <v>      -0.22464477       0.13456853      -0.22464477 </v>
   <v>      -2.37435407      -0.98902158       2.88360244 </v>
   <v>       2.88360244      -0.98902158      -2.37435407 </v>
   <v>      -0.05205891      -0.05205891       0.11557159 </v>
   <v>       0.13993036       0.02375652      -0.24999881 </v>
   <v>       0.05549177       0.05549177      -0.01319395 </v>
   <v>       0.02375652       0.13993036      -0.24999881 </v>
   <v>       0.84259213       0.84259213       0.39539193 </v>
   <v>      -2.37435407       2.88360244      -0.98902158 </v>
   <v>      -0.22464477      -0.22464477       0.13456853 </v>
   <v>       2.88360244      -2.37435407      -0.98902158 </v>
   <v>      -0.05205891       0.11557159      -0.05205891 </v>
   <v>       0.05549177      -0.01319395       0.05549177 </v>
   <v>       0.13993036      -0.24999881       0.02375652 </v>
   <v>       0.02375652      -0.24999881       0.13993036 </v>
   <v>       0.11557159      -0.05205891      -0.05205891 </v>
   <v>      -0.24999881       0.02375652       0.13993036 </v>
   <v>      -0.24999881       0.13993036       0.02375652 </v>
   <v>      -0.01319395       0.05549177       0.05549177 </v>
   <v>      -1.41200170      -1.41200170      -1.41200170 </v>
   <v>      -2.29239155       3.74073439      -2.29239155 </v>
   <v>      -2.29239155      -2.29239155       3.74073439 </v>
   <v>       3.74073439      -2.29239155      -2.29239155 </v>
   <v>       1.21362426       1.21362426       1.21362426 </v>
  </varray>
  <varray name="stress" >
   <v>      52.57684467     -19.10839335     -19.10839335 </v>
   <v>     -19.10839335      52.57684467     -19.10839335 </v>
   <v>     -19.10839335     -19.10839335      52.57684467 </v>
  </varray>
  <energy>
   <i name="e_fr_energy">    -96.29243809 </i>
   <i name="e_wo_entrp">    -96.26431220 </i>
   <i name="e_0_energy">     -0.08437767 </i>
  </energy>
  <time name="totalsc">   16.67   16.69</time>
 </calculation>
 <calculation>
  <scstep>
   <time name="diag">    0.23    0.24</time>
   <time name="diis">    1.00    1.00</time>
   <time name="orth">    0.01    0.01</time>
   <time name="total">    1.70    1.70</time>
   <energy>
    <i name="alphaZ">     -8.27954604 </i>
    <i name="ewald">  -2392.94350903 </i>
    <i name="hartreedc">    -11.96550674 </i>
    <i name="XCdc">   -841.21056014 </i>
    <i name="pawpsdc">   1157.82404594 </i>
    <i name="pawaedc">   -124.98412192 </i>
    <i name="eentropy">     -0.13122139 </i>
    <i name="bandstr">    387.30709504 </i>
    <i name="atom">   1736.20668909 </i>
    <i name="e_fr_energy">    -98.17663518 </i>
    <i name="e_wo_entrp">    -98.04541380 </i>
    <i name="e_0_energy">    -98.13289472 </i>
   </energy>
  </scstep>
  <scstep>
   <time name="diag">    0.23    0.23</time>
   <time name="diis">    0.98    0.98</time>
   <time name="orth">    0.01    0.01</time>
   <time name="total">    1.68    1.68</time>
   <energy>
    <i name="e_fr_energy">    -97.84831903 </i>
    <i name="e_wo_entrp">    -97.75431693 </i>
    <i name="e_0_energy">    -97.81698500 </i>
   </energy>
  </scstep>
  <scstep>
   <time name="diag">    0.23    0.23</time>
   <time name="diis">    1.02    1.02</time>
   <time name="orth">    0.01    0.01</time>
   <time name="total">    1.72    1.72</time>
   <energy>
    <i name="e_fr_energy">    -97.81998589 </i>
    <i name="e_wo_entrp">    -97.71950113 </i>
    <i name="e_0_energy">    -97.78649097 </i>
   </energy>
  </scstep>
  <scstep>
   <time name="diag">    0.23    0.24</time>
   <time name="diis">    1.01    1.01</time>
   <time name="orth">    0.01    0.01</time>
   <time name="total">    1.71    1.71</time>
   <energy>
    <i name="e_fr_energy">    -97.81473861 </i>
    <i name="e_wo_entrp">    -97.71017863 </i>
    <i name="e_0_energy">    -97.77988529 </i>
   </energy>
  </scstep>
  <scstep>
   <time name="diag">    0.23    0.23</time>
   <time name="diis">    1.02    1.02</time>
   <time name="orth">    0.01    0.01</time>
   <time name="total">    1.71    1.71</time>
   <energy>
    <i name="e_fr_energy">    -97.81401945 </i>
    <i name="e_wo_entrp">    -97.70950381 </i>
    <i name="e_0_energy">    -97.77918091 </i>
   </energy>
  </scstep>
  <scstep>
   <time name="diag">    0.23    0.23</time>
   <time name="diis">    0.76    0.76</time>
   <time name="orth">    0.01    0.01</time>
   <time name="total">    1.46    1.46</time>
   <energy>
    <i name="e_fr_energy">    -97.81387313 </i>
    <i name="e_wo_entrp">    -97.70923187 </i>
    <i name="e_0_energy">    -97.77899271 </i>
   </energy>
  </scstep>
  <scstep>
   <time name="diag">    0.23    0.23</time>
   <time name="diis">    0.64    0.64</time>
   <time name="orth">    0.01    0.01</time>
   <time name="total">    1.16    1.16</time>
   <energy>
    <i name="alphaZ">     -8.27954604 </i>
    <i name="ewald">  -2392.94350903 </i>
    <i name="hartreedc">    -10.41702500 </i>
    <i name="XCdc">   -841.40436659 </i>
    <i name="pawpsdc">   1153.17215381 </i>
    <i name="pawaedc">   -120.14076301 </i>
    <i name="eentropy">     -0.10466748 </i>
    <i name="bandstr">    386.09718208 </i>
    <i name="atom">   1736.20668909 </i>
    <i name="e_fr_energy">    -97.81385218 </i>
    <i name="e_wo_entrp">    -97.70918470 </i>
    <i name="e_0_energy">    -97.77896302 </i>
   </energy>
  </scstep>
  <structure>
   <crystal>
    <varray name="basis" >
     <v>       8.08705200       0.00000000       0.00000000 </v>
     <v>       0.00000000       8.08705200       0.00000000 </v>
     <v>       0.00000000       0.00000000       8.08705200 </v>
    </varray>
    <i name="volume">    528.89651690 </i>
    <varray name="rec_basis" >
     <v>       0.12365445       0.00000000       0.00000000 </v>
     <v>       0.00000000       0.12365445       0.00000000 </v>
     <v>       0.00000000       0.00000000       0.12365445 </v>
    </varray>
   </crystal>
   <varray name="positions" >
    <v>       0.00060215       0.00060215       0.00060215 </v>
    <v>       0.24903816       0.00076550       0.24903816 </v>
    <v>       0.24903816       0.24903816       0.00076550 </v>
    <v>       0.00076550       0.24903816       0.24903816 </v>
    <v>       0.49926580      -0.00010709      -0.00010709 </v>
    <v>       0.75122308      -0.00016247       0.25005955 </v>
    <v>       0.75122308       0.25005955      -0.00016247 </v>
    <v>       0.49956148       0.25024185       0.25024185 </v>
    <v>      -0.00010709       0.49926580      -0.00010709 </v>
    <v>       0.25024185       0.49956148       0.25024185 </v>
    <v>       0.25005955       0.75122308      -0.00016247 </v>
    <v>      -0.00016247       0.75122308       0.25005955 </v>
    <v>       0.50063787       0.50063787      -0.00123604 </v>
    <v>       0.74926610       0.50066022       0.25069689 </v>
    <v>       0.74925567       0.74925567      -0.00150701 </v>
    <v>       0.50066022       0.74926610       0.25069689 </v>
    <v>      -0.00010709      -0.00010709       0.49926580 </v>
    <v>       0.25005955      -0.00016247       0.75122308 </v>
    <v>       0.25024185       0.25024185       0.49956148 </v>
    <v>      -0.00016247       0.25005955       0.75122308 </v>
    <v>       0.50063787      -0.00123604       0.50063787 </v>
    <v>       0.74925567      -0.00150701       0.74925567 </v>
    <v>       0.74926610       0.25069689       0.50066022 </v>
    <v>       0.50066022       0.25069689       0.74926610 </v>
    <v>      -0.00123604       0.50063787       0.50063787 </v>
    <v>       0.25069689       0.50066022       0.74926610 </v>
    <v>       0.25069689       0.74926610       0.50066022 </v>
    <v>      -0.00150701       0.74925567       0.74925567 </v>
    <v>       0.49427395       0.49427395       0.49427395 </v>
    <v>       0.78254224       0.44079437       0.78254224 </v>
    <v>       0.78254224       0.78254224       0.44079437 </v>
    <v>       0.44079437       0.78254224       0.78254224 </v>
    <v>       0.66077566       0.66077566       0.66077566 </v>
   </varray>
  </structure>
  <varray name="forces" >
   <v>       0.09187934       0.09187934       0.09187934 </v>
   <v>      -0.07160543       0.12243227      -0.07160543 </v>
   <v>      -0.07160543      -0.07160543       0.12243227 </v>
   <v>       0.12243227      -0.07160543      -0.07160543 </v>
   <v>       0.25739038       0.55163512       0.55163512 </v>
   <v>      -0.55260791       1.23097015      -1.08604176 </v>
   <v>      -0.55260791      -1.08604176       1.23097015 </v>
   <v>       0.34430580      -0.15995654      -0.15995654 </v>
   <v>       0.55163512       0.25739038       0.55163512 </v>
   <v>      -0.15995654       0.34430580      -0.15995654 </v>
   <v>      -1.08604176      -0.55260791       1.23097015 </v>
   <v>       1.23097015      -0.55260791      -1.08604176 </v>
   <v>       0.02517162       0.02517162       0.07937479 </v>
   <v>       0.05719405       0.10232051      -0.28277349 </v>
   <v>      -0.05758746      -0.05758746       0.13003301 </v>
   <v>       0.10232051       0.05719405      -0.28277349 </v>
   <v>       0.55163512       0.55163512       0.25739038 </v>
   <v>      -1.08604176       1.23097015      -0.55260791 </v>
   <v>      -0.15995654      -0.15995654       0.34430580 </v>
   <v>       1.23097015      -1.08604176      -0.55260791 </v>
   <v>       0.02517162       0.07937479       0.02517162 </v>
   <v>      -0.05758746       0.13003301      -0.05758746 </v>
   <v>       0.05719405      -0.28277349       0.10232051 </v>
   <v>       0.10232051      -0.28277349       0.05719405 </v>
   <v>       0.07937479       0.02517162       0.02517162 </v>
   <v>      -0.28277349       0.10232051       0.05719405 </v>
   <v>      -0.28277349       0.05719405       0.10232051 </v>
   <v>       0.13003301      -0.05758746      -0.05758746 </v>
   <v>      -1.53009087      -1.53009087      -1.53009087 </v>
   <v>       0.04798959      -0.36643917       0.04798959 </v>
   <v>       0.04798959       0.04798959      -0.36643917 </v>
   <v>      -0.36643917       0.04798959       0.04798959 </v>
   <v>       1.26169754       1.26169754       1.26169754 </v>
  </varray>
  <varray name="stress" >
   <v>      30.26665192     -15.26970839     -15.26970839 </v>
   <v>     -15.26970839      30.26665192     -15.26970839 </v>
   <v>     -15.26970839     -15.26970839      30.26665192 </v>
  </varray>
  <energy>
   <i name="e_fr_energy">    -97.81385218 </i>
   <i name="e_wo_entrp">    -97.77896302 </i>
   <i name="e_0_energy">     -0.10466748 </i>
  </energy>
  <time name="totalsc">   13.23   13.25</time>
 </calculation>
 <calculation>
  <scstep>
   <time name="diag">    0.23    0.23</time>
   <time name="diis">    0.97    0.97</time>
   <time name="orth">    0.01    0.01</time>
   <time name="total">    1.66    1.66</time>
   <energy>
    <i name="alphaZ">     -8.27954604 </i>
    <i name="ewald">  -2394.96924057 </i>
    <i name="hartreedc">     -9.77417823 </i>
    <i name="XCdc">   -841.37965657 </i>
    <i name="pawpsdc">   1153.16376232 </i>
    <i name="pawaedc">   -120.13182319 </i>
    <i name="eentropy">     -0.10736975 </i>
    <i name="bandstr">    386.12682393 </i>
    <i name="atom">   1736.20668909 </i>
    <i name="e_fr_energy">    -99.14453901 </i>
    <i name="e_wo_entrp">    -99.03716925 </i>
    <i name="e_0_energy">    -99.10874909 </i>
   </energy>
  </scstep>
  <scstep>
   <time name="diag">    0.23    0.23</time>
   <time name="diis">    0.99    0.99</time>
   <time name="orth">    0.01    0.01</time>
   <time name="total">    1.68    1.68</time>
   <energy>
    <i name="e_fr_energy">    -99.00700106 </i>
    <i name="e_wo_entrp">    -98.91302449 </i>
    <i name="e_0_energy">    -98.97567554 </i>
   </energy>
  </scstep>
  <scstep>
   <time name="diag">    0.23    0.23</time>
   <time name="diis">    1.00    1.00</time>
   <time name="orth">    0.01    0.01</time>
   <time name="total">    1.69    1.69</time>
   <energy>
    <i name="e_fr_energy">    -98.99620869 </i>
    <i name="e_wo_entrp">    -98.89953582 </i>
    <i name="e_0_energy">    -98.96398440 </i>
   </energy>
  </scstep>
  <scstep>
   <time name="diag">    0.23    0.23</time>
   <time name="diis">    0.99    0.99</time>
   <time name="orth">    0.01    0.01</time>
   <time name="total">    1.68    1.68</time>
   <energy>
    <i name="e_fr_energy">    -98.99412084 </i>
    <i name="e_wo_entrp">    -98.89834925 </i>
    <i name="e_0_energy">    -98.96219698 </i>
   </energy>
  </scstep>
  <scstep>
   <time name="diag">    0.23    0.23</time>
   <time name="diis">    0.87    0.87</time>
   <time name="orth">    0.01    0.01</time>
   <time name="total">    1.39    1.39</time>
   <energy>
    <i name="alphaZ">     -8.27954604 </i>
    <i name="ewald">  -2394.96924057 </i>
    <i name="hartreedc">     -9.61774828 </i>
    <i name="XCdc">   -841.41651807 </i>
    <i name="pawpsdc">   1152.35365257 </i>
    <i name="pawaedc">   -119.27400553 </i>
    <i name="eentropy">     -0.09607193 </i>
    <i name="bandstr">    386.09870154 </i>
    <i name="atom">   1736.20668909 </i>
    <i name="e_fr_energy">    -98.99408721 </i>
    <i name="e_wo_entrp">    -98.89801528 </i>
    <i name="e_0_energy">    -98.96206323 </i>
   </energy>
  </scstep>
  <structure>
   <crystal>
    <varray name="basis" >
     <v>       8.08705200       0.00000000       0.00000000 </v>
     <v>       0.00000000       8.08705200       0.00000000 </v>
     <v>       0.00000000       0.00000000       8.08705200 </v>
    </varray>
    <i name="volume">    528.89651690 </i>
    <varray name="rec_basis" >
     <v>       0.12365445       0.00000000       0.00000000 </v>
     <v>       0.00000000       0.12365445       0.00000000 </v>
     <v>       0.00000000       0.00000000       0.12365445 </v>
    </varray>
   </crystal>
   <varray name="positions" >
    <v>       0.00112992       0.00112992       0.00112992 </v>
    <v>       0.24861881       0.00146818       0.24861881 </v>
    <v>       0.24861881       0.24861881       0.00146818 </v>
    <v>       0.00146818       0.24861881       0.24861881 </v>
    <v>       0.50070483       0.00300093       0.00300093 </v>
    <v>       0.74812776       0.00677431       0.24393810 </v>
    <v>       0.74812776       0.24393810       0.00677431 </v>
    <v>       0.50149531       0.24934406       0.24934406 </v>
    <v>       0.00300093       0.50070483       0.00300093 </v>
    <v>       0.24934406       0.50149531       0.24934406 </v>
    <v>       0.24393810       0.74812776       0.00677431 </v>
    <v>       0.00677431       0.74812776       0.24393810 </v>
    <v>       0.50079017       0.50079017      -0.00080872 </v>
    <v>       0.74957656       0.50124780       0.24911415 </v>
    <v>       0.74891890       0.74891890      -0.00079852 </v>
    <v>       0.50124780       0.74957656       0.24911415 </v>
    <v>       0.00300093       0.00300093       0.50070483 </v>
    <v>       0.24393810       0.00677431       0.74812776 </v>
    <v>       0.24934406       0.24934406       0.50149531 </v>
    <v>       0.00677431       0.24393810       0.74812776 </v>
    <v>       0.50079017      -0.00080872       0.50079017 </v>
    <v>       0.74891890      -0.00079852       0.74891890 </v>
    <v>       0.74957656       0.24911415       0.50124780 </v>
    <v>       0.50124780       0.24911415       0.74957656 </v>
    <v>      -0.00080872       0.50079017       0.50079017 </v>
    <v>       0.24911415       0.50124780       0.74957656 </v>
    <v>       0.24911415       0.74957656       0.50124780 </v>
    <v>      -0.00079852       0.74891890       0.74891890 </v>
    <v>       0.48555493       0.48555493       0.48555493 </v>
    <v>       0.78334315       0.43776368       0.78334315 </v>
    <v>       0.78334315       0.78334315       0.43776368 </v>
    <v>       0.43776368       0.78334315       0.78334315 </v>
    <v>       0.66790096       0.66790096       0.66790096 </v>
   </varray>
  </structure>
  <varray name="forces" >
   <v>       0.05459497       0.05459497       0.05459497 </v>
   <v>      -0.00644436       0.19627547      -0.00644436 </v>
   <v>      -0.00644436      -0.00644436       0.19627547 </v>
   <v>       0.19627547      -0.00644436      -0.00644436 </v>
   <v>       0.11509945       0.33682965       0.33682965 </v>
   <v>      -0.39202266       0.67958461      -0.60057001 </v>
   <v>      -0.39202266      -0.60057001       0.67958461 </v>
   <v>       0.12268920      -0.08972386      -0.08972386 </v>
   <v>       0.33682965       0.11509945       0.33682965 </v>
   <v>      -0.08972386       0.12268920      -0.08972386 </v>
   <v>      -0.60057001      -0.39202266       0.67958461 </v>
   <v>       0.67958461      -0.39202266      -0.60057001 </v>
   <v>      -0.05166718      -0.05166718       0.07020672 </v>
   <v>       0.08151403      -0.02567464      -0.22126123 </v>
   <v>       0.06873068       0.06873068       0.14482374 </v>
   <v>      -0.02567464       0.08151403      -0.22126123 </v>
   <v>       0.33682965       0.33682965       0.11509945 </v>
   <v>      -0.60057001       0.67958461      -0.39202266 </v>
   <v>      -0.08972386      -0.08972386       0.12268920 </v>
   <v>       0.67958461      -0.60057001      -0.39202266 </v>
   <v>      -0.05166718       0.07020672      -0.05166718 </v>
   <v>       0.06873068       0.14482374       0.06873068 </v>
   <v>       0.08151403      -0.22126123      -0.02567464 </v>
   <v>      -0.02567464      -0.22126123       0.08151403 </v>
   <v>       0.07020672      -0.05166718      -0.05166718 </v>
   <v>      -0.22126123      -0.02567464       0.08151403 </v>
   <v>      -0.22126123       0.08151403      -0.02567464 </v>
   <v>       0.14482374       0.06873068       0.06873068 </v>
   <v>      -0.59237511      -0.59237511      -0.59237511 </v>
   <v>       0.28328016      -0.76678207       0.28328016 </v>
   <v>       0.28328016       0.28328016      -0.76678207 </v>
   <v>      -0.76678207       0.28328016       0.28328016 </v>
   <v>       0.53031726       0.53031726       0.53031726 </v>
  </varray>
  <varray name="stress" >
   <v>      23.86734875     -15.92730636     -15.92730636 </v>
   <v>     -15.92730636      23.86734875     -15.92730636 </v>
   <v>     -15.92730636     -15.92730636      23.86734875 </v>
  </varray>
  <energy>
   <i name="e_fr_energy">    -98.99408721 </i>
   <i name="e_wo_entrp">    -98.96206323 </i>
   <i name="e_0_energy">     -0.09607193 </i>
  </energy>
  <time name="totalsc">   10.20   10.21</time>
 </calculation>
 <calculation>
  <scstep>
   <time name="diag">    0.23    0.23</time>
   <time name="diis">    0.97    0.97</time>
   <time name="orth">    0.01    0.01</time>
   <time name="total">    1.66    1.66</time>
   <energy>
    <i name="alphaZ">     -8.27954604 </i>
    <i name="ewald">  -2390.46853522 </i>
    <i name="hartreedc">    -12.65944563 </i>
    <i name="XCdc">   -841.32325982 </i>
    <i name="pawpsdc">   1152.32968881 </i>
    <i name="pawaedc">   -119.24797238 </i>
    <i name="eentropy">     -0.12686266 </i>
    <i name="bandstr">    383.77634883 </i>
    <i name="atom">   1736.20668909 </i>
    <i name="e_fr_energy">    -99.79289503 </i>
    <i name="e_wo_entrp">    -99.66603237 </i>
    <i name="e_0_energy">    -99.75060748 </i>
   </energy>
  </scstep>
  <scstep>
   <time name="diag">    0.23    0.23</time>
   <time name="diis">    0.97    0.97</time>
   <time name="orth">    0.01    0.01</time>
   <time name="total">    1.67    1.67</time>
   <energy>
    <i name="e_fr_energy">    -99.51920963 </i>
    <i name="e_wo_entrp">    -99.39004094 </i>
    <i name="e_0_energy">    -99.47615340 </i>
   </energy>
  </scstep>
  <scstep>
   <time name="diag">    0.24    0.24</time>
   <time name="diis">    1.02    1.02</time>
   <time name="orth">    0.01    0.01</time>
   <time name="total">    1.72    1.72</time>
   <energy>
    <i name="e_fr_energy">    -99.49223739 </i>
    <i name="e_wo_entrp">    -99.36498749 </i>
    <i name="e_0_energy">    -99.44982076 </i>
   </energy>
  </scstep>
  <scstep>
   <time name="diag">    0.23    0.23</time>
   <time name="diis">    1.04    1.04</time>
   <time name="orth">    0.01    0.01</time>
   <time name="total">    1.74    1.75</time>
   <energy>
    <i name="e_fr_energy">    -99.48726562 </i>
    <i name="e_wo_entrp">    -99.36496634 </i>
    <i name="e_0_energy">    -99.44649919 </i>
   </energy>
  </scstep>
  <scstep>
   <time name="diag">    0.24    0.24</time>
   <time name="diis">    0.99    0.99</time>
   <time name="orth">    0.01    0.01</time>
   <time name="total">    1.69    1.69</time>
   <energy>
    <i name="e_fr_energy">    -99.48722766 </i>
    <i name="e_wo_entrp">    -99.36320550 </i>
    <i name="e_0_energy">    -99.44588694 </i>
   </energy>
  </scstep>
  <scstep>
   <time name="diag">    0.23    0.23</time>
   <time name="diis">    0.79    0.79</time>
   <time name="orth">    0.01    0.01</time>
   <time name="total">    1.31    1.31</time>
   <energy>
    <i name="alphaZ">     -8.27954604 </i>
    <i name="ewald">  -2390.46853522 </i>
    <i name="hartreedc">    -13.53858440 </i>
    <i name="XCdc">   -841.26390767 </i>
    <i name="pawpsdc">   1152.95238546 </i>
    <i name="pawaedc">   -119.89558001 </i>
    <i name="eentropy">     -0.12392429 </i>
    <i name="bandstr">    384.92374489 </i>
    <i name="atom">   1736.20668909 </i>
    <i name="e_fr_energy">    -99.48725819 </i>
    <i name="e_wo_entrp">    -99.36333390 </i>
    <i name="e_0_energy">    -99.44595009 </i>
   </energy>
  </scstep>
  <structure>
   <crystal>
    <varray name="basis" >
     <v>       8.08705200       0.00000000       0.00000000 </v>
     <v>       0.00000000       8.08705200       0.00000000 </v>
     <v>       0.00000000       0.00000000       8.08705200 </v>
    </varray>
    <i name="volume">    528.89651690 </i>
    <varray name="rec_basis" >
     <v>       0.12365445       0.00000000       0.00000000 </v>
     <v>       0.00000000       0.12365445       0.00000000 </v>
     <v>       0.00000000       0.00000000       0.12365445 </v>
    </varray>
   </crystal>
   <varray name="positions" >
    <v>       0.00190783       0.00190783       0.00190783 </v>
    <v>       0.24800072       0.00250388       0.24800072 </v>
    <v>       0.24800072       0.24800072       0.00250388 </v>
    <v>       0.00250388       0.24800072       0.24800072 </v>
    <v>       0.50282591       0.00758201       0.00758201 </v>
    <v>       0.74356541       0.01699880       0.23491538 </v>
    <v>       0.74356541       0.23491538       0.01699880 </v>
    <v>       0.50434568       0.24802076       0.24802076 </v>
    <v>       0.00758201       0.50282591       0.00758201 </v>
    <v>       0.24802076       0.50434568       0.24802076 </v>
    <v>       0.23491538       0.74356541       0.01699880 </v>
    <v>       0.01699880       0.74356541       0.23491538 </v>
    <v>       0.50101465       0.50101465      -0.00017887 </v>
    <v>       0.75003417       0.50211386       0.24678126 </v>
    <v>       0.74842251       0.74842251       0.00024575 </v>
    <v>       0.50211386       0.75003417       0.24678126 </v>
    <v>       0.00758201       0.00758201       0.50282591 </v>
    <v>       0.23491538       0.01699880       0.74356541 </v>
    <v>       0.24802076       0.24802076       0.50434568 </v>
    <v>       0.01699880       0.23491538       0.74356541 </v>
    <v>       0.50101465      -0.00017887       0.50101465 </v>
    <v>       0.74842251       0.00024575       0.74842251 </v>
    <v>       0.75003417       0.24678126       0.50211386 </v>
    <v>       0.50211386       0.24678126       0.75003417 </v>
    <v>      -0.00017887       0.50101465       0.50101465 </v>
    <v>       0.24678126       0.50211386       0.75003417 </v>
    <v>       0.24678126       0.75003417       0.50211386 </v>
    <v>       0.00024575       0.74842251       0.74842251 </v>
    <v>       0.47270354       0.47270354       0.47270354 </v>
    <v>       0.78452365       0.43329660       0.78452365 </v>
    <v>       0.78452365       0.78452365       0.43329660 </v>
    <v>       0.43329660       0.78452365       0.78452365 </v>
    <v>       0.67840330       0.67840330       0.67840330 </v>
   </varray>
  </structure>
  <varray name="forces" >
   <v>       0.12101860       0.12101860       0.12101860 </v>
   <v>       0.04559073       0.37585642       0.04559073 </v>
   <v>       0.04559073       0.04559073       0.37585642 </v>
   <v>       0.37585642       0.04559073       0.04559073 </v>
   <v>      -0.24365890       0.02662206       0.02662206 </v>
   <v>      -0.06242122      -0.35209961       0.35582515 </v>
   <v>      -0.06242122       0.35582515      -0.35209961 </v>
   <v>      -0.29070357      -0.12475241      -0.12475241 </v>
   <v>       0.02662206      -0.24365890       0.02662206 </v>
   <v>      -0.12475241      -0.29070357      -0.12475241 </v>
   <v>       0.35582515      -0.06242122      -0.35209961 </v>
   <v>      -0.35209961      -0.06242122       0.35582515 </v>
   <v>      -0.16402851      -0.16402851      -0.02305429 </v>
   <v>       0.19561242      -0.21221012      -0.11111594 </v>
   <v>       0.18705959       0.18705959       0.21162172 </v>
   <v>      -0.21221012       0.19561242      -0.11111594 </v>
   <v>       0.02662206       0.02662206      -0.24365890 </v>
   <v>       0.35582515      -0.35209961      -0.06242122 </v>
   <v>      -0.12475241      -0.12475241      -0.29070357 </v>
   <v>      -0.35209961       0.35582515      -0.06242122 </v>
   <v>      -0.16402851      -0.02305429      -0.16402851 </v>
   <v>       0.18705959       0.21162172       0.18705959 </v>
   <v>       0.19561242      -0.11111594      -0.21221012 </v>
   <v>      -0.21221012      -0.11111594       0.19561242 </v>
   <v>      -0.02305429      -0.16402851      -0.16402851 </v>
   <v>      -0.11111594      -0.21221012       0.19561242 </v>
   <v>      -0.11111594       0.19561242      -0.21221012 </v>
   <v>       0.21162172       0.18705959       0.18705959 </v>
   <v>       0.36047181       0.36047181       0.36047181 </v>
   <v>       0.49190264      -1.03510282       0.49190264 </v>
   <v>       0.49190264       0.49190264      -1.03510282 </v>
   <v>      -1.03510282       0.49190264       0.49190264 </v>
   <v>      -0.02841854      -0.02841854      -0.02841854 </v>
  </varray>
  <varray name="stress" >
   <v>      26.88604622     -14.19846976     -14.19846976 </v>
   <v>     -14.19846976      26.88604622     -14.19846976 </v>
   <v>     -14.19846976     -14.19846976      26.88604622 </v>
  </varray>
  <energy>
   <i name="e_fr_energy">    -99.48725819 </i>
   <i name="e_wo_entrp">    -99.44595009 </i>
   <i name="e_0_energy">     -0.12392429 </i>
  </energy>
  <time name="totalsc">   11.90   11.91</time>
 </calculation>
 <calculation>
  <scstep>
   <time name="diag">    0.23    0.23</time>
   <time name="diis">    0.97    0.97</time>
   <time name="orth">    0.01    0.01</time>
   <time name="total">    1.66    1.66</time>
   <energy>
    <i name="alphaZ">     -8.27954604 </i>
    <i name="ewald">  -2388.21956018 </i>
    <i name="hartreedc">    -15.46414862 </i>
    <i name="XCdc">   -841.22108826 </i>
    <i name="pawpsdc">   1152.97986633 </i>
    <i name="pawaedc">   -119.92377640 </i>
    <i name="eentropy">     -0.05475260 </i>
    <i name="bandstr">    384.13537191 </i>
    <i name="atom">   1736.20668909 </i>
    <i name="e_fr_energy">    -99.84094476 </i>
    <i name="e_wo_entrp">    -99.78619216 </i>
    <i name="e_0_energy">    -99.82269389 </i>
   </energy>
  </scstep>
  <scstep>
   <time name="diag">    0.23    0.23</time>
   <time name="diis">    0.99    0.99</time>
   <time name="orth">    0.01    0.01</time>
   <time name="total">    1.68    1.68</time>
   <energy>
    <i name="e_fr_energy">    -99.76635264 </i>
    <i name="e_wo_entrp">    -99.69051711 </i>
    <i name="e_0_energy">    -99.74107413 </i>
   </energy>
  </scstep>
  <scstep>
   <time name="diag">    0.23    0.23</time>
   <time name="diis">    1.03    1.03</time>
   <time name="orth">    0.01    0.01</time>
   <time name="total">    1.73    1.73</time>
   <energy>
    <i name="e_fr_energy">    -99.75687423 </i>
    <i name="e_wo_entrp">    -99.68001759 </i>
    <i name="e_0_energy">    -99.73125535 </i>
   </energy>
  </scstep>
  <scstep>
   <time name="diag">    0.24    0.24</time>
   <time name="diis">    1.01    1.01</time>
   <time name="orth">    0.01    0.01</time>
   <time name="total">    1.71    1.73</time>
   <energy>
    <i name="e_fr_energy">    -99.75570331 </i>
    <i name="e_wo_entrp">    -99.67770331 </i>
    <i name="e_0_energy">    -99.72970331 </i>
   </energy>
  </scstep>
  <scstep>
   <time name="diag">    0.23    0.24</time>
   <time name="diis">    0.84    0.84</time>
   <time name="orth">    0.01    0.01</time>
   <time name="total">    1.37    1.37</time>
   <energy>
    <i name="alphaZ">     -8.27954604 </i>
    <i name="ewald">  -2388.21956018 </i>
    <i name="hartreedc">    -15.95608159 </i>
    <i name="XCdc">   -841.19496561 </i>
    <i name="pawpsdc">   1153.33731583 </i>
    <i name="pawaedc">   -120.28917954 </i>
    <i name="eentropy">     -0.07766129 </i>
    <i name="bandstr">    384.71729757 </i>
    <i name="atom">   1736.20668909 </i>
    <i name="e_fr_energy">    -99.75569175 </i>
    <i name="e_wo_entrp">    -99.67803047 </i>
    <i name="e_0_energy">    -99.72980466 </i>
   </energy>
  </scstep>
  <structure>
   <crystal>
    <varray name="basis" >
     <v>       8.08705200       0.00000000       0.00000000 </v>
     <v>       0.00000000       8.08705200       0.00000000 </v>
     <v>       0.00000000       0.00000000       8.08705200 </v>
    </varray>
    <i name="volume">    528.89651690 </i>
    <varray name="rec_basis" >
     <v>       0.12365445       0.00000000       0.00000000 </v>
     <v>       0.00000000       0.12365445       0.00000000 </v>
     <v>       0.00000000       0.00000000       0.12365445 </v>
    </varray>
   </crystal>
   <varray name="positions" >
    <v>       0.00279117       0.00279117       0.00279117 </v>
    <v>       0.24833350       0.00524734       0.24833350 </v>
    <v>       0.24833350       0.24833350       0.00524734 </v>
    <v>       0.00524734       0.24833350       0.24833350 </v>
    <v>       0.50104739       0.00777633       0.00777633 </v>
    <v>       0.74310978       0.01442875       0.23751263 </v>
    <v>       0.74310978       0.23751263       0.01442875 </v>
    <v>       0.50222378       0.24711016       0.24711016 </v>
    <v>       0.00777633       0.50104739       0.00777633 </v>
    <v>       0.24711016       0.50222378       0.24711016 </v>
    <v>       0.23751263       0.74310978       0.01442875 </v>
    <v>       0.01442875       0.74310978       0.23751263 </v>
    <v>       0.49981737       0.49981737      -0.00034715 </v>
    <v>       0.75146199       0.50056490       0.24597020 </v>
    <v>       0.74978790       0.74978790       0.00179042 </v>
    <v>       0.50056490       0.75146199       0.24597020 </v>
    <v>       0.00777633       0.00777633       0.50104739 </v>
    <v>       0.23751263       0.01442875       0.74310978 </v>
    <v>       0.24711016       0.24711016       0.50222378 </v>
    <v>       0.01442875       0.23751263       0.74310978 </v>
    <v>       0.49981737      -0.00034715       0.49981737 </v>
    <v>       0.74978790       0.00179042       0.74978790 </v>
    <v>       0.75146199       0.24597020       0.50056490 </v>
    <v>       0.50056490       0.24597020       0.75146199 </v>
    <v>      -0.00034715       0.49981737       0.49981737 </v>
    <v>       0.24597020       0.50056490       0.75146199 </v>
    <v>       0.24597020       0.75146199       0.50056490 </v>
    <v>       0.00179042       0.74978790       0.74978790 </v>
    <v>       0.47533470       0.47533470       0.47533470 </v>
    <v>       0.78811415       0.42574116       0.78811415 </v>
    <v>       0.78811415       0.78811415       0.42574116 </v>
    <v>       0.42574116       0.78811415       0.78811415 </v>
    <v>       0.67819586       0.67819586       0.67819586 </v>
   </varray>
  </structure>
  <varray name="forces" >
   <v>       0.04682757       0.04682757       0.04682757 </v>
   <v>       0.05274015       0.34929756       0.05274015 </v>
   <v>       0.05274015       0.05274015       0.34929756 </v>
   <v>       0.34929756       0.05274015       0.05274015 </v>
   <v>      -0.12530039       0.08099097       0.08099097 </v>
   <v>      -0.17601473       0.32098998      -0.18149196 </v>
   <v>      -0.17601473      -0.18149196       0.32098998 </v>
   <v>      -0.27423701      -0.09115641      -0.09115641 </v>
   <v>       0.08099097      -0.12530039       0.08099097 </v>
   <v>      -0.09115641      -0.27423701      -0.09115641 </v>
   <v>      -0.18149196      -0.17601473       0.32098998 </v>
   <v>       0.32098998      -0.17601473      -0.18149196 </v>
   <v>      -0.14527208      -0.14527208       0.05193386 </v>
   <v>       0.13797114      -0.15447226      -0.11823465 </v>
   <v>       0.18517570       0.18517570       0.10913517 </v>
   <v>      -0.15447226       0.13797114      -0.11823465 </v>
   <v>       0.08099097       0.08099097      -0.12530039 </v>
   <v>      -0.18149196       0.32098998      -0.17601473 </v>
   <v>      -0.09115641      -0.09115641      -0.27423701 </v>
   <v>       0.32098998      -0.18149196      -0.17601473 </v>
   <v>      -0.14527208       0.05193386      -0.14527208 </v>
   <v>       0.18517570       0.10913517       0.18517570 </v>
   <v>       0.13797114      -0.11823465      -0.15447226 </v>
   <v>      -0.15447226      -0.11823465       0.13797114 </v>
   <v>       0.05193386      -0.14527208      -0.14527208 </v>
   <v>      -0.11823465      -0.15447226       0.13797114 </v>
   <v>      -0.11823465       0.13797114      -0.15447226 </v>
   <v>       0.10913517       0.18517570       0.18517570 </v>
   <v>       0.14838599       0.14838599       0.14838599 </v>
   <v>      -0.10821520       0.07478739      -0.10821520 </v>
   <v>      -0.10821520      -0.10821520       0.07478739 </v>
   <v>       0.07478739      -0.10821520      -0.10821520 </v>
   <v>       0.01314854       0.01314854       0.01314854 </v>
  </varray>
  <varray name="stress" >
   <v>      27.41171749     -14.83670055     -14.83670055 </v>
   <v>     -14.83670055      27.41171749     -14.83670055 </v>
   <v>     -14.83670055     -14.83670055      27.41171749 </v>
  </varray>
  <energy>
   <i name="e_fr_energy">    -99.75569175 </i>
   <i name="e_wo_entrp">    -99.72980466 </i>
   <i name="e_0_energy">     -0.07766129 </i>
  </energy>
  <time name="totalsc">   10.25   10.49</time>
 </calculation>
 <calculation>
  <scstep>
   <time name="diag">    0.23    0.23</time>
   <time name="diis">    0.97    0.97</time>
   <time name="orth">    0.01    0.01</time>
   <time name="total">    1.66    1.67</time>
   <energy>
    <i name="alphaZ">     -8.27954604 </i>
    <i name="ewald">  -2388.10769096 </i>
    <i name="hartreedc">    -16.04080936 </i>
    <i name="XCdc">   -841.19254369 </i>
    <i name="pawpsdc">   1153.35290560 </i>
    <i name="pawaedc">   -120.30494434 </i>
    <i name="eentropy">     -0.07559445 </i>
    <i name="bandstr">    384.68544358 </i>
    <i name="atom">   1736.20668909 </i>
    <i name="e_fr_energy">    -99.75609057 </i>
    <i name="e_wo_entrp">    -99.68049612 </i>
    <i name="e_0_energy">    -99.73089242 </i>
   </energy>
  </scstep>
  <scstep>
   <time name="diag">    0.23    0.23</time>
   <time name="diis">    0.70    0.70</time>
   <time name="orth">    0.01    0.01</time>
   <time name="total">    1.22    1.27</time>
   <energy>
    <i name="alphaZ">     -8.27954604 </i>
    <i name="ewald">  -2388.10769096 </i>
    <i name="hartreedc">    -16.05961521 </i>
    <i name="XCdc">   -841.19126588 </i>
    <i name="pawpsdc">   1153.37167064 </i>
    <i name="pawaedc">   -120.32432079 </i>
    <i name="eentropy">     -0.07635162 </i>
    <i name="bandstr">    384.70443711 </i>
    <i name="atom">   1736.20668909 </i>
    <i name="e_fr_energy">    -99.75599367 </i>
    <i name="e_wo_entrp">    -99.67964205 </i>
    <i name="e_0_energy">    -99.73054313 </i>
   </energy>
  </scstep>
  <structure>
   <crystal>
    <varray name="basis" >
     <v>       8.08705200       0.00000000       0.00000000 </v>
     <v>       0.00000000       8.08705200       0.00000000 </v>
     <v>       0.00000000       0.00000000       8.08705200 </v>
    </varray>
    <i name="volume">    528.89651690 </i>
    <varray name="rec_basis" >
     <v>       0.12365445       0.00000000       0.00000000 </v>
     <v>       0.00000000       0.12365445       0.00000000 </v>
     <v>       0.00000000       0.00000000       0.12365445 </v>
    </varray>
   </crystal>
   <varray name="positions" >
    <v>       0.00282138       0.00282138       0.00282138 </v>
    <v>       0.24834488       0.00534116       0.24834488 </v>
    <v>       0.24834488       0.24834488       0.00534116 </v>
    <v>       0.00534116       0.24834488       0.24834488 </v>
    <v>       0.50098656       0.00778298       0.00778298 </v>
    <v>       0.74309420       0.01434085       0.23760145 </v>
    <v>       0.74309420       0.23760145       0.01434085 </v>
    <v>       0.50215121       0.24707902       0.24707902 </v>
    <v>       0.00778298       0.50098656       0.00778298 </v>
    <v>       0.24707902       0.50215121       0.24707902 </v>
    <v>       0.23760145       0.74309420       0.01434085 </v>
    <v>       0.01434085       0.74309420       0.23760145 </v>
    <v>       0.49977643       0.49977643      -0.00035291 </v>
    <v>       0.75151082       0.50051192       0.24594247 </v>
    <v>       0.74983460       0.74983460       0.00184324 </v>
    <v>       0.50051192       0.75151082       0.24594247 </v>
    <v>       0.00778298       0.00778298       0.50098656 </v>
    <v>       0.23760145       0.01434085       0.74309420 </v>
    <v>       0.24707902       0.24707902       0.50215121 </v>
    <v>       0.01434085       0.23760145       0.74309420 </v>
    <v>       0.49977643      -0.00035291       0.49977643 </v>
    <v>       0.74983460       0.00184324       0.74983460 </v>
    <v>       0.75151082       0.24594247       0.50051192 </v>
    <v>       0.50051192       0.24594247       0.75151082 </v>
    <v>      -0.00035291       0.49977643       0.49977643 </v>
    <v>       0.24594247       0.50051192       0.75151082 </v>
    <v>       0.24594247       0.75151082       0.50051192 </v>
    <v>       0.00184324       0.74983460       0.74983460 </v>
    <v>       0.47542468       0.47542468       0.47542468 </v>
    <v>       0.78823695       0.42548277       0.78823695 </v>
    <v>       0.78823695       0.78823695       0.42548277 </v>
    <v>       0.42548277       0.78823695       0.78823695 </v>
    <v>       0.67818877       0.67818877       0.67818877 </v>
   </varray>
  </structure>
  <varray name="forces" >
   <v>       0.04375594       0.04375594       0.04375594 </v>
   <v>       0.05176540       0.34806186       0.05176540 </v>
   <v>       0.05176540       0.05176540       0.34806186 </v>
   <v>       0.34806186       0.05176540       0.05176540 </v>
   <v>      -0.12094588       0.08071226       0.08071226 </v>
   <v>      -0.17906685       0.34336679      -0.20058954 </v>
   <v>      -0.17906685      -0.20058954       0.34336679 </v>
   <v>      -0.27350476      -0.08869852      -0.08869852 </v>
   <v>       0.08071226      -0.12094588       0.08071226 </v>
   <v>      -0.08869852      -0.27350476      -0.08869852 </v>
   <v>      -0.20058954      -0.17906685       0.34336679 </v>
   <v>       0.34336679      -0.17906685      -0.20058954 </v>
   <v>      -0.14376160      -0.14376160       0.05270208 </v>
   <v>       0.13551730      -0.15141857      -0.11669443 </v>
   <v>       0.18610816       0.18610816       0.10392138 </v>
   <v>      -0.15141857       0.13551730      -0.11669443 </v>
   <v>       0.08071226       0.08071226      -0.12094588 </v>
   <v>      -0.20058954       0.34336679      -0.17906685 </v>
   <v>      -0.08869852      -0.08869852      -0.27350476 </v>
   <v>       0.34336679      -0.20058954      -0.17906685 </v>
   <v>      -0.14376160       0.05270208      -0.14376160 </v>
   <v>       0.18610816       0.10392138       0.18610816 </v>
   <v>       0.13551730      -0.11669443      -0.15141857 </v>
   <v>      -0.15141857      -0.11669443       0.13551730 </v>
   <v>       0.05270208      -0.14376160      -0.14376160 </v>
   <v>      -0.11669443      -0.15141857       0.13551730 </v>
   <v>      -0.11669443       0.13551730      -0.15141857 </v>
   <v>       0.10392138       0.18610816       0.18610816 </v>
   <v>       0.14182642       0.14182642       0.14182642 </v>
   <v>      -0.12971164       0.11371262      -0.12971164 </v>
   <v>      -0.12971164      -0.12971164       0.11371262 </v>
   <v>       0.11371262      -0.12971164      -0.12971164 </v>
   <v>       0.01541281       0.01541281       0.01541281 </v>
  </varray>
  <varray name="stress" >
   <v>      27.51477312     -14.88334120     -14.88334120 </v>
   <v>     -14.88334120      27.51477312     -14.88334120 </v>
   <v>     -14.88334120     -14.88334120      27.51477312 </v>
  </varray>
  <energy>
   <i name="e_fr_energy">    -99.75599367 </i>
   <i name="e_wo_entrp">    -99.73054313 </i>
   <i name="e_0_energy">     -0.07635162 </i>
  </energy>
  <time name="totalsc">    4.98    5.84</time>
 </calculation>
 <calculation>
  <scstep>
   <time name="diag">    0.23    0.23</time>
   <time name="diis">    0.96    0.96</time>
   <time name="orth">    0.01    0.01</time>
   <time name="total">    1.65    1.66</time>
   <energy>
    <i name="alphaZ">     -8.27954604 </i>
    <i name="ewald">  -2386.32584597 </i>
    <i name="hartreedc">    -17.66127418 </i>
    <i name="XCdc">   -841.17033425 </i>
    <i name="pawpsdc">   1153.37924325 </i>
    <i name="pawaedc">   -120.33210685 </i>
    <i name="eentropy">     -0.01048715 </i>
    <i name="bandstr">    384.24686033 </i>
    <i name="atom">   1736.20668909 </i>
    <i name="e_fr_energy">    -99.94680177 </i>
    <i name="e_wo_entrp">    -99.93631462 </i>
    <i name="e_0_energy">    -99.94330605 </i>
   </energy>
  </scstep>
  <scstep>
   <time name="diag">    0.23    0.23</time>
   <time name="diis">    0.97    0.97</time>
   <time name="orth">    0.01    0.01</time>
   <time name="total">    1.66    1.66</time>
   <energy>
    <i name="e_fr_energy">    -99.90587138 </i>
    <i name="e_wo_entrp">    -99.85800500 </i>
    <i name="e_0_energy">    -99.88991592 </i>
   </energy>
  </scstep>
  <scstep>
   <time name="diag">    0.23    0.23</time>
   <time name="diis">    0.99    0.99</time>
   <time name="orth">    0.01    0.01</time>
   <time name="total">    1.68    1.68</time>
   <energy>
    <i name="e_fr_energy">    -99.90263494 </i>
[...]
   <v>       0.09441263      -0.04054488       0.02179595 </v>
   <v>       0.09630362      -0.03391200      -0.03391200 </v>
   <v>      -0.00766646      -0.00766646      -0.00766646 </v>
   <v>      -0.11924503       0.13359322      -0.11924503 </v>
   <v>      -0.11924503      -0.11924503       0.13359322 </v>
   <v>       0.13359322      -0.11924503      -0.11924503 </v>
   <v>      -0.00993811      -0.00993811      -0.00993811 </v>
  </varray>
  <varray name="stress" >
   <v>      45.09217225      -6.40110601      -6.40110601 </v>
   <v>      -6.40110601      45.09217225      -6.40110601 </v>
   <v>      -6.40110601      -6.40110601      45.09217225 </v>
  </varray>
  <energy>
   <i name="e_fr_energy">   -100.79016527 </i>
   <i name="e_wo_entrp">   -100.80750751 </i>
   <i name="e_0_energy">      0.05202672 </i>
  </energy>
  <time name="totalsc">    9.87    9.88</time>
  <eigenvalues>
   <array>
    <dimension dim="1">band</dimension>
    <dimension dim="2">kpoint</dimension>
    <dimension dim="3">spin</dimension>
    <field>eigene</field>
    <field>occ</field>
    <set>
     <set comment="spin 1">
      <set comment="kpoint 1">
       <r>   -3.1365    1.0000 </r>
       <r>   -1.1840    1.0000 </r>
       <r>   -1.1840    1.0000 </r>
       <r>   -0.8375    1.0000 </r>
       <r>   -0.8375    1.0000 </r>
       <r>   -0.7657    1.0000 </r>
       <r>   -0.4921    1.0000 </r>
       <r>    0.8466    1.0000 </r>
       <r>    0.8466    1.0000 </r>
       <r>    1.0870    1.0000 </r>
       <r>    1.3326    1.0000 </r>
       <r>    1.3326    1.0000 </r>
       <r>    1.4490    1.0000 </r>
       <r>    1.4640    1.0000 </r>
       <r>    1.4640    1.0000 </r>
       <r>    1.6857    1.0000 </r>
       <r>    1.6857    1.0000 </r>
       <r>    1.7381    1.0000 </r>
       <r>    1.8370    1.0000 </r>
       <r>    3.1471    1.0000 </r>
       <r>    3.5705    1.0000 </r>
       <r>    3.5803    1.0000 </r>
       <r>    3.5803    1.0000 </r>
       <r>    3.7091    1.0000 </r>
       <r>    3.7091    1.0000 </r>
       <r>    3.7591    1.0000 </r>
       <r>    3.8523    1.0000 </r>
       <r>    5.1091    1.0000 </r>
       <r>    5.1890    1.0000 </r>
       <r>    5.1890    1.0000 </r>
       <r>    6.1568    1.0000 </r>
       <r>    6.4634    1.0000 </r>
       <r>    6.4634    1.0000 </r>
       <r>    6.6322    1.0000 </r>
       <r>    6.8506    1.0000 </r>
       <r>    6.8506    1.0000 </r>
       <r>    7.0259    1.0000 </r>
       <r>    7.2188    1.0000 </r>
       <r>    7.2188    1.0000 </r>
       <r>    7.3412    1.0000 </r>
       <r>    7.3976    1.0000 </r>
       <r>    7.3976    1.0000 </r>
       <r>    7.5409    1.0000 </r>
       <r>    7.5409    1.0000 </r>
       <r>    7.6084    1.0000 </r>
       <r>    7.6949    1.0000 </r>
       <r>    7.6949    1.0000 </r>
       <r>    8.1334    1.0279 </r>
       <r>    8.3138    0.9167 </r>
       <r>    8.5601    0.0634 </r>
       <r>    8.5601    0.0634 </r>
       <r>    8.7413   -0.0256 </r>
       <r>    8.7413   -0.0256 </r>
       <r>    8.7823   -0.0164 </r>
       <r>    8.9200   -0.0015 </r>
       <r>    8.9349   -0.0011 </r>
       <r>    8.9349   -0.0011 </r>
       <r>    9.1322    0.0000 </r>
       <r>    9.2195    0.0000 </r>
       <r>    9.2195    0.0000 </r>
       <r>    9.2916    0.0000 </r>
       <r>    9.2918    0.0000 </r>
       <r>    9.4621    0.0000 </r>
       <r>    9.4621    0.0000 </r>
       <r>    9.4938    0.0000 </r>
       <r>    9.6437    0.0000 </r>
       <r>    9.7565    0.0000 </r>
       <r>    9.7868    0.0000 </r>
       <r>   10.7015    0.0000 </r>
       <r>   10.7660    0.0000 </r>
       <r>   11.1927    0.0000 </r>
       <r>   11.1986    0.0000 </r>
      </set>
     </set>
    </set>
   </array>
  </eigenvalues>
  <separator name="orbital magnetization" >
   <v name="MAGDIPOLOUT">      0.00000000      0.00000000      0.00000000</v>
  </separator>
  <dos>
   <i name="efermi">      8.43235145 </i>
   <total>
    <array>
     <dimension dim="1">gridpoints</dimension>
     <dimension dim="2">spin</dimension>
     <field>energy</field>
     <field>total</field>
     <field>integrated</field>
     <set>
      <set comment="spin 1">
       <r>  -5.1365   0.0000   0.0000 </r>
       <r>  -5.0754   0.0000   0.0000 </r>
       <r>  -5.0143   0.0000   0.0000 </r>
       <r>  -4.9532   0.0000   0.0000 </r>
       <r>  -4.8921   0.0000   0.0000 </r>
       <r>  -4.8310   0.0000   0.0000 </r>
       <r>  -4.7698   0.0000   0.0000 </r>
       <r>  -4.7087   0.0000   0.0000 </r>
       <r>  -4.6476   0.0000   0.0000 </r>
       <r>  -4.5865   0.0000   0.0000 </r>
       <r>  -4.5254   0.0000   0.0000 </r>
       <r>  -4.4643   0.0000   0.0000 </r>
       <r>  -4.4031   0.0000   0.0000 </r>
       <r>  -4.3420   0.0000   0.0000 </r>
       <r>  -4.2809   0.0000   0.0000 </r>
       <r>  -4.2198   0.0000   0.0000 </r>
       <r>  -4.1587   0.0000   0.0000 </r>
       <r>  -4.0976   0.0000   0.0000 </r>
       <r>  -4.0364   0.0000   0.0000 </r>
       <r>  -3.9753   0.0000   0.0000 </r>
       <r>  -3.9142   0.0000   0.0000 </r>
       <r>  -3.8531  -0.0001   0.0000 </r>
       <r>  -3.7920  -0.0005   0.0000 </r>
       <r>  -3.7308  -0.0030  -0.0002 </r>
       <r>  -3.6697  -0.0139  -0.0011 </r>
       <r>  -3.6086  -0.0516  -0.0042 </r>
       <r>  -3.5475  -0.1492  -0.0133 </r>
       <r>  -3.4864  -0.3203  -0.0329 </r>
       <r>  -3.4253  -0.4456  -0.0601 </r>
       <r>  -3.3641  -0.1336  -0.0683 </r>
       <r>  -3.3030   1.1868   0.0042 </r>
       <r>  -3.2419   3.7107   0.2310 </r>
       <r>  -3.1808   6.6174   0.6354 </r>
       <r>  -3.1197   8.2903   1.1421 </r>
       <r>  -3.0586   7.6158   1.6076 </r>
       <r>  -2.9974   5.0557   1.9166 </r>
       <r>  -2.9363   2.1910   2.0505 </r>
       <r>  -2.8752   0.3043   2.0691 </r>
       <r>  -2.8141  -0.3938   2.0450 </r>
       <r>  -2.7530  -0.3983   2.0207 </r>
       <r>  -2.6919  -0.2190   2.0073 </r>
       <r>  -2.6307  -0.0858   2.0020 </r>
       <r>  -2.5696  -0.0258   2.0005 </r>
       <r>  -2.5085  -0.0061   2.0001 </r>
       <r>  -2.4474  -0.0012   2.0000 </r>
       <r>  -2.3863  -0.0002   2.0000 </r>
       <r>  -2.3252   0.0000   2.0000 </r>
       <r>  -2.2640   0.0000   2.0000 </r>
       <r>  -2.2029   0.0000   2.0000 </r>
       <r>  -2.1418   0.0000   2.0000 </r>
       <r>  -2.0807   0.0000   2.0000 </r>
       <r>  -2.0196   0.0000   2.0000 </r>
       <r>  -1.9585   0.0000   2.0000 </r>
       <r>  -1.8973  -0.0002   2.0000 </r>
       <r>  -1.8362  -0.0011   1.9999 </r>
       <r>  -1.7751  -0.0065   1.9995 </r>
       <r>  -1.7140  -0.0299   1.9977 </r>
       <r>  -1.6529  -0.1098   1.9910 </r>
       <r>  -1.5918  -0.3129   1.9719 </r>
       <r>  -1.5306  -0.6602   1.9315 </r>
       <r>  -1.4695  -0.8920   1.8770 </r>
       <r>  -1.4084  -0.2008   1.8647 </r>
       <r>  -1.3473   2.5290   2.0193 </r>
       <r>  -1.2862   7.5500   2.4807 </r>
       <r>  -1.2251  13.0166   3.2762 </r>
       <r>  -1.1639  15.6769   4.2344 </r>
       <r>  -1.1028  13.8586   5.0814 </r>
       <r>  -1.0417   9.8050   5.6806 </r>
       <r>  -0.9806   8.1847   6.1808 </r>
       <r>  -0.9195  11.7038   6.8961 </r>
       <r>  -0.8584  18.2306   8.0103 </r>
       <r>  -0.7972  22.5522   9.3887 </r>
       <r>  -0.7361  21.2087  10.6849 </r>
       <r>  -0.6750  15.5523  11.6354 </r>
       <r>  -0.6139   9.9593  12.2441 </r>
       <r>  -0.5528   7.4033  12.6965 </r>
       <r>  -0.4916   7.2304  13.1384 </r>
       <r>  -0.4305   6.9348  13.5623 </r>
       <r>  -0.3694   5.1650  13.8779 </r>
       <r>  -0.3083   2.6043  14.0371 </r>
       <r>  -0.2472   0.5860  14.0729 </r>
       <r>  -0.1861  -0.3260  14.0530 </r>
       <r>  -0.1249  -0.4373  14.0263 </r>
       <r>  -0.0638  -0.2682  14.0099 </r>
       <r>  -0.0027  -0.1137  14.0029 </r>
       <r>   0.0584  -0.0365  14.0007 </r>
       <r>   0.1195  -0.0093  14.0001 </r>
       <r>   0.1806  -0.0026  14.0000 </r>
       <r>   0.2418  -0.0048  13.9997 </r>
       <r>   0.3029  -0.0217  13.9984 </r>
       <r>   0.3640  -0.0838  13.9932 </r>
       <r>   0.4251  -0.2536  13.9777 </r>
       <r>   0.4862  -0.5780  13.9424 </r>
       <r>   0.5473  -0.8926  13.8878 </r>
       <r>   0.6085  -0.5341  13.8552 </r>
       <r>   0.6696   1.5989  13.9529 </r>
       <r>   0.7307   6.1129  14.3265 </r>
       <r>   0.7918  11.8429  15.0503 </r>
       <r>   0.8529  16.0104  16.0288 </r>
       <r>   0.9140  16.4926  17.0368 </r>
       <r>   0.9752  13.8218  17.8816 </r>
       <r>   1.0363  10.3568  18.5145 </r>
       <r>   1.0974   8.0003  19.0035 </r>
       <r>   1.1585   7.6759  19.4726 </r>
       <r>   1.2196  10.3385  20.1045 </r>
       <r>   1.2807  16.6615  21.1228 </r>
       <r>   1.3419  25.2155  22.6639 </r>
       <r>   1.4030  32.1558  24.6291 </r>
       <r>   1.4641  33.9856  26.7062 </r>
       <r>   1.5252  30.9503  28.5978 </r>
       <r>   1.5863  27.0708  30.2523 </r>
       <r>   1.6474  26.0519  31.8445 </r>
       <r>   1.7086  27.3980  33.5190 </r>
       <r>   1.7697  27.3167  35.1885 </r>
       <r>   1.8308  23.0812  36.5992 </r>
       <r>   1.8919  15.5622  37.5503 </r>
       <r>   1.9530   7.8150  38.0279 </r>
       <r>   2.0141   2.3102  38.1691 </r>
       <r>   2.0753  -0.3624  38.1470 </r>
       <r>   2.1364  -1.0135  38.0850 </r>
       <r>   2.1975  -0.7748  38.0377 </r>
       <r>   2.2586  -0.3984  38.0133 </r>
       <r>   2.3197  -0.1555  38.0038 </r>
       <r>   2.3808  -0.0479  38.0009 </r>
       <r>   2.4420  -0.0120  38.0002 </r>
       <r>   2.5031  -0.0031  38.0000 </r>
       <r>   2.5642  -0.0044  37.9997 </r>
       <r>   2.6253  -0.0181  37.9986 </r>
       <r>   2.6864  -0.0642  37.9947 </r>
       <r>   2.7476  -0.1764  37.9839 </r>
       <r>   2.8087  -0.3547  37.9622 </r>
       <r>   2.8698  -0.4375  37.9355 </r>
       <r>   2.9309   0.0189  37.9366 </r>
       <r>   2.9920   1.5642  38.0322 </r>
       <r>   3.0531   4.2155  38.2899 </r>
       <r>   3.1143   6.8817  38.7105 </r>
       <r>   3.1754   7.8067  39.1876 </r>
       <r>   3.2365   6.0739  39.5588 </r>
       <r>   3.2976   2.8088  39.7305 </r>
       <r>   3.3587   0.8743  39.7839 </r>
       <r>   3.4198   3.2535  39.9827 </r>
       <r>   3.4810  11.0907  40.6606 </r>
       <r>   3.5421  22.5209  42.0370 </r>
       <r>   3.6032  33.4225  44.0797 </r>
       <r>   3.6643  39.8601  46.5158 </r>
       <r>   3.7254  40.1002  48.9666 </r>
       <r>   3.7865  34.7355  51.0895 </r>
       <r>   3.8477  25.7682  52.6644 </r>
       <r>   3.9088  15.8164  53.6310 </r>
       <r>   3.9699   7.3623  54.0810 </r>
       <r>   4.0310   1.8747  54.1956 </r>
       <r>   4.0921  -0.6236  54.1575 </r>
       <r>   4.1532  -1.1331  54.0882 </r>
       <r>   4.2144  -0.8164  54.0383 </r>
       <r>   4.2755  -0.4084  54.0133 </r>
       <r>   4.3366  -0.1565  54.0038 </r>
       <r>   4.3977  -0.0476  54.0009 </r>
       <r>   4.4588  -0.0123  54.0001 </r>
       <r>   4.5199  -0.0064  53.9997 </r>
       <r>   4.5811  -0.0202  53.9985 </r>
       <r>   4.6422  -0.0772  53.9938 </r>
       <r>   4.7033  -0.2399  53.9791 </r>
       <r>   4.7644  -0.5772  53.9438 </r>
       <r>   4.8255  -1.0008  53.8827 </r>
       <r>   4.8866  -0.9424  53.8251 </r>
       <r>   4.9478   0.8157  53.8749 </r>
       <r>   5.0089   5.5275  54.2128 </r>
       <r>   5.0700  12.9679  55.0053 </r>
       <r>   5.1311  20.3642  56.2499 </r>
       <r>   5.1922  23.6607  57.6960 </r>
       <r>   5.2533  20.7443  58.9638 </r>
       <r>   5.3145  13.4084  59.7833 </r>
       <r>   5.3756   5.7500  60.1347 </r>
       <r>   5.4367   0.8121  60.1843 </r>
       <r>   5.4978  -1.0260  60.1216 </r>
       <r>   5.5589  -1.0617  60.0568 </r>
       <r>   5.6200  -0.6084  60.0196 </r>
       <r>   5.6812  -0.2879  60.0020 </r>
       <r>   5.7423  -0.2156  59.9888 </r>
       <r>   5.8034  -0.3285  59.9687 </r>
       <r>   5.8645  -0.4539  59.9410 </r>
       <r>   5.9256  -0.1996  59.9288 </r>
       <r>   5.9867   0.9804  59.9887 </r>
       <r>   6.0479   3.2589  60.1879 </r>
       <r>   6.1090   5.8367  60.5446 </r>
       <r>   6.1701   7.3009  60.9908 </r>
       <r>   6.2312   7.1715  61.4291 </r>
       <r>   6.2923   6.9481  61.8538 </r>
       <r>   6.3535   8.8156  62.3925 </r>
       <r>   6.4146  13.0168  63.1881 </r>
       <r>   6.4757  17.1309  64.2351 </r>
       <r>   6.5368  18.4160  65.3606 </r>
       <r>   6.5979  16.5329  66.3710 </r>
       <r>   6.6590  13.7248  67.2099 </r>
       <r>   6.7202  12.6789  67.9848 </r>
       <r>   6.7813  14.2549  68.8560 </r>
       <r>   6.8424  16.8491  69.8857 </r>
       <r>   6.9035  17.9443  70.9824 </r>
       <r>   6.9646  16.5573  71.9944 </r>
       <r>   7.0257  14.1626  72.8599 </r>
       <r>   7.0869  13.2947  73.6725 </r>
       <r>   7.1480  15.4752  74.6183 </r>
       <r>   7.2091  20.2681  75.8570 </r>
       <r>   7.2702  25.8531  77.4371 </r>
       <r>   7.3313  30.3807  79.2938 </r>
       <r>   7.3924  33.0772  81.3154 </r>
       <r>   7.4536  34.4584  83.4214 </r>
       <r>   7.5147  35.5036  85.5913 </r>
       <r>   7.5758  36.2524  87.8069 </r>
       <r>   7.6369  35.1840  89.9573 </r>
       <r>   7.6980  30.4395  91.8176 </r>
       <r>   7.7591  21.9108  93.1567 </r>
       <r>   7.8203  11.9732  93.8885 </r>
       <r>   7.8814   4.0159  94.1339 </r>
       <r>   7.9425   0.2605  94.1499 </r>
       <r>   8.0036   0.7700  94.1969 </r>
       <r>   8.0647   3.9411  94.4378 </r>
       <r>   8.1258   7.6164  94.9033 </r>
       <r>   8.1870  10.1268  95.5222 </r>
       <r>   8.2481  10.8643  96.1862 </r>
       <r>   8.3092  10.2436  96.8123 </r>
       <r>   8.3703   9.4176  97.3878 </r>
       <r>   8.4314   9.8533  97.9900 </r>
       <r>   8.4925  12.4176  98.7490 </r>
       <r>   8.5537  16.6258  99.7651 </r>
       <r>   8.6148  21.2699 101.0650 </r>
       <r>   8.6759  25.6759 102.6343 </r>
       <r>   8.7370  29.7342 104.4515 </r>
       <r>   8.7981  32.9686 106.4665 </r>
       <r>   8.8592  34.2535 108.5599 </r>
       <r>   8.9204  32.5377 110.5485 </r>
       <r>   8.9815  28.1317 112.2679 </r>
       <r>   9.0426  23.6549 113.7136 </r>
       <r>   9.1037  22.7680 115.1051 </r>
       <r>   9.1648  26.7126 116.7377 </r>
       <r>   9.2259  32.5766 118.7287 </r>
       <r>   9.2871  36.1093 120.9356 </r>
       <r>   9.3482  35.8607 123.1273 </r>
       <r>   9.4093  33.4889 125.1740 </r>
       <r>   9.4704  30.6585 127.0478 </r>
       <r>   9.5315  27.5254 128.7300 </r>
       <r>   9.5927  24.3118 130.2159 </r>
       <r>   9.6538  22.1861 131.5718 </r>
       <r>   9.7149  21.4845 132.8849 </r>
       <r>   9.7760  20.4211 134.1330 </r>
       <r>   9.8371  16.8581 135.1633 </r>
       <r>   9.8982  10.8802 135.8283 </r>
       <r>   9.9594   4.7727 136.1200 </r>
       <r>  10.0205   0.7137 136.1636 </r>
       <r>  10.0816  -0.8767 136.1100 </r>
       <r>  10.1427  -0.9475 136.0521 </r>
       <r>  10.2038  -0.5816 136.0165 </r>
       <r>  10.2649  -0.3526 135.9950 </r>
       <r>  10.3261  -0.4073 135.9701 </r>
       <r>  10.3872  -0.6674 135.9293 </r>
       <r>  10.4483  -0.7674 135.8824 </r>
       <r>  10.5094   0.1082 135.8890 </r>
       <r>  10.5705   2.9368 136.0685 </r>
       <r>  10.6316   7.8287 136.5470 </r>
       <r>  10.6928  13.0752 137.3461 </r>
       <r>  10.7539  15.7640 138.3095 </r>
       <r>  10.8150  14.0476 139.1681 </r>
       <r>  10.8761   8.9252 139.7136 </r>
       <r>  10.9372   3.6589 139.9372 </r>
       <r>  10.9983   1.5502 140.0319 </r>
       <r>  11.0595   3.9976 140.2763 </r>
       <r>  11.1206   9.6579 140.8665 </r>
       <r>  11.1817  14.9608 141.7809 </r>
       <r>  11.2428  16.3321 142.7790 </r>
       <r>  11.3039  12.9240 143.5689 </r>
       <r>  11.3650   7.1259 144.0044 </r>
       <r>  11.4262   2.1884 144.1382 </r>
       <r>  11.4873  -0.3328 144.1178 </r>
       <r>  11.5484  -0.8897 144.0635 </r>
       <r>  11.6095  -0.6225 144.0254 </r>
       <r>  11.6706  -0.2855 144.0080 </r>
       <r>  11.7317  -0.0976 144.0020 </r>
       <r>  11.7929  -0.0260 144.0004 </r>
       <r>  11.8540  -0.0055 144.0001 </r>
       <r>  11.9151  -0.0009 144.0000 </r>
       <r>  11.9762  -0.0001 144.0000 </r>
       <r>  12.0373   0.0000 144.0000 </r>
       <r>  12.0984   0.0000 144.0000 </r>
       <r>  12.1596   0.0000 144.0000 </r>
       <r>  12.2207   0.0000 144.0000 </r>
       <r>  12.2818   0.0000 144.0000 </r>
       <r>  12.3429   0.0000 144.0000 </r>
       <r>  12.4040   0.0000 144.0000 </r>
       <r>  12.4651   0.0000 144.0000 </r>
       <r>  12.5263   0.0000 144.0000 </r>
       <r>  12.5874   0.0000 144.0000 </r>
       <r>  12.6485   0.0000 144.0000 </r>
       <r>  12.7096   0.0000 144.0000 </r>
       <r>  12.7707   0.0000 144.0000 </r>
       <r>  12.8319   0.0000 144.0000 </r>
       <r>  12.8930   0.0000 144.0000 </r>
       <r>  12.9541   0.0000 144.0000 </r>
       <r>  13.0152   0.0000 144.0000 </r>
       <r>  13.0763   0.0000 144.0000 </r>
       <r>  13.1374   0.0000 144.0000 </r>
       <r>  13.1986   0.0000 144.0000 </r>
      </set>
     </set>
    </array>
   </total>
  </dos>
 </calculation>
 <structure name="finalpos" >
  <crystal>
   <varray name="basis" >
    <v>       8.08705200       0.00000000       0.00000000 </v>
    <v>       0.00000000       8.08705200       0.00000000 </v>
    <v>       0.00000000       0.00000000       8.08705200 </v>
   </varray>
   <i name="volume">    528.89651690 </i>
   <varray name="rec_basis" >
    <v>       0.12365445       0.00000000       0.00000000 </v>
    <v>       0.00000000       0.12365445       0.00000000 </v>
    <v>       0.00000000       0.00000000       0.12365445 </v>
   </varray>
  </crystal>
  <varray name="positions" >
   <v>       0.00970118       0.00970118       0.00970118 </v>
   <v>       0.25079009       0.01572383       0.25079009 </v>
   <v>       0.25079009       0.25079009       0.01572383 </v>
   <v>       0.01572383       0.25079009       0.25079009 </v>
   <v>       0.48724079       0.00466180       0.00466180 </v>
   <v>       0.73571923       0.02769755       0.24600804 </v>
   <v>       0.73571923       0.24600804       0.02769755 </v>
   <v>       0.47933166       0.24235036       0.24235036 </v>
   <v>       0.00466180       0.48724079       0.00466180 </v>
   <v>       0.24235036       0.47933166       0.24235036 </v>
   <v>       0.24600804       0.73571923       0.02769755 </v>
   <v>       0.02769755       0.73571923       0.24600804 </v>
   <v>       0.48818230       0.48818230       0.00512212 </v>
   <v>       0.75659002       0.48202863       0.23656106 </v>
   <v>       0.76851403       0.76851403       0.04800871 </v>
   <v>       0.48202863       0.75659002       0.23656106 </v>
   <v>       0.00466180       0.00466180       0.48724079 </v>
   <v>       0.24600804       0.02769755       0.73571923 </v>
   <v>       0.24235036       0.24235036       0.47933166 </v>
   <v>       0.02769755       0.24600804       0.73571923 </v>
   <v>       0.48818230       0.00512212       0.48818230 </v>
   <v>       0.76851403       0.04800871       0.76851403 </v>
   <v>       0.75659002       0.23656106       0.48202863 </v>
   <v>       0.48202863       0.23656106       0.75659002 </v>
   <v>       0.00512212       0.48818230       0.48818230 </v>
   <v>       0.23656106       0.48202863       0.75659002 </v>
   <v>       0.23656106       0.75659002       0.48202863 </v>
   <v>       0.04800871       0.76851403       0.76851403 </v>
   <v>       0.48921472       0.48921472       0.48921472 </v>
   <v>       0.76458536       0.40044773       0.76458536 </v>
   <v>       0.76458536       0.76458536       0.40044773 </v>
   <v>       0.40044773       0.76458536       0.76458536 </v>
   <v>       0.71783227       0.71783227       0.71783227 </v>
  </varray>
 </structure>
</modeling>
