    3    3    1    1
  0.1429167E+02  0.3500000E-09  0.3500000E-09  0.3500000E-09  0.1000000E-16
  1.000000000000000E-004
  CAR 
 unknown system                          
    9    1    8
 
  0.2500000E+00  0.2500000E+00  0.2500000E+00  0.1000000E+01
   1       -0.842584
   2        4.914350
   3        5.150816
   4        5.151007
   5       10.522041
   6       10.522155
   7       11.421552
   8       16.284022
