       N       E                     dE             d eps       ncg     rms          rms(c)
DAV:   1    -0.892545809717E+01   -0.89255E+01   -0.76406E-01    16   0.482E+00    0.211E+00
DAV:   2    -0.875632257540E+01    0.16914E+00   -0.23466E-01    16   0.274E+00    0.118E+00
DAV:   3    -0.870593368638E+01    0.50389E-01   -0.19021E-01    16   0.240E+00    0.286E-01
DAV:   4    -0.870561582312E+01    0.31786E-03   -0.61468E-03    16   0.637E-01    0.254E-02
DAV:   5    -0.870558916106E+01    0.26662E-04   -0.38189E-04    32   0.135E-01    0.128E-02
DAV:   6    -0.870557715113E+01    0.12010E-04   -0.11387E-05    16   0.311E-02    0.132E-03
DAV:   7    -0.870557713192E+01    0.19206E-07   -0.29169E-07    32   0.423E-03
   1 F= -.87055771E+01 E0= -.86780695E+01  d E =-.825229E-01
       N       E                     dE             d eps       ncg     rms          rms(c)
DAV:   1    -0.870472204634E+01    0.85510E-03   -0.18314E-02    16   0.997E-01    0.442E-02
DAV:   2    -0.870463747091E+01    0.84575E-04   -0.68642E-04    32   0.201E-01    0.195E-02
DAV:   3    -0.870462122647E+01    0.16244E-04   -0.12273E-04    16   0.573E-02    0.483E-03
DAV:   4    -0.870462171192E+01   -0.48545E-06   -0.77218E-06    32   0.223E-02
   2 F= -.87046217E+01 E0= -.86771141E+01  d E =-.825228E-01
       N       E                     dE             d eps       ncg     rms          rms(c)
DAV:   1    -0.870502248375E+01   -0.40126E-03   -0.73412E-02    16   0.200E+00    0.884E-02
DAV:   2    -0.870468330011E+01    0.33918E-03   -0.27281E-03    16   0.403E-01    0.394E-02
DAV:   3    -0.870462118602E+01    0.62114E-04   -0.56723E-04    32   0.125E-01    0.969E-03
DAV:   4    -0.870462215301E+01   -0.96699E-06   -0.35879E-05    16   0.454E-02    0.519E-03
DAV:   5    -0.870462168583E+01    0.46719E-06   -0.33780E-06    32   0.109E-02
   3 F= -.87046217E+01 E0= -.86771141E+01  d E =-.825228E-01
