<?xml version="1.0" encoding="ISO-8859-1"?>
<modeling>
 <generator>
  <i name="program" type="string">vasp </i>
  <i name="version" type="string">5.2.2  </i>
  <i name="subversion" type="string">15Apr09 complex  parallel </i>
  <i name="platform" type="string">LinuxIFC </i>
  <i name="date" type="string">2013 08 21 </i>
  <i name="time" type="string">16:10:44 </i>
 </generator>
 <incar>
  <i type="int" name="ISTART">     1</i>
  <i type="string" name="PREC">accurate</i>
  <i type="int" name="ICHARG">     1</i>
  <i type="int" name="IBRION">     5</i>
  <i type="int" name="NFREE">     2</i>
  <i type="int" name="NSW">   191</i>
  <i type="int" name="ISIF">     2</i>
  <i name="ENCUT">    360.65550000</i>
  <i name="POTIM">      0.01000000</i>
  <i type="int" name="ISMEAR">     1</i>
  <i name="SIGMA">      0.20000000</i>
  <i type="logical" name="LWAVE"> F  </i>
  <i type="logical" name="LCHARG"> F  </i>
  <i type="logical" name="LPEAD"> F  </i>
  <i type="logical" name="LCALCPOL"> F  </i>
  <i type="logical" name="LCALCEPS"> F  </i>
  <v name="EFIELD_PEAD">      0.00000000      0.00000000      0.00000000</v>
  <i type="logical" name="LEFG"> F  </i>
 </incar>
 <kpoints>
  <generation param="Monkhorst-Pack">
   <v type="int" name="divisions">       2        2        2 </v>
   <v name="usershift">      0.00000000       0.00000000       0.00000000 </v>
   <v name="genvec1">      0.50000000       0.00000000       0.00000000 </v>
   <v name="genvec2">      0.00000000       0.50000000       0.00000000 </v>
   <v name="genvec3">      0.00000000       0.00000000       0.50000000 </v>
   <v name="shift">      0.50000000       0.50000000       0.50000000 </v>
  </generation>
  <varray name="kpointlist" >
   <v>       0.25000000       0.25000000       0.25000000 </v>
  </varray>
  <varray name="weights" >
   <v>       1.00000000 </v>
  </varray>
 </kpoints>
 <parameters>
  <separator name="general" >
   <i type="string" name="SYSTEM">unknown system</i>
   <i type="logical" name="LCOMPAT"> F  </i>
  </separator>
  <separator name="electronic" >
   <i type="string" name="PREC">accura</i>
   <i name="ENMAX">    360.65550000</i>
   <i name="ENAUG">    291.05200000</i>
   <i name="EDIFF">      0.00000100</i>
   <i type="int" name="IALGO">    38</i>
   <i type="int" name="IWAVPR">    11</i>
   <i type="int" name="NBANDS">    10</i>
   <i name="NELECT">     12.00000000</i>
   <separator name="electronic smearing" >
    <i type="int" name="ISMEAR">     1</i>
    <i name="SIGMA">      0.20000000</i>
   </separator>
   <separator name="electronic projectors" >
    <i type="logical" name="LREAL"> F  </i>
    <v name="ROPT">      0.00000000</v>
    <i type="int" name="LMAXPAW">  -100</i>
    <i type="int" name="LMAXMIX">     2</i>
   </separator>
   <separator name="electronic startup" >
    <i type="int" name="ISTART">     1</i>
    <i type="int" name="ICHARG">     1</i>
    <i type="int" name="INIWAV">     1</i>
   </separator>
   <separator name="electronic spin" >
    <i type="int" name="ISPIN">     1</i>
    <i type="logical" name="LNONCOLLINEAR"> F  </i>
    <v name="MAGMOM">      1.00000000      1.00000000      1.00000000      1.00000000</v>
    <i name="NUPDOWN">     -1.00000000</i>
    <i type="logical" name="LSORBIT"> F  </i>
    <v name="SAXIS">      0.00000000      0.00000000      1.00000000</v>
    <i type="logical" name="LSPIRAL"> F  </i>
    <v name="QSPIRAL">      0.00000000      0.00000000      0.00000000</v>
    <i type="logical" name="LZEROZ"> F  </i>
   </separator>
   <separator name="electronic exchange-correlation" >
    <i type="logical" name="LASPH"> F  </i>
    <i type="logical" name="LMETAGGA"> F  </i>
   </separator>
   <separator name="electronic convergence" >
    <i type="int" name="NELM">    60</i>
    <i type="int" name="NELMDL">     0</i>
    <i type="int" name="NELMIN">     2</i>
    <i name="ENINI">    360.65550000</i>
    <separator name="electronic convergence detail" >
     <i type="logical" name="LDIAG"> T  </i>
     <i name="WEIMIN">      0.00100000</i>
     <i name="EBREAK">      0.00000002</i>
     <i name="DEPER">      0.30000000</i>
     <i type="int" name="NRMM">     4</i>
     <i name="TIME">      0.40000000</i>
    </separator>
   </separator>
   <separator name="electronic mixer" >
    <i name="AMIX">      0.40000000</i>
    <i name="BMIX">      1.00000000</i>
    <i name="AMIN">      0.10000000</i>
    <i name="AMIX_MAG">      1.60000000</i>
    <i name="BMIX_MAG">      1.00000000</i>
    <separator name="electronic mixer details" >
     <i type="int" name="IMIX">     4</i>
     <i type="int" name="MAXMIX">   -45</i>
     <i name="WC">    100.00000000</i>
     <i type="int" name="INIMIX">     1</i>
     <i type="int" name="MIXPRE">     1</i>
     <i type="int" name="MREMOVE">     5</i>
    </separator>
   </separator>
   <separator name="electronic dipolcorrection" >
    <i type="logical" name="LDIPOL"> F  </i>
    <i type="logical" name="LMONO"> F  </i>
    <i type="int" name="IDIPOL">     0</i>
    <i name="EPSILON">      1.00000000</i>
    <v name="DIPOL">   -100.00000000   -100.00000000   -100.00000000</v>
    <i name="EFIELD">      0.00000000</i>
   </separator>
  </separator>
  <separator name="grids" >
   <i type="int" name="NGX">    28</i>
   <i type="int" name="NGY">    28</i>
   <i type="int" name="NGZ">    28</i>
   <i type="int" name="NGXF">    56</i>
   <i type="int" name="NGYF">    56</i>
   <i type="int" name="NGZF">    56</i>
   <i type="logical" name="ADDGRID"> F  </i>
  </separator>
  <separator name="ionic" >
   <i type="int" name="NSW">    85</i>
   <i type="int" name="IBRION">     5</i>
   <i type="int" name="ISIF">     2</i>
   <i name="PSTRESS">      0.00000000</i>
   <i name="EDIFFG">      0.00001000</i>
   <i type="int" name="NFREE">     2</i>
   <i name="POTIM">      0.01000000</i>
   <i name="SMASS">     -3.00000000</i>
  </separator>
  <separator name="ionic md" >
   <i name="TEBEG">      0.00010000</i>
   <i name="TEEND">      0.00010000</i>
   <i type="int" name="NBLOCK">     1</i>
   <i type="int" name="KBLOCK">     1</i>
   <i type="int" name="NPACO">   256</i>
   <i name="APACO">     16.00000000</i>
  </separator>
  <separator name="symmetry" >
   <i type="int" name="ISYM">     2</i>
   <i name="SYMPREC">      0.00001000</i>
  </separator>
  <separator name="dos" >
   <i type="logical" name="LORBIT"> F  </i>
   <v name="RWIGS">     -1.00000000</v>
   <i type="int" name="NEDOS">   301</i>
   <i name="EMIN">     10.00000000</i>
   <i name="EMAX">    -10.00000000</i>
   <i name="EFERMI">      0.00000000</i>
  </separator>
  <separator name="writing" >
   <i type="int" name="NWRITE">     2</i>
   <i type="logical" name="LWAVE"> F  </i>
   <i type="logical" name="LCHARG"> F  </i>
   <i type="logical" name="LPARD"> F  </i>
   <i type="logical" name="LVTOT"> F  </i>
   <i type="logical" name="LELF"> F  </i>
   <i type="logical" name="LOPTICS"> F  </i>
   <v name="STM">      0.00000000      0.00000000      0.00000000      0.00000000      0.00000000</v>
  </separator>
  <separator name="performance" >
   <i type="int" name="NPAR">     1</i>
   <i type="int" name="NSIM">     4</i>
   <i type="int" name="NBLK">    32</i>
   <i type="logical" name="LPLANE"> T  </i>
   <i type="logical" name="LSCALAPACK"> F  </i>
   <i type="logical" name="LSCAAWARE"> F  </i>
   <i type="logical" name="LSCALU"> F  </i>
   <i type="logical" name="LASYNC"> F  </i>
  </separator>
  <separator name="miscellaneous" >
   <i type="int" name="IDIOT">     3</i>
   <i type="logical" name="LMUSIC"> F  </i>
   <v name="POMASS">     26.98200000</v>
   <i type="logical" name="LCORR"> T  </i>
  </separator>
  <i type="logical" name="LREAL_COMPAT"> F  </i>
  <i type="logical" name="GGA_COMPAT"> T  </i>
  <i type="logical" name="LBERRY"> F  </i>
  <i type="int" name="ICORELEVEL">     0</i>
  <i type="logical" name="LDAU"> F  </i>
  <i type="int" name="I_CONSTRAINED_M">     0</i>
  <separator name="electronic exchange-correlation" >
   <i type="string" name="GGA">--</i>
   <i type="int" name="VOSKOWN">     0</i>
   <i type="logical" name="LHFCALC"> F  </i>
   <i type="logical" name="LHFONE"> F  </i>
   <i type="logical" name="LRHFCALC"> F  </i>
   <i type="logical" name="LTHOMAS"> F  </i>
   <i type="logical" name="LMODELHF"> F  </i>
   <i name="ENCUTFOCK">      0.00000000</i>
   <i name="ENCUT4O">     -1.00000000</i>
   <i type="int" name="EXXOEP">     0</i>
   <i type="int" name="FOURORBIT">     0</i>
   <i name="AEXX">      0.00000000</i>
   <i name="HFALPHA">      0.00000000</i>
   <i name="ALDAX">      1.00000000</i>
   <i name="AGGAX">      1.00000000</i>
   <i name="ALDAC">      1.00000000</i>
   <i name="AGGAC">      1.00000000</i>
   <i type="int" name="NKREDX">     1</i>
   <i type="int" name="NKREDY">     1</i>
   <i type="int" name="NKREDZ">     1</i>
   <i type="logical" name="SHIFTRED"> F  </i>
   <i type="logical" name="ODDONLY"> F  </i>
   <i type="logical" name="EVENONLY"> F  </i>
   <i type="int" name="LMAXFOCK">     0</i>
   <i type="int" name="NMAXFOCKAE">     0</i>
   <i name="HFSCREEN">      0.00000000</i>
   <i name="HFSCREENC">      0.00000000</i>
  </separator>
  <separator name="model GW" >
   <i type="int" name="MODEL_GW">     0</i>
   <i name="MODEL_EPS0">     10.24070928</i>
   <i name="MODEL_ALPHA">      1.00000000</i>
  </separator>
  <separator name="linear response parameters" >
   <i type="logical" name="LEPSILON"> F  </i>
   <i type="logical" name="LRPA"> F  </i>
   <i type="logical" name="LNABLA"> F  </i>
   <i type="logical" name="LVEL"> F  </i>
   <i type="int" name="KINTER">     0</i>
   <i name="CSHIFT">      0.10000000</i>
   <i name="OMEGAMAX">     -1.00000000</i>
  </separator>
  <separator name="orbital magnetization" >
   <i type="logical" name="ORBITALMAG"> F  </i>
   <i type="logical" name="LMAGBLOCH"> F  </i>
   <i type="logical" name="LCHIMAG"> F  </i>
   <i type="logical" name="LGAUGE"> T  </i>
   <i type="int" name="MAGATOM">     0</i>
   <v name="MAGDIPOL">      0.00000000      0.00000000      0.00000000</v>
   <v name="AVECCONST">      0.00000000      0.00000000      0.00000000</v>
  </separator>
  <separator name="response functions" >
   <i type="logical" name="LRPA"> T  </i>
   <i type="logical" name="LTCTE"> F  </i>
   <i type="logical" name="LTETE"> F  </i>
   <i type="logical" name="L2ORDER"> F  </i>
   <i type="logical" name="LGWLF"> F  </i>
   <i name="ENCUTGW">    240.43700000</i>
   <i name="ENCUTGWSOFT">     -2.00000000</i>
   <i name="ENCUTLF">     -1.00000000</i>
   <i type="int" name="LMAXMP2">    -1</i>
   <i name="SCISSOR">      0.00000000</i>
   <i type="int" name="NOMEGA">     0</i>
   <i type="int" name="NOMEGAR">     0</i>
   <i type="int" name="NBANDSGW">    -1</i>
   <i type="int" name="NBANDSLF">    -1</i>
   <i type="int" name="NELM">     1</i>
   <i type="int" name="DIM">     3</i>
   <i type="int" name="ANTIRES">     0</i>
   <i type="logical" name="LUSEW"> F  </i>
   <i name="OMEGAMAX">    -30.00000000</i>
   <i name="OMEGATL">   -200.00000000</i>
   <i type="int" name="OMEGAGRID">     0</i>
   <i name="CSHIFT">     -0.10000000</i>
   <i type="logical" name="SELFENERGY"> F  </i>
   <i type="logical" name="LSPECTRAL"> F  </i>
   <i type="logical" name="ODDONLYGW"> F  </i>
   <i type="logical" name="EVENONLYGW"> F  </i>
   <i type="int" name="NKREDLFX">     1</i>
   <i type="int" name="NKREDLFY">     1</i>
   <i type="int" name="NKREDLFZ">     1</i>
   <i type="int" name="MAXMEM">  1024</i>
   <i type="int" name="TELESCOPE">     0</i>
  </separator>
 </parameters>
 <atominfo>
  <atoms>       4 </atoms>
  <types>       1 </types>
  <array name="atoms" >
   <dimension dim="1">ion</dimension>
   <field type="string">element</field>
   <field type="int">atomtype</field>
   <set>
    <rc><c>Al</c><c>   1</c></rc>
    <rc><c>Al</c><c>   1</c></rc>
    <rc><c>Al</c><c>   1</c></rc>
    <rc><c>Al</c><c>   1</c></rc>
   </set>
  </array>
  <array name="atomtypes" >
   <dimension dim="1">type</dimension>
   <field type="int">atomspertype</field>
   <field type="string">element</field>
   <field>mass</field>
   <field>valence</field>
   <field type="string">pseudopotential</field>
   <set>
    <rc><c>   4</c><c>Al</c><c>     26.98200000</c><c>      3.00000000</c><c> PAW_GGA Al 05Jan2001                   </c></rc>
   </set>
  </array>
 </atominfo>
 <structure name="initialpos" >
  <crystal>
   <varray name="basis" >
    <v>       4.08707800       0.00000000       0.00000000 </v>
    <v>       0.00000000       4.08707800       0.00000000 </v>
    <v>       0.00000000       0.00000000       4.08707800 </v>
   </varray>
   <i name="volume">     68.27139521 </i>
   <varray name="rec_basis" >
    <v>       0.24467358       0.00000000       0.00000000 </v>
    <v>       0.00000000       0.24467358       0.00000000 </v>
    <v>       0.00000000       0.00000000       0.24467358 </v>
   </varray>
  </crystal>
  <varray name="positions" >
   <v>       0.00000000       0.00000000       0.00000000 </v>
   <v>       0.50000000       0.50000000       0.00000000 </v>
   <v>       0.00000000       0.50000000       0.50000000 </v>
   <v>       0.50000000       0.00000000       0.50000000 </v>
  </varray>
  <varray name="selective"  type="logical" >
   <v type="logical" >  F  F  F </v>
   <v type="logical" >  T  F  F </v>
   <v type="logical" >  F  F  F </v>
   <v type="logical" >  F  F  F </v>
  </varray>
  <nose>
   <v>      -3.00000000       0.00000000       0.00010000       0.00010000 </v>
  </nose>
 </structure>
 <calculation>
  <scstep>
   <time name="dav">    1.02    0.29</time>
   <time name="total">    2.46    1.35</time>
   <energy>
    <i name="alphaZ">     -0.59676569 </i>
    <i name="ewald">   -290.76486860 </i>
    <i name="hartreedc">     -0.46831921 </i>
    <i name="XCdc">   -105.81201312 </i>
    <i name="pawpsdc">    142.63640024 </i>
    <i name="pawaedc">    -14.42330091 </i>
    <i name="eentropy">     -0.14934360 </i>
    <i name="bandstr">     40.70846466 </i>
    <i name="atom">    214.76153871 </i>
    <i name="e_fr_energy">    -14.10820752 </i>
    <i name="e_wo_entrp">    -13.95886392 </i>
    <i name="e_0_energy">    -14.05842632 </i>
   </energy>
  </scstep>
  <scstep>
   <time name="dav">    0.62    0.18</time>
   <time name="total">    1.56    0.95</time>
   <energy>
    <i name="e_fr_energy">    -14.06490957 </i>
    <i name="e_wo_entrp">    -13.91556597 </i>
    <i name="e_0_energy">    -14.01512837 </i>
   </energy>
  </scstep>
  <scstep>
   <time name="dav">    0.59    0.16</time>
   <time name="total">    1.39    0.79</time>
   <energy>
    <i name="e_fr_energy">    -14.03480744 </i>
    <i name="e_wo_entrp">    -13.88546384 </i>
    <i name="e_0_energy">    -13.98502624 </i>
   </energy>
  </scstep>
  <scstep>
   <time name="dav">    0.58    0.16</time>
   <time name="total">    1.43    0.78</time>
   <energy>
    <i name="e_fr_energy">    -14.03484980 </i>
    <i name="e_wo_entrp">    -13.88550620 </i>
    <i name="e_0_energy">    -13.98506860 </i>
   </energy>
  </scstep>
  <scstep>
   <time name="dav">    0.96    0.26</time>
   <time name="total">    1.85    0.88</time>
   <energy>
    <i name="e_fr_energy">    -14.03485563 </i>
    <i name="e_wo_entrp">    -13.88551203 </i>
    <i name="e_0_energy">    -13.98507443 </i>
   </energy>
  </scstep>
  <scstep>
   <time name="dav">    0.55    0.15</time>
   <time name="total">    1.50    0.77</time>
   <energy>
    <i name="e_fr_energy">    -14.03485419 </i>
    <i name="e_wo_entrp">    -13.88551059 </i>
    <i name="e_0_energy">    -13.98507299 </i>
   </energy>
  </scstep>
  <scstep>
   <time name="dav">    0.37    0.11</time>
   <time name="total">    1.06    0.64</time>
   <energy>
    <i name="alphaZ">     -0.59676569 </i>
    <i name="ewald">   -290.76486860 </i>
    <i name="hartreedc">     -0.40835817 </i>
    <i name="XCdc">   -105.40881500 </i>
    <i name="pawpsdc">    142.87987349 </i>
    <i name="pawaedc">    -14.72318420 </i>
    <i name="eentropy">     -0.14934360 </i>
    <i name="bandstr">     40.37506895 </i>
    <i name="atom">    214.76153871 </i>
    <i name="e_fr_energy">    -14.03485412 </i>
    <i name="e_wo_entrp">    -13.88551052 </i>
    <i name="e_0_energy">    -13.98507292 </i>
   </energy>
  </scstep>
  <structure>
   <crystal>
    <varray name="basis" >
     <v>       4.08707800       0.00000000       0.00000000 </v>
     <v>       0.00000000       4.08707800       0.00000000 </v>
     <v>       0.00000000       0.00000000       4.08707800 </v>
    </varray>
    <i name="volume">     68.27139521 </i>
    <varray name="rec_basis" >
     <v>       0.24467358       0.00000000       0.00000000 </v>
     <v>       0.00000000       0.24467358       0.00000000 </v>
     <v>       0.00000000       0.00000000       0.24467358 </v>
    </varray>
   </crystal>
   <varray name="positions" >
    <v>       0.00000000       0.00000000       0.00000000 </v>
    <v>       0.50000000       0.50000000       0.00000000 </v>
    <v>       0.00000000       0.50000000       0.50000000 </v>
    <v>       0.50000000       0.00000000       0.50000000 </v>
   </varray>
  </structure>
  <varray name="forces" >
   <v>       0.00000000       0.00000000       0.00000000 </v>
   <v>       0.00000000       0.00000000       0.00000000 </v>
   <v>       0.00000000       0.00000000       0.00000000 </v>
   <v>       0.00000000       0.00000000       0.00000000 </v>
  </varray>
  <varray name="stress" >
   <v>      -0.46515927       0.00000000       0.00000000 </v>
   <v>       0.00000000      -0.46515927       0.00000000 </v>
   <v>       0.00000000       0.00000000      -0.46515927 </v>
  </varray>
  <energy>
   <i name="e_fr_energy">    -14.03485412 </i>
   <i name="e_wo_entrp">    -13.98507292 </i>
   <i name="e_0_energy">     -0.14934360 </i>
  </energy>
  <kpoints>
   <generation param="Monkhorst-Pack">
    <v type="int" name="divisions">       2        2        2 </v>
    <v name="usershift">      0.00000000       0.00000000       0.00000000 </v>
    <v name="genvec1">      0.50000000       0.00000000       0.00000000 </v>
    <v name="genvec2">      0.00000000       0.50000000       0.00000000 </v>
    <v name="genvec3">      0.00000000       0.00000000       0.50000000 </v>
    <v name="shift">      0.50000000       0.50000000       0.50000000 </v>
   </generation>
   <varray name="kpointlist" >
    <v>       0.25000000       0.25000000       0.25000000 </v>
   </varray>
   <varray name="weights" >
    <v>       1.00000000 </v>
   </varray>
  </kpoints>
  <time name="totalsc">   13.69    8.02</time>
 </calculation>
 <calculation>
  <scstep>
   <time name="dav">    0.59    0.16</time>
   <time name="total">    1.54    0.78</time>
   <energy>
    <i name="alphaZ">     -0.59676569 </i>
    <i name="ewald">   -290.76367589 </i>
    <i name="hartreedc">     -0.40877670 </i>
    <i name="XCdc">   -105.40879684 </i>
    <i name="pawpsdc">    142.88049734 </i>
    <i name="pawaedc">    -14.72382220 </i>
    <i name="eentropy">     -0.14892297 </i>
    <i name="bandstr">     40.37368732 </i>
    <i name="atom">    214.76153871 </i>
    <i name="e_fr_energy">    -14.03503691 </i>
    <i name="e_wo_entrp">    -13.88611394 </i>
    <i name="e_0_energy">    -13.98539592 </i>
   </energy>
  </scstep>
  <scstep>
   <time name="dav">    1.04    0.28</time>
   <time name="total">    1.83    0.90</time>
   <energy>
    <i name="e_fr_energy">    -14.03483141 </i>
    <i name="e_wo_entrp">    -13.88561178 </i>
    <i name="e_0_energy">    -13.98509153 </i>
   </energy>
  </scstep>
  <scstep>
   <time name="dav">    0.62    0.17</time>
   <time name="total">    1.42    0.79</time>
   <energy>
    <i name="e_fr_energy">    -14.03482795 </i>
    <i name="e_wo_entrp">    -13.88558442 </i>
    <i name="e_0_energy">    -13.98508010 </i>
   </energy>
  </scstep>
  <scstep>
   <time name="dav">    1.04    0.28</time>
   <time name="total">    1.64    0.81</time>
   <energy>
    <i name="alphaZ">     -0.59676569 </i>
    <i name="ewald">   -290.76367589 </i>
    <i name="hartreedc">     -0.40927474 </i>
    <i name="XCdc">   -105.40873996 </i>
    <i name="pawpsdc">    142.88096062 </i>
    <i name="pawaedc">    -14.72430721 </i>
    <i name="eentropy">     -0.14924135 </i>
    <i name="bandstr">     40.37467697 </i>
    <i name="atom">    214.76153871 </i>
    <i name="e_fr_energy">    -14.03482855 </i>
    <i name="e_wo_entrp">    -13.88558720 </i>
    <i name="e_0_energy">    -13.98508144 </i>
   </energy>
  </scstep>
  <structure>
   <crystal>
    <varray name="basis" >
     <v>       4.08707800       0.00000000       0.00000000 </v>
     <v>       0.00000000       4.08707800       0.00000000 </v>
     <v>       0.00000000       0.00000000       4.08707800 </v>
    </varray>
    <i name="volume">     68.27139521 </i>
    <varray name="rec_basis" >
     <v>       0.24467358       0.00000000       0.00000000 </v>
     <v>       0.00000000       0.24467358       0.00000000 </v>
     <v>       0.00000000       0.00000000       0.24467358 </v>
    </varray>
   </crystal>
   <varray name="positions" >
    <v>       0.00000000       0.00000000       0.00000000 </v>
    <v>       0.50244674       0.50000000       0.00000000 </v>
    <v>       0.00000000       0.50000000       0.50000000 </v>
    <v>       0.50000000       0.00000000       0.50000000 </v>
   </varray>
  </structure>
  <varray name="forces" >
   <v>       0.02483314       0.00000000       0.00000000 </v>
   <v>      -0.00513290       0.00000000       0.00000000 </v>
   <v>       0.02483314       0.00000000       0.00000000 </v>
   <v>      -0.04453339       0.00000000       0.00000000 </v>
  </varray>
  <varray name="stress" >
   <v>      -0.51446966       0.00000000       0.00000000 </v>
   <v>       0.00000000      -0.41041548       0.00000000 </v>
   <v>       0.00000000       0.00000000      -0.41041548 </v>
  </varray>
  <energy>
   <i name="e_fr_energy">    -14.03482855 </i>
   <i name="e_wo_entrp">    -13.98508144 </i>
   <i name="e_0_energy">     -0.14924135 </i>
  </energy>
  <kpoints>
   <generation param="Monkhorst-Pack">
    <v type="int" name="divisions">       2        2        2 </v>
    <v name="usershift">      0.00000000       0.00000000       0.00000000 </v>
    <v name="genvec1">      0.50000000       0.00000000       0.00000000 </v>
    <v name="genvec2">      0.00000000       0.50000000       0.00000000 </v>
    <v name="genvec3">      0.00000000       0.00000000       0.50000000 </v>
    <v name="shift">      0.50000000       0.50000000       0.50000000 </v>
   </generation>
   <varray name="kpointlist" >
    <v>       0.25000000       0.25000000       0.25000000 </v>
   </varray>
   <varray name="weights" >
    <v>       1.00000000 </v>
   </varray>
  </kpoints>
  <time name="totalsc">    8.80    5.14</time>
 </calculation>
 <calculation>
  <scstep>
   <time name="dav">    0.58    0.17</time>
   <time name="total">    1.51    0.78</time>
   <energy>
    <i name="alphaZ">     -0.59676569 </i>
    <i name="ewald">   -290.76367589 </i>
    <i name="hartreedc">     -0.40861668 </i>
    <i name="XCdc">   -105.40874122 </i>
    <i name="pawpsdc">    142.88100889 </i>
    <i name="pawaedc">    -14.72435683 </i>
    <i name="eentropy">     -0.14838507 </i>
    <i name="bandstr">     40.37232395 </i>
    <i name="atom">    214.76153871 </i>
    <i name="e_fr_energy">    -14.03566984 </i>
    <i name="e_wo_entrp">    -13.88728476 </i>
    <i name="e_0_energy">    -13.98620815 </i>
   </energy>
  </scstep>
  <scstep>
   <time name="dav">    0.96    0.26</time>
   <time name="total">    1.74    0.88</time>
   <energy>
    <i name="e_fr_energy">    -14.03483983 </i>
    <i name="e_wo_entrp">    -13.88564503 </i>
    <i name="e_0_energy">    -13.98510823 </i>
   </energy>
  </scstep>
  <scstep>
   <time name="dav">    0.68    0.19</time>
   <time name="total">    1.46    0.82</time>
   <energy>
    <i name="e_fr_energy">    -14.03482574 </i>
    <i name="e_wo_entrp">    -13.88558065 </i>
    <i name="e_0_energy">    -13.98507738 </i>
   </energy>
  </scstep>
  <scstep>
   <time name="dav">    1.01    0.27</time>
   <time name="total">    1.86    0.89</time>
   <energy>
    <i name="e_fr_energy">    -14.03482813 </i>
    <i name="e_wo_entrp">    -13.88558752 </i>
    <i name="e_0_energy">    -13.98508126 </i>
   </energy>
  </scstep>
  <scstep>
   <time name="dav">    0.86    0.23</time>
   <time name="total">    1.49    0.77</time>
   <energy>
    <i name="alphaZ">     -0.59676569 </i>
    <i name="ewald">   -290.76367589 </i>
    <i name="hartreedc">     -0.40928531 </i>
    <i name="XCdc">   -105.40873719 </i>
    <i name="pawpsdc">    142.88099142 </i>
    <i name="pawaedc">    -14.72433885 </i>
    <i name="eentropy">     -0.14924373 </i>
    <i name="bandstr">     40.37468782 </i>
    <i name="atom">    214.76153871 </i>
    <i name="e_fr_energy">    -14.03482871 </i>
    <i name="e_wo_entrp">    -13.88558497 </i>
    <i name="e_0_energy">    -13.98508079 </i>
   </energy>
  </scstep>
  <structure>
   <crystal>
    <varray name="basis" >
     <v>       4.08707800       0.00000000       0.00000000 </v>
     <v>       0.00000000       4.08707800       0.00000000 </v>
     <v>       0.00000000       0.00000000       4.08707800 </v>
    </varray>
    <i name="volume">     68.27139521 </i>
    <varray name="rec_basis" >
     <v>       0.24467358       0.00000000       0.00000000 </v>
     <v>       0.00000000       0.24467358       0.00000000 </v>
     <v>       0.00000000       0.00000000       0.24467358 </v>
    </varray>
   </crystal>
   <varray name="positions" >
    <v>       0.00000000       0.00000000       0.00000000 </v>
    <v>       0.49755326       0.50000000       0.00000000 </v>
    <v>       0.00000000       0.50000000       0.50000000 </v>
    <v>       0.50000000       0.00000000       0.50000000 </v>
   </varray>
  </structure>
  <varray name="forces" >
   <v>      -0.02474478       0.00000000       0.00000000 </v>
   <v>       0.00548183       0.00000000       0.00000000 </v>
   <v>      -0.02474478       0.00000000       0.00000000 </v>
   <v>       0.04400774       0.00000000       0.00000000 </v>
  </varray>
  <varray name="stress" >
   <v>      -0.51549337       0.00000000       0.00000000 </v>
   <v>       0.00000000      -0.41076946       0.00000000 </v>
   <v>       0.00000000       0.00000000      -0.41076946 </v>
  </varray>
  <energy>
   <i name="e_fr_energy">    -14.03482871 </i>
   <i name="e_wo_entrp">    -13.98508079 </i>
   <i name="e_0_energy">     -0.14924373 </i>
  </energy>
  <dynmat>
   <varray name="hessian" >
    <v>      -0.01967002 </v>
   </varray>
   <v name="eigenvalues"> -1.96700245E-02</v>
   <varray name="eigenvectors" >
    <v>   1.00000000E+00</v>
   </varray>
  </dynmat>
  <kpoints>
   <generation param="Monkhorst-Pack">
    <v type="int" name="divisions">       2        2        2 </v>
    <v name="usershift">      0.00000000       0.00000000       0.00000000 </v>
    <v name="genvec1">      0.50000000       0.00000000       0.00000000 </v>
    <v name="genvec2">      0.00000000       0.50000000       0.00000000 </v>
    <v name="genvec3">      0.00000000       0.00000000       0.50000000 </v>
    <v name="shift">      0.50000000       0.50000000       0.50000000 </v>
   </generation>
   <varray name="kpointlist" >
    <v>       0.25000000       0.25000000       0.25000000 </v>
   </varray>
   <varray name="weights" >
    <v>       1.00000000 </v>
   </varray>
  </kpoints>
  <time name="totalsc">   10.42    5.91</time>
  <eigenvalues>
   <array>
    <dimension dim="1">band</dimension>
    <dimension dim="2">kpoint</dimension>
    <dimension dim="3">spin</dimension>
    <field>eigene</field>
    <field>occ</field>
    <set>
     <set comment="spin 1">
      <set comment="kpoint 1">
       <r>   -1.6236    1.0000 </r>
       <r>    2.6814    1.0000 </r>
       <r>    2.6843    1.0000 </r>
       <r>    2.6873    1.0000 </r>
       <r>    6.8754    0.6808 </r>
       <r>    6.8790    0.6666 </r>
       <r>    6.8825    0.6527 </r>
       <r>   10.9836    0.0000 </r>
       <r>   11.1834    0.0000 </r>
       <r>   11.1862    0.0000 </r>
      </set>
     </set>
    </set>
   </array>
  </eigenvalues>
  <separator name="orbital magnetization" >
   <v name="MAGDIPOLOUT">      0.00000000      0.00000000      0.00000000</v>
  </separator>
  <dos>
   <i name="efermi">      6.91925402 </i>
   <total>
    <array>
     <dimension dim="1">gridpoints</dimension>
     <dimension dim="2">spin</dimension>
     <field>energy</field>
     <field>total</field>
     <field>integrated</field>
     <set>
      <set comment="spin 1">
       <r>  -3.6236   0.0000   0.0000 </r>
       <r>  -3.5675   0.0000   0.0000 </r>
       <r>  -3.5115   0.0000   0.0000 </r>
       <r>  -3.4555   0.0000   0.0000 </r>
       <r>  -3.3994   0.0000   0.0000 </r>
       <r>  -3.3434   0.0000   0.0000 </r>
       <r>  -3.2874   0.0000   0.0000 </r>
       <r>  -3.2313   0.0000   0.0000 </r>
       <r>  -3.1753   0.0000   0.0000 </r>
       <r>  -3.1193   0.0000   0.0000 </r>
       <r>  -3.0632   0.0000   0.0000 </r>
       <r>  -3.0072   0.0000   0.0000 </r>
       <r>  -2.9512   0.0000   0.0000 </r>
       <r>  -2.8951   0.0000   0.0000 </r>
       <r>  -2.8391   0.0000   0.0000 </r>
       <r>  -2.7831   0.0000   0.0000 </r>
       <r>  -2.7270   0.0000   0.0000 </r>
       <r>  -2.6710   0.0000   0.0000 </r>
       <r>  -2.6150   0.0000   0.0000 </r>
       <r>  -2.5589   0.0000   0.0000 </r>
       <r>  -2.5029   0.0000   0.0000 </r>
       <r>  -2.4469   0.0000   0.0000 </r>
       <r>  -2.3908   0.0000   0.0000 </r>
       <r>  -2.3348  -0.0001   0.0000 </r>
       <r>  -2.2788  -0.0005   0.0000 </r>
       <r>  -2.2228  -0.0028  -0.0002 </r>
       <r>  -2.1667  -0.0115  -0.0008 </r>
       <r>  -2.1107  -0.0399  -0.0031 </r>
       <r>  -2.0547  -0.1124  -0.0094 </r>
       <r>  -1.9986  -0.2507  -0.0234 </r>
       <r>  -1.9426  -0.4134  -0.0466 </r>
       <r>  -1.8866  -0.3948  -0.0687 </r>
       <r>  -1.8305   0.2135  -0.0567 </r>
       <r>  -1.7745   1.8153   0.0450 </r>
       <r>  -1.7185   4.3460   0.2885 </r>
       <r>  -1.6624   6.9500   0.6779 </r>
       <r>  -1.6064   8.3311   1.1447 </r>
       <r>  -1.5504   7.6950   1.5759 </r>
       <r>  -1.4943   5.4152   1.8793 </r>
       <r>  -1.4383   2.7140   2.0314 </r>
       <r>  -1.3823   0.7034   2.0708 </r>
       <r>  -1.3262  -0.2557   2.0565 </r>
       <r>  -1.2702  -0.4463   2.0315 </r>
       <r>  -1.2142  -0.3173   2.0137 </r>
       <r>  -1.1581  -0.1581   2.0048 </r>
       <r>  -1.1021  -0.0611   2.0014 </r>
       <r>  -1.0461  -0.0191   2.0003 </r>
       <r>  -0.9900  -0.0049   2.0001 </r>
       <r>  -0.9340  -0.0010   2.0000 </r>
       <r>  -0.8780  -0.0002   2.0000 </r>
       <r>  -0.8219   0.0000   2.0000 </r>
       <r>  -0.7659   0.0000   2.0000 </r>
       <r>  -0.7099   0.0000   2.0000 </r>
       <r>  -0.6538   0.0000   2.0000 </r>
       <r>  -0.5978   0.0000   2.0000 </r>
       <r>  -0.5418   0.0000   2.0000 </r>
       <r>  -0.4857   0.0000   2.0000 </r>
       <r>  -0.4297   0.0000   2.0000 </r>
       <r>  -0.3737   0.0000   2.0000 </r>
       <r>  -0.3176   0.0000   2.0000 </r>
       <r>  -0.2616   0.0000   2.0000 </r>
       <r>  -0.2056   0.0000   2.0000 </r>
       <r>  -0.1495   0.0000   2.0000 </r>
       <r>  -0.0935   0.0000   2.0000 </r>
       <r>  -0.0375   0.0000   2.0000 </r>
       <r>   0.0186   0.0000   2.0000 </r>
       <r>   0.0746   0.0000   2.0000 </r>
       <r>   0.1306   0.0000   2.0000 </r>
       <r>   0.1866   0.0000   2.0000 </r>
       <r>   0.2427   0.0000   2.0000 </r>
       <r>   0.2987   0.0000   2.0000 </r>
       <r>   0.3547   0.0000   2.0000 </r>
       <r>   0.4108   0.0000   2.0000 </r>
       <r>   0.4668   0.0000   2.0000 </r>
       <r>   0.5228   0.0000   2.0000 </r>
       <r>   0.5789   0.0000   2.0000 </r>
       <r>   0.6349   0.0000   2.0000 </r>
       <r>   0.6909   0.0000   2.0000 </r>
       <r>   0.7470   0.0000   2.0000 </r>
       <r>   0.8030   0.0000   2.0000 </r>
       <r>   0.8590   0.0000   2.0000 </r>
       <r>   0.9151   0.0000   2.0000 </r>
       <r>   0.9711   0.0000   2.0000 </r>
       <r>   1.0271   0.0000   2.0000 </r>
       <r>   1.0832   0.0000   2.0000 </r>
       <r>   1.1392   0.0000   2.0000 </r>
       <r>   1.1952   0.0000   2.0000 </r>
       <r>   1.2513   0.0000   2.0000 </r>
       <r>   1.3073   0.0000   2.0000 </r>
       <r>   1.3633   0.0000   2.0000 </r>
       <r>   1.4194   0.0000   2.0000 </r>
       <r>   1.4754   0.0000   2.0000 </r>
       <r>   1.5314   0.0000   2.0000 </r>
       <r>   1.5875   0.0000   2.0000 </r>
       <r>   1.6435   0.0000   2.0000 </r>
       <r>   1.6995   0.0000   2.0000 </r>
       <r>   1.7556   0.0000   2.0000 </r>
       <r>   1.8116   0.0000   2.0000 </r>
       <r>   1.8676   0.0000   2.0000 </r>
       <r>   1.9237   0.0000   2.0000 </r>
       <r>   1.9797  -0.0003   2.0000 </r>
       <r>   2.0357  -0.0020   1.9999 </r>
       <r>   2.0918  -0.0099   1.9993 </r>
       <r>   2.1478  -0.0405   1.9970 </r>
       <r>   2.2038  -0.1368   1.9894 </r>
       <r>   2.2599  -0.3756   1.9683 </r>
       <r>   2.3159  -0.8119   1.9228 </r>
       <r>   2.3719  -1.2799   1.8511 </r>
       <r>   2.4280  -1.0878   1.7902 </r>
       <r>   2.4840   1.0382   1.8483 </r>
       <r>   2.5400   6.2231   2.1970 </r>
       <r>   2.5960  14.0160   2.9824 </r>
       <r>   2.6521  21.5941   4.1924 </r>
       <r>   2.7081  25.0893   5.5982 </r>
       <r>   2.7641  22.4754   6.8575 </r>
       <r>   2.8202  15.2801   7.7137 </r>
       <r>   2.8762   7.2846   8.1219 </r>
       <r>   2.9322   1.6158   8.2124 </r>
       <r>   2.9883  -0.9247   8.1606 </r>
       <r>   3.0443  -1.3195   8.0867 </r>
       <r>   3.1003  -0.8908   8.0368 </r>
       <r>   3.1564  -0.4295   8.0127 </r>
       <r>   3.2124  -0.1618   8.0036 </r>
       <r>   3.2684  -0.0494   8.0009 </r>
       <r>   3.3245  -0.0124   8.0002 </r>
       <r>   3.3805  -0.0026   8.0000 </r>
       <r>   3.4365  -0.0005   8.0000 </r>
       <r>   3.4926  -0.0001   8.0000 </r>
       <r>   3.5486   0.0000   8.0000 </r>
       <r>   3.6046   0.0000   8.0000 </r>
       <r>   3.6607   0.0000   8.0000 </r>
       <r>   3.7167   0.0000   8.0000 </r>
       <r>   3.7727   0.0000   8.0000 </r>
       <r>   3.8288   0.0000   8.0000 </r>
       <r>   3.8848   0.0000   8.0000 </r>
       <r>   3.9408   0.0000   8.0000 </r>
       <r>   3.9969   0.0000   8.0000 </r>
       <r>   4.0529   0.0000   8.0000 </r>
       <r>   4.1089   0.0000   8.0000 </r>
       <r>   4.1650   0.0000   8.0000 </r>
       <r>   4.2210   0.0000   8.0000 </r>
       <r>   4.2770   0.0000   8.0000 </r>
       <r>   4.3331   0.0000   8.0000 </r>
       <r>   4.3891   0.0000   8.0000 </r>
       <r>   4.4451   0.0000   8.0000 </r>
       <r>   4.5012   0.0000   8.0000 </r>
       <r>   4.5572   0.0000   8.0000 </r>
       <r>   4.6132   0.0000   8.0000 </r>
       <r>   4.6693   0.0000   8.0000 </r>
       <r>   4.7253   0.0000   8.0000 </r>
       <r>   4.7813   0.0000   8.0000 </r>
       <r>   4.8374   0.0000   8.0000 </r>
       <r>   4.8934   0.0000   8.0000 </r>
       <r>   4.9494   0.0000   8.0000 </r>
       <r>   5.0054   0.0000   8.0000 </r>
       <r>   5.0615   0.0000   8.0000 </r>
       <r>   5.1175   0.0000   8.0000 </r>
       <r>   5.1735   0.0000   8.0000 </r>
       <r>   5.2296   0.0000   8.0000 </r>
       <r>   5.2856   0.0000   8.0000 </r>
       <r>   5.3416   0.0000   8.0000 </r>
       <r>   5.3977   0.0000   8.0000 </r>
       <r>   5.4537   0.0000   8.0000 </r>
       <r>   5.5097   0.0000   8.0000 </r>
       <r>   5.5658   0.0000   8.0000 </r>
       <r>   5.6218   0.0000   8.0000 </r>
       <r>   5.6778   0.0000   8.0000 </r>
       <r>   5.7339   0.0000   8.0000 </r>
       <r>   5.7899   0.0000   8.0000 </r>
       <r>   5.8459   0.0000   8.0000 </r>
       <r>   5.9020   0.0000   8.0000 </r>
       <r>   5.9580   0.0000   8.0000 </r>
       <r>   6.0140   0.0000   8.0000 </r>
       <r>   6.0701   0.0000   8.0000 </r>
       <r>   6.1261  -0.0001   8.0000 </r>
       <r>   6.1821  -0.0004   8.0000 </r>
       <r>   6.2382  -0.0025   7.9998 </r>
       <r>   6.2942  -0.0122   7.9991 </r>
       <r>   6.3502  -0.0486   7.9964 </r>
       <r>   6.4063  -0.1597   7.9875 </r>
       <r>   6.4623  -0.4250   7.9637 </r>
       <r>   6.5183  -0.8844   7.9141 </r>
       <r>   6.5744  -1.3166   7.8403 </r>
       <r>   6.6304  -0.9387   7.7877 </r>
       <r>   6.6864   1.5680   7.8756 </r>
       <r>   6.7425   7.1981   8.2789 </r>
       <r>   6.7985  15.1788   9.1294 </r>
       <r>   6.8545  22.4067  10.3849 </r>
       <r>   6.9106  25.0922  11.7909 </r>
       <r>   6.9666  21.6669  13.0050 </r>
       <r>   7.0226  14.1177  13.7960 </r>
       <r>   7.0787   6.3071  14.1494 </r>
       <r>   7.1347   1.0831  14.2101 </r>
       <r>   7.1907  -1.0756  14.1498 </r>
       <r>   7.2468  -1.2834  14.0779 </r>
       <r>   7.3028  -0.8182  14.0321 </r>
       <r>   7.3588  -0.3799  14.0108 </r>
       <r>   7.4148  -0.1388  14.0030 </r>
       <r>   7.4709  -0.0412  14.0007 </r>
       <r>   7.5269  -0.0101  14.0001 </r>
       <r>   7.5829  -0.0021  14.0000 </r>
       <r>   7.6390  -0.0004  14.0000 </r>
       <r>   7.6950  -0.0001  14.0000 </r>
       <r>   7.7510   0.0000  14.0000 </r>
       <r>   7.8071   0.0000  14.0000 </r>
       <r>   7.8631   0.0000  14.0000 </r>
       <r>   7.9191   0.0000  14.0000 </r>
       <r>   7.9752   0.0000  14.0000 </r>
       <r>   8.0312   0.0000  14.0000 </r>
       <r>   8.0872   0.0000  14.0000 </r>
       <r>   8.1433   0.0000  14.0000 </r>
       <r>   8.1993   0.0000  14.0000 </r>
       <r>   8.2553   0.0000  14.0000 </r>
       <r>   8.3114   0.0000  14.0000 </r>
       <r>   8.3674   0.0000  14.0000 </r>
       <r>   8.4234   0.0000  14.0000 </r>
       <r>   8.4795   0.0000  14.0000 </r>
       <r>   8.5355   0.0000  14.0000 </r>
       <r>   8.5915   0.0000  14.0000 </r>
       <r>   8.6476   0.0000  14.0000 </r>
       <r>   8.7036   0.0000  14.0000 </r>
       <r>   8.7596   0.0000  14.0000 </r>
       <r>   8.8157   0.0000  14.0000 </r>
       <r>   8.8717   0.0000  14.0000 </r>
       <r>   8.9277   0.0000  14.0000 </r>
       <r>   8.9838   0.0000  14.0000 </r>
       <r>   9.0398   0.0000  14.0000 </r>
       <r>   9.0958   0.0000  14.0000 </r>
       <r>   9.1519   0.0000  14.0000 </r>
       <r>   9.2079   0.0000  14.0000 </r>
       <r>   9.2639   0.0000  14.0000 </r>
       <r>   9.3200   0.0000  14.0000 </r>
       <r>   9.3760   0.0000  14.0000 </r>
       <r>   9.4320   0.0000  14.0000 </r>
       <r>   9.4881   0.0000  14.0000 </r>
       <r>   9.5441   0.0000  14.0000 </r>
       <r>   9.6001   0.0000  14.0000 </r>
       <r>   9.6562   0.0000  14.0000 </r>
       <r>   9.7122   0.0000  14.0000 </r>
       <r>   9.7682   0.0000  14.0000 </r>
       <r>   9.8242   0.0000  14.0000 </r>
       <r>   9.8803   0.0000  14.0000 </r>
       <r>   9.9363   0.0000  14.0000 </r>
       <r>   9.9923   0.0000  14.0000 </r>
       <r>  10.0484   0.0000  14.0000 </r>
       <r>  10.1044   0.0000  14.0000 </r>
       <r>  10.1604   0.0000  14.0000 </r>
       <r>  10.2165   0.0000  14.0000 </r>
       <r>  10.2725  -0.0001  14.0000 </r>
       <r>  10.3285  -0.0006  14.0000 </r>
       <r>  10.3846  -0.0028  13.9998 </r>
       <r>  10.4406  -0.0116  13.9992 </r>
       <r>  10.4966  -0.0405  13.9969 </r>
       <r>  10.5527  -0.1150  13.9904 </r>
       <r>  10.6087  -0.2615  13.9758 </r>
       <r>  10.6647  -0.4533  13.9504 </r>
       <r>  10.7208  -0.5195  13.9213 </r>
       <r>  10.7768  -0.1054  13.9154 </r>
       <r>  10.8328   1.1799  13.9815 </r>
       <r>  10.8889   3.4623  14.1755 </r>
       <r>  10.9449   6.4728  14.5382 </r>
       <r>  11.0009   9.8150  15.0881 </r>
       <r>  11.0570  13.2429  15.8302 </r>
       <r>  11.1130  16.3716  16.7475 </r>
       <r>  11.1690  18.1739  17.7659 </r>
       <r>  11.2251  17.3365  18.7373 </r>
       <r>  11.2811  13.5301  19.4954 </r>
       <r>  11.3371   8.1067  19.9496 </r>
       <r>  11.3932   3.2076  20.1294 </r>
       <r>  11.4492   0.2174  20.1415 </r>
       <r>  11.5052  -0.8614  20.0933 </r>
       <r>  11.5613  -0.8393  20.0462 </r>
       <r>  11.6173  -0.4979  20.0183 </r>
       <r>  11.6733  -0.2208  20.0060 </r>
       <r>  11.7294  -0.0778  20.0016 </r>
       <r>  11.7854  -0.0223  20.0004 </r>
       <r>  11.8414  -0.0053  20.0001 </r>
       <r>  11.8975  -0.0011  20.0000 </r>
       <r>  11.9535  -0.0002  20.0000 </r>
       <r>  12.0095   0.0000  20.0000 </r>
       <r>  12.0656   0.0000  20.0000 </r>
       <r>  12.1216   0.0000  20.0000 </r>
       <r>  12.1776   0.0000  20.0000 </r>
       <r>  12.2336   0.0000  20.0000 </r>
       <r>  12.2897   0.0000  20.0000 </r>
       <r>  12.3457   0.0000  20.0000 </r>
       <r>  12.4017   0.0000  20.0000 </r>
       <r>  12.4578   0.0000  20.0000 </r>
       <r>  12.5138   0.0000  20.0000 </r>
       <r>  12.5698   0.0000  20.0000 </r>
       <r>  12.6259   0.0000  20.0000 </r>
       <r>  12.6819   0.0000  20.0000 </r>
       <r>  12.7379   0.0000  20.0000 </r>
       <r>  12.7940   0.0000  20.0000 </r>
       <r>  12.8500   0.0000  20.0000 </r>
       <r>  12.9060   0.0000  20.0000 </r>
       <r>  12.9621   0.0000  20.0000 </r>
       <r>  13.0181   0.0000  20.0000 </r>
       <r>  13.0741   0.0000  20.0000 </r>
       <r>  13.1302   0.0000  20.0000 </r>
       <r>  13.1862   0.0000  20.0000 </r>
      </set>
     </set>
    </array>
   </total>
  </dos>
 </calculation>
 <structure name="finalpos" >
  <crystal>
   <varray name="basis" >
    <v>       4.08707800       0.00000000       0.00000000 </v>
    <v>       0.00000000       4.08707800       0.00000000 </v>
    <v>       0.00000000       0.00000000       4.08707800 </v>
   </varray>
   <i name="volume">     68.27139521 </i>
   <varray name="rec_basis" >
    <v>       0.24467358       0.00000000       0.00000000 </v>
    <v>       0.00000000       0.24467358       0.00000000 </v>
    <v>       0.00000000       0.00000000       0.24467358 </v>
   </varray>
  </crystal>
  <varray name="positions" >
   <v>       0.00000000       0.00000000       0.00000000 </v>
   <v>       0.49755326       0.50000000       0.00000000 </v>
   <v>       0.00000000       0.50000000       0.50000000 </v>
   <v>       0.50000000       0.00000000       0.50000000 </v>
  </varray>
  <varray name="selective"  type="logical" >
   <v type="logical" >  F  F  F </v>
   <v type="logical" >  T  F  F </v>
   <v type="logical" >  F  F  F </v>
   <v type="logical" >  F  F  F </v>
  </varray>
  <nose>
   <v>      -3.00000000       0.00000000       0.00010000       0.00010000 </v>
  </nose>
 </structure>
</modeling>
