   8   8   0   0
  0.2226630E+02  0.5626600E-09  0.5626600E-09  0.5626600E-09  0.5000000E-15
  1.000000000000000E-004
  CAR 
 unknown system                          
     11.51520699    -13.70432567  301      2.73525436      1.00000000
    -13.704  0.0000E+00  0.0000E+00  0.0000E+00  0.0000E+00
    -13.620  0.0000E+00  0.0000E+00  0.0000E+00  0.0000E+00
    -13.536  0.0000E+00  0.0000E+00  0.0000E+00  0.0000E+00
    -13.452  0.0000E+00  0.0000E+00  0.0000E+00  0.0000E+00
    -13.368 -0.6891E-28 -0.7404E-28 -0.5793E-29 -0.6224E-29
    -13.284 -0.6026E-25 -0.6451E-25 -0.5071E-26 -0.5429E-26
    -13.200 -0.3676E-22 -0.3920E-22 -0.3095E-23 -0.3301E-23
    -13.116 -0.1570E-19 -0.1668E-19 -0.1323E-20 -0.1406E-20
    -13.032 -0.4693E-17 -0.4968E-17 -0.3958E-18 -0.4191E-18
    -12.948 -0.9817E-15 -0.1036E-14 -0.8292E-16 -0.8747E-16
    -12.864 -0.1397E-12 -0.1470E-12 -0.1182E-13 -0.1244E-13
    -12.780 -0.1419E-10 -0.1485E-10 -0.1204E-11 -0.1261E-11
    -12.696 -0.1007E-08 -0.1051E-08 -0.8587E-10 -0.8958E-10
    -12.611 -0.4981E-07 -0.5177E-07 -0.4273E-08 -0.4441E-08
    -12.527 -0.1713E-05 -0.1774E-05 -0.1483E-06 -0.1536E-06
    -12.443 -0.4090E-04 -0.4219E-04 -0.3587E-05 -0.3700E-05
    -12.359 -0.6757E-03 -0.6943E-03 -0.6039E-04 -0.6207E-04
    -12.275 -0.7695E-02 -0.7877E-02 -0.7073E-03 -0.7242E-03
    -12.191 -0.6002E-01 -0.6120E-01 -0.5753E-02 -0.5869E-02
    -12.107 -0.3167E+00 -0.3216E+00 -0.3238E-01 -0.3291E-01
    -12.023 -0.1096E+01 -0.1108E+01 -0.1245E+00 -0.1260E+00
    -11.939 -0.2224E+01 -0.2233E+01 -0.3115E+00 -0.3137E+00
    -11.855 -0.1027E+01 -0.9825E+00 -0.3979E+00 -0.3963E+00
    -11.771  0.9002E+01  0.9182E+01  0.3589E+00  0.3756E+00
    -11.687  0.3294E+02  0.3326E+02  0.3128E+01  0.3172E+01
    -11.603  0.6189E+02  0.6214E+02  0.8330E+01  0.8396E+01
    -11.519  0.7210E+02  0.7204E+02  0.1439E+02  0.1445E+02
    -11.435  0.5186E+02  0.5152E+02  0.1875E+02  0.1878E+02
    -11.351  0.2000E+02  0.1970E+02  0.2043E+02  0.2044E+02
    -11.266  0.6779E+00  0.5664E+00  0.2049E+02  0.2049E+02
    -11.182 -0.3379E+01 -0.3375E+01  0.2021E+02  0.2020E+02
    -11.098 -0.1829E+01 -0.1809E+01  0.2005E+02  0.2005E+02
    -11.014 -0.5115E+00 -0.5031E+00  0.2001E+02  0.2001E+02
    -10.930 -0.8934E-01 -0.8746E-01  0.2000E+02  0.2000E+02
    -10.846 -0.1032E-01 -0.1006E-01  0.2000E+02  0.2000E+02
    -10.762 -0.8071E-03 -0.7836E-03  0.2000E+02  0.2000E+02
    -10.678 -0.4336E-04 -0.4192E-04  0.2000E+02  0.2000E+02
    -10.594 -0.1611E-05 -0.1551E-05  0.2000E+02  0.2000E+02
    -10.510 -0.4157E-07 -0.3988E-07  0.2000E+02  0.2000E+02
    -10.426 -0.7477E-09 -0.7145E-09  0.2000E+02  0.2000E+02
    -10.342 -0.9390E-11 -0.8936E-11  0.2000E+02  0.2000E+02
    -10.258 -0.8452E-13 -0.7660E-13  0.2000E+02  0.2000E+02
    -10.174 -0.1208E-17 -0.1224E-17  0.2000E+02  0.2000E+02
    -10.090 -0.2560E-15 -0.2591E-15  0.2000E+02  0.2000E+02
    -10.005 -0.3656E-13 -0.3699E-13  0.2000E+02  0.2000E+02
     -9.921 -0.3782E-11 -0.3821E-11  0.2000E+02  0.2000E+02
     -9.837 -0.2708E-09 -0.2733E-09  0.2000E+02  0.2000E+02
     -9.753 -0.1347E-07 -0.1358E-07  0.2000E+02  0.2000E+02
     -9.669 -0.4640E-06 -0.4676E-06  0.2000E+02  0.2000E+02
     -9.585 -0.1102E-04 -0.1110E-04  0.2000E+02  0.2000E+02
     -9.501 -0.1794E-03 -0.1805E-03  0.2000E+02  0.2000E+02
     -9.417 -0.1977E-02 -0.1987E-02  0.2000E+02  0.2000E+02
     -9.333 -0.1448E-01 -0.1454E-01  0.2000E+02  0.2000E+02
     -9.249 -0.6764E-01 -0.6784E-01  0.1999E+02  0.1999E+02
     -9.165 -0.1810E+00 -0.1813E+00  0.1998E+02  0.1998E+02
     -9.081 -0.1549E+00 -0.1543E+00  0.1996E+02  0.1996E+02
     -8.997  0.6153E+00  0.6184E+00  0.2002E+02  0.2002E+02
     -8.913  0.2412E+01  0.2417E+01  0.2022E+02  0.2022E+02
     -8.829  0.3991E+01  0.3993E+01  0.2055E+02  0.2056E+02
     -8.744  0.3653E+01  0.3650E+01  0.2086E+02  0.2086E+02
     -8.660  0.1790E+01  0.1786E+01  0.2101E+02  0.2101E+02
     -8.576  0.2588E+00  0.2566E+00  0.2103E+02  0.2103E+02
     -8.492 -0.2082E+00 -0.2084E+00  0.2102E+02  0.2102E+02
     -8.408 -0.1437E+00 -0.1434E+00  0.2100E+02  0.2100E+02
     -8.324 -0.4429E-01 -0.4414E-01  0.2100E+02  0.2100E+02
     -8.240 -0.8202E-02 -0.8166E-02  0.2100E+02  0.2100E+02
     -8.156 -0.1055E-02 -0.1050E-02  0.2100E+02  0.2100E+02
     -8.072 -0.1127E-02 -0.1131E-02  0.2100E+02  0.2100E+02
     -7.988 -0.1041E-01 -0.1045E-01  0.2100E+02  0.2100E+02
     -7.904 -0.6809E-01 -0.6829E-01  0.2099E+02  0.2099E+02
     -7.820 -0.2792E+00 -0.2798E+00  0.2097E+02  0.2097E+02
     -7.736 -0.6177E+00 -0.6180E+00  0.2092E+02  0.2092E+02
     -7.652 -0.1622E+00 -0.1595E+00  0.2090E+02  0.2090E+02
     -7.568  0.3018E+01  0.3026E+01  0.2116E+02  0.2116E+02
     -7.484  0.8794E+01  0.8804E+01  0.2190E+02  0.2190E+02
     -7.399  0.1236E+02  0.1236E+02  0.2294E+02  0.2294E+02
     -7.315  0.9719E+01  0.9709E+01  0.2375E+02  0.2375E+02
     -7.231  0.3883E+01  0.3874E+01  0.2408E+02  0.2408E+02
     -7.147  0.1330E+00  0.1293E+00  0.2409E+02  0.2409E+02
     -7.063 -0.6432E+00 -0.6431E+00  0.2404E+02  0.2404E+02
     -6.979 -0.3356E+00 -0.3350E+00  0.2401E+02  0.2401E+02
     -6.895 -0.8934E-01 -0.8909E-01  0.2400E+02  0.2400E+02
     -6.811 -0.1470E-01 -0.1464E-01  0.2400E+02  0.2400E+02
     -6.727 -0.1585E-02 -0.1578E-02  0.2400E+02  0.2400E+02
     -6.643 -0.1149E-03 -0.1143E-03  0.2400E+02  0.2400E+02
     -6.559 -0.5686E-05 -0.5653E-05  0.2400E+02  0.2400E+02
     -6.475 -0.1935E-06 -0.1923E-06  0.2400E+02  0.2400E+02
     -6.391 -0.4553E-08 -0.4521E-08  0.2400E+02  0.2400E+02
     -6.307 -0.7435E-10 -0.7378E-10  0.2400E+02  0.2400E+02
     -6.223 -0.8399E-12 -0.8320E-12  0.2400E+02  0.2400E+02
     -6.138 -0.7924E-14 -0.7924E-14  0.2400E+02  0.2400E+02
     -6.054  0.0000E+00  0.0000E+00  0.2400E+02  0.2400E+02
     -5.970  0.0000E+00  0.0000E+00  0.2400E+02  0.2400E+02
     -5.886  0.0000E+00  0.0000E+00  0.2400E+02  0.2400E+02
     -5.802  0.0000E+00  0.0000E+00  0.2400E+02  0.2400E+02
     -5.718  0.0000E+00  0.0000E+00  0.2400E+02  0.2400E+02
     -5.634  0.0000E+00  0.0000E+00  0.2400E+02  0.2400E+02
     -5.550  0.0000E+00  0.0000E+00  0.2400E+02  0.2400E+02
     -5.466  0.0000E+00  0.0000E+00  0.2400E+02  0.2400E+02
     -5.382  0.0000E+00  0.0000E+00  0.2400E+02  0.2400E+02
     -5.298  0.0000E+00  0.0000E+00  0.2400E+02  0.2400E+02
     -5.214  0.0000E+00  0.0000E+00  0.2400E+02  0.2400E+02
     -5.130  0.0000E+00  0.0000E+00  0.2400E+02  0.2400E+02
     -5.046  0.0000E+00  0.0000E+00  0.2400E+02  0.2400E+02
     -4.962  0.0000E+00  0.0000E+00  0.2400E+02  0.2400E+02
     -4.877  0.0000E+00  0.0000E+00  0.2400E+02  0.2400E+02
     -4.793  0.0000E+00  0.0000E+00  0.2400E+02  0.2400E+02
     -4.709 -0.8791E-27 -0.9008E-27  0.2400E+02  0.2400E+02
     -4.625 -0.6694E-24 -0.6850E-24  0.2400E+02  0.2400E+02
     -4.541 -0.3572E-21 -0.3651E-21  0.2400E+02  0.2400E+02
     -4.457 -0.1334E-18 -0.1362E-18  0.2400E+02  0.2400E+02
     -4.373 -0.3484E-16 -0.3552E-16  0.2400E+02  0.2400E+02
     -4.289 -0.6363E-14 -0.6478E-14  0.2400E+02  0.2400E+02
     -4.205 -0.7857E-12 -0.7994E-12  0.2400E+02  0.2400E+02
     -4.121 -0.6961E-10 -0.7069E-10  0.2400E+02  0.2400E+02
     -4.037 -0.4287E-08 -0.4347E-08  0.2400E+02  0.2400E+02
     -3.953 -0.1832E-06 -0.1856E-06  0.2400E+02  0.2400E+02
     -3.869 -0.5414E-05 -0.5477E-05  0.2400E+02  0.2400E+02
     -3.785 -0.1101E-03 -0.1112E-03  0.2400E+02  0.2400E+02
     -3.701 -0.1527E-02 -0.1540E-02  0.2400E+02  0.2400E+02
     -3.617 -0.1425E-01 -0.1435E-01  0.2400E+02  0.2400E+02
     -3.532 -0.8720E-01 -0.8770E-01  0.2399E+02  0.2399E+02
     -3.448 -0.3303E+00 -0.3315E+00  0.2396E+02  0.2396E+02
     -3.364 -0.6419E+00 -0.6422E+00  0.2391E+02  0.2391E+02
     -3.280  0.1024E+00  0.1095E+00  0.2392E+02  0.2392E+02
     -3.196  0.3801E+01  0.3820E+01  0.2424E+02  0.2424E+02
     -3.112  0.9638E+01  0.9657E+01  0.2505E+02  0.2505E+02
     -3.028  0.1237E+02  0.1237E+02  0.2609E+02  0.2609E+02
     -2.944  0.8881E+01  0.8861E+01  0.2683E+02  0.2684E+02
     -2.860  0.3093E+01  0.3075E+01  0.2709E+02  0.2709E+02
     -2.776 -0.1388E+00 -0.1443E+00  0.2708E+02  0.2708E+02
     -2.692 -0.6209E+00 -0.6201E+00  0.2703E+02  0.2703E+02
     -2.608 -0.2842E+00 -0.2830E+00  0.2701E+02  0.2701E+02
     -2.524 -0.6983E-01 -0.6942E-01  0.2700E+02  0.2700E+02
     -2.440 -0.1074E-01 -0.1066E-01  0.2700E+02  0.2700E+02
     -2.356 -0.1089E-02 -0.1079E-02  0.2700E+02  0.2700E+02
     -2.271 -0.7445E-04 -0.7368E-04  0.2700E+02  0.2700E+02
     -2.187 -0.3477E-05 -0.3437E-05  0.2700E+02  0.2700E+02
     -2.103 -0.1118E-06 -0.1104E-06  0.2700E+02  0.2700E+02
     -2.019 -0.2489E-08 -0.2453E-08  0.2700E+02  0.2700E+02
     -1.935 -0.8545E-10 -0.8551E-10  0.2700E+02  0.2700E+02
     -1.851 -0.2726E-08 -0.2761E-08  0.2700E+02  0.2700E+02
     -1.767 -0.1096E-06 -0.1109E-06  0.2700E+02  0.2700E+02
     -1.683 -0.3047E-05 -0.3079E-05  0.2700E+02  0.2700E+02
     -1.599 -0.5819E-04 -0.5873E-04  0.2700E+02  0.2700E+02
     -1.515 -0.7569E-03 -0.7628E-03  0.2700E+02  0.2700E+02
     -1.431 -0.6603E-02 -0.6646E-02  0.2700E+02  0.2700E+02
     -1.347 -0.3753E-01 -0.3772E-01  0.2700E+02  0.2700E+02
     -1.263 -0.1299E+00 -0.1303E+00  0.2699E+02  0.2699E+02
     -1.179 -0.2144E+00 -0.2143E+00  0.2697E+02  0.2697E+02
     -1.095  0.1576E+00  0.1604E+00  0.2698E+02  0.2698E+02
     -1.010  0.1573E+01  0.1579E+01  0.2711E+02  0.2711E+02
     -0.926  0.3488E+01  0.3494E+01  0.2741E+02  0.2741E+02
     -0.842  0.4066E+01  0.4064E+01  0.2775E+02  0.2775E+02
     -0.758  0.2638E+01  0.2631E+01  0.2797E+02  0.2797E+02
     -0.674  0.7714E+00  0.7665E+00  0.2803E+02  0.2803E+02
     -0.590 -0.1313E+00 -0.1327E+00  0.2802E+02  0.2802E+02
     -0.506 -0.2708E+00 -0.2711E+00  0.2800E+02  0.2800E+02
     -0.422 -0.3841E+00 -0.3853E+00  0.2797E+02  0.2797E+02
     -0.338 -0.6507E+00 -0.6512E+00  0.2791E+02  0.2791E+02
     -0.254 -0.3067E-01 -0.2282E-01  0.2791E+02  0.2791E+02
     -0.170  0.3432E+01  0.3455E+01  0.2820E+02  0.2820E+02
     -0.086  0.9257E+01  0.9282E+01  0.2898E+02  0.2898E+02
     -0.002  0.1239E+02  0.1239E+02  0.3002E+02  0.3002E+02
      0.082  0.9275E+01  0.9250E+01  0.3080E+02  0.3080E+02
      0.166  0.3448E+01  0.3425E+01  0.3109E+02  0.3109E+02
      0.250 -0.2261E-01 -0.3042E-01  0.3109E+02  0.3109E+02
      0.335 -0.6335E+00 -0.6328E+00  0.3103E+02  0.3103E+02
      0.419 -0.3073E+00 -0.3058E+00  0.3101E+02  0.3101E+02
      0.503 -0.7871E-01 -0.7815E-01  0.3100E+02  0.3100E+02
      0.587 -0.1691E-01 -0.1683E-01  0.3100E+02  0.3100E+02
      0.671 -0.3589E-01 -0.3613E-01  0.3100E+02  0.3100E+02
      0.755 -0.1718E+00 -0.1727E+00  0.3098E+02  0.3098E+02
      0.839 -0.4988E+00 -0.5003E+00  0.3094E+02  0.3094E+02
      0.923 -0.5522E+00 -0.5500E+00  0.3089E+02  0.3089E+02
      1.007  0.1367E+01  0.1381E+01  0.3101E+02  0.3101E+02
      1.091  0.6469E+01  0.6493E+01  0.3155E+02  0.3156E+02
      1.175  0.1163E+02  0.1164E+02  0.3253E+02  0.3253E+02
      1.259  0.1144E+02  0.1143E+02  0.3349E+02  0.3349E+02
      1.343  0.6127E+01  0.6103E+01  0.3401E+02  0.3401E+02
      1.427  0.1172E+01  0.1159E+01  0.3411E+02  0.3411E+02
      1.511 -0.5809E+00 -0.5826E+00  0.3406E+02  0.3406E+02
      1.596 -0.4782E+00 -0.4768E+00  0.3402E+02  0.3402E+02
      1.680 -0.1589E+00 -0.1580E+00  0.3400E+02  0.3400E+02
      1.764 -0.3119E-01 -0.3097E-01  0.3400E+02  0.3400E+02
      1.848 -0.3997E-02 -0.3962E-02  0.3400E+02  0.3400E+02
      1.932 -0.1082E-02 -0.1084E-02  0.3400E+02  0.3400E+02
      2.016 -0.7368E-02 -0.7414E-02  0.3400E+02  0.3400E+02
      2.100 -0.4751E-01 -0.4775E-01  0.3400E+02  0.3400E+02
      2.184 -0.1921E+00 -0.1928E+00  0.3398E+02  0.3398E+02
      2.268 -0.4156E+00 -0.4160E+00  0.3394E+02  0.3394E+02
      2.352 -0.7964E-01 -0.7639E-01  0.3394E+02  0.3394E+02
      2.436  0.2103E+01  0.2113E+01  0.3411E+02  0.3412E+02
      2.520  0.5967E+01  0.5979E+01  0.3462E+02  0.3462E+02
      2.604  0.8252E+01  0.8252E+01  0.3531E+02  0.3531E+02
      2.688  0.6381E+01  0.6371E+01  0.3585E+02  0.3585E+02
      2.772  0.2490E+01  0.2479E+01  0.3606E+02  0.3606E+02
      2.857  0.5226E-01  0.4833E-01  0.3606E+02  0.3606E+02
      2.941 -0.4271E+00 -0.4269E+00  0.3602E+02  0.3602E+02
      3.025 -0.2173E+00 -0.2166E+00  0.3601E+02  0.3601E+02
      3.109 -0.5701E-01 -0.5673E-01  0.3600E+02  0.3600E+02
      3.193 -0.9264E-02 -0.9207E-02  0.3600E+02  0.3600E+02
      3.277 -0.9877E-03 -0.9803E-03  0.3600E+02  0.3600E+02
      3.361 -0.7087E-04 -0.7026E-04  0.3600E+02  0.3600E+02
      3.445 -0.3470E-05 -0.3436E-05  0.3600E+02  0.3600E+02
      3.529 -0.1169E-06 -0.1156E-06  0.3600E+02  0.3600E+02
      3.613 -0.2722E-08 -0.2690E-08  0.3600E+02  0.3600E+02
      3.697 -0.5143E-10 -0.5097E-10  0.3600E+02  0.3600E+02
      3.781 -0.5030E-09 -0.5103E-09  0.3600E+02  0.3600E+02
      3.865 -0.2364E-07 -0.2395E-07  0.3600E+02  0.3600E+02
      3.949 -0.7700E-06 -0.7790E-06  0.3600E+02  0.3600E+02
      4.033 -0.1728E-04 -0.1746E-04  0.3600E+02  0.3600E+02
      4.117 -0.2652E-03 -0.2676E-03  0.3600E+02  0.3600E+02
      4.202 -0.2751E-02 -0.2772E-02  0.3600E+02  0.3600E+02
      4.286 -0.1887E-01 -0.1899E-01  0.3600E+02  0.3600E+02
      4.370 -0.8182E-01 -0.8217E-01  0.3599E+02  0.3599E+02
      4.454 -0.1968E+00 -0.1971E+00  0.3597E+02  0.3597E+02
      4.538 -0.1035E+00 -0.1021E+00  0.3597E+02  0.3597E+02
      4.622  0.8330E+00  0.8384E+00  0.3604E+02  0.3604E+02
      4.706  0.2718E+01  0.2725E+01  0.3626E+02  0.3627E+02
      4.790  0.4085E+01  0.4087E+01  0.3661E+02  0.3661E+02
      4.874  0.3418E+01  0.3412E+01  0.3690E+02  0.3690E+02
      4.958  0.1452E+01  0.1445E+01  0.3702E+02  0.3702E+02
      5.042 -0.8074E-01 -0.8494E-01  0.3701E+02  0.3701E+02
      5.126 -0.7615E+00 -0.7633E+00  0.3695E+02  0.3695E+02
      5.210 -0.5818E+00 -0.5769E+00  0.3690E+02  0.3690E+02
      5.294  0.1848E+01  0.1870E+01  0.3705E+02  0.3705E+02
      5.378  0.7288E+01  0.7319E+01  0.3767E+02  0.3767E+02
      5.463  0.1200E+02  0.1201E+02  0.3867E+02  0.3868E+02
      5.547  0.1092E+02  0.1090E+02  0.3959E+02  0.3960E+02
      5.631  0.5316E+01  0.5285E+01  0.4004E+02  0.4004E+02
      5.715  0.7494E+00  0.7344E+00  0.4010E+02  0.4010E+02
      5.799 -0.6270E+00 -0.6282E+00  0.4005E+02  0.4005E+02
      5.883 -0.4277E+00 -0.4258E+00  0.4001E+02  0.4001E+02
      5.967 -0.1311E+00 -0.1301E+00  0.4000E+02  0.4000E+02
      6.051 -0.2416E-01 -0.2392E-01  0.4000E+02  0.4000E+02
      6.135 -0.2889E-02 -0.2854E-02  0.4000E+02  0.4000E+02
      6.219 -0.2312E-03 -0.2279E-03  0.4000E+02  0.4000E+02
      6.303 -0.1259E-04 -0.1238E-04  0.4000E+02  0.4000E+02
      6.387 -0.4705E-06 -0.4620E-06  0.4000E+02  0.4000E+02
      6.471 -0.1215E-07 -0.1191E-07  0.4000E+02  0.4000E+02
      6.555 -0.2175E-09 -0.2127E-09  0.4000E+02  0.4000E+02
      6.639 -0.2719E-11 -0.2656E-11  0.4000E+02  0.4000E+02
      6.723 -0.1042E-11 -0.1073E-11  0.4000E+02  0.4000E+02
      6.808 -0.8556E-10 -0.8803E-10  0.4000E+02  0.4000E+02
      6.892 -0.5003E-08 -0.5134E-08  0.4000E+02  0.4000E+02
      6.976 -0.2030E-06 -0.2078E-06  0.4000E+02  0.4000E+02
      7.060 -0.5693E-05 -0.5814E-05  0.4000E+02  0.4000E+02
      7.144 -0.1098E-03 -0.1119E-03  0.4000E+02  0.4000E+02
      7.228 -0.1447E-02 -0.1470E-02  0.4000E+02  0.4000E+02
      7.312 -0.1285E-01 -0.1302E-01  0.4000E+02  0.4000E+02
      7.396 -0.7517E-01 -0.7594E-01  0.3999E+02  0.3999E+02
      7.480 -0.2764E+00 -0.2782E+00  0.3997E+02  0.3997E+02
      7.564 -0.5523E+00 -0.5527E+00  0.3992E+02  0.3992E+02
      7.648 -0.1320E+00 -0.1224E+00  0.3991E+02  0.3991E+02
      7.732  0.2425E+01  0.2451E+01  0.4012E+02  0.4012E+02
      7.816  0.7526E+01  0.7558E+01  0.4075E+02  0.4075E+02
      7.900  0.1320E+02  0.1321E+02  0.4186E+02  0.4186E+02
      7.984  0.1608E+02  0.1607E+02  0.4321E+02  0.4322E+02
      8.069  0.1371E+02  0.1368E+02  0.4436E+02  0.4437E+02
      8.153  0.7354E+01  0.7326E+01  0.4498E+02  0.4498E+02
      8.237  0.1685E+01  0.1671E+01  0.4512E+02  0.4512E+02
      8.321 -0.5749E+00 -0.5771E+00  0.4507E+02  0.4507E+02
      8.405 -0.5980E+00 -0.5964E+00  0.4502E+02  0.4502E+02
      8.489 -0.2232E+00 -0.2221E+00  0.4500E+02  0.4500E+02
      8.573 -0.4845E-01 -0.4813E-01  0.4500E+02  0.4500E+02
      8.657 -0.7072E-02 -0.7019E-02  0.4500E+02  0.4500E+02
      8.741 -0.3997E-02 -0.3999E-02  0.4500E+02  0.4500E+02
      8.825 -0.2229E-01 -0.2233E-01  0.4500E+02  0.4500E+02
      8.909 -0.9250E-01 -0.9262E-01  0.4499E+02  0.4499E+02
      8.993 -0.2123E+00 -0.2124E+00  0.4497E+02  0.4497E+02
      9.077 -0.1017E+00 -0.1016E+00  0.4496E+02  0.4496E+02
      9.161  0.8466E+00  0.8477E+00  0.4503E+02  0.4503E+02
      9.245  0.2693E+01  0.2695E+01  0.4526E+02  0.4526E+02
      9.330  0.4326E+01  0.4331E+01  0.4562E+02  0.4563E+02
      9.414  0.4947E+01  0.4956E+01  0.4604E+02  0.4604E+02
      9.498  0.4894E+01  0.4901E+01  0.4645E+02  0.4645E+02
      9.582  0.4085E+01  0.4080E+01  0.4680E+02  0.4680E+02
      9.666  0.2308E+01  0.2297E+01  0.4699E+02  0.4699E+02
      9.750  0.5769E+00  0.5689E+00  0.4704E+02  0.4704E+02
      9.834 -0.1690E+00 -0.1708E+00  0.4702E+02  0.4702E+02
      9.918 -0.1921E+00 -0.1914E+00  0.4701E+02  0.4701E+02
     10.002 -0.7308E-01 -0.7255E-01  0.4700E+02  0.4700E+02
     10.086 -0.1598E-01 -0.1582E-01  0.4700E+02  0.4700E+02
     10.170 -0.2231E-02 -0.2203E-02  0.4700E+02  0.4700E+02
     10.254 -0.2067E-03 -0.2037E-03  0.4700E+02  0.4700E+02
     10.338 -0.1297E-04 -0.1275E-04  0.4700E+02  0.4700E+02
     10.422 -0.5572E-06 -0.5465E-06  0.4700E+02  0.4700E+02
     10.506 -0.1650E-07 -0.1615E-07  0.4700E+02  0.4700E+02
     10.590 -0.3385E-09 -0.3306E-09  0.4700E+02  0.4700E+02
     10.675 -0.4823E-11 -0.4699E-11  0.4700E+02  0.4700E+02
     10.759 -0.4754E-13 -0.4754E-13  0.4700E+02  0.4700E+02
     10.843  0.0000E+00  0.0000E+00  0.4700E+02  0.4700E+02
     10.927  0.0000E+00  0.0000E+00  0.4700E+02  0.4700E+02
     11.011  0.0000E+00  0.0000E+00  0.4700E+02  0.4700E+02
     11.095  0.0000E+00  0.0000E+00  0.4700E+02  0.4700E+02
     11.179  0.0000E+00  0.0000E+00  0.4700E+02  0.4700E+02
     11.263  0.0000E+00  0.0000E+00  0.4700E+02  0.4700E+02
     11.347  0.0000E+00  0.0000E+00  0.4700E+02  0.4700E+02
     11.431  0.0000E+00  0.0000E+00  0.4700E+02  0.4700E+02
     11.515  0.0000E+00  0.0000E+00  0.4700E+02  0.4700E+02
