    8    8    1    2
  0.2226630E+02  0.5626600E-09  0.5626600E-09  0.5626600E-09  0.5000000E-15
  1.000000000000000E-004
  CAR 
 unknown system                          
   72    1   47
 
  0.2500000E+00  0.2500000E+00  0.2500000E+00  0.1000000E+01
   1      -11.703456    -11.704326
   2      -11.703456    -11.704326
   3      -11.703456    -11.704326
   4      -11.654036    -11.654922
   5      -11.597927    -11.598836
   6      -11.597927    -11.598836
   7      -11.578432    -11.579343
   8      -11.578432    -11.579343
   9      -11.578432    -11.579343
  10      -11.572815    -11.573727
  11      -11.572815    -11.573727
  12      -11.572815    -11.573727
  13      -11.540354    -11.541263
  14      -11.540354    -11.541263
  15      -11.540354    -11.541263
  16      -11.528555    -11.529463
  17      -11.528555    -11.529463
  18      -11.521520    -11.522429
  19      -11.521519    -11.522429
  20      -11.521519    -11.522429
  21       -8.841513     -8.841708
  22       -7.434418     -7.434569
  23       -7.434418     -7.434569
  24       -7.434418     -7.434569
  25       -3.075859     -3.076160
  26       -3.075859     -3.076160
  27       -3.075859     -3.076160
  28       -0.904059     -0.904337
  29       -0.043613     -0.043987
  30       -0.043613     -0.043987
  31       -0.043613     -0.043987
  32        1.172836      1.172503
  33        1.172836      1.172503
  34        1.172836      1.172503
  35        2.567007      2.566749
  36        2.567007      2.566749
  37        4.764234      4.763936
  38        5.448769      5.448330
  39        5.448769      5.448330
  40        5.448769      5.448330
  41        7.840582      7.840020
  42        7.840582      7.840020
  43        8.002124      8.001813
  44        8.002124      8.001813
  45        8.002124      8.001813
  46        9.295691      9.295599
  47        9.515207      9.514720
