       N       E                     dE             d eps       ncg     rms          rms(c)
DAV:   1     0.675513395655E+04    0.67551E+04   -0.11746E+05   872   0.254E+03
DAV:   2     0.233731357302E+04   -0.44178E+04   -0.40045E+04   968   0.772E+02
DAV:   3     0.669908177869E+03   -0.16674E+04   -0.14999E+04  1040   0.417E+02
DAV:   4    -0.104281984658E+03   -0.77419E+03   -0.70095E+03  1360   0.229E+02
DAV:   5    -0.364488992130E+03   -0.26021E+03   -0.25364E+03  1376   0.130E+02    0.478E+01
DAV:   6    -0.331051817586E+03    0.33437E+02   -0.29519E+02  1240   0.586E+01    0.143E+01
DAV:   7    -0.339422444216E+03   -0.83706E+01   -0.86834E+01  1512   0.267E+01    0.116E+01
DAV:   8    -0.339258286174E+03    0.16416E+00   -0.13653E+01  1592   0.127E+01    0.519E+00
DAV:   9    -0.339527309485E+03   -0.26902E+00   -0.35576E+00  1592   0.626E+00    0.192E+00
DAV:  10    -0.339516164905E+03    0.11145E-01   -0.66658E-01  1656   0.339E+00    0.900E-01
DAV:  11    -0.339528418556E+03   -0.12254E-01   -0.29495E-01  1616   0.170E+00    0.662E-01
DAV:  12    -0.339529136573E+03   -0.71802E-03   -0.63845E-02  1600   0.116E+00    0.325E-01
DAV:  13    -0.339530812883E+03   -0.16763E-02   -0.35334E-02  1592   0.683E-01    0.203E-01
DAV:  14    -0.339529350414E+03    0.14625E-02   -0.12913E-02  1584   0.452E-01    0.102E-01
DAV:  15    -0.339529332557E+03    0.17857E-04   -0.19144E-03  1448   0.192E-01    0.702E-02
DAV:  16    -0.339529306088E+03    0.26469E-04   -0.11516E-03  1272   0.119E-01    0.223E-02
DAV:  17    -0.339529307525E+03   -0.14371E-05   -0.10776E-04   736   0.784E-02
   1 F= -.33952931E+03 E0= -.33952931E+03  d E =-.339529E+03  mag=    -0.0002
       N       E                     dE             d eps       ncg     rms          rms(c)
DAV:   1    -0.339528350255E+03   -0.33953E+03   -0.11125E-01  1024   0.126E+00    0.727E-02
DAV:   2    -0.339529771302E+03   -0.14210E-02   -0.15630E-02  1472   0.590E-01    0.320E-02
DAV:   3    -0.339529797293E+03   -0.25991E-04   -0.48756E-04   952   0.969E-02
   2 F= -.33952980E+03 E0= -.33952980E+03  d E =-.489768E-03  mag=     0.0000
       N       E                     dE             d eps       ncg     rms          rms(c)
DAV:   1    -0.339529762908E+03   -0.33953E+03   -0.12654E-02  1120   0.420E-01    0.199E-02
DAV:   2    -0.339529916608E+03   -0.15370E-03   -0.16811E-03  1296   0.203E-01    0.155E-02
DAV:   3    -0.339529918472E+03   -0.18633E-05   -0.62116E-05   688   0.583E-02
   3 F= -.33952992E+03 E0= -.33952992E+03  d E =-.610946E-03  mag=     0.0000
