    3    3  191    1
  0.1535906E+02  0.3585051E-09  0.3585051E-09  0.3585051E-09  0.5000000E-15
  1.000000000000000E-004
  CAR 
 unknown system                          
   24    1   16
 
  0.0000000E+00  0.0000000E+00  0.0000000E+00  0.1000000E+01
   1       -3.647318
   2        0.069578
   3        1.458258
   4        1.458259
   5        1.458259
   6        1.751862
   7        1.751863
   8        4.504131
   9        4.504131
  10        4.504132
  11        4.867523
  12        4.867524
  13        5.584699
  14        5.584700
  15        5.584700
  16        5.674756
