Processors received = 1
script running on host compute-0-0.local
PBS_NODEFILE
compute-0-0
 running on    1 nodes
 each image running on    1 nodes
 distr:  one band on    1 nodes,    1 groups
 vasp.5.2.2 15Apr09 complex 
 POSCAR found type information on POSCAR  Al
 01/POSCAR found :  1 types and   31 ions

 ----------------------------------------------------------------------------- 
|                                                                             |
|  ADVICE TO THIS USER RUNNING 'VASP/VAMP'   (HEAR YOUR MASTER'S VOICE ...):  |
|                                                                             |
|      You have a (more or less) 'large supercell' and for larger cells       |
|      it might be more efficient to use real space projection operators      |
|      So try LREAL= Auto  in the INCAR   file.                               |
|      Mind: If you want to do a very accurate calculations keep the          |
|      reciprocal projection scheme          (i.e. LREAL=.FALSE.)             |
|                                                                             |
 ----------------------------------------------------------------------------- 

 LDA part: xc-table for Pade appr. of Perdew
 POSCAR found type information on POSCAR  Al
 00/POSCAR found :  1 types and   31 ions
 POSCAR found type information on POSCAR  Al
 02/POSCAR found :  1 types and   31 ions
 POSCAR, INCAR and KPOINTS ok, starting setup
 FFT: planning ...(           4 )
 reading WAVECAR
 entering main loop
       N       E                     dE             d eps       ncg     rms          rms(c)
RMM:   1     0.311509835223E+03    0.31151E+03   -0.17053E+04    62   0.648E+02
RMM:   2    -0.323500076739E+01   -0.31474E+03   -0.30859E+03    62   0.138E+02
RMM:   3    -0.672673301430E+02   -0.64032E+02   -0.68158E+02    62   0.456E+01
RMM:   4    -0.846641927863E+02   -0.17397E+02   -0.16273E+02    62   0.261E+01
RMM:   5    -0.922021193194E+02   -0.75379E+01   -0.60901E+01    62   0.144E+01
RMM:   6    -0.956737405189E+02   -0.34716E+01   -0.29453E+01    62   0.904E+00
RMM:   7    -0.975635184247E+02   -0.18898E+01   -0.16623E+01    62   0.612E+00
RMM:   8    -0.986006126268E+02   -0.10371E+01   -0.95492E+00    62   0.426E+00
RMM:   9    -0.998274321160E+02   -0.12268E+01   -0.11850E+01   153   0.310E+00
RMM:  10    -0.999870998739E+02   -0.15967E+00   -0.14746E+00   143   0.598E-01
RMM:  11    -0.100004806082E+03   -0.17706E-01   -0.10333E-01   107   0.127E-01
RMM:  12    -0.100005389002E+03   -0.58292E-03   -0.44043E-03    91   0.344E-02    0.662E+00
RMM:  13    -0.991199302502E+02    0.88546E+00   -0.13174E+00   127   0.177E+00    0.401E+00
RMM:  14    -0.987639571292E+02    0.35597E+00   -0.47850E-01   125   0.133E+00    0.148E+00
RMM:  15    -0.987142003253E+02    0.49757E-01   -0.10460E-01   130   0.602E-01    0.335E-01
RMM:  16    -0.987096289795E+02    0.45713E-02   -0.11868E-02   130   0.197E-01    0.124E-01
RMM:  17    -0.987090372535E+02    0.59173E-03   -0.25809E-03   131   0.871E-02    0.449E-02
RMM:  18    -0.987090026384E+02    0.34615E-04   -0.36538E-04    95   0.340E-02
   1 F= -.98709003E+02 E0= -.98700506E+02  d E =-.987090E+02
 BRION: g(F)=  0.464E+00 g(S)=  0.000E+00
 bond charge predicted
       N       E                     dE             d eps       ncg     rms          rms(c)
RMM:   1    -0.991111332629E+02   -0.40210E+00   -0.36752E+00   124   0.513E+00    0.549E-01
RMM:   2    -0.990850877437E+02    0.26046E-01   -0.10953E-01   131   0.729E-01    0.231E-01
RMM:   3    -0.990813566106E+02    0.37311E-02   -0.20393E-02   129   0.240E-01    0.100E-01
RMM:   4    -0.990810656222E+02    0.29099E-03   -0.21122E-03   129   0.760E-02    0.530E-02
RMM:   5    -0.990810574289E+02    0.81933E-05   -0.64182E-04   110   0.359E-02
   2 F= -.99081057E+02 E0= -.99070892E+02  d E =-.372055E+00
 BRION: g(F)=  0.182E+00 g(S)=  0.000E+00 retain N=  1 mean eig= 2.23
 eig:   2.228
 bond charge predicted
       N       E                     dE             d eps       ncg     rms          rms(c)
RMM:   1    -0.993942475441E+02   -0.31318E+00   -0.66737E+00   124   0.704E+00    0.741E-01
RMM:   2    -0.993484848267E+02    0.45763E-01   -0.22925E-01   130   0.100E+00    0.335E-01
RMM:   3    -0.993406664869E+02    0.78183E-02   -0.46507E-02   129   0.338E-01    0.149E-01
RMM:   4    -0.993400523096E+02    0.61418E-03   -0.37281E-03   129   0.106E-01    0.813E-02
RMM:   5    -0.993400554328E+02   -0.31232E-05   -0.16678E-03   117   0.551E-02    0.399E-02
RMM:   6    -0.993400265030E+02    0.28930E-04   -0.61123E-04   103   0.334E-02
   3 F= -.99340027E+02 E0= -.99323839E+02  d E =-.258969E+00
 BRION: g(F)=  0.359E-01 g(S)=  0.000E+00 retain N=  1 mean eig= 2.53
 eig:   2.533
 bond charge predicted
       N       E                     dE             d eps       ncg     rms          rms(c)
RMM:   1    -0.993871404722E+02   -0.47085E-01   -0.47496E-01   124   0.196E+00    0.207E-01
RMM:   2    -0.993835774136E+02    0.35631E-02   -0.21023E-02   128   0.281E-01    0.949E-02
RMM:   3    -0.993829542015E+02    0.62321E-03   -0.36688E-03   122   0.903E-02    0.458E-02
RMM:   4    -0.993829275327E+02    0.26669E-04   -0.37463E-04    90   0.312E-02
   4 F= -.99382928E+02 E0= -.99367386E+02  d E =-.429010E-01
 BRION: g(F)=  0.198E-01 g(S)=  0.000E+00 retain N=  2 mean eig= 3.91
 eig:   3.906  3.906
 reached required accuracy - stopping structural energy minimisation
