<?xml version="1.0" encoding="ISO-8859-1"?>
<modeling>
 <generator>
  <i name="program" type="string">vasp </i>
  <i name="version" type="string">5.2.2  </i>
  <i name="subversion" type="string">15Apr09 complex  parallel </i>
  <i name="platform" type="string">LinuxIFC </i>
  <i name="date" type="string">2014 04 24 </i>
  <i name="time" type="string">10:24:10 </i>
 </generator>
 <incar>
  <i type="string" name="PREC">accurate</i>
  <i type="int" name="IALGO">    48</i>
  <i type="int" name="IBRION">     1</i>
  <i name="EDIFFG">      0.05000000</i>
  <i type="int" name="NSW">   191</i>
  <i type="int" name="ISIF">     2</i>
  <i name="ENCUT">    300.00000000</i>
  <i name="POTIM">      0.50000000</i>
  <i name="NELECT">     93.00000000</i>
  <i type="int" name="ISMEAR">     1</i>
  <i name="SIGMA">      0.20000000</i>
  <i type="logical" name="LWAVE"> F  </i>
  <i type="logical" name="LCHARG"> F  </i>
  <i type="logical" name="LPEAD"> F  </i>
  <i type="logical" name="LCALCPOL"> F  </i>
  <i type="logical" name="LCALCEPS"> F  </i>
  <v name="EFIELD_PEAD">      0.00000000      0.00000000      0.00000000</v>
  <i type="logical" name="LEFG"> F  </i>
 </incar>
 <kpoints>
  <generation param="Gamma">
   <v type="int" name="divisions">       1        1        1 </v>
   <v name="usershift">      0.00000000       0.00000000       0.00000000 </v>
   <v name="genvec1">      1.00000000       0.00000000       0.00000000 </v>
   <v name="genvec2">      0.00000000       1.00000000       0.00000000 </v>
   <v name="genvec3">      0.00000000       0.00000000       1.00000000 </v>
   <v name="shift">      0.00000000       0.00000000       0.00000000 </v>
  </generation>
  <varray name="kpointlist" >
   <v>       0.00000000       0.00000000       0.00000000 </v>
  </varray>
  <varray name="weights" >
   <v>       1.00000000 </v>
  </varray>
 </kpoints>
 <parameters>
  <separator name="general" >
   <i type="string" name="SYSTEM">unknown system</i>
   <i type="logical" name="LCOMPAT"> F  </i>
  </separator>
  <separator name="electronic" >
   <i type="string" name="PREC">accura</i>
   <i name="ENMAX">    300.00000000</i>
   <i name="ENAUG">    291.05200000</i>
   <i name="EDIFF">      0.00010000</i>
   <i type="int" name="IALGO">    48</i>
   <i type="int" name="IWAVPR">    11</i>
   <i type="int" name="NBANDS">    62</i>
   <i name="NELECT">     93.00000000</i>
   <separator name="electronic smearing" >
    <i type="int" name="ISMEAR">     1</i>
    <i name="SIGMA">      0.20000000</i>
   </separator>
   <separator name="electronic projectors" >
    <i type="logical" name="LREAL"> F  </i>
    <v name="ROPT">      0.00000000</v>
    <i type="int" name="LMAXPAW">  -100</i>
    <i type="int" name="LMAXMIX">     2</i>
   </separator>
   <separator name="electronic startup" >
    <i type="int" name="ISTART">     0</i>
    <i type="int" name="ICHARG">     2</i>
    <i type="int" name="INIWAV">     1</i>
   </separator>
   <separator name="electronic spin" >
    <i type="int" name="ISPIN">     1</i>
    <i type="logical" name="LNONCOLLINEAR"> F  </i>
    <v name="MAGMOM">      1.00000000      1.00000000      1.00000000      1.00000000      1.00000000      1.00000000      1.00000000      1.00000000      1.00000000      1.00000000      1.00000000      1.00000000      1.00000000      1.00000000      1.00000000      1.00000000      1.00000000      1.00000000      1.00000000      1.00000000
      1.00000000      1.00000000      1.00000000      1.00000000      1.00000000      1.00000000      1.00000000      1.00000000      1.00000000      1.00000000      1.00000000</v>
    <i name="NUPDOWN">     -1.00000000</i>
    <i type="logical" name="LSORBIT"> F  </i>
    <v name="SAXIS">      0.00000000      0.00000000      1.00000000</v>
    <i type="logical" name="LSPIRAL"> F  </i>
    <v name="QSPIRAL">      0.00000000      0.00000000      0.00000000</v>
    <i type="logical" name="LZEROZ"> F  </i>
   </separator>
   <separator name="electronic exchange-correlation" >
    <i type="logical" name="LASPH"> F  </i>
    <i type="logical" name="LMETAGGA"> F  </i>
   </separator>
   <separator name="electronic convergence" >
    <i type="int" name="NELM">    60</i>
    <i type="int" name="NELMDL">   -12</i>
    <i type="int" name="NELMIN">     2</i>
    <i name="ENINI">    300.00000000</i>
    <separator name="electronic convergence detail" >
     <i type="logical" name="LDIAG"> T  </i>
     <i name="WEIMIN">      0.00100000</i>
     <i name="EBREAK">      0.00000040</i>
     <i name="DEPER">      0.30000000</i>
     <i type="int" name="NRMM">     4</i>
     <i name="TIME">      0.40000000</i>
    </separator>
   </separator>
   <separator name="electronic mixer" >
    <i name="AMIX">      0.40000000</i>
    <i name="BMIX">      1.00000000</i>
    <i name="AMIN">      0.10000000</i>
    <i name="AMIX_MAG">      1.60000000</i>
    <i name="BMIX_MAG">      1.00000000</i>
    <separator name="electronic mixer details" >
     <i type="int" name="IMIX">     4</i>
     <i type="int" name="MAXMIX">   -45</i>
     <i name="WC">    100.00000000</i>
     <i type="int" name="INIMIX">     1</i>
     <i type="int" name="MIXPRE">     1</i>
     <i type="int" name="MREMOVE">     5</i>
    </separator>
   </separator>
   <separator name="electronic dipolcorrection" >
    <i type="logical" name="LDIPOL"> F  </i>
    <i type="logical" name="LMONO"> F  </i>
    <i type="int" name="IDIPOL">     0</i>
    <i name="EPSILON">      1.00000000</i>
    <v name="DIPOL">   -100.00000000   -100.00000000   -100.00000000</v>
    <i name="EFIELD">      0.00000000</i>
   </separator>
  </separator>
  <separator name="grids" >
   <i type="int" name="NGX">    48</i>
   <i type="int" name="NGY">    48</i>
   <i type="int" name="NGZ">    48</i>
   <i type="int" name="NGXF">    96</i>
   <i type="int" name="NGYF">    96</i>
   <i type="int" name="NGZF">    96</i>
   <i type="logical" name="ADDGRID"> F  </i>
  </separator>
  <separator name="ionic" >
   <i type="int" name="NSW">   191</i>
   <i type="int" name="IBRION">     1</i>
   <i type="int" name="ISIF">     2</i>
   <i name="PSTRESS">      0.00000000</i>
   <i name="EDIFFG">      0.05000000</i>
   <i type="int" name="NFREE">     0</i>
   <i name="POTIM">      0.50000000</i>
   <i name="SMASS">     -3.00000000</i>
  </separator>
  <separator name="ionic md" >
   <i name="TEBEG">      0.00010000</i>
   <i name="TEEND">      0.00010000</i>
   <i type="int" name="NBLOCK">     1</i>
   <i type="int" name="KBLOCK">   191</i>
   <i type="int" name="NPACO">   256</i>
   <i name="APACO">     16.00000000</i>
  </separator>
  <separator name="symmetry" >
   <i type="int" name="ISYM">     2</i>
   <i name="SYMPREC">      0.00001000</i>
  </separator>
  <separator name="dos" >
   <i type="logical" name="LORBIT"> F  </i>
   <v name="RWIGS">     -1.00000000</v>
   <i type="int" name="NEDOS">   301</i>
   <i name="EMIN">     10.00000000</i>
   <i name="EMAX">    -10.00000000</i>
   <i name="EFERMI">      0.00000000</i>
  </separator>
  <separator name="writing" >
   <i type="int" name="NWRITE">     2</i>
   <i type="logical" name="LWAVE"> F  </i>
   <i type="logical" name="LCHARG"> F  </i>
   <i type="logical" name="LPARD"> F  </i>
   <i type="logical" name="LVTOT"> F  </i>
   <i type="logical" name="LELF"> F  </i>
   <i type="logical" name="LOPTICS"> F  </i>
   <v name="STM">      0.00000000      0.00000000      0.00000000      0.00000000      0.00000000</v>
  </separator>
  <separator name="performance" >
   <i type="int" name="NPAR">     1</i>
   <i type="int" name="NSIM">     4</i>
   <i type="int" name="NBLK">    32</i>
   <i type="logical" name="LPLANE"> T  </i>
   <i type="logical" name="LSCALAPACK"> F  </i>
   <i type="logical" name="LSCAAWARE"> F  </i>
   <i type="logical" name="LSCALU"> F  </i>
   <i type="logical" name="LASYNC"> F  </i>
  </separator>
  <separator name="miscellaneous" >
   <i type="int" name="IDIOT">     3</i>
   <i type="logical" name="LMUSIC"> F  </i>
   <v name="POMASS">     26.98200000</v>
   <i type="logical" name="LCORR"> T  </i>
  </separator>
  <i type="logical" name="LREAL_COMPAT"> F  </i>
  <i type="logical" name="GGA_COMPAT"> T  </i>
  <i type="logical" name="LBERRY"> F  </i>
  <i type="int" name="ICORELEVEL">     0</i>
  <i type="logical" name="LDAU"> F  </i>
  <i type="int" name="I_CONSTRAINED_M">     0</i>
  <separator name="electronic exchange-correlation" >
   <i type="string" name="GGA">--</i>
   <i type="int" name="VOSKOWN">     0</i>
   <i type="logical" name="LHFCALC"> F  </i>
   <i type="logical" name="LHFONE"> F  </i>
   <i type="logical" name="LRHFCALC"> F  </i>
   <i type="logical" name="LTHOMAS"> F  </i>
   <i type="logical" name="LMODELHF"> F  </i>
   <i name="ENCUTFOCK">      0.00000000</i>
   <i name="ENCUT4O">     -1.00000000</i>
   <i type="int" name="EXXOEP">     0</i>
   <i type="int" name="FOURORBIT">     0</i>
   <i name="AEXX">      0.00000000</i>
   <i name="HFALPHA">      0.00000000</i>
   <i name="ALDAX">      1.00000000</i>
   <i name="AGGAX">      1.00000000</i>
   <i name="ALDAC">      1.00000000</i>
   <i name="AGGAC">      1.00000000</i>
   <i type="int" name="NKREDX">     1</i>
   <i type="int" name="NKREDY">     1</i>
   <i type="int" name="NKREDZ">     1</i>
   <i type="logical" name="SHIFTRED"> F  </i>
   <i type="logical" name="ODDONLY"> F  </i>
   <i type="logical" name="EVENONLY"> F  </i>
   <i type="int" name="LMAXFOCK">     0</i>
   <i type="int" name="NMAXFOCKAE">     0</i>
   <i name="HFSCREEN">      0.00000000</i>
   <i name="HFSCREENC">      0.00000000</i>
  </separator>
  <separator name="model GW" >
   <i type="int" name="MODEL_GW">     0</i>
   <i name="MODEL_EPS0">     10.23671437</i>
   <i name="MODEL_ALPHA">      1.00000000</i>
  </separator>
  <separator name="linear response parameters" >
   <i type="logical" name="LEPSILON"> F  </i>
   <i type="logical" name="LRPA"> F  </i>
   <i type="logical" name="LNABLA"> F  </i>
   <i type="logical" name="LVEL"> F  </i>
   <i type="int" name="KINTER">     0</i>
   <i name="CSHIFT">      0.10000000</i>
   <i name="OMEGAMAX">     -1.00000000</i>
  </separator>
  <separator name="orbital magnetization" >
   <i type="logical" name="ORBITALMAG"> F  </i>
   <i type="logical" name="LMAGBLOCH"> F  </i>
   <i type="logical" name="LCHIMAG"> F  </i>
   <i type="logical" name="LGAUGE"> T  </i>
   <i type="int" name="MAGATOM">     0</i>
   <v name="MAGDIPOL">      0.00000000      0.00000000      0.00000000</v>
   <v name="AVECCONST">      0.00000000      0.00000000      0.00000000</v>
  </separator>
  <separator name="response functions" >
   <i type="logical" name="LRPA"> T  </i>
   <i type="logical" name="LTCTE"> F  </i>
   <i type="logical" name="LTETE"> F  </i>
   <i type="logical" name="L2ORDER"> F  </i>
   <i type="logical" name="LGWLF"> F  </i>
   <i name="ENCUTGW">    200.00000000</i>
   <i name="ENCUTGWSOFT">     -2.00000000</i>
   <i name="ENCUTLF">     -1.00000000</i>
   <i type="int" name="LMAXMP2">    -1</i>
   <i name="SCISSOR">      0.00000000</i>
   <i type="int" name="NOMEGA">     0</i>
   <i type="int" name="NOMEGAR">     0</i>
   <i type="int" name="NBANDSGW">    -1</i>
   <i type="int" name="NBANDSLF">    -1</i>
   <i type="int" name="NELM">     1</i>
   <i type="int" name="DIM">     3</i>
   <i type="int" name="ANTIRES">     0</i>
   <i type="logical" name="LUSEW"> F  </i>
   <i name="OMEGAMAX">    -30.00000000</i>
   <i name="OMEGATL">   -200.00000000</i>
   <i type="int" name="OMEGAGRID">     0</i>
   <i name="CSHIFT">     -0.10000000</i>
   <i type="logical" name="SELFENERGY"> F  </i>
   <i type="logical" name="LSPECTRAL"> F  </i>
   <i type="logical" name="ODDONLYGW"> F  </i>
   <i type="logical" name="EVENONLYGW"> F  </i>
   <i type="int" name="NKREDLFX">     1</i>
   <i type="int" name="NKREDLFY">     1</i>
   <i type="int" name="NKREDLFZ">     1</i>
   <i type="int" name="MAXMEM">  1024</i>
   <i type="int" name="TELESCOPE">     0</i>
  </separator>
 </parameters>
 <atominfo>
  <atoms>      31 </atoms>
  <types>       1 </types>
  <array name="atoms" >
   <dimension dim="1">ion</dimension>
   <field type="string">element</field>
   <field type="int">atomtype</field>
   <set>
    <rc><c>Al</c><c>   1</c></rc>
    <rc><c>Al</c><c>   1</c></rc>
    <rc><c>Al</c><c>   1</c></rc>
    <rc><c>Al</c><c>   1</c></rc>
    <rc><c>Al</c><c>   1</c></rc>
    <rc><c>Al</c><c>   1</c></rc>
    <rc><c>Al</c><c>   1</c></rc>
    <rc><c>Al</c><c>   1</c></rc>
    <rc><c>Al</c><c>   1</c></rc>
    <rc><c>Al</c><c>   1</c></rc>
    <rc><c>Al</c><c>   1</c></rc>
    <rc><c>Al</c><c>   1</c></rc>
    <rc><c>Al</c><c>   1</c></rc>
    <rc><c>Al</c><c>   1</c></rc>
    <rc><c>Al</c><c>   1</c></rc>
    <rc><c>Al</c><c>   1</c></rc>
    <rc><c>Al</c><c>   1</c></rc>
    <rc><c>Al</c><c>   1</c></rc>
    <rc><c>Al</c><c>   1</c></rc>
    <rc><c>Al</c><c>   1</c></rc>
    <rc><c>Al</c><c>   1</c></rc>
    <rc><c>Al</c><c>   1</c></rc>
    <rc><c>Al</c><c>   1</c></rc>
    <rc><c>Al</c><c>   1</c></rc>
    <rc><c>Al</c><c>   1</c></rc>
    <rc><c>Al</c><c>   1</c></rc>
    <rc><c>Al</c><c>   1</c></rc>
    <rc><c>Al</c><c>   1</c></rc>
    <rc><c>Al</c><c>   1</c></rc>
    <rc><c>Al</c><c>   1</c></rc>
    <rc><c>Al</c><c>   1</c></rc>
   </set>
  </array>
  <array name="atomtypes" >
   <dimension dim="1">type</dimension>
   <field type="int">atomspertype</field>
   <field type="string">element</field>
   <field>mass</field>
   <field>valence</field>
   <field type="string">pseudopotential</field>
   <set>
    <rc><c>  31</c><c>Al</c><c>     26.98200000</c><c>      3.00000000</c><c> PAW_PBE Al 04Jan2001                   </c></rc>
   </set>
  </array>
 </atominfo>
 <structure name="initialpos" >
  <crystal>
   <varray name="basis" >
    <v>       8.08705400       0.00000000       0.00000000 </v>
    <v>       0.00000000       8.08705400       0.00000000 </v>
    <v>       0.00000000       0.00000000       8.08705400 </v>
   </varray>
   <i name="volume">    528.89690930 </i>
   <varray name="rec_basis" >
    <v>       0.12365442       0.00000000       0.00000000 </v>
    <v>       0.00000000       0.12365442       0.00000000 </v>
    <v>       0.00000000       0.00000000       0.12365442 </v>
   </varray>
  </crystal>
  <varray name="positions" >
   <v>       0.37497900       0.50000000       0.37497900 </v>
   <v>       0.99974100       0.00000000       0.99974100 </v>
   <v>       0.24972600       0.00000000       0.24972600 </v>
   <v>       0.24972600       0.25135800       0.00163200 </v>
   <v>       0.00163200       0.25135800       0.24972600 </v>
   <v>       0.50025900       0.00000000       0.99974100 </v>
   <v>       0.75027400       0.00000000       0.24972600 </v>
   <v>       0.75027400       0.24946700       0.99974100 </v>
   <v>       0.49836800       0.25324300       0.25161100 </v>
   <v>       0.00163200       0.50000000       0.00163200 </v>
   <v>       0.24972600       0.74864200       0.00163200 </v>
   <v>       0.00163200       0.74864200       0.24972600 </v>
   <v>       0.49836800       0.50000000       0.00163200 </v>
   <v>       0.74838900       0.50000000       0.25161100 </v>
   <v>       0.75027400       0.75053300       0.99974100 </v>
   <v>       0.49836800       0.74675700       0.25161100 </v>
   <v>       0.99974100       0.00000000       0.50025900 </v>
   <v>       0.24972600       0.00000000       0.75027400 </v>
   <v>       0.25161100       0.25324300       0.49836800 </v>
   <v>       0.99974100       0.24946700       0.75027400 </v>
   <v>       0.50025900       0.00000000       0.50025900 </v>
   <v>       0.75027400       0.00000000       0.75027400 </v>
   <v>       0.74838900       0.25135100       0.50025900 </v>
   <v>       0.50025900       0.25135100       0.74838900 </v>
   <v>       0.00163200       0.50000000       0.49836800 </v>
   <v>       0.25161100       0.50000000       0.74838900 </v>
   <v>       0.25161100       0.74675700       0.49836800 </v>
   <v>       0.99974100       0.75053300       0.75027400 </v>
   <v>       0.74838900       0.50000000       0.74838900 </v>
   <v>       0.74838900       0.74864900       0.50025900 </v>
   <v>       0.50025900       0.74864900       0.74838900 </v>
  </varray>
 </structure>
 <calculation>
  <scstep>
   <time name="diag">    1.96    1.50</time>
   <time name="diis">   10.49    3.55</time>
   <time name="orth">    0.17    0.04</time>
   <time name="total">   14.66    7.09</time>
   <energy>
    <i name="alphaZ">     -6.10292531 </i>
    <i name="ewald">  -2234.87429032 </i>
    <i name="hartreedc">    -12.65089941 </i>
    <i name="XCdc">   -814.90330880 </i>
    <i name="pawpsdc">   1102.18190231 </i>
    <i name="pawaedc">   -111.56847430 </i>
    <i name="eentropy">     -0.06952769 </i>
    <i name="bandstr">    729.83101467 </i>
    <i name="atom">   1659.66634407 </i>
    <i name="e_fr_energy">    311.50983522 </i>
    <i name="e_wo_entrp">    311.57936292 </i>
    <i name="e_0_energy">    311.53301112 </i>
   </energy>
  </scstep>
  <scstep>
   <time name="diag">    2.05    1.50</time>
   <time name="diis">   10.49    3.54</time>
   <time name="orth">    0.17    0.04</time>
   <time name="total">   12.72    5.08</time>
   <energy>
    <i name="e_fr_energy">     -3.23500077 </i>
    <i name="e_wo_entrp">     -3.18774579 </i>
    <i name="e_0_energy">     -3.21924911 </i>
   </energy>
  </scstep>
  <scstep>
   <time name="diag">    2.05    1.50</time>
   <time name="diis">   10.48    3.54</time>
   <time name="orth">    0.17    0.04</time>
   <time name="total">   12.71    5.08</time>
   <energy>
    <i name="e_fr_energy">    -67.26733014 </i>
    <i name="e_wo_entrp">    -67.15065289 </i>
    <i name="e_0_energy">    -67.22843773 </i>
   </energy>
  </scstep>
  <scstep>
   <time name="diag">    2.06    1.50</time>
   <time name="diis">   10.48    3.54</time>
   <time name="orth">    0.17    0.04</time>
   <time name="total">   12.71    5.08</time>
   <energy>
    <i name="e_fr_energy">    -84.66419279 </i>
    <i name="e_wo_entrp">    -84.65671729 </i>
    <i name="e_0_energy">    -84.66170096 </i>
   </energy>
  </scstep>
  <scstep>
   <time name="diag">    2.02    1.50</time>
   <time name="diis">   10.49    3.54</time>
   <time name="orth">    0.16    0.04</time>
   <time name="total">   12.72    5.10</time>
   <energy>
    <i name="e_fr_energy">    -92.20211932 </i>
    <i name="e_wo_entrp">    -92.15200841 </i>
    <i name="e_0_energy">    -92.18541568 </i>
   </energy>
  </scstep>
  <scstep>
   <time name="diag">    2.06    1.50</time>
   <time name="diis">   10.48    3.54</time>
   <time name="orth">    0.17    0.04</time>
   <time name="total">   12.72    5.08</time>
   <energy>
    <i name="e_fr_energy">    -95.67374052 </i>
    <i name="e_wo_entrp">    -95.67801191 </i>
    <i name="e_0_energy">    -95.67516432 </i>
   </energy>
  </scstep>
  <scstep>
   <time name="diag">    2.02    1.50</time>
   <time name="diis">   10.48    3.54</time>
   <time name="orth">    0.17    0.04</time>
   <time name="total">   12.71    5.10</time>
   <energy>
    <i name="e_fr_energy">    -97.56351842 </i>
    <i name="e_wo_entrp">    -97.53954464 </i>
    <i name="e_0_energy">    -97.55552716 </i>
   </energy>
  </scstep>
  <scstep>
   <time name="diag">    2.06    1.50</time>
   <time name="diis">   10.48    3.54</time>
   <time name="orth">    0.17    0.04</time>
   <time name="total">   12.71    5.08</time>
   <energy>
    <i name="e_fr_energy">    -98.60061263 </i>
    <i name="e_wo_entrp">    -98.57135996 </i>
    <i name="e_0_energy">    -98.59086174 </i>
   </energy>
  </scstep>
  <scstep>
   <time name="diag">    2.05    1.50</time>
   <time name="diis">   26.34    7.66</time>
   <time name="orth">    0.16    0.04</time>
   <time name="total">   28.57    9.20</time>
   <energy>
    <i name="e_fr_energy">    -99.82743212 </i>
    <i name="e_wo_entrp">    -99.79441285 </i>
    <i name="e_0_energy">    -99.81642569 </i>
   </energy>
  </scstep>
  <scstep>
   <time name="diag">    2.05    1.50</time>
   <time name="diis">   24.60    7.19</time>
   <time name="orth">    0.17    0.04</time>
   <time name="total">   26.83    8.73</time>
   <energy>
    <i name="e_fr_energy">    -99.98709987 </i>
    <i name="e_wo_entrp">    -99.96258805 </i>
    <i name="e_0_energy">    -99.97892926 </i>
   </energy>
  </scstep>
  <scstep>
   <time name="diag">    2.06    1.50</time>
   <time name="diis">   19.15    5.68</time>
   <time name="orth">    0.16    0.04</time>
   <time name="total">   21.38    7.22</time>
   <energy>
    <i name="e_fr_energy">   -100.00480608 </i>
    <i name="e_wo_entrp">    -99.98330906 </i>
    <i name="e_0_energy">    -99.99764041 </i>
   </energy>
  </scstep>
  <scstep>
   <time name="diag">    2.06    1.50</time>
   <time name="diis">   16.97    5.06</time>
   <time name="orth">    0.16    0.04</time>
   <time name="total">   20.38    7.69</time>
   <energy>
    <i name="e_fr_energy">   -100.00538900 </i>
    <i name="e_wo_entrp">    -99.98387301 </i>
    <i name="e_0_energy">    -99.99821700 </i>
   </energy>
  </scstep>
  <scstep>
   <time name="diag">    2.04    1.52</time>
   <time name="diis">   21.40    6.45</time>
   <time name="orth">    0.17    0.04</time>
   <time name="total">   26.64   10.95</time>
   <energy>
    <i name="e_fr_energy">    -99.11993025 </i>
    <i name="e_wo_entrp">    -99.08601761 </i>
    <i name="e_0_energy">    -99.10862604 </i>
   </energy>
  </scstep>
  <scstep>
   <time name="diag">    2.02    1.51</time>
   <time name="diis">   20.91    6.35</time>
   <time name="orth">    0.17    0.04</time>
   <time name="total">   26.15   10.90</time>
   <energy>
    <i name="e_fr_energy">    -98.76395713 </i>
    <i name="e_wo_entrp">    -98.73772335 </i>
    <i name="e_0_energy">    -98.75521254 </i>
   </energy>
  </scstep>
  <scstep>
   <time name="diag">    2.04    1.52</time>
   <time name="diis">   21.82    6.58</time>
   <time name="orth">    0.17    0.04</time>
   <time name="total">   27.11   11.14</time>
   <energy>
    <i name="e_fr_energy">    -98.71420033 </i>
    <i name="e_wo_entrp">    -98.68938948 </i>
    <i name="e_0_energy">    -98.70593004 </i>
   </energy>
  </scstep>
  <scstep>
   <time name="diag">    1.99    1.50</time>
   <time name="diis">   21.77    6.57</time>
   <time name="orth">    0.17    0.04</time>
   <time name="total">   27.05   11.07</time>
   <energy>
    <i name="e_fr_energy">    -98.70962898 </i>
    <i name="e_wo_entrp">    -98.68449525 </i>
    <i name="e_0_energy">    -98.70125107 </i>
   </energy>
  </scstep>
  <scstep>
   <time name="diag">    1.96    1.50</time>
   <time name="diis">   22.18    6.64</time>
   <time name="orth">    0.17    0.04</time>
   <time name="total">   27.60   11.26</time>
   <energy>
    <i name="e_fr_energy">    -98.70903725 </i>
    <i name="e_wo_entrp">    -98.68348888 </i>
    <i name="e_0_energy">    -98.70052113 </i>
   </energy>
  </scstep>
  <scstep>
   <time name="diag">    2.02    1.51</time>
   <time name="diis">   16.18    5.02</time>
   <time name="orth">    0.17    0.04</time>
   <time name="total">   20.30    8.49</time>
   <energy>
    <i name="alphaZ">     -6.10292531 </i>
    <i name="ewald">  -2234.87429032 </i>
    <i name="hartreedc">    -16.63806025 </i>
    <i name="XCdc">   -810.88573334 </i>
    <i name="pawpsdc">   1102.27139124 </i>
    <i name="pawaedc">   -111.93722209 </i>
    <i name="eentropy">     -0.02548889 </i>
    <i name="bandstr">    319.81698224 </i>
    <i name="atom">   1659.66634407 </i>
    <i name="e_fr_energy">    -98.70900264 </i>
    <i name="e_wo_entrp">    -98.68351375 </i>
    <i name="e_0_energy">    -98.70050634 </i>
   </energy>
  </scstep>
  <structure>
   <crystal>
    <varray name="basis" >
     <v>       8.08705400       0.00000000       0.00000000 </v>
     <v>       0.00000000       8.08705400       0.00000000 </v>
     <v>       0.00000000       0.00000000       8.08705400 </v>
    </varray>
    <i name="volume">    528.89690930 </i>
    <varray name="rec_basis" >
     <v>       0.12365442       0.00000000       0.00000000 </v>
     <v>       0.00000000       0.12365442       0.00000000 </v>
     <v>       0.00000000       0.00000000       0.12365442 </v>
    </varray>
   </crystal>
   <varray name="positions" >
    <v>       0.37497900       0.50000000       0.37497900 </v>
    <v>       0.99974100       0.00000000       0.99974100 </v>
    <v>       0.24972600       0.00000000       0.24972600 </v>
    <v>       0.24972600       0.25135800       0.00163200 </v>
    <v>       0.00163200       0.25135800       0.24972600 </v>
    <v>       0.50025900       0.00000000       0.99974100 </v>
    <v>       0.75027400       0.00000000       0.24972600 </v>
    <v>       0.75027400       0.24946700       0.99974100 </v>
    <v>       0.49836800       0.25324300       0.25161100 </v>
    <v>       0.00163200       0.50000000       0.00163200 </v>
    <v>       0.24972600       0.74864200       0.00163200 </v>
    <v>       0.00163200       0.74864200       0.24972600 </v>
    <v>       0.49836800       0.50000000       0.00163200 </v>
    <v>       0.74838900       0.50000000       0.25161100 </v>
    <v>       0.75027400       0.75053300       0.99974100 </v>
    <v>       0.49836800       0.74675700       0.25161100 </v>
    <v>       0.99974100       0.00000000       0.50025900 </v>
    <v>       0.24972600       0.00000000       0.75027400 </v>
    <v>       0.25161100       0.25324300       0.49836800 </v>
    <v>       0.99974100       0.24946700       0.75027400 </v>
    <v>       0.50025900       0.00000000       0.50025900 </v>
    <v>       0.75027400       0.00000000       0.75027400 </v>
    <v>       0.74838900       0.25135100       0.50025900 </v>
    <v>       0.50025900       0.25135100       0.74838900 </v>
    <v>       0.00163200       0.50000000       0.49836800 </v>
    <v>       0.25161100       0.50000000       0.74838900 </v>
    <v>       0.25161100       0.74675700       0.49836800 </v>
    <v>       0.99974100       0.75053300       0.75027400 </v>
    <v>       0.74838900       0.50000000       0.74838900 </v>
    <v>       0.74838900       0.74864900       0.50025900 </v>
    <v>       0.50025900       0.74864900       0.74838900 </v>
   </varray>
  </structure>
  <varray name="forces" >
   <v>      -0.00021649       0.00000000      -0.00021649 </v>
   <v>      -0.28591705       0.00000000      -0.28591705 </v>
   <v>      -0.08323325       0.00000000      -0.08323325 </v>
   <v>      -0.03981153      -0.08157909      -0.02744811 </v>
   <v>      -0.02744811      -0.08157909      -0.03981153 </v>
   <v>       0.39257423       0.00000000       0.00307951 </v>
   <v>      -0.00310458       0.00000000      -0.39246270 </v>
   <v>      -0.21742827      -0.45150836       0.21694724 </v>
   <v>       0.71583657      -0.76067188      -0.71554261 </v>
   <v>       0.14316605       0.00000000       0.14316605 </v>
   <v>      -0.03981153       0.08157909      -0.02744811 </v>
   <v>      -0.02744811       0.08157909      -0.03981153 </v>
   <v>       0.03868112       0.00000000       0.46994958 </v>
   <v>      -0.46996148       0.00000000      -0.03814620 </v>
   <v>      -0.21742827       0.45150836       0.21694724 </v>
   <v>       0.71583657       0.76067188      -0.71554261 </v>
   <v>       0.00307951       0.00000000       0.39257423 </v>
   <v>      -0.39246270       0.00000000      -0.00310458 </v>
   <v>      -0.71554261      -0.76067188       0.71583657 </v>
   <v>       0.21694724      -0.45150836      -0.21742827 </v>
   <v>       0.08347758       0.00000000       0.08347758 </v>
   <v>       0.28562251       0.00000000       0.28562251 </v>
   <v>       0.02710060      -0.08133791       0.04045661 </v>
   <v>       0.04045661      -0.08133791       0.02710060 </v>
   <v>       0.46994958       0.00000000       0.03868112 </v>
   <v>      -0.03814620       0.00000000      -0.46996148 </v>
   <v>      -0.71554261       0.76067188       0.71583657 </v>
   <v>       0.21694724       0.45150836      -0.21742827 </v>
   <v>      -0.14372984       0.00000000      -0.14372984 </v>
   <v>       0.02710060       0.08133791       0.04045661 </v>
   <v>       0.04045661       0.08133791       0.02710060 </v>
  </varray>
  <varray name="stress" >
   <v>     -14.29613237       0.00000000       2.84844054 </v>
   <v>       0.00000000     -12.80823543       0.00000000 </v>
   <v>       2.84844054       0.00000000     -14.29613237 </v>
  </varray>
  <energy>
   <i name="e_fr_energy">    -98.70900264 </i>
   <i name="e_wo_entrp">    -98.70050634 </i>
   <i name="e_0_energy">     -0.02548889 </i>
  </energy>
  <time name="totalsc">  386.39  156.19</time>
 </calculation>
 <calculation>
  <scstep>
   <time name="diag">    1.96    1.49</time>
   <time name="diis">   20.90    6.42</time>
   <time name="orth">    0.17    0.04</time>
   <time name="total">   26.30   11.04</time>
   <energy>
    <i name="alphaZ">     -6.10292531 </i>
    <i name="ewald">  -2233.40654259 </i>
    <i name="hartreedc">    -18.34517852 </i>
    <i name="XCdc">   -810.84879515 </i>
    <i name="pawpsdc">   1102.29907573 </i>
    <i name="pawaedc">   -111.96842428 </i>
    <i name="eentropy">     -0.03022880 </i>
    <i name="bandstr">    319.62554158 </i>
    <i name="atom">   1659.66634407 </i>
    <i name="e_fr_energy">    -99.11113326 </i>
    <i name="e_wo_entrp">    -99.08090446 </i>
    <i name="e_0_energy">    -99.10105700 </i>
   </energy>
  </scstep>
  <scstep>
   <time name="diag">    2.04    1.51</time>
   <time name="diis">   21.97    6.59</time>
   <time name="orth">    0.16    0.04</time>
   <time name="total">   27.20   11.07</time>
   <energy>
    <i name="e_fr_energy">    -99.08508774 </i>
    <i name="e_wo_entrp">    -99.05428730 </i>
    <i name="e_0_energy">    -99.07482093 </i>
   </energy>
  </scstep>
  <scstep>
   <time name="diag">    2.03    1.51</time>
   <time name="diis">   21.66    6.50</time>
   <time name="orth">    0.17    0.04</time>
   <time name="total">   26.89   11.05</time>
   <energy>
    <i name="e_fr_energy">    -99.08135661 </i>
    <i name="e_wo_entrp">    -99.05039633 </i>
    <i name="e_0_energy">    -99.07103652 </i>
   </energy>
  </scstep>
  <scstep>
   <time name="diag">    2.04    1.51</time>
   <time name="diis">   21.87    6.51</time>
   <time name="orth">    0.16    0.04</time>
   <time name="total">   27.14   11.02</time>
   <energy>
    <i name="e_fr_energy">    -99.08106562 </i>
    <i name="e_wo_entrp">    -99.05040173 </i>
    <i name="e_0_energy">    -99.07084432 </i>
   </energy>
  </scstep>
  <scstep>
   <time name="diag">    1.96    1.49</time>
   <time name="diis">   18.65    5.65</time>
   <time name="orth">    0.16    0.04</time>
   <time name="total">   22.67    9.06</time>
   <energy>
    <i name="alphaZ">     -6.10292531 </i>
    <i name="ewald">  -2233.40654259 </i>
    <i name="hartreedc">    -18.49561420 </i>
    <i name="XCdc">   -810.86902727 </i>
    <i name="pawpsdc">   1101.95112330 </i>
    <i name="pawaedc">   -111.60470166 </i>
    <i name="eentropy">     -0.03049482 </i>
    <i name="bandstr">    319.81078105 </i>
    <i name="atom">   1659.66634407 </i>
    <i name="e_fr_energy">    -99.08105743 </i>
    <i name="e_wo_entrp">    -99.05056261 </i>
    <i name="e_0_energy">    -99.07089249 </i>
   </energy>
  </scstep>
  <structure>
   <crystal>
    <varray name="basis" >
     <v>       8.08705400       0.00000000       0.00000000 </v>
     <v>       0.00000000       8.08705400       0.00000000 </v>
     <v>       0.00000000       0.00000000       8.08705400 </v>
    </varray>
    <i name="volume">    528.89690930 </i>
    <varray name="rec_basis" >
     <v>       0.12365442       0.00000000       0.00000000 </v>
     <v>       0.00000000       0.12365442       0.00000000 </v>
     <v>       0.00000000       0.00000000       0.12365442 </v>
    </varray>
   </crystal>
   <varray name="positions" >
    <v>       0.37498820       0.50000000       0.37498820 </v>
    <v>       0.99803536       0.00000000       0.99803536 </v>
    <v>       0.24922950       0.00000000       0.24922950 </v>
    <v>       0.24948853       0.25087151       0.00146840 </v>
    <v>       0.00146840       0.25087151       0.24948853 </v>
    <v>       0.50260089       0.00000000       0.99975935 </v>
    <v>       0.75025546       0.00000000       0.24738482 </v>
    <v>       0.74897693       0.24677357       1.00103516 </v>
    <v>       0.50263812       0.24870528       0.24734235 </v>
    <v>       0.00248619       0.50000000       0.00248619 </v>
    <v>       0.24948853       0.74912849       0.00146840 </v>
    <v>       0.00146840       0.74912849       0.24948853 </v>
    <v>       0.49859861       0.50000000       0.00443559 </v>
    <v>       0.74558562       0.50000000       0.25138330 </v>
    <v>       0.74897693       0.75322643       1.00103516 </v>
    <v>       0.50263812       0.75129472       0.24734235 </v>
    <v>       0.99975935       0.00000000       0.50260089 </v>
    <v>       0.24738482       0.00000000       0.75025546 </v>
    <v>       0.24734235       0.24870528       0.50263812 </v>
    <v>       1.00103516       0.24677357       0.74897693 </v>
    <v>       0.50075700       0.00000000       0.50075700 </v>
    <v>       0.75197783       0.00000000       0.75197783 </v>
    <v>       0.74855081       0.25086562       0.50050036 </v>
    <v>       0.50050036       0.25086562       0.74855081 </v>
    <v>       0.00443559       0.50000000       0.49859861 </v>
    <v>       0.25138330       0.50000000       0.74558562 </v>
    <v>       0.24734235       0.75129472       0.50263812 </v>
    <v>       1.00103516       0.75322643       0.74897693 </v>
    <v>       0.74753173       0.50000000       0.74753173 </v>
    <v>       0.74855081       0.74913438       0.50050036 </v>
    <v>       0.50050036       0.74913438       0.74855081 </v>
   </varray>
  </structure>
  <varray name="forces" >
   <v>      -0.00014612       0.00000000      -0.00014612 </v>
   <v>      -0.26749981       0.00000000      -0.26749981 </v>
   <v>       0.01152501       0.00000000       0.01152501 </v>
   <v>      -0.00509101      -0.08533027      -0.06439949 </v>
   <v>      -0.06439949      -0.08533027      -0.00509101 </v>
   <v>       0.18841272       0.00000000      -0.08454704 </v>
   <v>       0.08433790       0.00000000      -0.18809472 </v>
   <v>      -0.06961713      -0.31575065       0.06923513 </v>
   <v>       0.39980797      -0.53778168      -0.39961351 </v>
   <v>       0.01993058       0.00000000       0.01993058 </v>
   <v>      -0.00509101       0.08533027      -0.06439949 </v>
   <v>      -0.06439949       0.08533027      -0.00509101 </v>
   <v>       0.00325853       0.00000000       0.29164717 </v>
   <v>      -0.29164248       0.00000000      -0.00308782 </v>
   <v>      -0.06961713       0.31575065       0.06923513 </v>
   <v>       0.39980797       0.53778168      -0.39961351 </v>
   <v>      -0.08454704       0.00000000       0.18841272 </v>
   <v>      -0.18809472       0.00000000       0.08433790 </v>
   <v>      -0.39961351      -0.53778168       0.39980797 </v>
   <v>       0.06923513      -0.31575065      -0.06961713 </v>
   <v>      -0.01123877       0.00000000      -0.01123877 </v>
   <v>       0.26739477       0.00000000       0.26739477 </v>
   <v>       0.06416150      -0.08527668       0.00545240 </v>
   <v>       0.00545240      -0.08527668       0.06416150 </v>
   <v>       0.29164717       0.00000000       0.00325853 </v>
   <v>      -0.00308782       0.00000000      -0.29164248 </v>
   <v>      -0.39961351       0.53778168       0.39980797 </v>
   <v>       0.06923513       0.31575065      -0.06961713 </v>
   <v>      -0.02012165       0.00000000      -0.02012165 </v>
   <v>       0.06416150       0.08527668       0.00545240 </v>
   <v>       0.00545240       0.08527668       0.06416150 </v>
  </varray>
  <varray name="stress" >
   <v>     -16.64834937       0.00000000       4.66872402 </v>
   <v>       0.00000000     -14.42287682       0.00000000 </v>
   <v>       4.66872402       0.00000000     -16.64834937 </v>
  </varray>
  <energy>
   <i name="e_fr_energy">    -99.08105743 </i>
   <i name="e_wo_entrp">    -99.07089249 </i>
   <i name="e_0_energy">     -0.03049482 </i>
  </energy>
  <time name="totalsc">  160.72   69.95</time>
 </calculation>
 <calculation>
  <scstep>
   <time name="diag">    2.04    1.51</time>
   <time name="diis">   20.53    6.18</time>
   <time name="orth">    0.17    0.04</time>
   <time name="total">   25.76   10.66</time>
   <energy>
    <i name="alphaZ">     -6.10292531 </i>
    <i name="ewald">  -2228.59403891 </i>
    <i name="hartreedc">    -22.71789557 </i>
    <i name="XCdc">   -810.79718769 </i>
    <i name="pawpsdc">   1101.93820243 </i>
    <i name="pawaedc">   -111.59117690 </i>
    <i name="eentropy">     -0.05290175 </i>
    <i name="bandstr">    318.85733209 </i>
    <i name="atom">   1659.66634407 </i>
    <i name="e_fr_energy">    -99.39424754 </i>
    <i name="e_wo_entrp">    -99.34134580 </i>
    <i name="e_0_energy">    -99.37661363 </i>
   </energy>
  </scstep>
  <scstep>
   <time name="diag">    1.99    1.50</time>
   <time name="diis">   21.61    6.42</time>
   <time name="orth">    0.17    0.04</time>
   <time name="total">   26.80   10.92</time>
   <energy>
    <i name="e_fr_energy">    -99.34848483 </i>
    <i name="e_wo_entrp">    -99.29960306 </i>
    <i name="e_0_energy">    -99.33219090 </i>
   </energy>
  </scstep>
  <scstep>
   <time name="diag">    2.00    1.50</time>
   <time name="diis">   21.51    6.39</time>
   <time name="orth">    0.17    0.04</time>
   <time name="total">   26.71   10.92</time>
   <energy>
    <i name="e_fr_energy">    -99.34066649 </i>
    <i name="e_wo_entrp">    -99.29136742 </i>
    <i name="e_0_energy">    -99.32423346 </i>
   </energy>
  </scstep>
  <scstep>
   <time name="diag">    2.02    1.51</time>
   <time name="diis">   21.49    6.39</time>
   <time name="orth">    0.16    0.04</time>
   <time name="total">   26.76   10.88</time>
   <energy>
    <i name="e_fr_energy">    -99.34005231 </i>
    <i name="e_wo_entrp">    -99.29138796 </i>
    <i name="e_0_energy">    -99.32383086 </i>
   </energy>
  </scstep>
  <scstep>
   <time name="diag">    1.98    1.49</time>
   <time name="diis">   19.66    5.87</time>
   <time name="orth">    0.17    0.04</time>
   <time name="total">   24.94   10.36</time>
   <energy>
    <i name="e_fr_energy">    -99.34005543 </i>
    <i name="e_wo_entrp">    -99.29150217 </i>
    <i name="e_0_energy">    -99.32387101 </i>
   </energy>
  </scstep>
  <scstep>
   <time name="diag">    1.96    1.49</time>
   <time name="diis">   17.10    5.21</time>
   <time name="orth">    0.17    0.04</time>
   <time name="total">   21.30    8.75</time>
   <energy>
    <i name="alphaZ">     -6.10292531 </i>
    <i name="ewald">  -2228.59403891 </i>
    <i name="hartreedc">    -23.19111610 </i>
    <i name="XCdc">   -810.80655973 </i>
    <i name="pawpsdc">   1101.90041617 </i>
    <i name="pawaedc">   -111.55134600 </i>
    <i name="eentropy">     -0.04856192 </i>
    <i name="bandstr">    319.38776123 </i>
    <i name="atom">   1659.66634407 </i>
    <i name="e_fr_energy">    -99.34002650 </i>
    <i name="e_wo_entrp">    -99.29146458 </i>
    <i name="e_0_energy">    -99.32383920 </i>
   </energy>
  </scstep>
  <structure>
   <crystal>
    <varray name="basis" >
     <v>       8.08705400       0.00000000       0.00000000 </v>
     <v>       0.00000000       8.08705400       0.00000000 </v>
     <v>       0.00000000       0.00000000       8.08705400 </v>
    </varray>
    <i name="volume">    528.89690930 </i>
    <varray name="rec_basis" >
     <v>       0.12365442       0.00000000       0.00000000 </v>
     <v>       0.00000000       0.12365442       0.00000000 </v>
     <v>       0.00000000       0.00000000       0.12365442 </v>
    </varray>
   </crystal>
   <varray name="positions" >
    <v>       0.37500299       0.50000000       0.37500299 </v>
    <v>       0.99447978       0.00000000       0.99447978 </v>
    <v>       0.24938273       0.00000000       0.24938273 </v>
    <v>       0.24942090       0.24973758       0.00061264 </v>
    <v>       0.00061264       0.24973758       0.24942090 </v>
    <v>       0.50510527       0.00000000       0.99863553 </v>
    <v>       0.75137642       0.00000000       0.24488475 </v>
    <v>       0.74805155       0.24257668       1.00195538 </v>
    <v>       0.50795205       0.24155721       0.24203056 </v>
    <v>       0.00275132       0.50000000       0.00275132 </v>
    <v>       0.24942090       0.75026242       0.00061264 </v>
    <v>       0.00061264       0.75026242       0.24942090 </v>
    <v>       0.49864170       0.50000000       0.00831232 </v>
    <v>       0.74170940       0.50000000       0.25134204 </v>
    <v>       0.74805155       0.75742332       1.00195538 </v>
    <v>       0.50795205       0.75844279       0.24203056 </v>
    <v>       0.99863553       0.00000000       0.50510527 </v>
    <v>       0.24488475       0.00000000       0.75137642 </v>
    <v>       0.24203056       0.24155721       0.50795205 </v>
    <v>       1.00195538       0.24257668       0.74805155 </v>
    <v>       0.50060765       0.00000000       0.50060765 </v>
    <v>       0.75553195       0.00000000       0.75553195 </v>
    <v>       0.74940385       0.24973189       0.50057287 </v>
    <v>       0.50057287       0.24973189       0.74940385 </v>
    <v>       0.00831232       0.50000000       0.49864170 </v>
    <v>       0.25134204       0.50000000       0.74170940 </v>
    <v>       0.24203056       0.75844279       0.50795205 </v>
    <v>       1.00195538       0.75742332       0.74805155 </v>
    <v>       0.74726450       0.50000000       0.74726450 </v>
    <v>       0.74940385       0.75026811       0.50057287 </v>
    <v>       0.50057287       0.75026811       0.74940385 </v>
   </varray>
  </structure>
  <varray name="forces" >
   <v>       0.00000313       0.00000000       0.00000313 </v>
   <v>      -0.11657767       0.00000000      -0.11657767 </v>
   <v>       0.03383395       0.00000000       0.03383395 </v>
   <v>      -0.03695109      -0.07200336      -0.02999046 </v>
   <v>      -0.02999046      -0.07200336      -0.03695109 </v>
   <v>      -0.05363922       0.00000000      -0.18330077 </v>
   <v>       0.18304729       0.00000000       0.05392268 </v>
   <v>       0.11037005      -0.11040006      -0.11043033 </v>
   <v>       0.03674132      -0.26664690      -0.03628481 </v>
   <v>      -0.05091582       0.00000000      -0.05091582 </v>
   <v>      -0.03695109       0.07200336      -0.02999046 </v>
   <v>      -0.02999046       0.07200336      -0.03695109 </v>
   <v>      -0.03173497       0.00000000       0.07745685 </v>
   <v>      -0.07756544       0.00000000       0.03192918 </v>
   <v>       0.11037005       0.11040006      -0.11043033 </v>
   <v>       0.03674132       0.26664690      -0.03628481 </v>
   <v>      -0.18330077       0.00000000      -0.05363922 </v>
   <v>       0.05392268       0.00000000       0.18304729 </v>
   <v>      -0.03628481      -0.26664690       0.03674132 </v>
   <v>      -0.11043033      -0.11040006       0.11037005 </v>
   <v>      -0.03366671       0.00000000      -0.03366671 </v>
   <v>       0.11655897       0.00000000       0.11655897 </v>
   <v>       0.02960520      -0.07190384       0.03688284 </v>
   <v>       0.03688284      -0.07190384       0.02960520 </v>
   <v>       0.07745685       0.00000000      -0.03173497 </v>
   <v>       0.03192918       0.00000000      -0.07756544 </v>
   <v>      -0.03628481       0.26664690       0.03674132 </v>
   <v>      -0.11043033       0.11040006       0.11037005 </v>
   <v>       0.05076310       0.00000000       0.05076310 </v>
   <v>       0.02960520       0.07190384       0.03688284 </v>
   <v>       0.03688284       0.07190384       0.02960520 </v>
  </varray>
  <varray name="stress" >
   <v>     -16.99585034       0.00000000       6.39742560 </v>
   <v>       0.00000000     -13.68737518       0.00000000 </v>
   <v>       6.39742560       0.00000000     -16.99585034 </v>
  </varray>
  <energy>
   <i name="e_fr_energy">    -99.34002650 </i>
   <i name="e_wo_entrp">    -99.32383920 </i>
   <i name="e_0_energy">     -0.04856192 </i>
  </energy>
  <time name="totalsc">  182.98   79.26</time>
 </calculation>
 <calculation>
  <scstep>
   <time name="diag">    1.96    1.49</time>
   <time name="diis">   20.41    6.11</time>
   <time name="orth">    0.17    0.04</time>
   <time name="total">   25.80   10.71</time>
   <energy>
    <i name="alphaZ">     -6.10292531 </i>
    <i name="ewald">  -2227.07099792 </i>
    <i name="hartreedc">    -24.54033729 </i>
    <i name="XCdc">   -810.78802788 </i>
    <i name="pawpsdc">   1101.90341005 </i>
    <i name="pawaedc">   -111.55438105 </i>
    <i name="eentropy">     -0.04496878 </i>
    <i name="bandstr">    319.14474362 </i>
    <i name="atom">   1659.66634407 </i>
    <i name="e_fr_energy">    -99.38714047 </i>
    <i name="e_wo_entrp">    -99.34217170 </i>
    <i name="e_0_energy">    -99.37215088 </i>
   </energy>
  </scstep>
  <scstep>
   <time name="diag">    1.98    1.50</time>
   <time name="diis">   21.30    6.33</time>
   <time name="orth">    0.17    0.04</time>
   <time name="total">   26.48   10.87</time>
   <energy>
    <i name="e_fr_energy">    -99.38357741 </i>
    <i name="e_wo_entrp">    -99.33745241 </i>
    <i name="e_0_energy">    -99.36820241 </i>
   </energy>
  </scstep>
  <scstep>
   <time name="diag">    2.02    1.51</time>
   <time name="diis">   20.33    6.06</time>
   <time name="orth">    0.17    0.04</time>
   <time name="total">   25.56   10.55</time>
   <energy>
    <i name="e_fr_energy">    -99.38295420 </i>
    <i name="e_wo_entrp">    -99.33635290 </i>
    <i name="e_0_energy">    -99.36742043 </i>
   </energy>
  </scstep>
  <scstep>
   <time name="diag">    2.00    1.50</time>
   <time name="diis">   15.20    4.68</time>
   <time name="orth">    0.17    0.04</time>
   <time name="total">   19.25    8.09</time>
   <energy>
    <i name="alphaZ">     -6.10292531 </i>
    <i name="ewald">  -2227.07099792 </i>
    <i name="hartreedc">    -24.66989635 </i>
    <i name="XCdc">   -810.78748226 </i>
    <i name="pawpsdc">   1101.91159776 </i>
    <i name="pawaedc">   -111.56313002 </i>
    <i name="eentropy">     -0.04662509 </i>
    <i name="bandstr">    319.28018758 </i>
    <i name="atom">   1659.66634407 </i>
    <i name="e_fr_energy">    -99.38292753 </i>
    <i name="e_wo_entrp">    -99.33630244 </i>
    <i name="e_0_energy">    -99.36738584 </i>
   </energy>
  </scstep>
  <structure>
   <crystal>
    <varray name="basis" >
     <v>       8.08705400       0.00000000       0.00000000 </v>
     <v>       0.00000000       8.08705400       0.00000000 </v>
     <v>       0.00000000       0.00000000       8.08705400 </v>
    </varray>
    <i name="volume">    528.89690930 </i>
    <varray name="rec_basis" >
     <v>       0.12365442       0.00000000       0.00000000 </v>
     <v>       0.00000000       0.12365442       0.00000000 </v>
     <v>       0.00000000       0.00000000       0.12365442 </v>
    </varray>
   </crystal>
   <varray name="positions" >
    <v>       0.37500768       0.50000000       0.37500768 </v>
    <v>       0.99342125       0.00000000       0.99342125 </v>
    <v>       0.24962372       0.00000000       0.24962372 </v>
    <v>       0.24916524       0.24916391       0.00034482 </v>
    <v>       0.00034482       0.24916391       0.24916524 </v>
    <v>       0.50493030       0.00000000       0.99730783 </v>
    <v>       0.75270217       0.00000000       0.24506198 </v>
    <v>       0.74873023       0.24151171       1.00127589 </v>
    <v>       0.50860168       0.23921027       0.24138410 </v>
    <v>       0.00242609       0.50000000       0.00242609 </v>
    <v>       0.24916524       0.75083609       0.00034482 </v>
    <v>       0.00034482       0.75083609       0.24916524 </v>
    <v>       0.49842970       0.50000000       0.00912981 </v>
    <v>       0.74089130       0.50000000       0.25155540 </v>
    <v>       0.74873023       0.75848829       1.00127589 </v>
    <v>       0.50860168       0.76078973       0.24138410 </v>
    <v>       0.99730783       0.00000000       0.50493030 </v>
    <v>       0.24506198       0.00000000       0.75270217 </v>
    <v>       0.24138410       0.23921027       0.50860168 </v>
    <v>       1.00127589       0.24151171       0.74873023 </v>
    <v>       0.50036811       0.00000000       0.50036811 </v>
    <v>       0.75659022       0.00000000       0.75659022 </v>
    <v>       0.74966895       0.24915879       0.50082845 </v>
    <v>       0.50082845       0.24915879       0.74966895 </v>
    <v>       0.00912981       0.50000000       0.49842970 </v>
    <v>       0.25155540       0.50000000       0.74089130 </v>
    <v>       0.24138410       0.76078973       0.50860168 </v>
    <v>       1.00127589       0.75848829       0.74873023 </v>
    <v>       0.74758864       0.50000000       0.74758864 </v>
    <v>       0.74966895       0.75084121       0.50082845 </v>
    <v>       0.50082845       0.75084121       0.74966895 </v>
   </varray>
  </structure>
  <varray name="forces" >
   <v>       0.00000393       0.00000000       0.00000393 </v>
   <v>      -0.07953156       0.00000000      -0.07953156 </v>
   <v>       0.01980128       0.00000000       0.01980128 </v>
   <v>      -0.05085299      -0.05127482      -0.00582845 </v>
   <v>      -0.00582845      -0.05127482      -0.05085299 </v>
   <v>      -0.02894568       0.00000000      -0.13524079 </v>
   <v>       0.13501452       0.00000000       0.02919191 </v>
   <v>       0.08773848      -0.08666928      -0.08784710 </v>
   <v>       0.01244538      -0.18868635      -0.01212045 </v>
   <v>      -0.03462754       0.00000000      -0.03462754 </v>
   <v>      -0.05085299       0.05127482      -0.00582845 </v>
   <v>      -0.00582845       0.05127482      -0.05085299 </v>
   <v>      -0.01600099       0.00000000       0.07588877 </v>
   <v>      -0.07599396       0.00000000       0.01616197 </v>
   <v>       0.08773848       0.08666928      -0.08784710 </v>
   <v>       0.01244538       0.18868635      -0.01212045 </v>
   <v>      -0.13524079       0.00000000      -0.02894568 </v>
   <v>       0.02919191       0.00000000       0.13501452 </v>
   <v>      -0.01212045      -0.18868635       0.01244538 </v>
   <v>      -0.08784710      -0.08666928       0.08773848 </v>
   <v>      -0.01963632       0.00000000      -0.01963632 </v>
   <v>       0.07948667       0.00000000       0.07948667 </v>
   <v>       0.00556705      -0.05120422       0.05088590 </v>
   <v>       0.05088590      -0.05120422       0.00556705 </v>
   <v>       0.07588877       0.00000000      -0.01600099 </v>
   <v>       0.01616197       0.00000000      -0.07599396 </v>
   <v>      -0.01212045       0.18868635       0.01244538 </v>
   <v>      -0.08784710       0.08666928       0.08773848 </v>
   <v>       0.03445215       0.00000000       0.03445215 </v>
   <v>       0.00556705       0.05120422       0.05088590 </v>
   <v>       0.05088590       0.05120422       0.00556705 </v>
  </varray>
  <varray name="stress" >
   <v>     -16.99412373       0.00000000       6.73285368 </v>
   <v>       0.00000000     -13.36349168       0.00000000 </v>
   <v>       6.73285368       0.00000000     -16.99412373 </v>
  </varray>
  <energy>
   <i name="e_fr_energy">    -99.38292753 </i>
   <i name="e_wo_entrp">    -99.36738584 </i>
   <i name="e_0_energy">     -0.04662509 </i>
  </energy>
  <time name="totalsc">  124.80   55.61</time>
  <eigenvalues>
   <array>
    <dimension dim="1">band</dimension>
    <dimension dim="2">kpoint</dimension>
    <dimension dim="3">spin</dimension>
    <field>eigene</field>
    <field>occ</field>
    <set>
     <set comment="spin 1">
      <set comment="kpoint 1">
       <r>   -3.3509    1.0000 </r>
       <r>   -1.3743    1.0000 </r>
       <r>   -1.1663    1.0000 </r>
       <r>   -1.1140    1.0000 </r>
       <r>   -1.1033    1.0000 </r>
       <r>   -0.9813    1.0000 </r>
       <r>   -0.8303    1.0000 </r>
       <r>    0.7984    1.0000 </r>
       <r>    0.8815    1.0000 </r>
       <r>    0.9353    1.0000 </r>
       <r>    1.0191    1.0000 </r>
       <r>    1.1121    1.0000 </r>
       <r>    1.1130    1.0000 </r>
       <r>    1.1133    1.0000 </r>
       <r>    1.1140    1.0000 </r>
       <r>    1.2161    1.0000 </r>
       <r>    1.2789    1.0000 </r>
       <r>    1.3646    1.0000 </r>
       <r>    1.9264    1.0000 </r>
       <r>    3.1492    1.0000 </r>
       <r>    3.2221    1.0000 </r>
       <r>    3.2290    1.0000 </r>
       <r>    3.2505    1.0000 </r>
       <r>    3.3261    1.0000 </r>
       <r>    3.3372    1.0000 </r>
       <r>    3.6944    1.0000 </r>
       <r>    3.8218    1.0000 </r>
       <r>    4.8756    1.0000 </r>
       <r>    4.9077    1.0000 </r>
       <r>    4.9300    1.0000 </r>
       <r>    6.0454    1.0000 </r>
       <r>    6.2249    1.0000 </r>
       <r>    6.3521    1.0000 </r>
       <r>    6.6265    1.0000 </r>
       <r>    6.6587    1.0000 </r>
       <r>    6.8021    1.0000 </r>
       <r>    6.9058    1.0000 </r>
       <r>    6.9361    1.0000 </r>
       <r>    6.9550    1.0000 </r>
       <r>    6.9551    1.0000 </r>
       <r>    7.0583    1.0000 </r>
       <r>    7.1072    1.0000 </r>
       <r>    7.2348    1.0000 </r>
       <r>    7.2776    1.0000 </r>
       <r>    7.3165    1.0001 </r>
       <r>    7.4958    1.0045 </r>
       <r>    7.9877    0.2642 </r>
       <r>    8.0014    0.2159 </r>
       <r>    8.0796    0.0234 </r>
       <r>    8.0861    0.0141 </r>
       <r>    8.2530   -0.0222 </r>
       <r>    8.6090    0.0000 </r>
       <r>    8.6832    0.0000 </r>
       <r>    8.6984    0.0000 </r>
       <r>    8.7767    0.0000 </r>
       <r>    8.8019    0.0000 </r>
       <r>    8.9100    0.0000 </r>
       <r>    9.0054    0.0000 </r>
       <r>    9.0123    0.0000 </r>
       <r>    9.0366    0.0000 </r>
       <r>    9.0458    0.0000 </r>
       <r>    9.1236    0.0000 </r>
      </set>
     </set>
    </set>
   </array>
  </eigenvalues>
  <separator name="orbital magnetization" >
   <v name="MAGDIPOLOUT">      0.00000000      0.00000000      0.00000000</v>
  </separator>
 </calculation>
 <structure name="finalpos" >
  <crystal>
   <varray name="basis" >
    <v>       8.08705400       0.00000000       0.00000000 </v>
    <v>       0.00000000       8.08705400       0.00000000 </v>
    <v>       0.00000000       0.00000000       8.08705400 </v>
   </varray>
   <i name="volume">    528.89690930 </i>
   <varray name="rec_basis" >
    <v>       0.12365442       0.00000000       0.00000000 </v>
    <v>       0.00000000       0.12365442       0.00000000 </v>
    <v>       0.00000000       0.00000000       0.12365442 </v>
   </varray>
  </crystal>
  <varray name="positions" >
   <v>       0.37500768       0.50000000       0.37500768 </v>
   <v>       0.99342125       0.00000000       0.99342125 </v>
   <v>       0.24962372       0.00000000       0.24962372 </v>
   <v>       0.24916524       0.24916391       0.00034482 </v>
   <v>       0.00034482       0.24916391       0.24916524 </v>
   <v>       0.50493030       0.00000000       0.99730783 </v>
   <v>       0.75270217       0.00000000       0.24506198 </v>
   <v>       0.74873023       0.24151171       1.00127589 </v>
   <v>       0.50860168       0.23921027       0.24138410 </v>
   <v>       0.00242609       0.50000000       0.00242609 </v>
   <v>       0.24916524       0.75083609       0.00034482 </v>
   <v>       0.00034482       0.75083609       0.24916524 </v>
   <v>       0.49842970       0.50000000       0.00912981 </v>
   <v>       0.74089130       0.50000000       0.25155540 </v>
   <v>       0.74873023       0.75848829       1.00127589 </v>
   <v>       0.50860168       0.76078973       0.24138410 </v>
   <v>       0.99730783       0.00000000       0.50493030 </v>
   <v>       0.24506198       0.00000000       0.75270217 </v>
   <v>       0.24138410       0.23921027       0.50860168 </v>
   <v>       1.00127589       0.24151171       0.74873023 </v>
   <v>       0.50036811       0.00000000       0.50036811 </v>
   <v>       0.75659022       0.00000000       0.75659022 </v>
   <v>       0.74966895       0.24915879       0.50082845 </v>
   <v>       0.50082845       0.24915879       0.74966895 </v>
   <v>       0.00912981       0.50000000       0.49842970 </v>
   <v>       0.25155540       0.50000000       0.74089130 </v>
   <v>       0.24138410       0.76078973       0.50860168 </v>
   <v>       1.00127589       0.75848829       0.74873023 </v>
   <v>       0.74758864       0.50000000       0.74758864 </v>
   <v>       0.74966895       0.75084121       0.50082845 </v>
   <v>       0.50082845       0.75084121       0.74966895 </v>
  </varray>
 </structure>
</modeling>
