Disk quotas for user tam (uid 511): none
Processors received = 1
script running on host korczak.msae.wisc.edu
PBS_NODEFILE
korczak.local
 running on    1 nodes
 distr:  one band on    1 nodes,    1 groups
 vasp.5.2.2 15Apr09 complex 
 POSCAR found type information on POSCAR  Al
 POSCAR found :  1 types and    3 ions
 LDA part: xc-table for Ceperly-Alder, standard interpolation
 found WAVECAR, reading the header
 POSCAR, INCAR and KPOINTS ok, starting setup
 FFT: planning ...(           1 )
 reading WAVECAR
 the WAVECAR file was read sucessfully
 WARNING: chargedensity file is incomplete
 entering main loop
       N       E                     dE             d eps       ncg     rms          rms(c)
DAV:   1    -0.892545901502E+01   -0.89255E+01   -0.76384E-01    16   0.482E+00    0.211E+00
DAV:   2    -0.875632090109E+01    0.16914E+00   -0.23460E-01    16   0.274E+00    0.118E+00
DAV:   3    -0.870590193848E+01    0.50419E-01   -0.19039E-01    16   0.241E+00    0.286E-01
DAV:   4    -0.870561473638E+01    0.28720E-03   -0.64583E-03    16   0.649E-01    0.254E-02
DAV:   5    -0.870558899993E+01    0.25736E-04   -0.37564E-04    32   0.135E-01    0.129E-02
DAV:   6    -0.870557720973E+01    0.11790E-04   -0.10806E-05    16   0.304E-02    0.128E-03
DAV:   7    -0.870557713273E+01    0.77001E-07   -0.24904E-07    32   0.412E-03
   1 F= -.87055771E+01 E0= -.86780695E+01  d E =-.825229E-01
 Finite differences POTIM= 0.01000 DOF=   1
 bond charge predicted
       N       E                     dE             d eps       ncg     rms          rms(c)
DAV:   1    -0.870529996428E+01    0.27725E-03   -0.14761E-02    16   0.934E-01    0.556E-02
DAV:   2    -0.870521307678E+01    0.86888E-04   -0.43835E-04    32   0.162E-01    0.183E-02
DAV:   3    -0.870520276441E+01    0.10312E-04   -0.58703E-05    24   0.411E-02    0.448E-03
DAV:   4    -0.870520332693E+01   -0.56252E-06   -0.25677E-06    32   0.146E-02
   2 F= -.87052033E+01 E0= -.86777101E+01  d E =-.824797E-01
 Finite differences progress:
  Degree of freedom:   1/  1
  Displacement:        1/  2
  Total:               1/  2
 bond charge predicted
       N       E                     dE             d eps       ncg     rms          rms(c)
DAV:   1    -0.870559153695E+01   -0.38877E-03   -0.63240E-02    16   0.187E+00    0.111E-01
DAV:   2    -0.870524226626E+01    0.34927E-03   -0.17435E-03    32   0.322E-01    0.366E-02
DAV:   3    -0.870520049473E+01    0.41772E-04   -0.23342E-04    16   0.821E-02    0.898E-03
DAV:   4    -0.870520294597E+01   -0.24512E-05   -0.12389E-05    32   0.307E-02    0.457E-03
DAV:   5    -0.870520346111E+01   -0.51514E-06   -0.35638E-07    24   0.585E-03
   3 F= -.87052035E+01 E0= -.86777102E+01  d E =-.824798E-01
 Finite differences progress:
  Degree of freedom:   1/  1
  Displacement:        2/  2
  Total:               2/  2
 Finite differences POTIM=  1.000000000000000E-002
