<?xml version="1.0" encoding="ISO-8859-1"?>
<modeling>
 <generator>
  <i name="program" type="string">vasp </i>
  <i name="version" type="string">5.2.2  </i>
  <i name="subversion" type="string">15Apr09 complex  parallel </i>
  <i name="platform" type="string">LinuxIFC </i>
  <i name="date" type="string">2013 08 21 </i>
  <i name="time" type="string">16:10:47 </i>
 </generator>
 <incar>
  <i type="int" name="ISTART">     1</i>
  <i type="string" name="PREC">accurate</i>
  <i type="int" name="ICHARG">     1</i>
  <i type="int" name="IBRION">     5</i>
  <i type="int" name="NFREE">     2</i>
  <i type="int" name="NSW">   191</i>
  <i type="int" name="ISIF">     2</i>
  <i name="ENCUT">    360.65550000</i>
  <i name="POTIM">      0.01000000</i>
  <i type="int" name="ISMEAR">     1</i>
  <i name="SIGMA">      0.20000000</i>
  <i type="logical" name="LWAVE"> F  </i>
  <i type="logical" name="LCHARG"> F  </i>
  <i type="logical" name="LPEAD"> F  </i>
  <i type="logical" name="LCALCPOL"> F  </i>
  <i type="logical" name="LCALCEPS"> F  </i>
  <v name="EFIELD_PEAD">      0.00000000      0.00000000      0.00000000</v>
  <i type="logical" name="LEFG"> F  </i>
 </incar>
 <kpoints>
  <generation param="Monkhorst-Pack">
   <v type="int" name="divisions">       2        2        2 </v>
   <v name="usershift">      0.00000000       0.00000000       0.00000000 </v>
   <v name="genvec1">      0.50000000       0.00000000       0.00000000 </v>
   <v name="genvec2">      0.00000000       0.50000000       0.00000000 </v>
   <v name="genvec3">      0.00000000       0.00000000       0.50000000 </v>
   <v name="shift">      0.50000000       0.50000000       0.50000000 </v>
  </generation>
  <varray name="kpointlist" >
   <v>       0.25000000       0.25000000       0.25000000 </v>
  </varray>
  <varray name="weights" >
   <v>       1.00000000 </v>
  </varray>
 </kpoints>
 <parameters>
  <separator name="general" >
   <i type="string" name="SYSTEM">unknown system</i>
   <i type="logical" name="LCOMPAT"> F  </i>
  </separator>
  <separator name="electronic" >
   <i type="string" name="PREC">accura</i>
   <i name="ENMAX">    360.65550000</i>
   <i name="ENAUG">    291.05200000</i>
   <i name="EDIFF">      0.00000100</i>
   <i type="int" name="IALGO">    38</i>
   <i type="int" name="IWAVPR">    11</i>
   <i type="int" name="NBANDS">    10</i>
   <i name="NELECT">     12.00000000</i>
   <separator name="electronic smearing" >
    <i type="int" name="ISMEAR">     1</i>
    <i name="SIGMA">      0.20000000</i>
   </separator>
   <separator name="electronic projectors" >
    <i type="logical" name="LREAL"> F  </i>
    <v name="ROPT">      0.00000000</v>
    <i type="int" name="LMAXPAW">  -100</i>
    <i type="int" name="LMAXMIX">     2</i>
   </separator>
   <separator name="electronic startup" >
    <i type="int" name="ISTART">     1</i>
    <i type="int" name="ICHARG">     1</i>
    <i type="int" name="INIWAV">     1</i>
   </separator>
   <separator name="electronic spin" >
    <i type="int" name="ISPIN">     1</i>
    <i type="logical" name="LNONCOLLINEAR"> F  </i>
    <v name="MAGMOM">      1.00000000      1.00000000      1.00000000      1.00000000</v>
    <i name="NUPDOWN">     -1.00000000</i>
    <i type="logical" name="LSORBIT"> F  </i>
    <v name="SAXIS">      0.00000000      0.00000000      1.00000000</v>
    <i type="logical" name="LSPIRAL"> F  </i>
    <v name="QSPIRAL">      0.00000000      0.00000000      0.00000000</v>
    <i type="logical" name="LZEROZ"> F  </i>
   </separator>
   <separator name="electronic exchange-correlation" >
    <i type="logical" name="LASPH"> F  </i>
    <i type="logical" name="LMETAGGA"> F  </i>
   </separator>
   <separator name="electronic convergence" >
    <i type="int" name="NELM">    60</i>
    <i type="int" name="NELMDL">     0</i>
    <i type="int" name="NELMIN">     2</i>
    <i name="ENINI">    360.65550000</i>
    <separator name="electronic convergence detail" >
     <i type="logical" name="LDIAG"> T  </i>
     <i name="WEIMIN">      0.00100000</i>
     <i name="EBREAK">      0.00000002</i>
     <i name="DEPER">      0.30000000</i>
     <i type="int" name="NRMM">     4</i>
     <i name="TIME">      0.40000000</i>
    </separator>
   </separator>
   <separator name="electronic mixer" >
    <i name="AMIX">      0.40000000</i>
    <i name="BMIX">      1.00000000</i>
    <i name="AMIN">      0.10000000</i>
    <i name="AMIX_MAG">      1.60000000</i>
    <i name="BMIX_MAG">      1.00000000</i>
    <separator name="electronic mixer details" >
     <i type="int" name="IMIX">     4</i>
     <i type="int" name="MAXMIX">   -45</i>
     <i name="WC">    100.00000000</i>
     <i type="int" name="INIMIX">     1</i>
     <i type="int" name="MIXPRE">     1</i>
     <i type="int" name="MREMOVE">     5</i>
    </separator>
   </separator>
   <separator name="electronic dipolcorrection" >
    <i type="logical" name="LDIPOL"> F  </i>
    <i type="logical" name="LMONO"> F  </i>
    <i type="int" name="IDIPOL">     0</i>
    <i name="EPSILON">      1.00000000</i>
    <v name="DIPOL">   -100.00000000   -100.00000000   -100.00000000</v>
    <i name="EFIELD">      0.00000000</i>
   </separator>
  </separator>
  <separator name="grids" >
   <i type="int" name="NGX">    28</i>
   <i type="int" name="NGY">    28</i>
   <i type="int" name="NGZ">    28</i>
   <i type="int" name="NGXF">    56</i>
   <i type="int" name="NGYF">    56</i>
   <i type="int" name="NGZF">    56</i>
   <i type="logical" name="ADDGRID"> F  </i>
  </separator>
  <separator name="ionic" >
   <i type="int" name="NSW">    85</i>
   <i type="int" name="IBRION">     5</i>
   <i type="int" name="ISIF">     2</i>
   <i name="PSTRESS">      0.00000000</i>
   <i name="EDIFFG">      0.00001000</i>
   <i type="int" name="NFREE">     2</i>
   <i name="POTIM">      0.01000000</i>
   <i name="SMASS">     -3.00000000</i>
  </separator>
  <separator name="ionic md" >
   <i name="TEBEG">      0.00010000</i>
   <i name="TEEND">      0.00010000</i>
   <i type="int" name="NBLOCK">     1</i>
   <i type="int" name="KBLOCK">     1</i>
   <i type="int" name="NPACO">   256</i>
   <i name="APACO">     16.00000000</i>
  </separator>
  <separator name="symmetry" >
   <i type="int" name="ISYM">     2</i>
   <i name="SYMPREC">      0.00001000</i>
  </separator>
  <separator name="dos" >
   <i type="logical" name="LORBIT"> F  </i>
   <v name="RWIGS">     -1.00000000</v>
   <i type="int" name="NEDOS">   301</i>
   <i name="EMIN">     10.00000000</i>
   <i name="EMAX">    -10.00000000</i>
   <i name="EFERMI">      0.00000000</i>
  </separator>
  <separator name="writing" >
   <i type="int" name="NWRITE">     2</i>
   <i type="logical" name="LWAVE"> F  </i>
   <i type="logical" name="LCHARG"> F  </i>
   <i type="logical" name="LPARD"> F  </i>
   <i type="logical" name="LVTOT"> F  </i>
   <i type="logical" name="LELF"> F  </i>
   <i type="logical" name="LOPTICS"> F  </i>
   <v name="STM">      0.00000000      0.00000000      0.00000000      0.00000000      0.00000000</v>
  </separator>
  <separator name="performance" >
   <i type="int" name="NPAR">     1</i>
   <i type="int" name="NSIM">     4</i>
   <i type="int" name="NBLK">    32</i>
   <i type="logical" name="LPLANE"> T  </i>
   <i type="logical" name="LSCALAPACK"> F  </i>
   <i type="logical" name="LSCAAWARE"> F  </i>
   <i type="logical" name="LSCALU"> F  </i>
   <i type="logical" name="LASYNC"> F  </i>
  </separator>
  <separator name="miscellaneous" >
   <i type="int" name="IDIOT">     3</i>
   <i type="logical" name="LMUSIC"> F  </i>
   <v name="POMASS">     26.98200000</v>
   <i type="logical" name="LCORR"> T  </i>
  </separator>
  <i type="logical" name="LREAL_COMPAT"> F  </i>
  <i type="logical" name="GGA_COMPAT"> T  </i>
  <i type="logical" name="LBERRY"> F  </i>
  <i type="int" name="ICORELEVEL">     0</i>
  <i type="logical" name="LDAU"> F  </i>
  <i type="int" name="I_CONSTRAINED_M">     0</i>
  <separator name="electronic exchange-correlation" >
   <i type="string" name="GGA">--</i>
   <i type="int" name="VOSKOWN">     0</i>
   <i type="logical" name="LHFCALC"> F  </i>
   <i type="logical" name="LHFONE"> F  </i>
   <i type="logical" name="LRHFCALC"> F  </i>
   <i type="logical" name="LTHOMAS"> F  </i>
   <i type="logical" name="LMODELHF"> F  </i>
   <i name="ENCUTFOCK">      0.00000000</i>
   <i name="ENCUT4O">     -1.00000000</i>
   <i type="int" name="EXXOEP">     0</i>
   <i type="int" name="FOURORBIT">     0</i>
   <i name="AEXX">      0.00000000</i>
   <i name="HFALPHA">      0.00000000</i>
   <i name="ALDAX">      1.00000000</i>
   <i name="AGGAX">      1.00000000</i>
   <i name="ALDAC">      1.00000000</i>
   <i name="AGGAC">      1.00000000</i>
   <i type="int" name="NKREDX">     1</i>
   <i type="int" name="NKREDY">     1</i>
   <i type="int" name="NKREDZ">     1</i>
   <i type="logical" name="SHIFTRED"> F  </i>
   <i type="logical" name="ODDONLY"> F  </i>
   <i type="logical" name="EVENONLY"> F  </i>
   <i type="int" name="LMAXFOCK">     0</i>
   <i type="int" name="NMAXFOCKAE">     0</i>
   <i name="HFSCREEN">      0.00000000</i>
   <i name="HFSCREENC">      0.00000000</i>
  </separator>
  <separator name="model GW" >
   <i type="int" name="MODEL_GW">     0</i>
   <i name="MODEL_EPS0">     10.24070928</i>
   <i name="MODEL_ALPHA">      1.00000000</i>
  </separator>
  <separator name="linear response parameters" >
   <i type="logical" name="LEPSILON"> F  </i>
   <i type="logical" name="LRPA"> F  </i>
   <i type="logical" name="LNABLA"> F  </i>
   <i type="logical" name="LVEL"> F  </i>
   <i type="int" name="KINTER">     0</i>
   <i name="CSHIFT">      0.10000000</i>
   <i name="OMEGAMAX">     -1.00000000</i>
  </separator>
  <separator name="orbital magnetization" >
   <i type="logical" name="ORBITALMAG"> F  </i>
   <i type="logical" name="LMAGBLOCH"> F  </i>
   <i type="logical" name="LCHIMAG"> F  </i>
   <i type="logical" name="LGAUGE"> T  </i>
   <i type="int" name="MAGATOM">     0</i>
   <v name="MAGDIPOL">      0.00000000      0.00000000      0.00000000</v>
   <v name="AVECCONST">      0.00000000      0.00000000      0.00000000</v>
  </separator>
  <separator name="response functions" >
   <i type="logical" name="LRPA"> T  </i>
   <i type="logical" name="LTCTE"> F  </i>
   <i type="logical" name="LTETE"> F  </i>
   <i type="logical" name="L2ORDER"> F  </i>
   <i type="logical" name="LGWLF"> F  </i>
   <i name="ENCUTGW">    240.43700000</i>
   <i name="ENCUTGWSOFT">     -2.00000000</i>
   <i name="ENCUTLF">     -1.00000000</i>
   <i type="int" name="LMAXMP2">    -1</i>
   <i name="SCISSOR">      0.00000000</i>
   <i type="int" name="NOMEGA">     0</i>
   <i type="int" name="NOMEGAR">     0</i>
   <i type="int" name="NBANDSGW">    -1</i>
   <i type="int" name="NBANDSLF">    -1</i>
   <i type="int" name="NELM">     1</i>
   <i type="int" name="DIM">     3</i>
   <i type="int" name="ANTIRES">     0</i>
   <i type="logical" name="LUSEW"> F  </i>
   <i name="OMEGAMAX">    -30.00000000</i>
   <i name="OMEGATL">   -200.00000000</i>
   <i type="int" name="OMEGAGRID">     0</i>
   <i name="CSHIFT">     -0.10000000</i>
   <i type="logical" name="SELFENERGY"> F  </i>
   <i type="logical" name="LSPECTRAL"> F  </i>
   <i type="logical" name="ODDONLYGW"> F  </i>
   <i type="logical" name="EVENONLYGW"> F  </i>
   <i type="int" name="NKREDLFX">     1</i>
   <i type="int" name="NKREDLFY">     1</i>
   <i type="int" name="NKREDLFZ">     1</i>
   <i type="int" name="MAXMEM">  1024</i>
   <i type="int" name="TELESCOPE">     0</i>
  </separator>
 </parameters>
 <atominfo>
  <atoms>       4 </atoms>
  <types>       1 </types>
  <array name="atoms" >
   <dimension dim="1">ion</dimension>
   <field type="string">element</field>
   <field type="int">atomtype</field>
   <set>
    <rc><c>Al</c><c>   1</c></rc>
    <rc><c>Al</c><c>   1</c></rc>
    <rc><c>Al</c><c>   1</c></rc>
    <rc><c>Al</c><c>   1</c></rc>
   </set>
  </array>
  <array name="atomtypes" >
   <dimension dim="1">type</dimension>
   <field type="int">atomspertype</field>
   <field type="string">element</field>
   <field>mass</field>
   <field>valence</field>
   <field type="string">pseudopotential</field>
   <set>
    <rc><c>   4</c><c>Al</c><c>     26.98200000</c><c>      3.00000000</c><c> PAW_GGA Al 05Jan2001                   </c></rc>
   </set>
  </array>
 </atominfo>
 <structure name="initialpos" >
  <crystal>
   <varray name="basis" >
    <v>       4.08707800       0.00000000       0.00000000 </v>
    <v>       0.00000000       4.08707800       0.00000000 </v>
    <v>       0.00000000       0.00000000       4.08707800 </v>
   </varray>
   <i name="volume">     68.27139521 </i>
   <varray name="rec_basis" >
    <v>       0.24467358       0.00000000       0.00000000 </v>
    <v>       0.00000000       0.24467358       0.00000000 </v>
    <v>       0.00000000       0.00000000       0.24467358 </v>
   </varray>
  </crystal>
  <varray name="positions" >
   <v>       0.00000000       0.00000000       0.00000000 </v>
   <v>       0.50000000       0.50000000       0.00000000 </v>
   <v>       0.00000000       0.50000000       0.50000000 </v>
   <v>       0.50000000       0.00000000       0.50000000 </v>
  </varray>
  <varray name="selective"  type="logical" >
   <v type="logical" >  F  F  F </v>
   <v type="logical" >  F  T  F </v>
   <v type="logical" >  F  F  F </v>
   <v type="logical" >  F  F  F </v>
  </varray>
  <nose>
   <v>      -3.00000000       0.00000000       0.00010000       0.00010000 </v>
  </nose>
 </structure>
 <calculation>
  <scstep>
   <time name="dav">    0.97    0.30</time>
   <time name="total">    2.36    1.31</time>
   <energy>
    <i name="alphaZ">     -0.59676569 </i>
    <i name="ewald">   -290.76486860 </i>
    <i name="hartreedc">     -0.46831921 </i>
    <i name="XCdc">   -105.81201312 </i>
    <i name="pawpsdc">    142.63640024 </i>
    <i name="pawaedc">    -14.42330091 </i>
    <i name="eentropy">     -0.14934360 </i>
    <i name="bandstr">     40.70846466 </i>
    <i name="atom">    214.76153871 </i>
    <i name="e_fr_energy">    -14.10820752 </i>
    <i name="e_wo_entrp">    -13.95886392 </i>
    <i name="e_0_energy">    -14.05842632 </i>
   </energy>
  </scstep>
  <scstep>
   <time name="dav">    0.52    0.14</time>
   <time name="total">    1.22    0.68</time>
   <energy>
    <i name="e_fr_energy">    -14.06490957 </i>
    <i name="e_wo_entrp">    -13.91556597 </i>
    <i name="e_0_energy">    -14.01512837 </i>
   </energy>
  </scstep>
  <scstep>
   <time name="dav">    0.52    0.14</time>
   <time name="total">    1.21    0.67</time>
   <energy>
    <i name="e_fr_energy">    -14.03480744 </i>
    <i name="e_wo_entrp">    -13.88546384 </i>
    <i name="e_0_energy">    -13.98502624 </i>
   </energy>
  </scstep>
  <scstep>
   <time name="dav">    0.52    0.15</time>
   <time name="total">    1.28    0.67</time>
   <energy>
    <i name="e_fr_energy">    -14.03484980 </i>
    <i name="e_wo_entrp">    -13.88550620 </i>
    <i name="e_0_energy">    -13.98506860 </i>
   </energy>
  </scstep>
  <scstep>
   <time name="dav">    0.84    0.22</time>
   <time name="total">    1.66    0.78</time>
   <energy>
    <i name="e_fr_energy">    -14.03485563 </i>
    <i name="e_wo_entrp">    -13.88551203 </i>
    <i name="e_0_energy">    -13.98507443 </i>
   </energy>
  </scstep>
  <scstep>
   <time name="dav">    0.48    0.13</time>
   <time name="total">    1.34    0.66</time>
   <energy>
    <i name="e_fr_energy">    -14.03485419 </i>
    <i name="e_wo_entrp">    -13.88551059 </i>
    <i name="e_0_energy">    -13.98507299 </i>
   </energy>
  </scstep>
  <scstep>
   <time name="dav">    0.33    0.10</time>
   <time name="total">    0.94    0.54</time>
   <energy>
    <i name="alphaZ">     -0.59676569 </i>
    <i name="ewald">   -290.76486860 </i>
    <i name="hartreedc">     -0.40835817 </i>
    <i name="XCdc">   -105.40881500 </i>
    <i name="pawpsdc">    142.87987349 </i>
    <i name="pawaedc">    -14.72318420 </i>
    <i name="eentropy">     -0.14934360 </i>
    <i name="bandstr">     40.37506895 </i>
    <i name="atom">    214.76153871 </i>
    <i name="e_fr_energy">    -14.03485412 </i>
    <i name="e_wo_entrp">    -13.88551052 </i>
    <i name="e_0_energy">    -13.98507292 </i>
   </energy>
  </scstep>
  <structure>
   <crystal>
    <varray name="basis" >
     <v>       4.08707800       0.00000000       0.00000000 </v>
     <v>       0.00000000       4.08707800       0.00000000 </v>
     <v>       0.00000000       0.00000000       4.08707800 </v>
    </varray>
    <i name="volume">     68.27139521 </i>
    <varray name="rec_basis" >
     <v>       0.24467358       0.00000000       0.00000000 </v>
     <v>       0.00000000       0.24467358       0.00000000 </v>
     <v>       0.00000000       0.00000000       0.24467358 </v>
    </varray>
   </crystal>
   <varray name="positions" >
    <v>       0.00000000       0.00000000       0.00000000 </v>
    <v>       0.50000000       0.50000000       0.00000000 </v>
    <v>       0.00000000       0.50000000       0.50000000 </v>
    <v>       0.50000000       0.00000000       0.50000000 </v>
   </varray>
  </structure>
  <varray name="forces" >
   <v>       0.00000000       0.00000000       0.00000000 </v>
   <v>       0.00000000       0.00000000       0.00000000 </v>
   <v>       0.00000000       0.00000000       0.00000000 </v>
   <v>       0.00000000       0.00000000       0.00000000 </v>
  </varray>
  <varray name="stress" >
   <v>      -0.46515927       0.00000000       0.00000000 </v>
   <v>       0.00000000      -0.46515927       0.00000000 </v>
   <v>       0.00000000       0.00000000      -0.46515927 </v>
  </varray>
  <energy>
   <i name="e_fr_energy">    -14.03485412 </i>
   <i name="e_wo_entrp">    -13.98507292 </i>
   <i name="e_0_energy">     -0.14934360 </i>
  </energy>
  <kpoints>
   <generation param="Monkhorst-Pack">
    <v type="int" name="divisions">       2        2        2 </v>
    <v name="usershift">      0.00000000       0.00000000       0.00000000 </v>
    <v name="genvec1">      0.50000000       0.00000000       0.00000000 </v>
    <v name="genvec2">      0.00000000       0.50000000       0.00000000 </v>
    <v name="genvec3">      0.00000000       0.00000000       0.50000000 </v>
    <v name="shift">      0.50000000       0.50000000       0.50000000 </v>
   </generation>
   <varray name="kpointlist" >
    <v>       0.25000000       0.25000000       0.25000000 </v>
   </varray>
   <varray name="weights" >
    <v>       1.00000000 </v>
   </varray>
  </kpoints>
  <time name="totalsc">   12.16    6.87</time>
 </calculation>
 <calculation>
  <scstep>
   <time name="dav">    0.51    0.14</time>
   <time name="total">    1.35    0.66</time>
   <energy>
    <i name="alphaZ">     -0.59676569 </i>
    <i name="ewald">   -290.76367589 </i>
    <i name="hartreedc">     -0.40877670 </i>
    <i name="XCdc">   -105.40879684 </i>
    <i name="pawpsdc">    142.88049734 </i>
    <i name="pawaedc">    -14.72382220 </i>
    <i name="eentropy">     -0.14892297 </i>
    <i name="bandstr">     40.37368774 </i>
    <i name="atom">    214.76153871 </i>
    <i name="e_fr_energy">    -14.03503649 </i>
    <i name="e_wo_entrp">    -13.88611352 </i>
    <i name="e_0_energy">    -13.98539550 </i>
   </energy>
  </scstep>
  <scstep>
   <time name="dav">    0.91    0.24</time>
   <time name="total">    1.60    0.76</time>
   <energy>
    <i name="e_fr_energy">    -14.03483137 </i>
    <i name="e_wo_entrp">    -13.88561111 </i>
    <i name="e_0_energy">    -13.98509129 </i>
   </energy>
  </scstep>
  <scstep>
   <time name="dav">    0.55    0.15</time>
   <time name="total">    1.23    0.78</time>
   <energy>
    <i name="e_fr_energy">    -14.03482794 </i>
    <i name="e_wo_entrp">    -13.88558453 </i>
    <i name="e_0_energy">    -13.98508014 </i>
   </energy>
  </scstep>
  <scstep>
   <time name="dav">    0.92    0.25</time>
   <time name="total">    1.44    0.69</time>
   <energy>
    <i name="alphaZ">     -0.59676569 </i>
    <i name="ewald">   -290.76367589 </i>
    <i name="hartreedc">     -0.40927575 </i>
    <i name="XCdc">   -105.40873994 </i>
    <i name="pawpsdc">    142.88097509 </i>
    <i name="pawaedc">    -14.72432205 </i>
    <i name="eentropy">     -0.14924147 </i>
    <i name="bandstr">     40.37467843 </i>
    <i name="atom">    214.76153871 </i>
    <i name="e_fr_energy">    -14.03482855 </i>
    <i name="e_wo_entrp">    -13.88558708 </i>
    <i name="e_0_energy">    -13.98508139 </i>
   </energy>
  </scstep>
  <structure>
   <crystal>
    <varray name="basis" >
     <v>       4.08707800       0.00000000       0.00000000 </v>
     <v>       0.00000000       4.08707800       0.00000000 </v>
     <v>       0.00000000       0.00000000       4.08707800 </v>
    </varray>
    <i name="volume">     68.27139521 </i>
    <varray name="rec_basis" >
     <v>       0.24467358       0.00000000       0.00000000 </v>
     <v>       0.00000000       0.24467358       0.00000000 </v>
     <v>       0.00000000       0.00000000       0.24467358 </v>
    </varray>
   </crystal>
   <varray name="positions" >
    <v>       0.00000000       0.00000000       0.00000000 </v>
    <v>       0.50000000       0.50244674       0.00000000 </v>
    <v>       0.00000000       0.50000000       0.50000000 </v>
    <v>       0.50000000       0.00000000       0.50000000 </v>
   </varray>
  </structure>
  <varray name="forces" >
   <v>       0.00000000       0.02483517       0.00000000 </v>
   <v>       0.00000000      -0.00515639       0.00000000 </v>
   <v>       0.00000000      -0.04451396       0.00000000 </v>
   <v>       0.00000000       0.02483517       0.00000000 </v>
  </varray>
  <varray name="stress" >
   <v>      -0.41042844       0.00000000       0.00000000 </v>
   <v>       0.00000000      -0.51455116       0.00000000 </v>
   <v>       0.00000000       0.00000000      -0.41042844 </v>
  </varray>
  <energy>
   <i name="e_fr_energy">    -14.03482855 </i>
   <i name="e_wo_entrp">    -13.98508139 </i>
   <i name="e_0_energy">     -0.14924147 </i>
  </energy>
  <kpoints>
   <generation param="Monkhorst-Pack">
    <v type="int" name="divisions">       2        2        2 </v>
    <v name="usershift">      0.00000000       0.00000000       0.00000000 </v>
    <v name="genvec1">      0.50000000       0.00000000       0.00000000 </v>
    <v name="genvec2">      0.00000000       0.50000000       0.00000000 </v>
    <v name="genvec3">      0.00000000       0.00000000       0.50000000 </v>
    <v name="shift">      0.50000000       0.50000000       0.50000000 </v>
   </generation>
   <varray name="kpointlist" >
    <v>       0.25000000       0.25000000       0.25000000 </v>
   </varray>
   <varray name="weights" >
    <v>       1.00000000 </v>
   </varray>
  </kpoints>
  <time name="totalsc">    7.75    4.46</time>
 </calculation>
 <calculation>
  <scstep>
   <time name="dav">    0.51    0.14</time>
   <time name="total">    1.36    0.66</time>
   <energy>
    <i name="alphaZ">     -0.59676569 </i>
    <i name="ewald">   -290.76367589 </i>
    <i name="hartreedc">     -0.40861679 </i>
    <i name="XCdc">   -105.40874133 </i>
    <i name="pawpsdc">    142.88100226 </i>
    <i name="pawaedc">    -14.72435012 </i>
    <i name="eentropy">     -0.14838538 </i>
    <i name="bandstr">     40.37232662 </i>
    <i name="atom">    214.76153871 </i>
    <i name="e_fr_energy">    -14.03566760 </i>
    <i name="e_wo_entrp">    -13.88728222 </i>
    <i name="e_0_energy">    -13.98620581 </i>
   </energy>
  </scstep>
  <scstep>
   <time name="dav">    0.85    0.23</time>
   <time name="total">    1.53    0.74</time>
   <energy>
    <i name="e_fr_energy">    -14.03483968 </i>
    <i name="e_wo_entrp">    -13.88564367 </i>
    <i name="e_0_energy">    -13.98510767 </i>
   </energy>
  </scstep>
  <scstep>
   <time name="dav">    0.60    0.16</time>
   <time name="total">    1.28    0.74</time>
   <energy>
    <i name="e_fr_energy">    -14.03482572 </i>
    <i name="e_wo_entrp">    -13.88558085 </i>
    <i name="e_0_energy">    -13.98507743 </i>
   </energy>
  </scstep>
  <scstep>
   <time name="dav">    0.85    0.23</time>
   <time name="total">    1.60    0.74</time>
   <energy>
    <i name="e_fr_energy">    -14.03482811 </i>
    <i name="e_wo_entrp">    -13.88558729 </i>
    <i name="e_0_energy">    -13.98508117 </i>
   </energy>
  </scstep>
  <scstep>
   <time name="dav">    0.75    0.20</time>
   <time name="total">    1.33    0.65</time>
   <energy>
    <i name="alphaZ">     -0.59676569 </i>
    <i name="ewald">   -290.76367589 </i>
    <i name="hartreedc">     -0.40928462 </i>
    <i name="XCdc">   -105.40873737 </i>
    <i name="pawpsdc">    142.88098896 </i>
    <i name="pawaedc">    -14.72433631 </i>
    <i name="eentropy">     -0.14924358 </i>
    <i name="bandstr">     40.37468708 </i>
    <i name="atom">    214.76153871 </i>
    <i name="e_fr_energy">    -14.03482870 </i>
    <i name="e_wo_entrp">    -13.88558512 </i>
    <i name="e_0_energy">    -13.98508084 </i>
   </energy>
  </scstep>
  <structure>
   <crystal>
    <varray name="basis" >
     <v>       4.08707800       0.00000000       0.00000000 </v>
     <v>       0.00000000       4.08707800       0.00000000 </v>
     <v>       0.00000000       0.00000000       4.08707800 </v>
    </varray>
    <i name="volume">     68.27139521 </i>
    <varray name="rec_basis" >
     <v>       0.24467358       0.00000000       0.00000000 </v>
     <v>       0.00000000       0.24467358       0.00000000 </v>
     <v>       0.00000000       0.00000000       0.24467358 </v>
    </varray>
   </crystal>
   <varray name="positions" >
    <v>       0.00000000       0.00000000       0.00000000 </v>
    <v>       0.50000000       0.49755326       0.00000000 </v>
    <v>       0.00000000       0.50000000       0.50000000 </v>
    <v>       0.50000000       0.00000000       0.50000000 </v>
   </varray>
  </structure>
  <varray name="forces" >
   <v>       0.00000000      -0.02473922       0.00000000 </v>
   <v>       0.00000000       0.00544417       0.00000000 </v>
   <v>       0.00000000       0.04403427       0.00000000 </v>
   <v>       0.00000000      -0.02473922       0.00000000 </v>
  </varray>
  <varray name="stress" >
   <v>      -0.41061684       0.00000000       0.00000000 </v>
   <v>       0.00000000      -0.51535473       0.00000000 </v>
   <v>       0.00000000       0.00000000      -0.41061684 </v>
  </varray>
  <energy>
   <i name="e_fr_energy">    -14.03482870 </i>
   <i name="e_wo_entrp">    -13.98508084 </i>
   <i name="e_0_energy">     -0.14924358 </i>
  </energy>
  <dynmat>
   <varray name="hessian" >
    <v>      -0.01964375 </v>
   </varray>
   <v name="eigenvalues"> -1.96437512E-02</v>
   <varray name="eigenvectors" >
    <v>   1.00000000E+00</v>
   </varray>
  </dynmat>
  <kpoints>
   <generation param="Monkhorst-Pack">
    <v type="int" name="divisions">       2        2        2 </v>
    <v name="usershift">      0.00000000       0.00000000       0.00000000 </v>
    <v name="genvec1">      0.50000000       0.00000000       0.00000000 </v>
    <v name="genvec2">      0.00000000       0.50000000       0.00000000 </v>
    <v name="genvec3">      0.00000000       0.00000000       0.50000000 </v>
    <v name="shift">      0.50000000       0.50000000       0.50000000 </v>
   </generation>
   <varray name="kpointlist" >
    <v>       0.25000000       0.25000000       0.25000000 </v>
   </varray>
   <varray name="weights" >
    <v>       1.00000000 </v>
   </varray>
  </kpoints>
  <time name="totalsc">    9.20    5.05</time>
  <eigenvalues>
   <array>
    <dimension dim="1">band</dimension>
    <dimension dim="2">kpoint</dimension>
    <dimension dim="3">spin</dimension>
    <field>eigene</field>
    <field>occ</field>
    <set>
     <set comment="spin 1">
      <set comment="kpoint 1">
       <r>   -1.6236    1.0000 </r>
       <r>    2.6814    1.0000 </r>
       <r>    2.6843    1.0000 </r>
       <r>    2.6873    1.0000 </r>
       <r>    6.8754    0.6808 </r>
       <r>    6.8790    0.6666 </r>
       <r>    6.8825    0.6526 </r>
       <r>   10.9836    0.0000 </r>
       <r>   11.1838    0.0000 </r>
       <r>   11.1858    0.0000 </r>
      </set>
     </set>
    </set>
   </array>
  </eigenvalues>
  <separator name="orbital magnetization" >
   <v name="MAGDIPOLOUT">      0.00000000      0.00000000      0.00000000</v>
  </separator>
  <dos>
   <i name="efermi">      6.91925402 </i>
   <total>
    <array>
     <dimension dim="1">gridpoints</dimension>
     <dimension dim="2">spin</dimension>
     <field>energy</field>
     <field>total</field>
     <field>integrated</field>
     <set>
      <set comment="spin 1">
       <r>  -3.6236   0.0000   0.0000 </r>
       <r>  -3.5675   0.0000   0.0000 </r>
       <r>  -3.5115   0.0000   0.0000 </r>
       <r>  -3.4555   0.0000   0.0000 </r>
       <r>  -3.3994   0.0000   0.0000 </r>
       <r>  -3.3434   0.0000   0.0000 </r>
       <r>  -3.2874   0.0000   0.0000 </r>
       <r>  -3.2313   0.0000   0.0000 </r>
       <r>  -3.1753   0.0000   0.0000 </r>
       <r>  -3.1193   0.0000   0.0000 </r>
       <r>  -3.0633   0.0000   0.0000 </r>
       <r>  -3.0072   0.0000   0.0000 </r>
       <r>  -2.9512   0.0000   0.0000 </r>
       <r>  -2.8952   0.0000   0.0000 </r>
       <r>  -2.8391   0.0000   0.0000 </r>
       <r>  -2.7831   0.0000   0.0000 </r>
       <r>  -2.7271   0.0000   0.0000 </r>
       <r>  -2.6710   0.0000   0.0000 </r>
       <r>  -2.6150   0.0000   0.0000 </r>
       <r>  -2.5590   0.0000   0.0000 </r>
       <r>  -2.5029   0.0000   0.0000 </r>
       <r>  -2.4469   0.0000   0.0000 </r>
       <r>  -2.3909   0.0000   0.0000 </r>
       <r>  -2.3348  -0.0001   0.0000 </r>
       <r>  -2.2788  -0.0005   0.0000 </r>
       <r>  -2.2228  -0.0028  -0.0002 </r>
       <r>  -2.1667  -0.0115  -0.0008 </r>
       <r>  -2.1107  -0.0399  -0.0031 </r>
       <r>  -2.0547  -0.1124  -0.0094 </r>
       <r>  -1.9987  -0.2506  -0.0234 </r>
       <r>  -1.9426  -0.4133  -0.0466 </r>
       <r>  -1.8866  -0.3949  -0.0687 </r>
       <r>  -1.8306   0.2127  -0.0568 </r>
       <r>  -1.7745   1.8138   0.0449 </r>
       <r>  -1.7185   4.3440   0.2883 </r>
       <r>  -1.6625   6.9483   0.6776 </r>
       <r>  -1.6064   8.3308   1.1444 </r>
       <r>  -1.5504   7.6963   1.5756 </r>
       <r>  -1.4944   5.4174   1.8791 </r>
       <r>  -1.4383   2.7160   2.0313 </r>
       <r>  -1.3823   0.7046   2.0708 </r>
       <r>  -1.3263  -0.2553   2.0565 </r>
       <r>  -1.2702  -0.4463   2.0315 </r>
       <r>  -1.2142  -0.3175   2.0137 </r>
       <r>  -1.1582  -0.1582   2.0048 </r>
       <r>  -1.1022  -0.0612   2.0014 </r>
       <r>  -1.0461  -0.0191   2.0003 </r>
       <r>  -0.9901  -0.0049   2.0001 </r>
       <r>  -0.9341  -0.0010   2.0000 </r>
       <r>  -0.8780  -0.0002   2.0000 </r>
       <r>  -0.8220   0.0000   2.0000 </r>
       <r>  -0.7660   0.0000   2.0000 </r>
       <r>  -0.7099   0.0000   2.0000 </r>
       <r>  -0.6539   0.0000   2.0000 </r>
       <r>  -0.5979   0.0000   2.0000 </r>
       <r>  -0.5418   0.0000   2.0000 </r>
       <r>  -0.4858   0.0000   2.0000 </r>
       <r>  -0.4298   0.0000   2.0000 </r>
       <r>  -0.3737   0.0000   2.0000 </r>
       <r>  -0.3177   0.0000   2.0000 </r>
       <r>  -0.2617   0.0000   2.0000 </r>
       <r>  -0.2057   0.0000   2.0000 </r>
       <r>  -0.1496   0.0000   2.0000 </r>
       <r>  -0.0936   0.0000   2.0000 </r>
       <r>  -0.0376   0.0000   2.0000 </r>
       <r>   0.0185   0.0000   2.0000 </r>
       <r>   0.0745   0.0000   2.0000 </r>
       <r>   0.1305   0.0000   2.0000 </r>
       <r>   0.1866   0.0000   2.0000 </r>
       <r>   0.2426   0.0000   2.0000 </r>
       <r>   0.2986   0.0000   2.0000 </r>
       <r>   0.3547   0.0000   2.0000 </r>
       <r>   0.4107   0.0000   2.0000 </r>
       <r>   0.4667   0.0000   2.0000 </r>
       <r>   0.5228   0.0000   2.0000 </r>
       <r>   0.5788   0.0000   2.0000 </r>
       <r>   0.6348   0.0000   2.0000 </r>
       <r>   0.6908   0.0000   2.0000 </r>
       <r>   0.7469   0.0000   2.0000 </r>
       <r>   0.8029   0.0000   2.0000 </r>
       <r>   0.8589   0.0000   2.0000 </r>
       <r>   0.9150   0.0000   2.0000 </r>
       <r>   0.9710   0.0000   2.0000 </r>
       <r>   1.0270   0.0000   2.0000 </r>
       <r>   1.0831   0.0000   2.0000 </r>
       <r>   1.1391   0.0000   2.0000 </r>
       <r>   1.1951   0.0000   2.0000 </r>
       <r>   1.2512   0.0000   2.0000 </r>
       <r>   1.3072   0.0000   2.0000 </r>
       <r>   1.3632   0.0000   2.0000 </r>
       <r>   1.4193   0.0000   2.0000 </r>
       <r>   1.4753   0.0000   2.0000 </r>
       <r>   1.5313   0.0000   2.0000 </r>
       <r>   1.5874   0.0000   2.0000 </r>
       <r>   1.6434   0.0000   2.0000 </r>
       <r>   1.6994   0.0000   2.0000 </r>
       <r>   1.7554   0.0000   2.0000 </r>
       <r>   1.8115   0.0000   2.0000 </r>
       <r>   1.8675   0.0000   2.0000 </r>
       <r>   1.9235   0.0000   2.0000 </r>
       <r>   1.9796  -0.0003   2.0000 </r>
       <r>   2.0356  -0.0020   1.9999 </r>
       <r>   2.0916  -0.0099   1.9993 </r>
       <r>   2.1477  -0.0404   1.9971 </r>
       <r>   2.2037  -0.1365   1.9894 </r>
       <r>   2.2597  -0.3749   1.9684 </r>
       <r>   2.3158  -0.8107   1.9230 </r>
       <r>   2.3718  -1.2792   1.8513 </r>
       <r>   2.4278  -1.0899   1.7902 </r>
       <r>   2.4839   1.0298   1.8479 </r>
       <r>   2.5399   6.2071   2.1957 </r>
       <r>   2.5959  13.9961   2.9799 </r>
       <r>   2.6519  21.5793   4.1891 </r>
       <r>   2.7080  25.0881   5.5948 </r>
       <r>   2.7640  22.4888   6.8549 </r>
       <r>   2.8200  15.3006   7.7122 </r>
       <r>   2.8761   7.3025   8.1213 </r>
       <r>   2.9321   1.6260   8.2124 </r>
       <r>   2.9881  -0.9216   8.1608 </r>
       <r>   3.0442  -1.3200   8.0868 </r>
       <r>   3.1002  -0.8921   8.0369 </r>
       <r>   3.1562  -0.4304   8.0127 </r>
       <r>   3.2123  -0.1623   8.0036 </r>
       <r>   3.2683  -0.0495   8.0009 </r>
       <r>   3.3243  -0.0125   8.0002 </r>
       <r>   3.3804  -0.0026   8.0000 </r>
       <r>   3.4364  -0.0005   8.0000 </r>
       <r>   3.4924  -0.0001   8.0000 </r>
       <r>   3.5484   0.0000   8.0000 </r>
       <r>   3.6045   0.0000   8.0000 </r>
       <r>   3.6605   0.0000   8.0000 </r>
       <r>   3.7165   0.0000   8.0000 </r>
       <r>   3.7726   0.0000   8.0000 </r>
       <r>   3.8286   0.0000   8.0000 </r>
       <r>   3.8846   0.0000   8.0000 </r>
       <r>   3.9407   0.0000   8.0000 </r>
       <r>   3.9967   0.0000   8.0000 </r>
       <r>   4.0527   0.0000   8.0000 </r>
       <r>   4.1088   0.0000   8.0000 </r>
       <r>   4.1648   0.0000   8.0000 </r>
       <r>   4.2208   0.0000   8.0000 </r>
       <r>   4.2769   0.0000   8.0000 </r>
       <r>   4.3329   0.0000   8.0000 </r>
       <r>   4.3889   0.0000   8.0000 </r>
       <r>   4.4449   0.0000   8.0000 </r>
       <r>   4.5010   0.0000   8.0000 </r>
       <r>   4.5570   0.0000   8.0000 </r>
       <r>   4.6130   0.0000   8.0000 </r>
       <r>   4.6691   0.0000   8.0000 </r>
       <r>   4.7251   0.0000   8.0000 </r>
       <r>   4.7811   0.0000   8.0000 </r>
       <r>   4.8372   0.0000   8.0000 </r>
       <r>   4.8932   0.0000   8.0000 </r>
       <r>   4.9492   0.0000   8.0000 </r>
       <r>   5.0053   0.0000   8.0000 </r>
       <r>   5.0613   0.0000   8.0000 </r>
       <r>   5.1173   0.0000   8.0000 </r>
       <r>   5.1734   0.0000   8.0000 </r>
       <r>   5.2294   0.0000   8.0000 </r>
       <r>   5.2854   0.0000   8.0000 </r>
       <r>   5.3415   0.0000   8.0000 </r>
       <r>   5.3975   0.0000   8.0000 </r>
       <r>   5.4535   0.0000   8.0000 </r>
       <r>   5.5095   0.0000   8.0000 </r>
       <r>   5.5656   0.0000   8.0000 </r>
       <r>   5.6216   0.0000   8.0000 </r>
       <r>   5.6776   0.0000   8.0000 </r>
       <r>   5.7337   0.0000   8.0000 </r>
       <r>   5.7897   0.0000   8.0000 </r>
       <r>   5.8457   0.0000   8.0000 </r>
       <r>   5.9018   0.0000   8.0000 </r>
       <r>   5.9578   0.0000   8.0000 </r>
       <r>   6.0138   0.0000   8.0000 </r>
       <r>   6.0699   0.0000   8.0000 </r>
       <r>   6.1259  -0.0001   8.0000 </r>
       <r>   6.1819  -0.0004   8.0000 </r>
       <r>   6.2380  -0.0025   7.9998 </r>
       <r>   6.2940  -0.0121   7.9991 </r>
       <r>   6.3500  -0.0484   7.9964 </r>
       <r>   6.4060  -0.1591   7.9875 </r>
       <r>   6.4621  -0.4236   7.9638 </r>
       <r>   6.5181  -0.8824   7.9144 </r>
       <r>   6.5741  -1.3158   7.8406 </r>
       <r>   6.6302  -0.9435   7.7878 </r>
       <r>   6.6862   1.5521   7.8747 </r>
       <r>   6.7422   7.1696   8.2765 </r>
       <r>   6.7983  15.1456   9.1251 </r>
       <r>   6.8543  22.3845  10.3793 </r>
       <r>   6.9103  25.0938  11.7854 </r>
       <r>   6.9664  21.6916  13.0008 </r>
       <r>   7.0224  14.1518  13.7937 </r>
       <r>   7.0784   6.3352  14.1487 </r>
       <r>   7.1345   1.0980  14.2102 </r>
       <r>   7.1905  -1.0717  14.1502 </r>
       <r>   7.2465  -1.2847  14.0782 </r>
       <r>   7.3025  -0.8204  14.0322 </r>
       <r>   7.3586  -0.3813  14.0108 </r>
       <r>   7.4146  -0.1394  14.0030 </r>
       <r>   7.4706  -0.0414  14.0007 </r>
       <r>   7.5267  -0.0101  14.0001 </r>
       <r>   7.5827  -0.0021  14.0000 </r>
       <r>   7.6387  -0.0004  14.0000 </r>
       <r>   7.6948  -0.0001  14.0000 </r>
       <r>   7.7508   0.0000  14.0000 </r>
       <r>   7.8068   0.0000  14.0000 </r>
       <r>   7.8629   0.0000  14.0000 </r>
       <r>   7.9189   0.0000  14.0000 </r>
       <r>   7.9749   0.0000  14.0000 </r>
       <r>   8.0310   0.0000  14.0000 </r>
       <r>   8.0870   0.0000  14.0000 </r>
       <r>   8.1430   0.0000  14.0000 </r>
       <r>   8.1990   0.0000  14.0000 </r>
       <r>   8.2551   0.0000  14.0000 </r>
       <r>   8.3111   0.0000  14.0000 </r>
       <r>   8.3671   0.0000  14.0000 </r>
       <r>   8.4232   0.0000  14.0000 </r>
       <r>   8.4792   0.0000  14.0000 </r>
       <r>   8.5352   0.0000  14.0000 </r>
       <r>   8.5913   0.0000  14.0000 </r>
       <r>   8.6473   0.0000  14.0000 </r>
       <r>   8.7033   0.0000  14.0000 </r>
       <r>   8.7594   0.0000  14.0000 </r>
       <r>   8.8154   0.0000  14.0000 </r>
       <r>   8.8714   0.0000  14.0000 </r>
       <r>   8.9275   0.0000  14.0000 </r>
       <r>   8.9835   0.0000  14.0000 </r>
       <r>   9.0395   0.0000  14.0000 </r>
       <r>   9.0956   0.0000  14.0000 </r>
       <r>   9.1516   0.0000  14.0000 </r>
       <r>   9.2076   0.0000  14.0000 </r>
       <r>   9.2636   0.0000  14.0000 </r>
       <r>   9.3197   0.0000  14.0000 </r>
       <r>   9.3757   0.0000  14.0000 </r>
       <r>   9.4317   0.0000  14.0000 </r>
       <r>   9.4878   0.0000  14.0000 </r>
       <r>   9.5438   0.0000  14.0000 </r>
       <r>   9.5998   0.0000  14.0000 </r>
       <r>   9.6559   0.0000  14.0000 </r>
       <r>   9.7119   0.0000  14.0000 </r>
       <r>   9.7679   0.0000  14.0000 </r>
       <r>   9.8240   0.0000  14.0000 </r>
       <r>   9.8800   0.0000  14.0000 </r>
       <r>   9.9360   0.0000  14.0000 </r>
       <r>   9.9921   0.0000  14.0000 </r>
       <r>  10.0481   0.0000  14.0000 </r>
       <r>  10.1041   0.0000  14.0000 </r>
       <r>  10.1601   0.0000  14.0000 </r>
       <r>  10.2162   0.0000  14.0000 </r>
       <r>  10.2722  -0.0001  14.0000 </r>
       <r>  10.3282  -0.0005  14.0000 </r>
       <r>  10.3843  -0.0028  13.9998 </r>
       <r>  10.4403  -0.0116  13.9992 </r>
       <r>  10.4963  -0.0402  13.9969 </r>
       <r>  10.5524  -0.1144  13.9905 </r>
       <r>  10.6084  -0.2605  13.9759 </r>
       <r>  10.6644  -0.4523  13.9506 </r>
       <r>  10.7205  -0.5199  13.9214 </r>
       <r>  10.7765  -0.1096  13.9153 </r>
       <r>  10.8325   1.1702  13.9809 </r>
       <r>  10.8886   3.4471  14.1740 </r>
       <r>  10.9446   6.4536  14.5356 </r>
       <r>  11.0006   9.7932  15.0843 </r>
       <r>  11.0566  13.2197  15.8251 </r>
       <r>  11.1127  16.3524  16.7413 </r>
       <r>  11.1687  18.1682  17.7593 </r>
       <r>  11.2247  17.3516  18.7315 </r>
       <r>  11.2808  13.5623  19.4914 </r>
       <r>  11.3368   8.1425  19.9477 </r>
       <r>  11.3928   3.2340  20.1289 </r>
       <r>  11.4489   0.2299  20.1418 </r>
       <r>  11.5049  -0.8591  20.0936 </r>
       <r>  11.5609  -0.8412  20.0465 </r>
       <r>  11.6170  -0.5001  20.0185 </r>
       <r>  11.6730  -0.2221  20.0060 </r>
       <r>  11.7290  -0.0783  20.0016 </r>
       <r>  11.7851  -0.0225  20.0004 </r>
       <r>  11.8411  -0.0054  20.0001 </r>
       <r>  11.8971  -0.0011  20.0000 </r>
       <r>  11.9531  -0.0002  20.0000 </r>
       <r>  12.0092   0.0000  20.0000 </r>
       <r>  12.0652   0.0000  20.0000 </r>
       <r>  12.1212   0.0000  20.0000 </r>
       <r>  12.1773   0.0000  20.0000 </r>
       <r>  12.2333   0.0000  20.0000 </r>
       <r>  12.2893   0.0000  20.0000 </r>
       <r>  12.3454   0.0000  20.0000 </r>
       <r>  12.4014   0.0000  20.0000 </r>
       <r>  12.4574   0.0000  20.0000 </r>
       <r>  12.5135   0.0000  20.0000 </r>
       <r>  12.5695   0.0000  20.0000 </r>
       <r>  12.6255   0.0000  20.0000 </r>
       <r>  12.6816   0.0000  20.0000 </r>
       <r>  12.7376   0.0000  20.0000 </r>
       <r>  12.7936   0.0000  20.0000 </r>
       <r>  12.8496   0.0000  20.0000 </r>
       <r>  12.9057   0.0000  20.0000 </r>
       <r>  12.9617   0.0000  20.0000 </r>
       <r>  13.0177   0.0000  20.0000 </r>
       <r>  13.0738   0.0000  20.0000 </r>
       <r>  13.1298   0.0000  20.0000 </r>
       <r>  13.1858   0.0000  20.0000 </r>
      </set>
     </set>
    </array>
   </total>
  </dos>
 </calculation>
 <structure name="finalpos" >
  <crystal>
   <varray name="basis" >
    <v>       4.08707800       0.00000000       0.00000000 </v>
    <v>       0.00000000       4.08707800       0.00000000 </v>
    <v>       0.00000000       0.00000000       4.08707800 </v>
   </varray>
   <i name="volume">     68.27139521 </i>
   <varray name="rec_basis" >
    <v>       0.24467358       0.00000000       0.00000000 </v>
    <v>       0.00000000       0.24467358       0.00000000 </v>
    <v>       0.00000000       0.00000000       0.24467358 </v>
   </varray>
  </crystal>
  <varray name="positions" >
   <v>       0.00000000       0.00000000       0.00000000 </v>
   <v>       0.50000000       0.49755326       0.00000000 </v>
   <v>       0.00000000       0.50000000       0.50000000 </v>
   <v>       0.50000000       0.00000000       0.50000000 </v>
  </varray>
  <varray name="selective"  type="logical" >
   <v type="logical" >  F  F  F </v>
   <v type="logical" >  F  T  F </v>
   <v type="logical" >  F  F  F </v>
   <v type="logical" >  F  F  F </v>
  </varray>
  <nose>
   <v>      -3.00000000       0.00000000       0.00010000       0.00010000 </v>
  </nose>
 </structure>
</modeling>
