    3    3    1    1
  0.2274357E+02  0.4086266E-09  0.4086266E-09  0.4086266E-09  0.1000000E-16
  1.000000000000000E-004
  CAR 
 unknown system                          
    9    1    8
 
  0.2500000E+00  0.2500000E+00  0.2500000E+00  0.1000000E+01
   1       -2.967483
   2        1.307585
   3        1.313468
   4        1.974773
   5        5.686958
   6        5.694087
   7        6.751360
   8        9.580667
