  31  31   0   0
  0.1706118E+02  0.8087052E-09  0.8087052E-09  0.8087052E-09  0.5000000E-15
  1.000000000000000E-004
  CAR 
 unknown system                          
     13.30968474     -4.93721267  301      7.87415242      1.00000000
     -4.937  0.0000E+00  0.0000E+00
     -4.876  0.0000E+00  0.0000E+00
     -4.816  0.0000E+00  0.0000E+00
     -4.755  0.0000E+00  0.0000E+00
     -4.694  0.0000E+00  0.0000E+00
     -4.633  0.0000E+00  0.0000E+00
     -4.572 -0.3684E-29 -0.2241E-30
     -4.511 -0.4634E-27 -0.2841E-28
     -4.451 -0.4868E-25 -0.2990E-26
     -4.390 -0.4243E-23 -0.2610E-24
     -4.329 -0.3066E-21 -0.1891E-22
     -4.268 -0.1837E-19 -0.1136E-20
     -4.207 -0.9126E-18 -0.5665E-19
     -4.147 -0.3756E-16 -0.2341E-17
     -4.086 -0.1242E-14 -0.7790E-16
     -4.025 -0.3493E-13 -0.2202E-14
     -3.964 -0.8123E-12 -0.5161E-13
     -3.903 -0.1560E-10 -0.1001E-11
     -3.842 -0.2474E-09 -0.1605E-10
     -3.782 -0.3232E-08 -0.2126E-09
     -3.721 -0.3473E-07 -0.2325E-08
     -3.660 -0.3063E-06 -0.2096E-07
     -3.599 -0.2209E-05 -0.1553E-06
     -3.538 -0.1297E-04 -0.9444E-06
     -3.477 -0.6157E-04 -0.4689E-05
     -3.417 -0.2335E-03 -0.1889E-04
     -3.356 -0.6937E-03 -0.6109E-04
     -3.295 -0.1548E-02 -0.1553E-03
     -3.234 -0.2317E-02 -0.2962E-03
     -3.173 -0.1182E-02 -0.3681E-03
     -3.113  0.4797E-02 -0.7635E-04
     -3.052  0.1715E-01  0.9667E-03
     -2.991  0.3250E-01  0.2943E-02
     -2.930  0.4277E-01  0.5545E-02
     -2.869  0.4130E-01  0.8057E-02
     -2.808  0.2909E-01  0.9827E-02
     -2.748  0.1383E-01  0.1067E-01
     -2.687  0.2858E-02  0.1084E-01
     -2.626 -0.1761E-02  0.1073E-01
     -2.565 -0.2220E-02  0.1060E-01
     -2.504 -0.1342E-02  0.1052E-01
     -2.443 -0.6304E-03  0.1048E-01
     -2.383 -0.4677E-03  0.1045E-01
     -2.322 -0.9176E-03  0.1040E-01
     -2.261 -0.2019E-02  0.1027E-01
     -2.200 -0.3308E-02  0.1007E-01
     -2.139 -0.2895E-02  0.9895E-02
     -2.079  0.2730E-02  0.1006E-01
     -2.018  0.1682E-01  0.1108E-01
     -1.957  0.3910E-01  0.1346E-01
     -1.896  0.6444E-01  0.1738E-01
     -1.835  0.8516E-01  0.2256E-01
     -1.774  0.9468E-01  0.2832E-01
     -1.714  0.8968E-01  0.3377E-01
     -1.653  0.7129E-01  0.3811E-01
     -1.592  0.4555E-01  0.4088E-01
     -1.531  0.2124E-01  0.4217E-01
     -1.470  0.4906E-02  0.4247E-01
     -1.409 -0.2303E-02  0.4233E-01
     -1.349 -0.3480E-02  0.4212E-01
     -1.288 -0.2455E-02  0.4197E-01
     -1.227 -0.1605E-02  0.4187E-01
     -1.166 -0.1786E-02  0.4176E-01
     -1.105 -0.2866E-02  0.4159E-01
     -1.045 -0.3503E-02  0.4138E-01
     -0.984 -0.5807E-03  0.4134E-01
     -0.923  0.9835E-02  0.4194E-01
     -0.862  0.2904E-01  0.4371E-01
     -0.801  0.5253E-01  0.4690E-01
     -0.740  0.7184E-01  0.5127E-01
     -0.680  0.8072E-01  0.5618E-01
     -0.619  0.7915E-01  0.6099E-01
     -0.558  0.7070E-01  0.6529E-01
     -0.497  0.5802E-01  0.6882E-01
     -0.436  0.4220E-01  0.7139E-01
     -0.375  0.2527E-01  0.7293E-01
     -0.315  0.1082E-01  0.7358E-01
     -0.254  0.1682E-02  0.7369E-01
     -0.193 -0.2113E-02  0.7356E-01
     -0.132 -0.2824E-02  0.7339E-01
     -0.071 -0.3013E-02  0.7320E-01
     -0.011 -0.4012E-02  0.7296E-01
      0.050 -0.5013E-02  0.7265E-01
      0.111 -0.2440E-02  0.7251E-01
      0.172  0.9234E-02  0.7307E-01
      0.233  0.3364E-01  0.7511E-01
      0.294  0.6745E-01  0.7922E-01
      0.354  0.9962E-01  0.8528E-01
      0.415  0.1177E+00  0.9244E-01
      0.476  0.1165E+00  0.9952E-01
      0.537  0.9969E-01  0.1056E+00
      0.598  0.7544E-01  0.1102E+00
      0.659  0.5019E-01  0.1132E+00
      0.719  0.2784E-01  0.1149E+00
      0.780  0.1102E-01  0.1156E+00
      0.841  0.1114E-02  0.1157E+00
      0.902 -0.2804E-02  0.1155E+00
      0.963 -0.3540E-02  0.1153E+00
      1.023 -0.4108E-02  0.1150E+00
      1.084 -0.6111E-02  0.1146E+00
      1.145 -0.8193E-02  0.1142E+00
      1.206 -0.4402E-02  0.1139E+00
      1.267  0.1487E-01  0.1148E+00
      1.328  0.5579E-01  0.1182E+00
      1.388  0.1109E+00  0.1249E+00
      1.449  0.1575E+00  0.1345E+00
      1.510  0.1720E+00  0.1450E+00
      1.571  0.1489E+00  0.1540E+00
      1.632  0.1054E+00  0.1604E+00
      1.692  0.6668E-01  0.1645E+00
      1.753  0.4745E-01  0.1674E+00
      1.814  0.4510E-01  0.1701E+00
      1.875  0.4695E-01  0.1730E+00
      1.936  0.4229E-01  0.1755E+00
      1.997  0.2949E-01  0.1773E+00
      2.057  0.1424E-01  0.1782E+00
      2.118  0.2780E-02  0.1784E+00
      2.179 -0.3017E-02  0.1782E+00
      2.240 -0.5001E-02  0.1779E+00
      2.301 -0.4966E-02  0.1776E+00
      2.362 -0.1901E-02  0.1775E+00
      2.422  0.7554E-02  0.1779E+00
      2.483  0.2581E-01  0.1795E+00
      2.544  0.5076E-01  0.1826E+00
      2.605  0.7530E-01  0.1872E+00
      2.666  0.9088E-01  0.1927E+00
      2.726  0.9219E-01  0.1983E+00
      2.787  0.7954E-01  0.2031E+00
      2.848  0.5797E-01  0.2067E+00
      2.909  0.3451E-01  0.2088E+00
      2.970  0.1524E-01  0.2097E+00
      3.031  0.3150E-02  0.2099E+00
      3.091 -0.2342E-02  0.2097E+00
      3.152 -0.4142E-02  0.2095E+00
      3.213 -0.5351E-02  0.2092E+00
      3.274 -0.7140E-02  0.2087E+00
      3.335 -0.6954E-02  0.2083E+00
      3.396  0.2031E-02  0.2084E+00
      3.456  0.2787E-01  0.2101E+00
      3.517  0.7265E-01  0.2145E+00
      3.578  0.1262E+00  0.2222E+00
      3.639  0.1684E+00  0.2325E+00
      3.700  0.1811E+00  0.2435E+00
      3.760  0.1601E+00  0.2532E+00
      3.821  0.1175E+00  0.2604E+00
      3.882  0.7294E-01  0.2648E+00
      3.943  0.4105E-01  0.2673E+00
      4.004  0.2540E-01  0.2688E+00
      4.065  0.2026E-01  0.2701E+00
      4.125  0.1720E-01  0.2711E+00
      4.186  0.1121E-01  0.2718E+00
      4.247  0.2447E-02  0.2719E+00
      4.308 -0.5640E-02  0.2716E+00
      4.369 -0.7903E-02  0.2711E+00
      4.430  0.2696E-02  0.2713E+00
      4.490  0.3330E-01  0.2733E+00
      4.551  0.8478E-01  0.2785E+00
      4.612  0.1457E+00  0.2873E+00
      4.673  0.1945E+00  0.2992E+00
      4.734  0.2117E+00  0.3120E+00
      4.794  0.1933E+00  0.3238E+00
      4.855  0.1545E+00  0.3332E+00
      4.916  0.1186E+00  0.3404E+00
      4.977  0.1002E+00  0.3465E+00
      5.038  0.9581E-01  0.3523E+00
      5.099  0.9114E-01  0.3579E+00
      5.159  0.7531E-01  0.3625E+00
      5.220  0.4936E-01  0.3655E+00
      5.281  0.2275E-01  0.3668E+00
      5.342  0.3953E-02  0.3671E+00
      5.403 -0.5083E-02  0.3668E+00
      5.464 -0.6975E-02  0.3663E+00
      5.524 -0.3723E-02  0.3661E+00
      5.585  0.5570E-02  0.3665E+00
      5.646  0.2209E-01  0.3678E+00
      5.707  0.4310E-01  0.3704E+00
      5.768  0.6119E-01  0.3741E+00
      5.828  0.6857E-01  0.3783E+00
      5.889  0.6282E-01  0.3821E+00
      5.950  0.4931E-01  0.3851E+00
      6.011  0.3795E-01  0.3874E+00
      6.072  0.3547E-01  0.3896E+00
      6.133  0.3954E-01  0.3920E+00
      6.193  0.4113E-01  0.3945E+00
      6.254  0.3377E-01  0.3966E+00
      6.315  0.1944E-01  0.3977E+00
      6.376  0.4944E-02  0.3980E+00
      6.437 -0.4954E-02  0.3977E+00
      6.498 -0.9006E-02  0.3972E+00
      6.558 -0.5401E-02  0.3969E+00
      6.619  0.1081E-01  0.3975E+00
      6.680  0.4411E-01  0.4002E+00
      6.741  0.9181E-01  0.4058E+00
      6.802  0.1421E+00  0.4144E+00
      6.862  0.1799E+00  0.4254E+00
      6.923  0.1951E+00  0.4372E+00
      6.984  0.1856E+00  0.4485E+00
      7.045  0.1558E+00  0.4580E+00
      7.106  0.1139E+00  0.4649E+00
      7.167  0.7045E-01  0.4692E+00
      7.227  0.3438E-01  0.4713E+00
      7.288  0.1047E-01  0.4720E+00
      7.349 -0.1619E-02  0.4719E+00
      7.410 -0.5831E-02  0.4715E+00
      7.471 -0.6824E-02  0.4711E+00
      7.532 -0.7125E-02  0.4707E+00
      7.592 -0.5352E-02  0.4703E+00
      7.653  0.3492E-02  0.4705E+00
      7.714  0.2489E-01  0.4721E+00
      7.775  0.5973E-01  0.4757E+00
      7.836  0.1011E+00  0.4818E+00
      7.896  0.1370E+00  0.4902E+00
      7.957  0.1579E+00  0.4998E+00
      8.018  0.1643E+00  0.5098E+00
      8.079  0.1648E+00  0.5198E+00
      8.140  0.1658E+00  0.5299E+00
      8.201  0.1639E+00  0.5398E+00
      8.261  0.1497E+00  0.5489E+00
      8.322  0.1196E+00  0.5562E+00
      8.383  0.8139E-01  0.5612E+00
      8.444  0.4673E-01  0.5640E+00
      8.505  0.2226E-01  0.5654E+00
      8.565  0.7786E-02  0.5658E+00
      8.626  0.3048E-03  0.5659E+00
      8.687 -0.3048E-02  0.5657E+00
      8.748 -0.4646E-02  0.5654E+00
      8.809 -0.6057E-02  0.5650E+00
      8.870 -0.6570E-02  0.5646E+00
      8.930 -0.1883E-02  0.5645E+00
      8.991  0.1450E-01  0.5654E+00
      9.052  0.4608E-01  0.5682E+00
      9.113  0.8795E-01  0.5735E+00
      9.174  0.1276E+00  0.5813E+00
      9.235  0.1527E+00  0.5906E+00
      9.295  0.1580E+00  0.6002E+00
      9.356  0.1455E+00  0.6090E+00
      9.417  0.1207E+00  0.6164E+00
      9.478  0.8952E-01  0.6218E+00
      9.539  0.5770E-01  0.6253E+00
      9.599  0.2938E-01  0.6271E+00
      9.660  0.8103E-02  0.6276E+00
      9.721 -0.8423E-03  0.6276E+00
      9.782  0.9564E-02  0.6281E+00
      9.843  0.4332E-01  0.6308E+00
      9.904  0.9470E-01  0.6365E+00
      9.964  0.1470E+00  0.6455E+00
     10.025  0.1807E+00  0.6565E+00
     10.086  0.1849E+00  0.6677E+00
     10.147  0.1622E+00  0.6776E+00
     10.208  0.1252E+00  0.6852E+00
     10.269  0.8994E-01  0.6907E+00
     10.329  0.6881E-01  0.6949E+00
     10.390  0.6514E-01  0.6988E+00
     10.451  0.7305E-01  0.7033E+00
     10.512  0.8187E-01  0.7082E+00
     10.573  0.8203E-01  0.7132E+00
     10.633  0.6959E-01  0.7175E+00
     10.694  0.4865E-01  0.7204E+00
     10.755  0.2935E-01  0.7222E+00
     10.816  0.2112E-01  0.7235E+00
     10.877  0.2583E-01  0.7251E+00
     10.938  0.3724E-01  0.7273E+00
     10.998  0.4759E-01  0.7302E+00
     11.059  0.5412E-01  0.7335E+00
     11.120  0.5882E-01  0.7371E+00
     11.181  0.6337E-01  0.7409E+00
     11.242  0.6566E-01  0.7449E+00
     11.303  0.6141E-01  0.7487E+00
     11.363  0.4861E-01  0.7516E+00
     11.424  0.3030E-01  0.7535E+00
     11.485  0.1302E-01  0.7543E+00
     11.546  0.1888E-02  0.7544E+00
     11.607 -0.2440E-02  0.7542E+00
     11.667 -0.2620E-02  0.7541E+00
     11.728 -0.1533E-02  0.7540E+00
     11.789 -0.6425E-03  0.7539E+00
     11.850 -0.2070E-03  0.7539E+00
     11.911 -0.5281E-04  0.7539E+00
     11.972 -0.1083E-04  0.7539E+00
     12.032 -0.1802E-05  0.7539E+00
     12.093 -0.2446E-06  0.7539E+00
     12.154 -0.2721E-07  0.7539E+00
     12.215 -0.2486E-08  0.7539E+00
     12.276 -0.1871E-09  0.7539E+00
     12.337 -0.1162E-10  0.7539E+00
     12.397 -0.5955E-12  0.7539E+00
     12.458 -0.2521E-13  0.7539E+00
     12.519 -0.8983E-15  0.7539E+00
     12.580 -0.1911E-16  0.7539E+00
     12.641  0.0000E+00  0.7539E+00
     12.701  0.0000E+00  0.7539E+00
     12.762  0.0000E+00  0.7539E+00
     12.823  0.0000E+00  0.7539E+00
     12.884  0.0000E+00  0.7539E+00
     12.945  0.0000E+00  0.7539E+00
     13.006  0.0000E+00  0.7539E+00
     13.066  0.0000E+00  0.7539E+00
     13.127  0.0000E+00  0.7539E+00
     13.188  0.0000E+00  0.7539E+00
     13.249  0.0000E+00  0.7539E+00
     13.310  0.0000E+00  0.7539E+00
