   31   31  191    1
  0.1706118E+02  0.8087052E-09  0.8087052E-09  0.8087052E-09  0.5000000E-15
  1.000000000000000E-004
  CAR 
 unknown system                          
   93    2   72
 
  0.2500000E+00  0.2500000E+00  0.2500000E+00  0.5000000E+00
   1       -2.936860
   2       -1.905391
   3       -1.820702
   4       -1.662817
   5       -0.774776
   6       -0.714689
   7       -0.468838
   8        0.314925
   9        0.366420
  10        0.416851
  11        0.628423
  12        1.405995
  13        1.427757
  14        1.463701
  15        1.526517
  16        1.731945
  17        1.855042
  18        2.588320
  19        2.658060
  20        2.745669
  21        3.547093
  22        3.596053
  23        3.647663
  24        3.695421
  25        3.731195
  26        4.072622
  27        4.594034
  28        4.614156
  29        4.663566
  30        4.744894
  31        4.750887
  32        4.774347
  33        4.904024
  34        5.071501
  35        5.097333
  36        5.754553
  37        5.845446
  38        6.162440
  39        6.755249
  40        6.823334
  41        6.839589
  42        6.913110
  43        6.978389
  44        7.000299
  45        7.139490
  46        7.791547
  47        7.913387
  48        7.918759
  49        7.948961
  50        8.026985
  51        8.119645
  52        8.208845
  53        8.245838
  54        8.431433
  55        9.096415
  56        9.192277
  57        9.240097
  58        9.340463
  59        9.347975
  60        9.459359
  61        9.940242
  62        9.986480
  63        9.990996
  64       10.092168
  65       10.106112
  66       10.190437
  67       10.369267
  68       10.509171
  69       10.580714
  70       10.971340
  71       11.116657
  72       11.294011
 
 -0.2500000E+00  0.2500000E+00  0.2500000E+00  0.5000000E+00
   1       -2.937213
   2       -1.914946
   3       -1.741069
   4       -1.739384
   5       -0.791981
   6       -0.627863
   7       -0.553384
   8        0.305479
   9        0.427072
  10        0.477227
  11        0.563902
  12        1.412908
  13        1.452933
  14        1.456072
  15        1.550545
  16        1.563094
  17        1.899048
  18        2.543945
  19        2.698814
  20        2.838599
  21        3.569871
  22        3.603290
  23        3.689076
  24        3.695368
  25        3.776244
  26        3.873666
  27        4.566423
  28        4.649713
  29        4.659830
  30        4.707922
  31        4.771144
  32        4.788676
  33        4.968160
  34        5.011322
  35        5.144417
  36        5.722231
  37        5.906993
  38        6.152621
  39        6.732429
  40        6.804232
  41        6.836898
  42        6.909731
  43        6.974751
  44        6.996353
  45        7.085027
  46        7.811060
  47        7.866195
  48        7.963573
  49        8.023609
  50        8.123866
  51        8.152638
  52        8.227832
  53        8.233460
  54        8.302503
  55        9.131225
  56        9.176250
  57        9.187241
  58        9.323584
  59        9.356702
  60        9.539269
  61        9.897631
  62        9.947523
  63       10.014043
  64       10.028653
  65       10.149480
  66       10.172567
  67       10.370350
  68       10.512448
  69       10.646902
  70       10.919036
  71       11.170805
  72       11.309685
