Processors received = 12
script running on host compute-1-32.local
PBS_NODEFILE
compute-1-32
compute-1-32
compute-1-32
compute-1-32
compute-1-32
compute-1-32
compute-1-32
compute-1-32
compute-1-32
compute-1-32
compute-1-32
compute-1-32
 running on   12 nodes
 distr:  one band on    1 nodes,   12 groups
 vasp.5.2.2 15Apr09 complex 
 POSCAR found type information on POSCAR  Al
 POSCAR found :  1 types and   31 ions

 ----------------------------------------------------------------------------- 
|                                                                             |
|  ADVICE TO THIS USER RUNNING 'VASP/VAMP'   (HEAR YOUR MASTER'S VOICE ...):  |
|                                                                             |
|      You have a (more or less) 'large supercell' and for larger cells       |
|      it might be more efficient to use real space projection operators      |
|      So try LREAL= Auto  in the INCAR   file.                               |
|      Mind: If you want to do a very accurate calculations keep the          |
|      reciprocal projection scheme          (i.e. LREAL=.FALSE.)             |
|                                                                             |
 ----------------------------------------------------------------------------- 

 LDA part: xc-table for Pade appr. of Perdew
 POSCAR, INCAR and KPOINTS ok, starting setup
 FFT: planning ...(           1 )
 reading WAVECAR
 WARNING: random wavefunctions but no delay for mixing, default for NELMDL
 entering main loop
       N       E                     dE             d eps       ncg     rms          rms(c)
RMM:   1     0.238360078020E+03    0.23836E+03   -0.15639E+04   144   0.535E+02
RMM:   2    -0.381008450579E+02   -0.27646E+03   -0.26451E+03   144   0.112E+02
RMM:   3    -0.957435004128E+02   -0.57643E+02   -0.56194E+02   144   0.365E+01
RMM:   4    -0.108512543981E+03   -0.12769E+02   -0.11541E+02   144   0.198E+01
RMM:   5    -0.112828060475E+03   -0.43155E+01   -0.32750E+01   144   0.975E+00
RMM:   6    -0.114208842642E+03   -0.13808E+01   -0.10366E+01   144   0.528E+00
RMM:   7    -0.114664187958E+03   -0.45535E+00   -0.35113E+00   144   0.286E+00
RMM:   8    -0.114826216383E+03   -0.16203E+00   -0.12736E+00   144   0.159E+00
RMM:   9    -0.114899247844E+03   -0.73031E-01   -0.64294E-01   316   0.899E-01
RMM:  10    -0.114914726304E+03   -0.15478E-01   -0.11659E-01   313   0.251E-01
RMM:  11    -0.114915514994E+03   -0.78869E-03   -0.42374E-03   293   0.515E-02
RMM:  12    -0.114915525677E+03   -0.10682E-04   -0.75869E-05   261   0.975E-03    0.545E+00
RMM:  13    -0.114317563341E+03    0.59796E+00   -0.49184E-01   288   0.105E+00    0.333E+00
RMM:  14    -0.114053809229E+03    0.26375E+00   -0.16305E-01   288   0.821E-01    0.113E+00
RMM:  15    -0.114017342537E+03    0.36467E-01   -0.26075E-02   288   0.363E-01    0.154E-01
RMM:  16    -0.114015993863E+03    0.13487E-02   -0.25057E-03   290   0.104E-01    0.490E-02
RMM:  17    -0.114015944934E+03    0.48929E-04   -0.32072E-04   291   0.391E-02    0.129E-02
RMM:  18    -0.114015954830E+03   -0.98964E-05   -0.24225E-05   294   0.133E-02    0.502E-03
RMM:  19    -0.114015959900E+03   -0.50697E-05   -0.22335E-06   197   0.457E-03    0.134E-03
RMM:  20    -0.114015960909E+03   -0.10090E-05   -0.61792E-07   178   0.270E-03    0.323E-04
RMM:  21    -0.114015960952E+03   -0.42701E-07   -0.18686E-07   171   0.153E-03
   1 F= -.11401596E+03 E0= -.11399085E+03  d E =-.753383E-01

 ----------------------------------------------------------------------------- 
|                                                                             |
|           W    W    AA    RRRRR   N    N  II  N    N   GGGG   !!!           |
|           W    W   A  A   R    R  NN   N  II  NN   N  G    G  !!!           |
|           W    W  A    A  R    R  N N  N  II  N N  N  G       !!!           |
|           W WW W  AAAAAA  RRRRR   N  N N  II  N  N N  G  GGG   !            |
|           WW  WW  A    A  R   R   N   NN  II  N   NN  G    G                |
|           W    W  A    A  R    R  N    N  II  N    N   GGGG   !!!           |
|                                                                             |
|      Your timestep is larger than 0.1 Angst.                                |
|      For finite differences this really does not make sense. I will         |
|      reset POTIM to 0.015. I recommend to use 0.01 to 0.02 for finite       |
|      differences.                                                           |
|                                                                             |
 ----------------------------------------------------------------------------- 

 Finite differences POTIM= 0.01500 DOF=   3
 bond charge predicted
       N       E                     dE             d eps       ncg     rms          rms(c)
RMM:   1    -0.114015861693E+03    0.99215E-04   -0.22058E-02   288   0.383E-01    0.347E-02
RMM:   2    -0.114015813228E+03    0.48466E-04   -0.26885E-04   288   0.448E-02    0.179E-02
RMM:   3    -0.114015807769E+03    0.54587E-05   -0.27952E-05   288   0.128E-02    0.834E-03
RMM:   4    -0.114015808319E+03   -0.55010E-06   -0.35715E-06   228   0.459E-03
   2 F= -.11401581E+03 E0= -.11399071E+03  d E =-.753088E-01
 Finite differences progress:
  Degree of freedom:   1/  3
  Displacement:        1/  2
  Total:               1/  6
 bond charge predicted
       N       E                     dE             d eps       ncg     rms          rms(c)
RMM:   1    -0.114016036014E+03   -0.22825E-03   -0.88148E-02   288   0.765E-01    0.695E-02
RMM:   2    -0.114015828948E+03    0.20707E-03   -0.10775E-03   288   0.894E-02    0.355E-02
RMM:   3    -0.114015805600E+03    0.23347E-04   -0.11275E-04   289   0.255E-02    0.166E-02
RMM:   4    -0.114015807595E+03   -0.19944E-05   -0.15014E-05   287   0.912E-03    0.648E-03
RMM:   5    -0.114015808362E+03   -0.76708E-06   -0.11369E-06   188   0.328E-03
   3 F= -.11401581E+03 E0= -.11399071E+03  d E =-.753078E-01
 Finite differences progress:
  Degree of freedom:   1/  3
  Displacement:        2/  2
  Total:               2/  6
 bond charge predicted
       N       E                     dE             d eps       ncg     rms          rms(c)
RMM:   1    -0.114015123007E+03    0.68459E-03   -0.48617E-02   288   0.554E-01    0.570E-02
RMM:   2    -0.114014957347E+03    0.16566E-03   -0.67815E-04   288   0.675E-02    0.288E-02
RMM:   3    -0.114014920102E+03    0.37245E-04   -0.69465E-05   288   0.190E-02    0.138E-02
RMM:   4    -0.114014906163E+03    0.13939E-04   -0.20375E-05   284   0.821E-03    0.479E-03
RMM:   5    -0.114014901941E+03    0.42221E-05   -0.71229E-06   253   0.413E-03    0.136E-03
RMM:   6    -0.114014900888E+03    0.10531E-05   -0.25597E-06   214   0.234E-03    0.612E-04
RMM:   7    -0.114014900830E+03    0.57858E-07   -0.11740E-06   170   0.160E-03
   4 F= -.11401490E+03 E0= -.11398980E+03  d E =-.753078E-01
 Finite differences progress:
  Degree of freedom:   2/  3
  Displacement:        1/  2
  Total:               3/  6
 bond charge predicted
       N       E                     dE             d eps       ncg     rms          rms(c)
RMM:   1    -0.114015631511E+03   -0.73062E-03   -0.10488E-01   288   0.796E-01    0.103E-01
RMM:   2    -0.114014962512E+03    0.66900E-03   -0.18115E-03   288   0.104E-01    0.463E-02
RMM:   3    -0.114014901853E+03    0.60659E-04   -0.16829E-04   288   0.278E-02    0.214E-02
RMM:   4    -0.114014896841E+03    0.50122E-05   -0.19438E-05   286   0.935E-03    0.815E-03
RMM:   5    -0.114014896698E+03    0.14336E-06   -0.13002E-06   190   0.303E-03
   5 F= -.11401490E+03 E0= -.11398979E+03  d E =-.753086E-01
 Finite differences progress:
  Degree of freedom:   2/  3
  Displacement:        2/  2
  Total:               4/  6
 bond charge predicted
       N       E                     dE             d eps       ncg     rms          rms(c)
RMM:   1    -0.114016007039E+03   -0.11102E-02   -0.48353E-02   288   0.553E-01    0.486E-02
RMM:   2    -0.114015909429E+03    0.97610E-04   -0.58365E-04   288   0.657E-02    0.286E-02
RMM:   3    -0.114015842652E+03    0.66777E-04   -0.79532E-05   288   0.191E-02    0.134E-02
RMM:   4    -0.114015815307E+03    0.27345E-04   -0.42228E-05   288   0.105E-02    0.409E-03
RMM:   5    -0.114015809212E+03    0.60943E-05   -0.14100E-05   270   0.544E-03    0.136E-03
RMM:   6    -0.114015808326E+03    0.88609E-06   -0.35401E-06   227   0.265E-03
   6 F= -.11401581E+03 E0= -.11399071E+03  d E =-.753086E-01
 Finite differences progress:
  Degree of freedom:   3/  3
  Displacement:        1/  2
  Total:               5/  6
 bond charge predicted
       N       E                     dE             d eps       ncg     rms          rms(c)
RMM:   1    -0.114016033331E+03   -0.22412E-03   -0.88099E-02   288   0.765E-01    0.698E-02
RMM:   2    -0.114015828226E+03    0.20511E-03   -0.10758E-03   288   0.896E-02    0.358E-02
RMM:   3    -0.114015805798E+03    0.22427E-04   -0.11087E-04   289   0.254E-02    0.170E-02
RMM:   4    -0.114015807852E+03   -0.20537E-05   -0.15015E-05   287   0.918E-03    0.659E-03
RMM:   5    -0.114015808533E+03   -0.68079E-06   -0.11860E-06   186   0.334E-03
   7 F= -.11401581E+03 E0= -.11399071E+03  d E =-.753077E-01
 Finite differences progress:
  Degree of freedom:   3/  3
  Displacement:        2/  2
  Total:               6/  6
 Finite differences POTIM=  1.500000000000000E-002
