       N       E                     dE             d eps       ncg     rms          rms(c)
DAV:   1     0.905487873652E+04    0.90549E+04   -0.31876E+05124416   0.143E+03
DAV:   2     0.131439555086E+04   -0.77405E+04   -0.70706E+04124416   0.318E+02
DAV:   3     0.266793761931E+02   -0.12877E+04   -0.11362E+04126080   0.140E+02
DAV:   4    -0.512077833778E+02   -0.77887E+02   -0.76228E+02134464   0.423E+01
DAV:   5    -0.518238775104E+02   -0.61609E+00   -0.61525E+00134376   0.402E+00    0.286E+02
DAV:   6     0.520204815792E+03    0.57203E+03   -0.20926E+03148080   0.132E+02    0.114E+02
DAV:   7     0.211249099361E+03   -0.30896E+03   -0.11258E+03150704   0.885E+01    0.635E+01
DAV:   8    -0.276295891139E+03   -0.48754E+03   -0.15258E+02152676   0.415E+01    0.582E+01
DAV:   9    -0.313752112375E+03   -0.37456E+02   -0.66796E+01151728   0.425E+01    0.403E+01
DAV:  10    -0.461531464184E+03   -0.14778E+03   -0.38354E+02145772   0.625E+01    0.607E+01
DAV:  11    -0.409402806769E+03    0.52129E+02   -0.77514E+01150916   0.346E+01    0.268E+01
DAV:  12    -0.399059906265E+03    0.10343E+02   -0.27301E+01155536   0.139E+01    0.982E+00
DAV:  13    -0.397624288597E+03    0.14356E+01   -0.43198E+00152324   0.770E+00    0.302E+00
DAV:  14    -0.397668667897E+03   -0.44379E-01   -0.25089E+00151104   0.536E+00    0.235E+00
DAV:  15    -0.397636423718E+03    0.32244E-01   -0.47655E-01131324   0.238E+00    0.932E-01
DAV:  16    -0.397628968660E+03    0.74551E-02   -0.77067E-02138456   0.146E+00    0.532E-01
DAV:  17    -0.397627251951E+03    0.17167E-02   -0.26345E-02145864   0.799E-01    0.230E-01
DAV:  18    -0.397628314861E+03   -0.10629E-02   -0.10914E-02131192   0.274E-01    0.212E-01
DAV:  19    -0.397627938981E+03    0.37588E-03   -0.22828E-03138248   0.253E-01    0.142E-01
DAV:  20    -0.397627658102E+03    0.28088E-03   -0.74125E-04132432   0.148E-01    0.366E-02
DAV:  21    -0.397627701100E+03   -0.42998E-04   -0.47923E-04107216   0.669E-02
   1 F= -.39762770E+03 E0= -.39762770E+03  d E =0.000000E+00  mag=     0.0020
