 vasp.5.2.2 15Apr09 complex 
 executed on             LinuxIFC date 2013.06.14  22:46:44
 running on    1 nodes
 distr:  one band on    1 nodes,    1 groups


--------------------------------------------------------------------------------------------------------


 INCAR:
 POTCAR:   PAW_GGA Fe 03Mar1998                   
 POTCAR:   PAW_GGA Fe 03Mar1998                   
   VRHFIN =Fe:  d7 s1                                                           
   LEXCH  = 91                                                                  
   EATOM  =   595.5622 eV,   43.7726 Ry                                         
                                                                                
   TITEL  = PAW_GGA Fe 03Mar1998                                                
   LULTRA =        F    use ultrasoft PP ?                                      
   IUNSCR =        1    unscreen: 0-lin 1-nonlin 2-no                           
   RPACOR =    2.000    partial core radius                                     
   POMASS =   55.847; ZVAL   =    8.000    mass and valenz                      
   RCORE  =    2.300    outmost cutoff radius                                   
   RWIGS  =    2.460; RWIGS  =    1.302    wigner-seitz radius (au A)           
   ENMAX  =  267.907; ENMIN  =  200.930 eV                                      
   RCLOC  =    1.701    cutoff for local pot                                    
   LCOR   =        T    correct aug charges                                     
   LPAW   =        T    paw PP                                                  
   EAUG   =  511.368                                                            
   DEXC   =    -.007                                                            
   RMAX   =    2.817    core radius for proj-oper                               
   RAUG   =    1.300    factor for augmentation sphere                          
   RDEP   =    2.442    core radius for depl-charge                             
   QCUT   =   -4.437; QGAM   =    8.875    optimization parameters              
                                                                                
   Description                                                                  
     l     E      TYP  RCUT    TYP  RCUT                                        
     2   .000     23  2.300                                                     
     2   .000     23  2.300                                                     
     0   .000     23  2.300                                                     
     0   .000     23  2.300                                                     
     1  -.200     23  2.300                                                     
     1   .000     23  2.300                                                     
     3   .000      7   .000                                                     
  local pseudopotential read in
  partial core-charges read in
  atomic valenz-charges read in
  non local Contribution for L=           2  read in
    real space projection operators read in
  non local Contribution for L=           2  read in
    real space projection operators read in
  non local Contribution for L=           0  read in
    real space projection operators read in
  non local Contribution for L=           0  read in
    real space projection operators read in
  non local Contribution for L=           1  read in
    real space projection operators read in
  non local Contribution for L=           1  read in
    real space projection operators read in
    PAW grid and wavefunctions read in
 
   number of l-projection  operators is LMAX  =           6
   number of lm-projection operators is LMMAX =          18
 
 PAW_GGA Fe 03Mar1998                   :
 energy of atom  1       EATOM= -595.5622
 kinetic energy error for atom=    0.0239 (will be added to EATOM!!)
 
 
 POSCAR: Fe3                                     
  positions in direct lattice
  velocities in cartesian coordinates
 exchange correlation table for  LEXCH =        7
   RHO(1)=    0.500       N(1)  =     2000
   RHO(2)=  100.500       N(2)  =     4000

 VTST: version 2.03d, (02/18/09)

 CHAIN: initializing optimizer
 
 OPT: Using VASP Conjugate-Gradient optimizer
 CHAIN: Read ICHAIN            0
 


--------------------------------------------------------------------------------------------------------


 ion  position               nearest neighbor table
   1  0.000  0.000  0.000-   2 2.54   3 2.54   2 2.54   3 2.54   2 2.54   3 2.54   2 2.54   3 2.54

   2  0.500  0.000  0.500-   1 2.54   3 2.54   1 2.54   3 2.54   3 2.54   3 2.54   1 2.54   1 2.54

   3  0.500  0.500  0.000-   1 2.54   2 2.54   2 2.54   1 2.54   2 2.54   2 2.54   1 2.54   1 2.54

 
  LATTYP: Found a simple cubic cell.
 ALAT       =     3.5850510000
  
  Lattice vectors:
  
 A1 = (   3.5850510000,   0.0000000000,   0.0000000000)
 A2 = (   0.0000000000,   3.5850510000,   0.0000000000)
 A3 = (   0.0000000000,   0.0000000000,   3.5850510000)
 Subroutine PRICEL returns:
 Original cell was already a primitive cell.
 

Analysis of symmetry for initial positions (statically):

 Routine SETGRP: Setting up the symmetry group for a 
 simple cubic supercell.


 Subroutine GETGRP returns: Found 48 space group operations
 (whereof 16 operations were pure point group operations)
 out of a pool of 48 trial point group operations.


The static configuration has the point symmetry D_4h.
 The point group associated with its full space group is O_h .

Analysis of symmetry for dynamics (positions and initial velocities):

 Subroutine DYNSYM returns: Found 48 space group operations
 (whereof 16 operations were pure point group operations)
 out of a pool of 48 trial space group operations
 (whereof 16 operations were pure point group operations)
 and found also     1 'primitive' translations


The dynamic configuration has the point symmetry D_4h.
 The point group associated with its full space group is O_h .
 
 
 KPOINTS: Automatic kpoint scheme                 

Automatic generation of k-mesh.
 
 Subroutine IBZKPT returns following result:
 ===========================================
 
 Found      1 irreducible k-points:
 
 Following reciprocal coordinates:
            Coordinates               Weight
  0.000000  0.000000  0.000000      1.000000
 
 Following cartesian coordinates:
            Coordinates               Weight
  0.000000  0.000000  0.000000      1.000000
 


--------------------------------------------------------------------------------------------------------




 Dimension of arrays:
   k-points           NKPTS =      1   k-points in BZ     NKDIM =      1   number of bands    NBANDS=     16
   number of dos      NEDOS =    301   number of ions     NIONS =      3
   non local maximal  LDIM  =      6   non local SUM 2l+1 LMDIM =     18
   total plane-waves  NPLWV =  13824
   max r-space proj   IRMAX =      1   max aug-charges    IRDMAX=  10886
   dimension x,y,z NGX =    24 NGY =   24 NGZ =   24
   dimension x,y,z NGXF=    48 NGYF=   48 NGZF=   48
   support grid    NGXF=    48 NGYF=   48 NGZF=   48
   ions per type =               3
 NGX,Y,Z   is equivalent  to a cutoff of  11.13, 11.13, 11.13 a.u.
 NGXF,Y,Z  is equivalent  to a cutoff of  22.26, 22.26, 22.26 a.u.


 I would recommend the setting:
   dimension x,y,z NGX =    21 NGY =   21 NGZ =   21
 SYSTEM =  unknown system                          
 POSCAR =  Fe3                                     

 Startparameter for this run:
   NWRITE =      2    write-flag & timer
   PREC   = accura    medium, high low
   ISTART =      0    job   : 0-new  1-cont  2-samecut
   ICHARG =      2    charge: 1-file 2-atom 10-const
   ISPIN  =      1    spin polarized calculation?
   LNONCOLLINEAR =      F non collinear calculations
   LSORBIT =      F    spin-orbit coupling
   INIWAV =      1    electr: 0-lowe 1-rand  2-diag
   LASPH  =      F    aspherical Exc in radial PAW
   METAGGA=      F    non-selfconsistent MetaGGA calc.

 Electronic Relaxation 1
   ENCUT  =  334.9 eV  24.61 Ry    4.96 a.u.   5.35  5.35  5.35*2*pi/ulx,y,z
   ENINI  =  334.9     initial cutoff
   ENAUG  =  511.4 eV  augmentation charge cutoff
   NELM   =     60;   NELMIN=  2; NELMDL= -5     # of ELM steps 
   EDIFF  = 0.1E-03   stopping-criterion for ELM
   LREAL  =      F    real-space projection
   LCOMPAT=      F    compatible to vasp.4.4
   LREAL_COMPAT= F    compatible to vasp.4.5.1-3
   GGA_COMPAT  = T    GGA compatible to vasp.4.4-vasp.4.6
   LMAXPAW     = -100 max onsite density
   LMAXMIX     =    2 max onsite mixed and CHGCAR
   VOSKOWN=      0    Vosko Wilk Nusair interpolation
   ROPT   =    0.00000
 Ionic relaxation
   EDIFFG = 0.1E-02   stopping-criterion for IOM
   NSW    =    191    number of steps for IOM
   NBLOCK =      1;   KBLOCK =    191    inner block; outer block 
   IBRION =      2    ionic relax: 0-MD 1-quasi-New 2-CG
   NFREE  =      1    steps in history (QN), initial steepest desc. (CG)
   ISIF   =      2    stress and relaxation
   IWAVPR =     11    prediction:  0-non 1-charg 2-wave 3-comb
   ISYM   =      2    0-nonsym 1-usesym 2-fastsym
   LCORR  =      T    Harris-Foulkes like correction to forces

   POTIM  = 0.5000    time-step for ionic-motion
   TEIN   =    0.0    initial temperature
   TEBEG  =    0.0;   TEEND  =   0.0 temperature during run
   SMASS  =  -3.00    Nose mass-parameter (am)
   estimated Nose-frequenzy (Omega)   =  0.10E-29 period in steps =****** mass=  -0.294E-27a.u.
   NPACO  =    256;   APACO  = 16.0  distance and # of slots for P.C.
   PSTRESS=    0.0 pullay stress

  Mass of Ions in am
   POMASS =  55.85
  Ionic Valenz
   ZVAL   =   8.00
  Atomic Wigner-Seitz radii
   RWIGS  =  -1.00
   NELECT =      24.0000    total number of electrons
   NUPDOWN=      -1.0000    fix difference up-down

 DOS related values:
   EMIN   =  10.00;   EMAX   =-10.00  energy-range for DOS
   EFERMI =   0.00
   ISMEAR =     1;   SIGMA  =   0.20  broadening in eV -4-tet -1-fermi 0-gaus

 Electronic relaxation 2 (details)
   IALGO  =     38    algorithm
   LDIAG  =      T    sub-space diagonalisation
   IMIX   =      4    mixing-type and parameters
     AMIX     =   0.40;   BMIX     =  1.00
     AMIX_MAG =   1.60;   BMIX_MAG =  1.00
     AMIN     =   0.10
     WC   =   100.;   INIMIX=   1;  MIXPRE=   1

 Intra band minimization:
   WEIMIN = 0.0010     energy-eigenvalue tresh-hold
   EBREAK =  0.16E-05  absolut break condition
   DEPER  =   0.30     relativ break condition  

   TIME   =   0.40     timestep for ELM

  volume/ion in A,a.u.               =      15.36       103.65
  Fermi-wavevector in a.u.,A,eV,Ry     =   1.317194  2.489137 23.606126  1.735001
  Thomas-Fermi vector in A             =   2.447253
 
 Write flags
   LWAVE  =      F    write WAVECAR
   LCHARG =      F    write CHGCAR
   LVTOT  =      F    write LOCPOT, local potential
   LELF   =      F    write electronic localiz. function (ELF)
   LORBIT =      0    0 simple, 1 ext, 2 COOP (PROOUT)


 Dipole corrections
   LMONO  =      F    monopole corrections only (constant potential shift)
   LDIPOL =      F    correct potential (dipole corrections)
   IDIPOL =      0    1-x, 2-y, 3-z, 4-all directions 
   EPSILON=  1.0000000 bulk dielectric constant

 Exchange correlation treatment:
   GGA     =    --    GGA type
   LEXCH   =     7    internal setting for exchange type
   VOSKOWN=      0    Vosko Wilk Nusair interpolation
   LHFCALC =     F    Hartree Fock is set to
   LHFONE  =     F    Hartree Fock one center treatment
   AEXX    =    0.0000 exact exchange contribution

 Linear response parameters
   LEPSILON=     F    determine dielectric tensor
   LRPA    =     F    only Hartree local field effects (RPA)
   LNABLA  =     F    use nabla operator in PAW spheres
   LVEL    =     F    velocity operator in full k-point grid
   LINTERFAST=   F  fast interpolation
   KINTER  =     0    interpolate to denser k-point grid
   CSHIFT  =0.1000    complex shift for real part using Kramers Kronig
   OMEGAMAX=  -1.0    maximum frequency

 Orbital magnetization related:
   ORBITALMAG=     F  switch on orbital magnetization
   LCHIMAG   =     F  perturbation theory with respect to B field



--------------------------------------------------------------------------------------------------------


 conjugate gradient relaxation of ions
 charge density and potential will be updated during run
 non-spin polarized calculation
 Variant of blocked Davidson
 Davidson routine will perform the subspace rotation
 perform sub-space diagonalisation
    after iterative eigenvector-optimisation
 modified Broyden-mixing scheme, WC =      100.0
 initial mixing is a Kerker type mixing with AMIX =  0.4000 and BMIX =      1.0000
 Hartree-type preconditioning will be used
 using additional bands            4
 reciprocal scheme for non local part
 use partial core corrections
 calculate Harris-corrections to forces 
   (improved forces if not selfconsistent)
 use gradient corrections 
 use of overlap-Matrix (Vanderbilt PP)
 Methfessel and Paxton  Order N= 1 SIGMA  =   0.20


--------------------------------------------------------------------------------------------------------


  energy-cutoff  :      334.88
  volume of cell :       46.08
      direct lattice vectors                 reciprocal lattice vectors
     3.585051000  0.000000000  0.000000000     0.278936060  0.000000000  0.000000000
     0.000000000  3.585051000  0.000000000     0.000000000  0.278936060  0.000000000
     0.000000000  0.000000000  3.585051000     0.000000000  0.000000000  0.278936060

  length of vectors
     3.585051000  3.585051000  3.585051000     0.278936060  0.278936060  0.278936060


 
 k-points in units of 2pi/SCALE and weight: Automatic kpoint scheme                 
   0.00000000  0.00000000  0.00000000       1.000
 
 k-points in reciprocal lattice and weights: Automatic kpoint scheme                 
   0.00000000  0.00000000  0.00000000       1.000
 
 position of ions in fractional coordinates (direct lattice) 
   0.00000000  0.00000000  0.00000000
   0.50000000  0.00000000  0.50000000
   0.50000000  0.50000000  0.00000000
 
 position of ions in cartesian coordinates  (Angst):
   0.00000000  0.00000000  0.00000000
   1.79252550  0.00000000  1.79252550
   1.79252550  1.79252550  0.00000000
 


--------------------------------------------------------------------------------------------------------


 k-point  1 :  0.00000.00000.0000  plane waves:     619

 maximum and minimum number of plane-waves per node :     619    619

 maximum number of plane-waves:     619
 maximal index in each direction: 
   IXMAX=  5   IYMAX=  5   IZMAX=  5
   IXMIN= -5   IYMIN= -5   IZMIN= -5

 NGX is ok and might be reduce to  22
 NGY is ok and might be reduce to  22
 NGZ is ok and might be reduce to  22

 serial   3D FFT for wavefunctions
 parallel 3D FFT for charge:
    minimum data exchange during FFTs selected (reduces bandwidth)


 total amount of memory used by VASP on root node  40270. kBytes
========================================================================

   base      :    30000. kBytes
   nonl-proj :      118. kBytes
   fftplans  :     3916. kBytes
   grid      :     6018. kBytes
   one-center:       46. kBytes
   wavefun   :      172. kBytes
 
 Broyden mixing: mesh for mixing (old mesh)
   NGX = 11   NGY = 11   NGZ = 11
  (NGX  = 48   NGY  = 48   NGZ  = 48)
  gives a total of   1331 points

 initial charge density was supplied:
 charge density of overlapping atoms calculated
 number of electron   24.0000000 magnetization 
 keeping initial charge density in first step


--------------------------------------------------------------------------------------------------------


 Maximum index for augmentation-charges        10395 (set IRDMAX)


--------------------------------------------------------------------------------------------------------


 First call to EWALD:  gamma=   0.494
 Maximum number of real-space cells 3x 3x 3
 Maximum number of reciprocal cells 3x 3x 3

    FEWALD:  cpu time    0.02: real time    0.01
   RESPFUN:  cpu time    0.01: real time    0.00


----------------------------------------- Iteration    1(   1)  ---------------------------------------


    POTLOK:  cpu time    0.66: real time    0.49
    SETDIJ:  cpu time    0.07: real time    0.07
     EDDAV:  cpu time    0.90: real time    0.24
       DOS:  cpu time    0.00: real time    0.00
    --------------------------------------------
      LOOP:  cpu time    1.64: real time    0.80

 eigenvalue-minimisations  :    32
 total energy-change (2. order) : 0.1262098E+03  (-0.7597038E+03)
 number of electron   24.0000000 magnetization 
 augmentation part    24.0000000 magnetization 

 Free energy of the ion-electron system (eV)
  ---------------------------------------------------
  alpha Z        PSCENC =       134.15010455
  Ewald energy   TEWEN  =     -1543.28455601
  -1/2 Hartree   DENC   =      -459.34008321
  -exchange  EXHF       =         0.00000000
  -V(xc)+E(xc)   XCENC  =         9.08913340
  PAW double counting   =      1438.89509626    -1462.21758594
  entropy T*S    EENTRO =         0.03109209
  eigenvalues    EBANDS =       222.27176701
  atomic energy  EATOM  =      1786.61487174
  ---------------------------------------------------
  free energy    TOTEN  =       126.20983990 eV

  energy without entropy =      126.17874781  energy(sigma->0) =      126.19947587


--------------------------------------------------------------------------------------------------------




----------------------------------------- Iteration    1(   2)  ---------------------------------------


     EDDAV:  cpu time    0.55: real time    0.14
       DOS:  cpu time    0.00: real time    0.00
    --------------------------------------------
      LOOP:  cpu time    0.56: real time    0.14

 eigenvalue-minimisations  :    32
 total energy-change (2. order) :-0.1392837E+03  (-0.1337813E+03)
 number of electron   24.0000000 magnetization 
 augmentation part    24.0000000 magnetization 

 Free energy of the ion-electron system (eV)
  ---------------------------------------------------
  alpha Z        PSCENC =       134.15010455
  Ewald energy   TEWEN  =     -1543.28455601
  -1/2 Hartree   DENC   =      -459.34008321
  -exchange  EXHF       =         0.00000000
  -V(xc)+E(xc)   XCENC  =         9.08913340
  PAW double counting   =      1438.89509626    -1462.21758594
  entropy T*S    EENTRO =         0.01686353
  eigenvalues    EBANDS =        83.00232149
  atomic energy  EATOM  =      1786.61487174
  ---------------------------------------------------
  free energy    TOTEN  =       -13.07383418 eV

  energy without entropy =      -13.09069771  energy(sigma->0) =      -13.07945536


--------------------------------------------------------------------------------------------------------




----------------------------------------- Iteration    1(   3)  ---------------------------------------


     EDDAV:  cpu time    0.78: real time    0.20
       DOS:  cpu time    0.00: real time    0.00
    --------------------------------------------
      LOOP:  cpu time    0.79: real time    0.20

 eigenvalue-minimisations  :    56
 total energy-change (2. order) :-0.1137113E+02  (-0.1130896E+02)
 number of electron   24.0000000 magnetization 
 augmentation part    24.0000000 magnetization 

 Free energy of the ion-electron system (eV)
  ---------------------------------------------------
  alpha Z        PSCENC =       134.15010455
  Ewald energy   TEWEN  =     -1543.28455601
  -1/2 Hartree   DENC   =      -459.34008321
  -exchange  EXHF       =         0.00000000
  -V(xc)+E(xc)   XCENC  =         9.08913340
  PAW double counting   =      1438.89509626    -1462.21758594
  entropy T*S    EENTRO =         0.02403868
  eigenvalues    EBANDS =        71.62401678
  atomic energy  EATOM  =      1786.61487174
  ---------------------------------------------------
  free energy    TOTEN  =       -24.44496374 eV

  energy without entropy =      -24.46900242  energy(sigma->0) =      -24.45297663


--------------------------------------------------------------------------------------------------------




----------------------------------------- Iteration    1(   4)  ---------------------------------------


     EDDAV:  cpu time    0.60: real time    0.15
       DOS:  cpu time    0.00: real time    0.00
    --------------------------------------------
      LOOP:  cpu time    0.61: real time    0.15

 eigenvalue-minimisations  :    40
 total energy-change (2. order) :-0.1966298E+00  (-0.1965973E+00)
 number of electron   24.0000000 magnetization 
 augmentation part    24.0000000 magnetization 

 Free energy of the ion-electron system (eV)
  ---------------------------------------------------
  alpha Z        PSCENC =       134.15010455
  Ewald energy   TEWEN  =     -1543.28455601
  -1/2 Hartree   DENC   =      -459.34008321
  -exchange  EXHF       =         0.00000000
  -V(xc)+E(xc)   XCENC  =         9.08913340
  PAW double counting   =      1438.89509626    -1462.21758594
  entropy T*S    EENTRO =         0.02399882
  eigenvalues    EBANDS =        71.42742683
  atomic energy  EATOM  =      1786.61487174
  ---------------------------------------------------
  free energy    TOTEN  =       -24.64159356 eV

  energy without entropy =      -24.66559238  energy(sigma->0) =      -24.64959316


--------------------------------------------------------------------------------------------------------




----------------------------------------- Iteration    1(   5)  ---------------------------------------


     EDDAV:  cpu time    0.69: real time    0.17
       DOS:  cpu time    0.00: real time    0.00
    CHARGE:  cpu time    0.19: real time    0.05
    MIXING:  cpu time    0.02: real time    0.01
    --------------------------------------------
      LOOP:  cpu time    0.92: real time    0.24

 eigenvalue-minimisations  :    48
 total energy-change (2. order) :-0.2856523E-02  (-0.2856518E-02)
 number of electron   24.0000011 magnetization 
 augmentation part    12.5889900 magnetization 

 Broyden mixing:
  rms(total) = 0.72952E+00    rms(broyden)= 0.71053E+00
  rms(prec ) = 0.12707E+01
  weight for this iteration     100.00

 Free energy of the ion-electron system (eV)
  ---------------------------------------------------
  alpha Z        PSCENC =       134.15010455
  Ewald energy   TEWEN  =     -1543.28455601
  -1/2 Hartree   DENC   =      -459.34008321
  -exchange  EXHF       =         0.00000000
  -V(xc)+E(xc)   XCENC  =         9.08913340
  PAW double counting   =      1438.89509626    -1462.21758594
  entropy T*S    EENTRO =         0.02399863
  eigenvalues    EBANDS =        71.42457049
  atomic energy  EATOM  =      1786.61487174
  ---------------------------------------------------
  free energy    TOTEN  =       -24.64445008 eV

  energy without entropy =      -24.66844871  energy(sigma->0) =      -24.65244962


--------------------------------------------------------------------------------------------------------




----------------------------------------- Iteration    1(   6)  ---------------------------------------


    POTLOK:  cpu time    0.26: real time    0.25
    SETDIJ:  cpu time    0.04: real time    0.04
     EDDAV:  cpu time    0.47: real time    0.13
       DOS:  cpu time    0.00: real time    0.00
    CHARGE:  cpu time    0.15: real time    0.05
    MIXING:  cpu time    0.01: real time    0.01
    --------------------------------------------
      LOOP:  cpu time    0.93: real time    0.47

 eigenvalue-minimisations  :    32
 total energy-change (2. order) : 0.8162066E+00  (-0.2891396E+00)
 number of electron   24.0000011 magnetization 
 augmentation part    13.0178426 magnetization 

 Broyden mixing:
  rms(total) = 0.36675E+00    rms(broyden)= 0.36499E+00
  rms(prec ) = 0.53481E+00
  weight for this iteration     100.00

 eigenvalues of (default mixing * dielectric matrix)
  average eigenvalue GAMMA=   1.4068
  1.4068

 Free energy of the ion-electron system (eV)
  ---------------------------------------------------
  alpha Z        PSCENC =       134.15010455
  Ewald energy   TEWEN  =     -1543.28455601
  -1/2 Hartree   DENC   =      -444.23727436
  -exchange  EXHF       =         0.00000000
  -V(xc)+E(xc)   XCENC  =         8.41147744
  PAW double counting   =      1472.20108565    -1492.34330523
  entropy T*S    EENTRO =         0.05953729
  eigenvalues    EBANDS =        54.59981544
  atomic energy  EATOM  =      1786.61487174
  ---------------------------------------------------
  free energy    TOTEN  =       -23.82824350 eV

  energy without entropy =      -23.88778079  energy(sigma->0) =      -23.84808926


--------------------------------------------------------------------------------------------------------




----------------------------------------- Iteration    1(   7)  ---------------------------------------


    POTLOK:  cpu time    0.25: real time    0.25
    SETDIJ:  cpu time    0.04: real time    0.04
     EDDAV:  cpu time    0.46: real time    0.12
       DOS:  cpu time    0.00: real time    0.00
    CHARGE:  cpu time    0.15: real time    0.05
    MIXING:  cpu time    0.01: real time    0.01
    --------------------------------------------
      LOOP:  cpu time    0.91: real time    0.47

 eigenvalue-minimisations  :    32
 total energy-change (2. order) :-0.7934229E-01  (-0.4643770E-02)
 number of electron   24.0000011 magnetization 
 augmentation part    12.9897738 magnetization 

 Broyden mixing:
  rms(total) = 0.19445E+00    rms(broyden)= 0.19437E+00
  rms(prec ) = 0.28958E+00
  weight for this iteration     100.00

 eigenvalues of (default mixing * dielectric matrix)
  average eigenvalue GAMMA=   1.7123
  2.4822  0.9424

 Free energy of the ion-electron system (eV)
  ---------------------------------------------------
  alpha Z        PSCENC =       134.15010455
  Ewald energy   TEWEN  =     -1543.28455601
  -1/2 Hartree   DENC   =      -444.85702234
  -exchange  EXHF       =         0.00000000
  -V(xc)+E(xc)   XCENC  =         8.54542081
  PAW double counting   =      1512.89462229    -1533.69680671
  entropy T*S    EENTRO =         0.03268779
  eigenvalues    EBANDS =        55.69309210
  atomic energy  EATOM  =      1786.61487174
  ---------------------------------------------------
  free energy    TOTEN  =       -23.90758579 eV

  energy without entropy =      -23.94027358  energy(sigma->0) =      -23.91848172


--------------------------------------------------------------------------------------------------------




----------------------------------------- Iteration    1(   8)  ---------------------------------------


    POTLOK:  cpu time    0.28: real time    0.25
    SETDIJ:  cpu time    0.04: real time    0.04
     EDDAV:  cpu time    0.55: real time    0.15
       DOS:  cpu time    0.00: real time    0.00
    CHARGE:  cpu time    0.16: real time    0.05
    MIXING:  cpu time    0.01: real time    0.01
    --------------------------------------------
      LOOP:  cpu time    1.03: real time    0.49

 eigenvalue-minimisations  :    40
 total energy-change (2. order) :-0.4630285E-01  (-0.2120917E-02)
 number of electron   24.0000011 magnetization 
 augmentation part    12.9869630 magnetization 

 Broyden mixing:
  rms(total) = 0.90644E-02    rms(broyden)= 0.89920E-02
  rms(prec ) = 0.21510E-01
  weight for this iteration     100.00

 eigenvalues of (default mixing * dielectric matrix)
  average eigenvalue GAMMA=   1.4996
  2.5431  0.9778  0.9778

 Free energy of the ion-electron system (eV)
  ---------------------------------------------------
  alpha Z        PSCENC =       134.15010455
  Ewald energy   TEWEN  =     -1543.28455601
  -1/2 Hartree   DENC   =      -444.39127862
  -exchange  EXHF       =         0.00000000
  -V(xc)+E(xc)   XCENC  =         8.69712873
  PAW double counting   =      1558.94773086    -1580.08428145
  entropy T*S    EENTRO =         0.02616158
  eigenvalues    EBANDS =        55.37022998
  atomic energy  EATOM  =      1786.61487174
  ---------------------------------------------------
  free energy    TOTEN  =       -23.95388864 eV

  energy without entropy =      -23.98005022  energy(sigma->0) =      -23.96260916


--------------------------------------------------------------------------------------------------------




----------------------------------------- Iteration    1(   9)  ---------------------------------------


    POTLOK:  cpu time    0.31: real time    0.25
    SETDIJ:  cpu time    0.04: real time    0.04
     EDDAV:  cpu time    0.38: real time    0.10
       DOS:  cpu time    0.00: real time    0.00
    CHARGE:  cpu time    0.16: real time    0.05
    MIXING:  cpu time    0.01: real time    0.01
    --------------------------------------------
      LOOP:  cpu time    0.91: real time    0.45

 eigenvalue-minimisations  :    24
 total energy-change (2. order) :-0.1221042E-03  (-0.1158963E-03)
 number of electron   24.0000011 magnetization 
 augmentation part    12.9908149 magnetization 

 Broyden mixing:
  rms(total) = 0.42673E-02    rms(broyden)= 0.42606E-02
  rms(prec ) = 0.10465E-01
  weight for this iteration     100.00

 eigenvalues of (default mixing * dielectric matrix)
  average eigenvalue GAMMA=   1.8117
  2.5084  2.8043  0.9671  0.9671

 Free energy of the ion-electron system (eV)
  ---------------------------------------------------
  alpha Z        PSCENC =       134.15010455
  Ewald energy   TEWEN  =     -1543.28455601
  -1/2 Hartree   DENC   =      -444.22211850
  -exchange  EXHF       =         0.00000000
  -V(xc)+E(xc)   XCENC  =         8.69286957
  PAW double counting   =      1559.52267652    -1580.59812538
  entropy T*S    EENTRO =         0.02620281
  eigenvalues    EBANDS =        55.14406396
  atomic energy  EATOM  =      1786.61487174
  ---------------------------------------------------
  free energy    TOTEN  =       -23.95401074 eV

  energy without entropy =      -23.98021355  energy(sigma->0) =      -23.96274501


--------------------------------------------------------------------------------------------------------




----------------------------------------- Iteration    1(  10)  ---------------------------------------


    POTLOK:  cpu time    0.34: real time    0.25
    SETDIJ:  cpu time    0.04: real time    0.04
     EDDAV:  cpu time    0.30: real time    0.08
       DOS:  cpu time    0.00: real time    0.00
    --------------------------------------------
      LOOP:  cpu time    0.69: real time    0.37

 eigenvalue-minimisations  :    16
 total energy-change (2. order) :-0.7807390E-04  (-0.1553267E-04)
 number of electron   24.0000011 magnetization 
 augmentation part    12.9908149 magnetization 

 Free energy of the ion-electron system (eV)
  ---------------------------------------------------
  alpha Z        PSCENC =       134.15010455
  Ewald energy   TEWEN  =     -1543.28455601
  -1/2 Hartree   DENC   =      -444.20863691
  -exchange  EXHF       =         0.00000000
  -V(xc)+E(xc)   XCENC  =         8.69046794
  PAW double counting   =      1559.01694010    -1580.05286425
  entropy T*S    EENTRO =         0.02621779
  eigenvalues    EBANDS =        55.09336623
  atomic energy  EATOM  =      1786.61487174
  ---------------------------------------------------
  free energy    TOTEN  =       -23.95408881 eV

  energy without entropy =      -23.98030660  energy(sigma->0) =      -23.96282808


--------------------------------------------------------------------------------------------------------




 average (electrostatic) potential at core
  the test charge radii are     1.0103
  (the norm of the test charge is              1.0000)
       1 -44.6539       2 -44.6539       3 -44.6539
 
 
 
 E-fermi :   5.0356     XC(G=0): -11.1876     alpha+bet :-10.0907
   add alpha+bet to get absolut eigen values

 k-point   1 :       0.0000    0.0000    0.0000
  band No.  band energies     occupation 
      1      -3.6473      2.00000
      2       0.0696      2.00000
      3       1.4582      2.00000
      4       1.4582      2.00000
      5       1.4582      2.00000
      6       1.7519      2.00000
      7       1.7519      2.00000
      8       4.5041      2.00111
      9       4.5041      2.00111
     10       4.5041      2.00111
     11       4.8675      1.99945
     12       4.8675      1.99944
     13       5.5847     -0.00072
     14       5.5847     -0.00072
     15       5.5847     -0.00072
     16       5.6747     -0.00006


--------------------------------------------------------------------------------------------------------


 soft charge-density along one line, spin component           1
         0         1         2         3         4         5         6         7         8         9
 total charge-density along one line
 
 pseudopotential strength for first ion, spin component:           1
 -5.752   0.000   0.000   0.000   0.000  -0.614   0.000   0.000
  0.000  -5.331   0.000   0.000   0.000   0.000  -0.733   0.000
  0.000   0.000  -5.546   0.000   0.045   0.000   0.000  -0.671
  0.000   0.000   0.000  -5.752   0.000   0.000   0.000   0.000
  0.000   0.000   0.045   0.000  -5.598   0.000   0.000  -0.012
 -0.614   0.000   0.000   0.000   0.000   0.920   0.000   0.000
  0.000  -0.733   0.000   0.000   0.000   0.000   0.955   0.000
  0.000   0.000  -0.671   0.000  -0.012   0.000   0.000   0.936
  0.000   0.000   0.000  -0.614   0.000   0.000   0.000   0.000
  0.000   0.000  -0.012   0.000  -0.657   0.000   0.000   0.002
  0.000   0.000  -0.019   0.000   0.033   0.000   0.000   0.004
  0.000   0.000   0.003   0.000  -0.004   0.000   0.000  -0.001
  0.000   0.000   0.000   0.000   0.000   0.000   0.000   0.000
  0.000   0.000   0.000   0.000   0.000   0.000   0.000   0.000
  0.000   0.000   0.000   0.000   0.000   0.000   0.000   0.000
  0.000   0.000   0.000   0.000   0.000   0.000   0.000   0.000
  0.000   0.000   0.000   0.000   0.000   0.000   0.000   0.000
  0.000   0.000   0.000   0.000   0.000   0.000   0.000   0.000
 total augmentation occupancy for first ion, spin component:           1
  1.122   0.000   0.000   0.000   0.000   0.382   0.000   0.000   0.000   0.000   0.000   0.000   0.000   0.000   0.000   0.000
  0.000   2.046   0.000   0.000   0.000   0.000  -0.116   0.000   0.000   0.000   0.000   0.000   0.000   0.000   0.000   0.000
  0.000   0.000   1.452   0.000  -0.290   0.000   0.000   0.369   0.000   0.171   0.010  -0.029   0.000   0.000   0.000   0.000
  0.000   0.000   0.000   1.122   0.000   0.000   0.000   0.000   0.382   0.000   0.000   0.000   0.000   0.000   0.000   0.000
  0.000   0.000  -0.290   0.000   1.786   0.000   0.000   0.171   0.000   0.171  -0.017   0.049   0.000   0.000   0.000   0.000
  0.382   0.000   0.000   0.000   0.000   0.170   0.000   0.000   0.000   0.000   0.000   0.000   0.000   0.000   0.000   0.000
  0.000  -0.116   0.000   0.000   0.000   0.000   0.077   0.000   0.000   0.000   0.000   0.000   0.000   0.000   0.000   0.000
  0.000   0.000   0.369   0.000   0.171   0.000   0.000   0.270   0.000  -0.108  -0.067   0.044   0.000   0.000   0.000   0.000
  0.000   0.000   0.000   0.382   0.000   0.000   0.000   0.000   0.170   0.000   0.000   0.000   0.000   0.000   0.000   0.000
  0.000   0.000   0.171   0.000   0.171   0.000   0.000  -0.108   0.000   0.395   0.116  -0.076   0.000   0.000   0.000   0.000
  0.000   0.000   0.010   0.000  -0.017   0.000   0.000  -0.067   0.000   0.116   1.300  -0.502   0.000   0.000   0.000   0.000
  0.000   0.000  -0.029   0.000   0.049   0.000   0.000   0.044   0.000  -0.076  -0.502   0.218   0.000   0.000   0.000   0.000
  0.000   0.000   0.000   0.000   0.000   0.000   0.000   0.000   0.000   0.000   0.000   0.000   0.000   0.000   0.000   0.000
  0.000   0.000   0.000   0.000   0.000   0.000   0.000   0.000   0.000   0.000   0.000   0.000   0.000   0.000   0.000   0.000
  0.000   0.000   0.000   0.000   0.000   0.000   0.000   0.000   0.000   0.000   0.000   0.000   0.000   0.000   0.000   0.000
  0.000   0.000   0.000   0.000   0.000   0.000   0.000   0.000   0.000   0.000   0.000   0.000   0.000   0.000   0.000   0.000
  0.000   0.000   0.000   0.000   0.000   0.000   0.000   0.000   0.000   0.000   0.000   0.000   0.000   0.000   0.000   0.000
  0.000   0.000   0.000   0.000   0.000   0.000   0.000   0.000   0.000   0.000   0.000   0.000   0.000   0.000   0.000   0.000


------------------------ aborting loop because EDIFF is reached ----------------------------------------




--------------------------------------------------------------------------------------------------------



  FREE ENERGIE OF THE ION-ELECTRON SYSTEM (eV)
  ---------------------------------------------------
  free  energy   TOTEN  =       -23.954089 eV

  energy  without entropy=      -23.980307  energy(sigma->0) =      -23.962828
 
    CHARGE:  cpu time    0.12: real time    0.05
    FORLOC:  cpu time    0.01: real time    0.01
    FORNL :  cpu time    0.15: real time    0.15
    STRESS:  cpu time    0.42: real time    0.26
    FORCOR:  cpu time    0.26: real time    0.26
    FORHAR:  cpu time    0.06: real time    0.06
    MIXING:  cpu time    0.01: real time    0.01

  FORCE on cell =-STRESS in cart. coord.  units (eV):
  Direction    XX          YY          ZZ          XY          YZ          ZX
  --------------------------------------------------------------------------------------
  Alpha Z   134.15010   134.15010   134.15010
  Ewald    -514.42836  -514.42836  -514.42836     0.00000     0.00000     0.00000
  Hartree   148.14276   148.14276   148.14276     0.00000     0.00000     0.00000
  E(xc)    -117.66638  -117.66638  -117.66638     0.00000     0.00000     0.00000
  Local     113.22877   113.22877   113.22877     0.00000     0.00000     0.00000
  n-local  -110.40443  -110.40527  -110.40525    -0.00033    -0.00002    -0.00007
  augment   109.66149   109.66150   109.66149     0.00000     0.00003     0.00001
  Kinetic   226.04156   226.04179   226.04173     0.00024    -0.00001    -0.00003
  Fock        0.00000     0.00000     0.00000     0.00000     0.00000     0.00000
  -------------------------------------------------------------------------------------
  Total     -11.27490   -11.27490   -11.27490     0.00000     0.00000     0.00000
  in kB    -392.04625  -392.04625  -392.04625     0.00000     0.00000     0.00000
  external pressure =     -392.05 kB  Pullay stress =        0.00 kB


 VOLUME and BASIS-vectors are now :
 -----------------------------------------------------------------------------
  energy-cutoff  :      334.88
  volume of cell :       46.08
      direct lattice vectors                 reciprocal lattice vectors
     3.585051000  0.000000000  0.000000000     0.278936060  0.000000000  0.000000000
     0.000000000  3.585051000  0.000000000     0.000000000  0.278936060  0.000000000
     0.000000000  0.000000000  3.585051000     0.000000000  0.000000000  0.278936060

  length of vectors
     3.585051000  3.585051000  3.585051000     0.278936060  0.278936060  0.278936060


 FORCES acting on ions
    electron-ion (+dipol)            ewald-force                    non-local-force                 convergence-correction
 -----------------------------------------------------------------------------------------------
   0.113E-13 0.277E-13 -.105E-12   -.830E-14 -.516E-14 -.341E-14   0.000E+00 0.000E+00 0.000E+00   -.283E-13 -.343E-13 -.281E-13
   0.230E-12 0.233E-13 -.170E-11   0.492E-14 -.712E-14 0.344E-14   0.000E+00 0.000E+00 0.000E+00   -.462E-13 -.334E-13 0.289E-13
   0.235E-12 -.941E-12 -.203E-11   0.411E-14 0.113E-13 0.120E-14   0.000E+00 0.000E+00 0.000E+00   -.491E-13 -.124E-13 0.783E-14
 -----------------------------------------------------------------------------------------------
   0.477E-12 -.890E-12 -.383E-11   0.733E-15 -.955E-15 0.123E-14   0.000E+00 0.000E+00 0.000E+00   -.124E-12 -.801E-13 0.861E-14
 
 
 POSITION                                       TOTAL-FORCE (eV/Angst)
 -----------------------------------------------------------------------------------
      0.00000      0.00000      0.00000         0.000000      0.000000      0.000000
      1.79253      0.00000      1.79253         0.000000      0.000000      0.000000
      1.79253      1.79253      0.00000         0.000000      0.000000      0.000000
 -----------------------------------------------------------------------------------
    total drift:                                0.000000      0.000000      0.000000


--------------------------------------------------------------------------------------------------------


    POTLOK:  cpu time    0.44: real time    0.29


--------------------------------------------------------------------------------------------------------


  FORCES: max atom, RMS     0.000000    0.000000
  FORCE total and by dimension    0.000000    0.000000


--------------------------------------------------------------------------------------------------------


  
 reached required accuracy - stopping structural energy minimisation
     LOOP+:  cpu time   10.57: real time    4.93
    4ORBIT:  cpu time    0.00: real time    0.00

 total amount of memory used by VASP on root node  40270. kBytes
========================================================================

   base      :    30000. kBytes
   nonl-proj :      118. kBytes
   fftplans  :     3916. kBytes
   grid      :     6018. kBytes
   one-center:       46. kBytes
   wavefun   :      172. kBytes
 
  
  
 General timing and accounting informations for this job:
 ========================================================
  
                  Total CPU time used (sec):       11.315
                            User time (sec):       11.188
                          System time (sec):        0.127
                         Elapsed time (sec):        5.519
  
                   Maximum memory used (kb):           0.
                   Average memory used (kb):           0.
  
                          Minor page faults:        16356
                          Major page faults:            0
                 Voluntary context switches:          227
