<?xml version="1.0" encoding="ISO-8859-1"?>
<modeling>
 <generator>
  <i name="program" type="string">vasp </i>
  <i name="version" type="string">5.2.2  </i>
  <i name="subversion" type="string">15Apr09 complex  parallel </i>
  <i name="platform" type="string">LinuxIFC </i>
  <i name="date" type="string">2013 06 14 </i>
  <i name="time" type="string">22:46:44 </i>
 </generator>
 <incar>
  <i type="string" name="PREC">accurate</i>
  <i type="int" name="IBRION">     2</i>
  <i type="int" name="NSW">   191</i>
  <i type="int" name="ISIF">     2</i>
  <i name="ENCUT">    334.88375000</i>
  <i type="int" name="ISMEAR">     1</i>
  <i name="SIGMA">      0.20000000</i>
  <i type="logical" name="LWAVE"> F  </i>
  <i type="logical" name="LCHARG"> F  </i>
  <i type="logical" name="LPEAD"> F  </i>
  <i type="logical" name="LCALCPOL"> F  </i>
  <i type="logical" name="LCALCEPS"> F  </i>
  <v name="EFIELD_PEAD">      0.00000000      0.00000000      0.00000000</v>
  <i type="logical" name="LEFG"> F  </i>
 </incar>
 <kpoints>
  <generation param="Gamma">
   <v type="int" name="divisions">       1        1        1 </v>
   <v name="usershift">      0.00000000       0.00000000       0.00000000 </v>
   <v name="genvec1">      1.00000000       0.00000000       0.00000000 </v>
   <v name="genvec2">      0.00000000       1.00000000       0.00000000 </v>
   <v name="genvec3">      0.00000000       0.00000000       1.00000000 </v>
   <v name="shift">      0.00000000       0.00000000       0.00000000 </v>
  </generation>
  <varray name="kpointlist" >
   <v>       0.00000000       0.00000000       0.00000000 </v>
  </varray>
  <varray name="weights" >
   <v>       1.00000000 </v>
  </varray>
 </kpoints>
 <parameters>
  <separator name="general" >
   <i type="string" name="SYSTEM">unknown system</i>
   <i type="logical" name="LCOMPAT"> F  </i>
  </separator>
  <separator name="electronic" >
   <i type="string" name="PREC">accura</i>
   <i name="ENMAX">    334.88375000</i>
   <i name="ENAUG">    511.36800000</i>
   <i name="EDIFF">      0.00010000</i>
   <i type="int" name="IALGO">    38</i>
   <i type="int" name="IWAVPR">    11</i>
   <i type="int" name="NBANDS">    16</i>
   <i name="NELECT">     24.00000000</i>
   <separator name="electronic smearing" >
    <i type="int" name="ISMEAR">     1</i>
    <i name="SIGMA">      0.20000000</i>
   </separator>
   <separator name="electronic projectors" >
    <i type="logical" name="LREAL"> F  </i>
    <v name="ROPT">      0.00000000</v>
    <i type="int" name="LMAXPAW">  -100</i>
    <i type="int" name="LMAXMIX">     2</i>
   </separator>
   <separator name="electronic startup" >
    <i type="int" name="ISTART">     0</i>
    <i type="int" name="ICHARG">     2</i>
    <i type="int" name="INIWAV">     1</i>
   </separator>
   <separator name="electronic spin" >
    <i type="int" name="ISPIN">     1</i>
    <i type="logical" name="LNONCOLLINEAR"> F  </i>
    <v name="MAGMOM">      1.00000000      1.00000000      1.00000000</v>
    <i name="NUPDOWN">     -1.00000000</i>
    <i type="logical" name="LSORBIT"> F  </i>
    <v name="SAXIS">      0.00000000      0.00000000      1.00000000</v>
    <i type="logical" name="LSPIRAL"> F  </i>
    <v name="QSPIRAL">      0.00000000      0.00000000      0.00000000</v>
    <i type="logical" name="LZEROZ"> F  </i>
   </separator>
   <separator name="electronic exchange-correlation" >
    <i type="logical" name="LASPH"> F  </i>
    <i type="logical" name="LMETAGGA"> F  </i>
   </separator>
   <separator name="electronic convergence" >
    <i type="int" name="NELM">    60</i>
    <i type="int" name="NELMDL">    -5</i>
    <i type="int" name="NELMIN">     2</i>
    <i name="ENINI">    334.88375000</i>
    <separator name="electronic convergence detail" >
     <i type="logical" name="LDIAG"> T  </i>
     <i name="WEIMIN">      0.00100000</i>
     <i name="EBREAK">      0.00000156</i>
     <i name="DEPER">      0.30000000</i>
     <i type="int" name="NRMM">     4</i>
     <i name="TIME">      0.40000000</i>
    </separator>
   </separator>
   <separator name="electronic mixer" >
    <i name="AMIX">      0.40000000</i>
    <i name="BMIX">      1.00000000</i>
    <i name="AMIN">      0.10000000</i>
    <i name="AMIX_MAG">      1.60000000</i>
    <i name="BMIX_MAG">      1.00000000</i>
    <separator name="electronic mixer details" >
     <i type="int" name="IMIX">     4</i>
     <i type="int" name="MAXMIX">   -45</i>
     <i name="WC">    100.00000000</i>
     <i type="int" name="INIMIX">     1</i>
     <i type="int" name="MIXPRE">     1</i>
     <i type="int" name="MREMOVE">     5</i>
    </separator>
   </separator>
   <separator name="electronic dipolcorrection" >
    <i type="logical" name="LDIPOL"> F  </i>
    <i type="logical" name="LMONO"> F  </i>
    <i type="int" name="IDIPOL">     0</i>
    <i name="EPSILON">      1.00000000</i>
    <v name="DIPOL">   -100.00000000   -100.00000000   -100.00000000</v>
    <i name="EFIELD">      0.00000000</i>
   </separator>
  </separator>
  <separator name="grids" >
   <i type="int" name="NGX">    24</i>
   <i type="int" name="NGY">    24</i>
   <i type="int" name="NGZ">    24</i>
   <i type="int" name="NGXF">    48</i>
   <i type="int" name="NGYF">    48</i>
   <i type="int" name="NGZF">    48</i>
   <i type="logical" name="ADDGRID"> F  </i>
  </separator>
  <separator name="ionic" >
   <i type="int" name="NSW">   191</i>
   <i type="int" name="IBRION">     2</i>
   <i type="int" name="ISIF">     2</i>
   <i name="PSTRESS">      0.00000000</i>
   <i name="EDIFFG">      0.00100000</i>
   <i type="int" name="NFREE">     1</i>
   <i name="POTIM">      0.50000000</i>
   <i name="SMASS">     -3.00000000</i>
  </separator>
  <separator name="ionic md" >
   <i name="TEBEG">      0.00010000</i>
   <i name="TEEND">      0.00010000</i>
   <i type="int" name="NBLOCK">     1</i>
   <i type="int" name="KBLOCK">   191</i>
   <i type="int" name="NPACO">   256</i>
   <i name="APACO">     16.00000000</i>
  </separator>
  <separator name="symmetry" >
   <i type="int" name="ISYM">     2</i>
   <i name="SYMPREC">      0.00001000</i>
  </separator>
  <separator name="dos" >
   <i type="logical" name="LORBIT"> F  </i>
   <v name="RWIGS">     -1.00000000</v>
   <i type="int" name="NEDOS">   301</i>
   <i name="EMIN">     10.00000000</i>
   <i name="EMAX">    -10.00000000</i>
   <i name="EFERMI">      0.00000000</i>
  </separator>
  <separator name="writing" >
   <i type="int" name="NWRITE">     2</i>
   <i type="logical" name="LWAVE"> F  </i>
   <i type="logical" name="LCHARG"> F  </i>
   <i type="logical" name="LPARD"> F  </i>
   <i type="logical" name="LVTOT"> F  </i>
   <i type="logical" name="LELF"> F  </i>
   <i type="logical" name="LOPTICS"> F  </i>
   <v name="STM">      0.00000000      0.00000000      0.00000000      0.00000000      0.00000000</v>
  </separator>
  <separator name="performance" >
   <i type="int" name="NPAR">     1</i>
   <i type="int" name="NSIM">     4</i>
   <i type="int" name="NBLK">    32</i>
   <i type="logical" name="LPLANE"> T  </i>
   <i type="logical" name="LSCALAPACK"> F  </i>
   <i type="logical" name="LSCAAWARE"> F  </i>
   <i type="logical" name="LSCALU"> F  </i>
   <i type="logical" name="LASYNC"> F  </i>
  </separator>
  <separator name="miscellaneous" >
   <i type="int" name="IDIOT">     3</i>
   <i type="logical" name="LMUSIC"> F  </i>
   <v name="POMASS">     55.84700000</v>
   <i type="logical" name="LCORR"> T  </i>
  </separator>
  <i type="logical" name="LREAL_COMPAT"> F  </i>
  <i type="logical" name="GGA_COMPAT"> T  </i>
  <i type="logical" name="LBERRY"> F  </i>
  <i type="int" name="ICORELEVEL">     0</i>
  <i type="logical" name="LDAU"> F  </i>
  <i type="int" name="I_CONSTRAINED_M">     0</i>
  <separator name="electronic exchange-correlation" >
   <i type="string" name="GGA">--</i>
   <i type="int" name="VOSKOWN">     0</i>
   <i type="logical" name="LHFCALC"> F  </i>
   <i type="logical" name="LHFONE"> F  </i>
   <i type="logical" name="LRHFCALC"> F  </i>
   <i type="logical" name="LTHOMAS"> F  </i>
   <i type="logical" name="LMODELHF"> F  </i>
   <i name="ENCUTFOCK">      0.00000000</i>
   <i name="ENCUT4O">     -1.00000000</i>
   <i type="int" name="EXXOEP">     0</i>
   <i type="int" name="FOURORBIT">     0</i>
   <i name="AEXX">      0.00000000</i>
   <i name="HFALPHA">      0.00000000</i>
   <i name="ALDAX">      1.00000000</i>
   <i name="AGGAX">      1.00000000</i>
   <i name="ALDAC">      1.00000000</i>
   <i name="AGGAC">      1.00000000</i>
   <i type="int" name="NKREDX">     1</i>
   <i type="int" name="NKREDY">     1</i>
   <i type="int" name="NKREDZ">     1</i>
   <i type="logical" name="SHIFTRED"> F  </i>
   <i type="logical" name="ODDONLY"> F  </i>
   <i type="logical" name="EVENONLY"> F  </i>
   <i type="int" name="LMAXFOCK">     0</i>
   <i type="int" name="NMAXFOCKAE">     0</i>
   <i name="HFSCREEN">      0.00000000</i>
   <i name="HFSCREENC">      0.00000000</i>
  </separator>
  <separator name="model GW" >
   <i type="int" name="MODEL_GW">     0</i>
   <i name="MODEL_EPS0">      9.21543861</i>
   <i name="MODEL_ALPHA">      1.00000000</i>
  </separator>
  <separator name="linear response parameters" >
   <i type="logical" name="LEPSILON"> F  </i>
   <i type="logical" name="LRPA"> F  </i>
   <i type="logical" name="LNABLA"> F  </i>
   <i type="logical" name="LVEL"> F  </i>
   <i type="int" name="KINTER">     0</i>
   <i name="CSHIFT">      0.10000000</i>
   <i name="OMEGAMAX">     -1.00000000</i>
  </separator>
  <separator name="orbital magnetization" >
   <i type="logical" name="ORBITALMAG"> F  </i>
   <i type="logical" name="LMAGBLOCH"> F  </i>
   <i type="logical" name="LCHIMAG"> F  </i>
   <i type="logical" name="LGAUGE"> T  </i>
   <i type="int" name="MAGATOM">     0</i>
   <v name="MAGDIPOL">      0.00000000      0.00000000      0.00000000</v>
   <v name="AVECCONST">      0.00000000      0.00000000      0.00000000</v>
  </separator>
  <separator name="response functions" >
   <i type="logical" name="LRPA"> T  </i>
   <i type="logical" name="LTCTE"> F  </i>
   <i type="logical" name="LTETE"> F  </i>
   <i type="logical" name="L2ORDER"> F  </i>
   <i type="logical" name="LGWLF"> F  </i>
   <i name="ENCUTGW">    223.25583333</i>
   <i name="ENCUTGWSOFT">     -2.00000000</i>
   <i name="ENCUTLF">     -1.00000000</i>
   <i type="int" name="LMAXMP2">    -1</i>
   <i name="SCISSOR">      0.00000000</i>
   <i type="int" name="NOMEGA">     0</i>
   <i type="int" name="NOMEGAR">     0</i>
   <i type="int" name="NBANDSGW">    -1</i>
   <i type="int" name="NBANDSLF">    -1</i>
   <i type="int" name="NELM">     1</i>
   <i type="int" name="DIM">     3</i>
   <i type="int" name="ANTIRES">     0</i>
   <i type="logical" name="LUSEW"> F  </i>
   <i name="OMEGAMAX">    -30.00000000</i>
   <i name="OMEGATL">   -200.00000000</i>
   <i type="int" name="OMEGAGRID">     0</i>
   <i name="CSHIFT">     -0.10000000</i>
   <i type="logical" name="SELFENERGY"> F  </i>
   <i type="logical" name="LSPECTRAL"> F  </i>
   <i type="logical" name="ODDONLYGW"> F  </i>
   <i type="logical" name="EVENONLYGW"> F  </i>
   <i type="int" name="NKREDLFX">     1</i>
   <i type="int" name="NKREDLFY">     1</i>
   <i type="int" name="NKREDLFZ">     1</i>
   <i type="int" name="MAXMEM">  1024</i>
   <i type="int" name="TELESCOPE">     0</i>
  </separator>
 </parameters>
 <atominfo>
  <atoms>       3 </atoms>
  <types>       1 </types>
  <array name="atoms" >
   <dimension dim="1">ion</dimension>
   <field type="string">element</field>
   <field type="int">atomtype</field>
   <set>
    <rc><c>Fe</c><c>   1</c></rc>
    <rc><c>Fe</c><c>   1</c></rc>
    <rc><c>Fe</c><c>   1</c></rc>
   </set>
  </array>
  <array name="atomtypes" >
   <dimension dim="1">type</dimension>
   <field type="int">atomspertype</field>
   <field type="string">element</field>
   <field>mass</field>
   <field>valence</field>
   <field type="string">pseudopotential</field>
   <set>
    <rc><c>   3</c><c>Fe</c><c>     55.84700000</c><c>      8.00000000</c><c> PAW_GGA Fe 03Mar1998                   </c></rc>
   </set>
  </array>
 </atominfo>
 <structure name="initialpos" >
  <crystal>
   <varray name="basis" >
    <v>       3.58505100       0.00000000       0.00000000 </v>
    <v>       0.00000000       3.58505100       0.00000000 </v>
    <v>       0.00000000       0.00000000       3.58505100 </v>
   </varray>
   <i name="volume">     46.07719304 </i>
   <varray name="rec_basis" >
    <v>       0.27893606       0.00000000       0.00000000 </v>
    <v>       0.00000000       0.27893606       0.00000000 </v>
    <v>       0.00000000       0.00000000       0.27893606 </v>
   </varray>
  </crystal>
  <varray name="positions" >
   <v>       0.00000000       0.00000000       0.00000000 </v>
   <v>       0.50000000       0.00000000       0.50000000 </v>
   <v>       0.50000000       0.50000000       0.00000000 </v>
  </varray>
 </structure>
 <calculation>
  <scstep>
   <time name="dav">    0.90    0.24</time>
   <time name="total">    1.64    0.80</time>
   <energy>
    <i name="alphaZ">    134.15010455 </i>
    <i name="ewald">  -1543.28455601 </i>
    <i name="hartreedc">   -459.34008321 </i>
    <i name="XCdc">      9.08913340 </i>
    <i name="pawpsdc">   1438.89509626 </i>
    <i name="pawaedc">  -1462.21758594 </i>
    <i name="eentropy">      0.03109209 </i>
    <i name="bandstr">    222.27176701 </i>
    <i name="atom">   1786.61487174 </i>
    <i name="e_fr_energy">    126.20983990 </i>
    <i name="e_wo_entrp">    126.17874781 </i>
    <i name="e_0_energy">    126.19947587 </i>
   </energy>
  </scstep>
  <scstep>
   <time name="dav">    0.55    0.14</time>
   <time name="total">    0.56    0.14</time>
   <energy>
    <i name="e_fr_energy">    -13.07383418 </i>
    <i name="e_wo_entrp">    -13.09069771 </i>
    <i name="e_0_energy">    -13.07945536 </i>
   </energy>
  </scstep>
  <scstep>
   <time name="dav">    0.78    0.20</time>
   <time name="total">    0.79    0.20</time>
   <energy>
    <i name="e_fr_energy">    -24.44496374 </i>
    <i name="e_wo_entrp">    -24.46900242 </i>
    <i name="e_0_energy">    -24.45297663 </i>
   </energy>
  </scstep>
  <scstep>
   <time name="dav">    0.60    0.15</time>
   <time name="total">    0.61    0.15</time>
   <energy>
    <i name="e_fr_energy">    -24.64159356 </i>
    <i name="e_wo_entrp">    -24.66559238 </i>
    <i name="e_0_energy">    -24.64959316 </i>
   </energy>
  </scstep>
  <scstep>
   <time name="dav">    0.69    0.17</time>
   <time name="total">    0.92    0.24</time>
   <energy>
    <i name="e_fr_energy">    -24.64445008 </i>
    <i name="e_wo_entrp">    -24.66844871 </i>
    <i name="e_0_energy">    -24.65244962 </i>
   </energy>
  </scstep>
  <scstep>
   <time name="dav">    0.47    0.13</time>
   <time name="total">    0.93    0.47</time>
   <energy>
    <i name="e_fr_energy">    -23.82824350 </i>
    <i name="e_wo_entrp">    -23.88778079 </i>
    <i name="e_0_energy">    -23.84808926 </i>
   </energy>
  </scstep>
  <scstep>
   <time name="dav">    0.46    0.12</time>
   <time name="total">    0.91    0.47</time>
   <energy>
    <i name="e_fr_energy">    -23.90758579 </i>
    <i name="e_wo_entrp">    -23.94027358 </i>
    <i name="e_0_energy">    -23.91848172 </i>
   </energy>
  </scstep>
  <scstep>
   <time name="dav">    0.55    0.15</time>
   <time name="total">    1.03    0.49</time>
   <energy>
    <i name="e_fr_energy">    -23.95388864 </i>
    <i name="e_wo_entrp">    -23.98005022 </i>
    <i name="e_0_energy">    -23.96260916 </i>
   </energy>
  </scstep>
  <scstep>
   <time name="dav">    0.38    0.10</time>
   <time name="total">    0.91    0.45</time>
   <energy>
    <i name="e_fr_energy">    -23.95401074 </i>
    <i name="e_wo_entrp">    -23.98021355 </i>
    <i name="e_0_energy">    -23.96274501 </i>
   </energy>
  </scstep>
  <scstep>
   <time name="dav">    0.30    0.08</time>
   <time name="total">    0.69    0.37</time>
   <energy>
    <i name="alphaZ">    134.15010455 </i>
    <i name="ewald">  -1543.28455601 </i>
    <i name="hartreedc">   -444.20863691 </i>
    <i name="XCdc">      8.69046794 </i>
    <i name="pawpsdc">   1559.01694010 </i>
    <i name="pawaedc">  -1580.05286425 </i>
    <i name="eentropy">      0.02621779 </i>
    <i name="bandstr">     55.09336623 </i>
    <i name="atom">   1786.61487174 </i>
    <i name="e_fr_energy">    -23.95408881 </i>
    <i name="e_wo_entrp">    -23.98030660 </i>
    <i name="e_0_energy">    -23.96282808 </i>
   </energy>
  </scstep>
  <structure>
   <crystal>
    <varray name="basis" >
     <v>       3.58505100       0.00000000       0.00000000 </v>
     <v>       0.00000000       3.58505100       0.00000000 </v>
     <v>       0.00000000       0.00000000       3.58505100 </v>
    </varray>
    <i name="volume">     46.07719304 </i>
    <varray name="rec_basis" >
     <v>       0.27893606       0.00000000       0.00000000 </v>
     <v>       0.00000000       0.27893606       0.00000000 </v>
     <v>       0.00000000       0.00000000       0.27893606 </v>
    </varray>
   </crystal>
   <varray name="positions" >
    <v>       0.00000000       0.00000000       0.00000000 </v>
    <v>       0.50000000       0.00000000       0.50000000 </v>
    <v>       0.50000000       0.50000000       0.00000000 </v>
   </varray>
  </structure>
  <varray name="forces" >
   <v>       0.00000000       0.00000000       0.00000000 </v>
   <v>       0.00000000       0.00000000       0.00000000 </v>
   <v>       0.00000000       0.00000000       0.00000000 </v>
  </varray>
  <varray name="stress" >
   <v>    -392.04625185       0.00000000       0.00000000 </v>
   <v>       0.00000000    -392.04625185       0.00000000 </v>
   <v>       0.00000000       0.00000000    -392.04625185 </v>
  </varray>
  <energy>
   <i name="e_fr_energy">    -23.95408881 </i>
   <i name="e_wo_entrp">    -23.96282808 </i>
   <i name="e_0_energy">      0.02621779 </i>
  </energy>
  <time name="totalsc">   10.57    4.93</time>
  <eigenvalues>
   <array>
    <dimension dim="1">band</dimension>
    <dimension dim="2">kpoint</dimension>
    <dimension dim="3">spin</dimension>
    <field>eigene</field>
    <field>occ</field>
    <set>
     <set comment="spin 1">
      <set comment="kpoint 1">
       <r>   -3.6473    1.0000 </r>
       <r>    0.0696    1.0000 </r>
       <r>    1.4582    1.0000 </r>
       <r>    1.4582    1.0000 </r>
       <r>    1.4582    1.0000 </r>
       <r>    1.7519    1.0000 </r>
       <r>    1.7519    1.0000 </r>
       <r>    4.5041    1.0006 </r>
       <r>    4.5041    1.0006 </r>
       <r>    4.5041    1.0006 </r>
       <r>    4.8675    0.9997 </r>
       <r>    4.8675    0.9997 </r>
       <r>    5.5847   -0.0004 </r>
       <r>    5.5847   -0.0004 </r>
       <r>    5.5847   -0.0004 </r>
       <r>    5.6747    0.0000 </r>
      </set>
     </set>
    </set>
   </array>
  </eigenvalues>
  <separator name="orbital magnetization" >
   <v name="MAGDIPOLOUT">      0.00000000      0.00000000      0.00000000</v>
  </separator>
  <dos>
   <i name="efermi">      5.03563438 </i>
   <total>
    <array>
     <dimension dim="1">gridpoints</dimension>
     <dimension dim="2">spin</dimension>
     <field>energy</field>
     <field>total</field>
     <field>integrated</field>
     <set>
      <set comment="spin 1">
       <r>  -5.6473   0.0000   0.0000 </r>
       <r>  -5.6029   0.0000   0.0000 </r>
       <r>  -5.5585   0.0000   0.0000 </r>
       <r>  -5.5141   0.0000   0.0000 </r>
       <r>  -5.4697   0.0000   0.0000 </r>
       <r>  -5.4253   0.0000   0.0000 </r>
       <r>  -5.3809   0.0000   0.0000 </r>
       <r>  -5.3365   0.0000   0.0000 </r>
       <r>  -5.2921   0.0000   0.0000 </r>
       <r>  -5.2477   0.0000   0.0000 </r>
       <r>  -5.2033   0.0000   0.0000 </r>
       <r>  -5.1588   0.0000   0.0000 </r>
       <r>  -5.1144   0.0000   0.0000 </r>
       <r>  -5.0700   0.0000   0.0000 </r>
       <r>  -5.0256   0.0000   0.0000 </r>
       <r>  -4.9812   0.0000   0.0000 </r>
       <r>  -4.9368   0.0000   0.0000 </r>
       <r>  -4.8924   0.0000   0.0000 </r>
       <r>  -4.8480   0.0000   0.0000 </r>
       <r>  -4.8036   0.0000   0.0000 </r>
       <r>  -4.7592   0.0000   0.0000 </r>
       <r>  -4.7148   0.0000   0.0000 </r>
       <r>  -4.6704   0.0000   0.0000 </r>
       <r>  -4.6260   0.0000   0.0000 </r>
       <r>  -4.5816   0.0000   0.0000 </r>
       <r>  -4.5371   0.0000   0.0000 </r>
       <r>  -4.4927   0.0000   0.0000 </r>
       <r>  -4.4483   0.0000   0.0000 </r>
       <r>  -4.4039   0.0000   0.0000 </r>
       <r>  -4.3595  -0.0001   0.0000 </r>
       <r>  -4.3151  -0.0004   0.0000 </r>
       <r>  -4.2707  -0.0016  -0.0001 </r>
       <r>  -4.2263  -0.0053  -0.0003 </r>
       <r>  -4.1819  -0.0158  -0.0010 </r>
       <r>  -4.1375  -0.0415  -0.0029 </r>
       <r>  -4.0931  -0.0958  -0.0071 </r>
       <r>  -4.0487  -0.1917  -0.0156 </r>
       <r>  -4.0043  -0.3245  -0.0301 </r>
       <r>  -3.9599  -0.4399  -0.0496 </r>
       <r>  -3.9155  -0.4011  -0.0674 </r>
       <r>  -3.8710   0.0106  -0.0669 </r>
       <r>  -3.8266   1.0206  -0.0216 </r>
       <r>  -3.7822   2.7080   0.0987 </r>
       <r>  -3.7378   4.8532   0.3142 </r>
       <r>  -3.6934   6.9129   0.6211 </r>
       <r>  -3.6490   8.2093   0.9857 </r>
       <r>  -3.6046   8.2604   1.3525 </r>
       <r>  -3.5602   7.0466   1.6654 </r>
       <r>  -3.5158   5.0215   1.8884 </r>
       <r>  -3.4714   2.8603   2.0154 </r>
       <r>  -3.4270   1.1259   2.0654 </r>
       <r>  -3.3826   0.0642   2.0683 </r>
       <r>  -3.3382  -0.3860   2.0511 </r>
       <r>  -3.2938  -0.4447   2.0314 </r>
       <r>  -3.2493  -0.3350   2.0165 </r>
       <r>  -3.2049  -0.2008   2.0076 </r>
       <r>  -3.1605  -0.1015   2.0031 </r>
       <r>  -3.1161  -0.0444   2.0011 </r>
       <r>  -3.0717  -0.0171   2.0004 </r>
       <r>  -3.0273  -0.0058   2.0001 </r>
       <r>  -2.9829  -0.0018   2.0000 </r>
       <r>  -2.9385  -0.0005   2.0000 </r>
       <r>  -2.8941  -0.0001   2.0000 </r>
       <r>  -2.8497   0.0000   2.0000 </r>
       <r>  -2.8053   0.0000   2.0000 </r>
       <r>  -2.7609   0.0000   2.0000 </r>
       <r>  -2.7165   0.0000   2.0000 </r>
       <r>  -2.6721   0.0000   2.0000 </r>
       <r>  -2.6277   0.0000   2.0000 </r>
       <r>  -2.5832   0.0000   2.0000 </r>
       <r>  -2.5388   0.0000   2.0000 </r>
       <r>  -2.4944   0.0000   2.0000 </r>
       <r>  -2.4500   0.0000   2.0000 </r>
       <r>  -2.4056   0.0000   2.0000 </r>
       <r>  -2.3612   0.0000   2.0000 </r>
       <r>  -2.3168   0.0000   2.0000 </r>
       <r>  -2.2724   0.0000   2.0000 </r>
       <r>  -2.2280   0.0000   2.0000 </r>
       <r>  -2.1836   0.0000   2.0000 </r>
       <r>  -2.1392   0.0000   2.0000 </r>
       <r>  -2.0948   0.0000   2.0000 </r>
       <r>  -2.0504   0.0000   2.0000 </r>
       <r>  -2.0060   0.0000   2.0000 </r>
       <r>  -1.9615   0.0000   2.0000 </r>
       <r>  -1.9171   0.0000   2.0000 </r>
       <r>  -1.8727   0.0000   2.0000 </r>
       <r>  -1.8283   0.0000   2.0000 </r>
       <r>  -1.7839   0.0000   2.0000 </r>
       <r>  -1.7395   0.0000   2.0000 </r>
       <r>  -1.6951   0.0000   2.0000 </r>
       <r>  -1.6507   0.0000   2.0000 </r>
       <r>  -1.6063   0.0000   2.0000 </r>
       <r>  -1.5619   0.0000   2.0000 </r>
       <r>  -1.5175   0.0000   2.0000 </r>
       <r>  -1.4731   0.0000   2.0000 </r>
       <r>  -1.4287   0.0000   2.0000 </r>
       <r>  -1.3843   0.0000   2.0000 </r>
       <r>  -1.3399   0.0000   2.0000 </r>
       <r>  -1.2954   0.0000   2.0000 </r>
       <r>  -1.2510   0.0000   2.0000 </r>
       <r>  -1.2066   0.0000   2.0000 </r>
       <r>  -1.1622   0.0000   2.0000 </r>
       <r>  -1.1178   0.0000   2.0000 </r>
       <r>  -1.0734   0.0000   2.0000 </r>
       <r>  -1.0290   0.0000   2.0000 </r>
       <r>  -0.9846   0.0000   2.0000 </r>
       <r>  -0.9402   0.0000   2.0000 </r>
       <r>  -0.8958   0.0000   2.0000 </r>
       <r>  -0.8514   0.0000   2.0000 </r>
       <r>  -0.8070   0.0000   2.0000 </r>
       <r>  -0.7626   0.0000   2.0000 </r>
       <r>  -0.7182   0.0000   2.0000 </r>
       <r>  -0.6737   0.0000   2.0000 </r>
       <r>  -0.6293  -0.0002   2.0000 </r>
       <r>  -0.5849  -0.0006   2.0000 </r>
       <r>  -0.5405  -0.0023   1.9999 </r>
       <r>  -0.4961  -0.0075   1.9995 </r>
       <r>  -0.4517  -0.0214   1.9986 </r>
       <r>  -0.4073  -0.0541   1.9962 </r>
       <r>  -0.3629  -0.1198   1.9909 </r>
       <r>  -0.3185  -0.2287   1.9807 </r>
       <r>  -0.2741  -0.3652   1.9645 </r>
       <r>  -0.2297  -0.4531   1.9444 </r>
       <r>  -0.1853  -0.3282   1.9298 </r>
       <r>  -0.1409   0.2421   1.9405 </r>
       <r>  -0.0965   1.4576   2.0053 </r>
       <r>  -0.0521   3.3211   2.1527 </r>
       <r>  -0.0076   5.5093   2.3974 </r>
       <r>   0.0368   7.4096   2.7264 </r>
       <r>   0.0812   8.3663   3.0980 </r>
       <r>   0.1256   8.0170   3.4540 </r>
       <r>   0.1700   6.4963   3.7424 </r>
       <r>   0.2144   4.3587   3.9360 </r>
       <r>   0.2588   2.2786   4.0372 </r>
       <r>   0.3032   0.7355   4.0699 </r>
       <r>   0.3476  -0.1261   4.0642 </r>
       <r>   0.3920  -0.4334   4.0450 </r>
       <r>   0.4364  -0.4212   4.0263 </r>
       <r>   0.4808  -0.2933   4.0133 </r>
       <r>   0.5252  -0.1664   4.0059 </r>
       <r>   0.5696  -0.0804   4.0023 </r>
       <r>   0.6141  -0.0338   4.0008 </r>
       <r>   0.6585  -0.0125   4.0003 </r>
       <r>   0.7029  -0.0042   4.0001 </r>
       <r>   0.7473  -0.0015   4.0000 </r>
       <r>   0.7917  -0.0016   3.9999 </r>
       <r>   0.8361  -0.0050   3.9997 </r>
       <r>   0.8805  -0.0165   3.9990 </r>
       <r>   0.9249  -0.0488   3.9968 </r>
       <r>   0.9693  -0.1277   3.9911 </r>
       <r>   1.0137  -0.2936   3.9781 </r>
       <r>   1.0581  -0.5852   3.9521 </r>
       <r>   1.1025  -0.9864   3.9083 </r>
       <r>   1.1469  -1.3305   3.8492 </r>
       <r>   1.1913  -1.2046   3.7957 </r>
       <r>   1.2357   0.0408   3.7975 </r>
       <r>   1.2802   3.0550   3.9332 </r>
       <r>   1.3246   8.0280   4.2897 </r>
       <r>   1.3690  14.2544   4.9227 </r>
       <r>   1.4134  20.1249   5.8164 </r>
       <r>   1.4578  23.7788   6.8723 </r>
       <r>   1.5022  24.1497   7.9447 </r>
       <r>   1.5466  21.6926   8.9080 </r>
       <r>   1.5910  18.1711   9.7150 </r>
       <r>   1.6354  15.5532  10.4056 </r>
       <r>   1.6798  14.7802  11.0620 </r>
       <r>   1.7242  15.2942  11.7411 </r>
       <r>   1.7686  15.6149  12.4346 </r>
       <r>   1.8130  14.4554  13.0765 </r>
       <r>   1.8574  11.5375  13.5888 </r>
       <r>   1.9019   7.6103  13.9268 </r>
       <r>   1.9463   3.8321  14.0969 </r>
       <r>   1.9907   1.0709  14.1445 </r>
       <r>   2.0351  -0.4224  14.1257 </r>
       <r>   2.0795  -0.9047  14.0856 </r>
       <r>   2.1239  -0.8234  14.0490 </r>
       <r>   2.1683  -0.5557  14.0243 </r>
       <r>   2.2127  -0.3085  14.0106 </r>
       <r>   2.2571  -0.1465  14.0041 </r>
       <r>   2.3015  -0.0607  14.0014 </r>
       <r>   2.3459  -0.0221  14.0004 </r>
       <r>   2.3903  -0.0072  14.0001 </r>
       <r>   2.4347  -0.0021  14.0000 </r>
       <r>   2.4791  -0.0005  14.0000 </r>
       <r>   2.5235  -0.0001  14.0000 </r>
       <r>   2.5680   0.0000  14.0000 </r>
       <r>   2.6124   0.0000  14.0000 </r>
       <r>   2.6568   0.0000  14.0000 </r>
       <r>   2.7012   0.0000  14.0000 </r>
       <r>   2.7456   0.0000  14.0000 </r>
       <r>   2.7900   0.0000  14.0000 </r>
       <r>   2.8344   0.0000  14.0000 </r>
       <r>   2.8788   0.0000  14.0000 </r>
       <r>   2.9232   0.0000  14.0000 </r>
       <r>   2.9676   0.0000  14.0000 </r>
       <r>   3.0120   0.0000  14.0000 </r>
       <r>   3.0564   0.0000  14.0000 </r>
       <r>   3.1008   0.0000  14.0000 </r>
       <r>   3.1452   0.0000  14.0000 </r>
       <r>   3.1896   0.0000  14.0000 </r>
       <r>   3.2341   0.0000  14.0000 </r>
       <r>   3.2785   0.0000  14.0000 </r>
       <r>   3.3229   0.0000  14.0000 </r>
       <r>   3.3673   0.0000  14.0000 </r>
       <r>   3.4117   0.0000  14.0000 </r>
       <r>   3.4561   0.0000  14.0000 </r>
       <r>   3.5005   0.0000  14.0000 </r>
       <r>   3.5449   0.0000  14.0000 </r>
       <r>   3.5893   0.0000  14.0000 </r>
       <r>   3.6337   0.0000  14.0000 </r>
       <r>   3.6781   0.0000  14.0000 </r>
       <r>   3.7225   0.0000  14.0000 </r>
       <r>   3.7669  -0.0001  14.0000 </r>
       <r>   3.8113  -0.0006  14.0000 </r>
       <r>   3.8558  -0.0023  13.9999 </r>
       <r>   3.9002  -0.0082  13.9995 </r>
       <r>   3.9446  -0.0261  13.9983 </r>
       <r>   3.9890  -0.0734  13.9951 </r>
       <r>   4.0334  -0.1825  13.9870 </r>
       <r>   4.0778  -0.3966  13.9694 </r>
       <r>   4.1222  -0.7406  13.9365 </r>
       <r>   4.1666  -1.1493  13.8854 </r>
       <r>   4.2110  -1.3612  13.8250 </r>
       <r>   4.2554  -0.8486  13.7873 </r>
       <r>   4.2998   1.0922  13.8358 </r>
       <r>   4.3442   4.9999  14.0578 </r>
       <r>   4.3886  10.7433  14.5349 </r>
       <r>   4.4330  17.1833  15.2980 </r>
       <r>   4.4774  22.3864  16.2921 </r>
       <r>   4.5219  24.4763  17.3790 </r>
       <r>   4.5663  22.6978  18.3869 </r>
       <r>   4.6107  17.9825  19.1855 </r>
       <r>   4.6551  12.5685  19.7436 </r>
       <r>   4.6995   8.8553  20.1368 </r>
       <r>   4.7439   8.1828  20.5002 </r>
       <r>   4.7883  10.2337  20.9547 </r>
       <r>   4.8327  13.3440  21.5472 </r>
       <r>   4.8771  15.4799  22.2346 </r>
       <r>   4.9215  15.2975  22.9140 </r>
       <r>   4.9659  12.7048  23.4781 </r>
       <r>   5.0103   8.6823  23.8637 </r>
       <r>   5.0547   4.5824  24.0672 </r>
       <r>   5.0991   1.4053  24.1296 </r>
       <r>   5.1436  -0.5404  24.1056 </r>
       <r>   5.1880  -1.5165  24.0382 </r>
       <r>   5.2324  -1.9698  23.9508 </r>
       <r>   5.2768  -2.1389  23.8558 </r>
       <r>   5.3212  -1.8172  23.7751 </r>
       <r>   5.3656  -0.3571  23.7592 </r>
       <r>   5.4100   3.0404  23.8942 </r>
       <r>   5.4544   8.7891  24.2845 </r>
       <r>   5.4988  16.3670  25.0113 </r>
       <r>   5.5432  24.1417  26.0834 </r>
       <r>   5.5876  29.8528  27.4091 </r>
       <r>   5.6320  31.6121  28.8129 </r>
       <r>   5.6764  28.8481  30.0939 </r>
       <r>   5.7208  22.5826  31.0967 </r>
       <r>   5.7652  14.8709  31.7571 </r>
       <r>   5.8097   7.8016  32.1036 </r>
       <r>   5.8541   2.6836  32.2227 </r>
       <r>   5.8985  -0.1978  32.2140 </r>
       <r>   5.9429  -1.3030  32.1561 </r>
       <r>   5.9873  -1.3628  32.0956 </r>
       <r>   6.0317  -1.0051  32.0509 </r>
       <r>   6.0761  -0.6057  32.0240 </r>
       <r>   6.1205  -0.3131  32.0101 </r>
       <r>   6.1649  -0.1418  32.0038 </r>
       <r>   6.2093  -0.0570  32.0013 </r>
       <r>   6.2537  -0.0204  32.0004 </r>
       <r>   6.2981  -0.0066  32.0001 </r>
       <r>   6.3425  -0.0019  32.0000 </r>
       <r>   6.3869  -0.0005  32.0000 </r>
       <r>   6.4314  -0.0001  32.0000 </r>
       <r>   6.4758   0.0000  32.0000 </r>
       <r>   6.5202   0.0000  32.0000 </r>
       <r>   6.5646   0.0000  32.0000 </r>
       <r>   6.6090   0.0000  32.0000 </r>
       <r>   6.6534   0.0000  32.0000 </r>
       <r>   6.6978   0.0000  32.0000 </r>
       <r>   6.7422   0.0000  32.0000 </r>
       <r>   6.7866   0.0000  32.0000 </r>
       <r>   6.8310   0.0000  32.0000 </r>
       <r>   6.8754   0.0000  32.0000 </r>
       <r>   6.9198   0.0000  32.0000 </r>
       <r>   6.9642   0.0000  32.0000 </r>
       <r>   7.0086   0.0000  32.0000 </r>
       <r>   7.0530   0.0000  32.0000 </r>
       <r>   7.0975   0.0000  32.0000 </r>
       <r>   7.1419   0.0000  32.0000 </r>
       <r>   7.1863   0.0000  32.0000 </r>
       <r>   7.2307   0.0000  32.0000 </r>
       <r>   7.2751   0.0000  32.0000 </r>
       <r>   7.3195   0.0000  32.0000 </r>
       <r>   7.3639   0.0000  32.0000 </r>
       <r>   7.4083   0.0000  32.0000 </r>
       <r>   7.4527   0.0000  32.0000 </r>
       <r>   7.4971   0.0000  32.0000 </r>
       <r>   7.5415   0.0000  32.0000 </r>
       <r>   7.5859   0.0000  32.0000 </r>
       <r>   7.6303   0.0000  32.0000 </r>
       <r>   7.6747   0.0000  32.0000 </r>
      </set>
     </set>
    </array>
   </total>
  </dos>
 </calculation>
 <structure name="finalpos" >
  <crystal>
   <varray name="basis" >
    <v>       3.58505100       0.00000000       0.00000000 </v>
    <v>       0.00000000       3.58505100       0.00000000 </v>
    <v>       0.00000000       0.00000000       3.58505100 </v>
   </varray>
   <i name="volume">     46.07719304 </i>
   <varray name="rec_basis" >
    <v>       0.27893606       0.00000000       0.00000000 </v>
    <v>       0.00000000       0.27893606       0.00000000 </v>
    <v>       0.00000000       0.00000000       0.27893606 </v>
   </varray>
  </crystal>
  <varray name="positions" >
   <v>       0.00000000       0.00000000       0.00000000 </v>
   <v>       0.50000000       0.00000000       0.50000000 </v>
   <v>       0.50000000       0.50000000       0.00000000 </v>
  </varray>
 </structure>
</modeling>
