       N       E                     dE             d eps       ncg     rms          rms(c)
RMM:   1     0.307012932011E+03    0.30701E+03   -0.17139E+04   124   0.650E+02
RMM:   2    -0.115016381853E+02   -0.31851E+03   -0.31374E+03   124   0.138E+02
RMM:   3    -0.874457262387E+02   -0.75944E+02   -0.77212E+02   124   0.469E+01
RMM:   4    -0.103805416336E+03   -0.16360E+02   -0.17288E+02   124   0.264E+01
RMM:   5    -0.110257785592E+03   -0.64524E+01   -0.54583E+01   124   0.139E+01
RMM:   6    -0.112851647070E+03   -0.25939E+01   -0.21230E+01   124   0.793E+00
RMM:   7    -0.113955818535E+03   -0.11042E+01   -0.92144E+00   124   0.472E+00
RMM:   8    -0.114455669507E+03   -0.49985E+00   -0.42180E+00   124   0.292E+00
RMM:   9    -0.114848367203E+03   -0.39270E+00   -0.35984E+00   321   0.183E+00
RMM:  10    -0.114913446277E+03   -0.65079E-01   -0.24785E-01   284   0.371E-01
RMM:  11    -0.114915528853E+03   -0.20826E-02   -0.84946E-03   238   0.784E-02
RMM:  12    -0.114915554267E+03   -0.25414E-04   -0.18016E-04   183   0.204E-02    0.545E+00
RMM:  13    -0.114315462078E+03    0.60009E+00   -0.68526E-01   272   0.132E+00    0.333E+00
RMM:  14    -0.114049212771E+03    0.26625E+00   -0.22761E-01   280   0.103E+00    0.106E+00
RMM:  15    -0.114017117193E+03    0.32096E-01   -0.29905E-02   290   0.417E-01    0.147E-01
RMM:  16    -0.114015899382E+03    0.12178E-02   -0.36764E-03   288   0.128E-01    0.441E-02
RMM:  17    -0.114015867229E+03    0.32153E-04   -0.42313E-04   235   0.467E-02
   1 F= -.11401587E+03 E0= -.11399078E+03  d E =-.752486E-01
