 vasp.5.2.2 15Apr09 complex 
 executed on             LinuxIFC date 2014.04.24  12:42:24
 running on    1 nodes
 distr:  one band on    1 nodes,    1 groups


--------------------------------------------------------------------------------------------------------


 INCAR:
 POTCAR:   PAW_PBE Al 04Jan2001                   
 POTCAR:   PAW_PBE Al 04Jan2001                   
   VRHFIN =Al: s2p1                                                             
   LEXCH  = PE                                                                  
   EATOM  =    53.5387 eV,    3.9350 Ry                                         
                                                                                
   TITEL  = PAW_PBE Al 04Jan2001                                                
   LULTRA =        F    use ultrasoft PP ?                                      
   IUNSCR =        1    unscreen: 0-lin 1-nonlin 2-no                           
   RPACOR =    1.500    partial core radius                                     
   POMASS =   26.982; ZVAL   =    3.000    mass and valenz                      
   RCORE  =    1.900    outmost cutoff radius                                   
   RWIGS  =    2.650; RWIGS  =    1.402    wigner-seitz radius (au A)           
   ENMAX  =  240.300; ENMIN  =  180.225 eV                                      
   ICORE  =        2    local potential                                         
   LCOR   =        T    correct aug charges                                     
   LPAW   =        T    paw PP                                                  
   EAUG   =  291.052                                                            
   DEXC   =    -.041                                                            
   RMAX   =    2.974    core radius for proj-oper                               
   RAUG   =    1.300    factor for augmentation sphere                          
   RDEP   =    1.966    radius for radial grids                                 
   QCUT   =   -4.203; QGAM   =    8.405    optimization parameters              
                                                                                
   Description                                                                  
     l     E      TYP  RCUT    TYP  RCUT                                        
     0   .000     23  1.900                                                     
     0   .000     23  1.900                                                     
     1   .000     23  1.900                                                     
     1  1.000     23  1.900                                                     
     2   .000      7  1.900                                                     
  local pseudopotential read in
  partial core-charges read in
  atomic valenz-charges read in
  non local Contribution for L=           0  read in
    real space projection operators read in
  non local Contribution for L=           0  read in
    real space projection operators read in
  non local Contribution for L=           1  read in
    real space projection operators read in
  non local Contribution for L=           1  read in
    real space projection operators read in
    PAW grid and wavefunctions read in
 
   number of l-projection  operators is LMAX  =           4
   number of lm-projection operators is LMMAX =           8
 

 ----------------------------------------------------------------------------- 
|                                                                             |
|  ADVICE TO THIS USER RUNNING 'VASP/VAMP'   (HEAR YOUR MASTER'S VOICE ...):  |
|                                                                             |
|      You have a (more or less) 'large supercell' and for larger cells       |
|      it might be more efficient to use real space projection operators      |
|      So try LREAL= Auto  in the INCAR   file.                               |
|      Mind: If you want to do a very accurate calculations keep the          |
|      reciprocal projection scheme          (i.e. LREAL=.FALSE.)             |
|                                                                             |
 ----------------------------------------------------------------------------- 

 PAW_PBE Al 04Jan2001                   :
 energy of atom  1       EATOM=  -53.5387
 kinetic energy error for atom=    0.0011 (will be added to EATOM!!)
 
 
 POSCAR: Al31                                    
  positions in direct lattice
  velocities in cartesian coordinates
 exchange correlation table for  LEXCH =        8
   RHO(1)=    0.500       N(1)  =     2000
   RHO(2)=  100.500       N(2)  =     4000

 VTST: version 2.03d, (02/18/09)

 CHAIN: initializing optimizer
 
 OPT: Using VASP Dynamics algorithm
 CHAIN: Read ICHAIN            0
 


--------------------------------------------------------------------------------------------------------


 ion  position               nearest neighbor table
   1  0.375  0.500  0.375-   9 2.61  16 2.61  19 2.61  27 2.61  25 3.14  13 3.14  26 3.14  14 3.14

   2  1.000  0.000  1.000-   7 2.82  18 2.82   3 2.85  22 2.85   8 2.85  15 2.85  20 2.85  28 2.85
                             5 2.87  11 2.87  12 2.87   4 2.87
   3  0.248  0.000  0.248-  19 2.83  27 2.83   9 2.83  16 2.83   2 2.85  12 2.86   5 2.86   4 2.86
                            11 2.86  21 2.89  17 2.90   6 2.90
   4  0.248  0.253  0.002-   5 2.81  13 2.82  10 2.82  18 2.85   3 2.86   9 2.86  20 2.86   2 2.87
                            26 2.89   6 2.89  24 2.91
   5  0.002  0.253  0.248-   4 2.81  25 2.82  10 2.82   7 2.85   3 2.86  19 2.86   8 2.86   2 2.87
                            14 2.89  17 2.89  23 2.91
   6  0.501  0.000  0.993-  18 2.79  16 2.79   9 2.79  22 2.82  24 2.85  31 2.85  15 2.87   8 2.87
                             4 2.89  11 2.89   3 2.90   7 2.93
   7  0.757  0.000  0.249-  17 2.79  16 2.79   9 2.79   2 2.82   5 2.85  12 2.85   8 2.87  15 2.87
                            23 2.89  30 2.89  21 2.90   6 2.93
   8  0.751  0.251  0.999-   9 2.80  20 2.83  29 2.85  10 2.85  22 2.85   2 2.85  24 2.86   5 2.86
                             6 2.87   7 2.87  14 2.89  13 2.89
   9  0.507  0.237  0.243-   1 2.61   6 2.79   7 2.79   8 2.80  21 2.83   3 2.83   4 2.86  23 2.86
                            13 2.87  14 2.87  19 3.01
  10  0.001  0.500  0.001-   4 2.82   5 2.82  11 2.82  12 2.82   8 2.85  15 2.85  20 2.85  28 2.85
                            29 2.88  14 2.92  26 2.92
  11  0.248  0.747  0.002-  12 2.81  13 2.82  10 2.82  18 2.85   3 2.86  16 2.86  28 2.86   2 2.87
                            26 2.89   6 2.89  31 2.91
  12  0.002  0.747  0.248-  11 2.81  25 2.82  10 2.82   7 2.85   3 2.86  27 2.86  15 2.86   2 2.87
                            14 2.89  17 2.89  30 2.91
  13  0.495  0.500  0.005-   4 2.82  11 2.82  14 2.86  26 2.86  16 2.87   9 2.87  24 2.89  31 2.89
                             8 2.89  15 2.89  29 2.92   1 3.14
  14  0.745  0.500  0.255-  23 2.82  30 2.82  13 2.86  25 2.86  16 2.87   9 2.87  12 2.89   5 2.89
                             8 2.89  15 2.89  10 2.92   1 3.14
  15  0.751  0.749  0.999-  16 2.80  28 2.83  29 2.85  10 2.85  22 2.85   2 2.85  31 2.86  12 2.86
                             7 2.87   6 2.87  14 2.89  13 2.89
  16  0.507  0.763  0.243-   1 2.61   6 2.79   7 2.79  15 2.80  21 2.83   3 2.83  11 2.86  30 2.86
                            13 2.87  14 2.87  27 3.01
  17  0.993  0.000  0.501-   7 2.79  19 2.79  27 2.79  22 2.82  23 2.85  30 2.85  28 2.87  20 2.87
                            12 2.89   5 2.89   3 2.90  18 2.93
  18  0.249  0.000  0.757-   6 2.79  19 2.79  27 2.79   2 2.82   4 2.85  11 2.85  20 2.87  28 2.87
                            24 2.89  31 2.89  21 2.90  17 2.93
  19  0.243  0.237  0.507-   1 2.61  18 2.79  17 2.79  20 2.80  21 2.83   3 2.83   5 2.86  24 2.86
                            25 2.87  26 2.87   9 3.01
  20  0.999  0.251  0.751-  19 2.80   8 2.83  29 2.85  10 2.85  22 2.85   2 2.85  23 2.86   4 2.86
                            17 2.87  18 2.87  26 2.89  25 2.89
  21  0.502  0.000  0.502-   9 2.83  16 2.83  19 2.83  27 2.83  22 2.85  24 2.86  23 2.86  30 2.86
                            31 2.86   3 2.89  18 2.90   7 2.90
  22  0.750  0.000  0.750-   6 2.82  17 2.82  21 2.85   2 2.85   8 2.85  20 2.85  15 2.85  28 2.85
                            24 2.87  31 2.87  30 2.87  23 2.87
  23  0.748  0.253  0.502-  24 2.81  14 2.82  29 2.82  17 2.85  21 2.86   9 2.86  20 2.86  22 2.87
                            25 2.89   7 2.89   5 2.91
  24  0.502  0.253  0.748-  23 2.81  26 2.82  29 2.82   6 2.85  21 2.86  19 2.86   8 2.86  22 2.87
                            13 2.89  18 2.89   4 2.91
  25  0.005  0.500  0.495-   5 2.82  12 2.82  26 2.86  14 2.86  19 2.87  27 2.87  23 2.89  30 2.89
                            28 2.89  20 2.89  29 2.92   1 3.14
  26  0.255  0.500  0.745-  24 2.82  31 2.82  25 2.86  13 2.86  27 2.87  19 2.87   4 2.89  11 2.89
                            28 2.89  20 2.89  10 2.92   1 3.14
  27  0.243  0.763  0.507-   1 2.61  18 2.79  17 2.79  28 2.80  21 2.83   3 2.83  12 2.86  31 2.86
                            25 2.87  26 2.87  16 3.01
  28  0.999  0.749  0.751-  27 2.80  15 2.83  29 2.85  10 2.85  22 2.85   2 2.85  30 2.86  11 2.86
                            17 2.87  18 2.87  26 2.89  25 2.89
  29  0.749  0.500  0.749-  23 2.82  24 2.82  30 2.82  31 2.82  15 2.85  28 2.85  20 2.85   8 2.85
                            10 2.88  25 2.92  13 2.92
  30  0.748  0.747  0.502-  31 2.81  14 2.82  29 2.82  17 2.85  21 2.86  16 2.86  28 2.86  22 2.87
                            25 2.89   7 2.89  12 2.91
  31  0.502  0.747  0.748-  30 2.81  26 2.82  29 2.82   6 2.85  21 2.86  27 2.86  15 2.86  22 2.87
                            13 2.89  18 2.89  11 2.91
 
  LATTYP: Found a simple cubic cell.
 ALAT       =     8.0870540000
  
  Lattice vectors:
  
 A1 = (   8.0870540000,   0.0000000000,   0.0000000000)
 A2 = (   0.0000000000,   8.0870540000,   0.0000000000)
 A3 = (   0.0000000000,   0.0000000000,   8.0870540000)
 Subroutine PRICEL returns:
 Original cell was already a primitive cell.
 

Analysis of symmetry for initial positions (statically):

 Routine SETGRP: Setting up the symmetry group for a 
 simple cubic supercell.


 Subroutine GETGRP returns: Found  4 space group operations
 (whereof  4 operations were pure point group operations)
 out of a pool of 48 trial point group operations.


The static configuration has the point symmetry C_2v.

Analysis of symmetry for dynamics (positions and initial velocities):

 Subroutine DYNSYM returns: Found  4 space group operations
 (whereof  4 operations were pure point group operations)
 out of a pool of  4 trial space group operations
 (whereof  4 operations were pure point group operations)
 and found also     1 'primitive' translations


The dynamic configuration has the point symmetry C_2v.

Analysis of constrained symmetry for selective dynamics:

 Subroutine DYNSYM returns: Found  4 space group operations
 (whereof  4 operations were pure point group operations)
 out of a pool of  4 trial space group operations
 (whereof  4 operations were pure point group operations)
 and found also     1 'primitive' translations


The constrained configuration has the point symmetry C_2v.
 
 
 KPOINTS: Automatic kpoint scheme                 

Automatic generation of k-mesh.
 
 Subroutine IBZKPT returns following result:
 ===========================================
 
 Found      2 irreducible k-points:
 
 Following reciprocal coordinates:
            Coordinates               Weight
  0.250000  0.250000  0.250000      4.000000
 -0.250000  0.250000  0.250000      4.000000
 
 Following cartesian coordinates:
            Coordinates               Weight
  0.030914  0.030914  0.030914      4.000000
 -0.030914  0.030914  0.030914      4.000000
 
 
 Subroutine IBZKPT_HF returns following result:
 ==============================================
 
 Found      8 k-points in 1st BZ
 the following      8 k-points will be used (e.g. in the exchange kernel)
 Following reciprocal coordinates:   # in IRBZ
  0.250000  0.250000  0.250000       1
 -0.250000  0.250000  0.250000       2
  0.250000 -0.250000  0.250000       1
  0.250000 -0.250000 -0.250000       2
 -0.250000 -0.250000  0.250000       2
  0.250000  0.250000 -0.250000       2
 -0.250000 -0.250000 -0.250000       1
 -0.250000  0.250000 -0.250000       1


--------------------------------------------------------------------------------------------------------




 Dimension of arrays:
   k-points           NKPTS =      2   k-points in BZ     NKDIM =      2   number of bands    NBANDS=     62
   number of dos      NEDOS =    301   number of ions     NIONS =     31
   non local maximal  LDIM  =      4   non local SUM 2l+1 LMDIM =      8
   total plane-waves  NPLWV = 110592
   max r-space proj   IRMAX =      1   max aug-charges    IRDMAX=   8337
   dimension x,y,z NGX =    48 NGY =   48 NGZ =   48
   dimension x,y,z NGXF=    96 NGYF=   96 NGZF=   96
   support grid    NGXF=    96 NGYF=   96 NGZF=   96
   ions per type =              31
 NGX,Y,Z   is equivalent  to a cutoff of   9.87,  9.87,  9.87 a.u.
 NGXF,Y,Z  is equivalent  to a cutoff of  19.73, 19.73, 19.73 a.u.


 I would recommend the setting:
   dimension x,y,z NGX =    46 NGY =   46 NGZ =   46
 SYSTEM =  unknown system                          
 POSCAR =  Al31                                    

 Startparameter for this run:
   NWRITE =      2    write-flag & timer
   PREC   = accura    medium, high low
   ISTART =      0    job   : 0-new  1-cont  2-samecut
   ICHARG =      2    charge: 1-file 2-atom 10-const
   ISPIN  =      1    spin polarized calculation?
   LNONCOLLINEAR =      F non collinear calculations
   LSORBIT =      F    spin-orbit coupling
   INIWAV =      1    electr: 0-lowe 1-rand  2-diag
   LASPH  =      F    aspherical Exc in radial PAW
   METAGGA=      F    non-selfconsistent MetaGGA calc.

 Electronic Relaxation 1
   ENCUT  =  300.0 eV  22.05 Ry    4.70 a.u.  11.42 11.42 11.42*2*pi/ulx,y,z
   ENINI  =  300.0     initial cutoff
   ENAUG  =  291.1 eV  augmentation charge cutoff
   NELM   =     60;   NELMIN=  2; NELMDL=  0     # of ELM steps 
   EDIFF  = 0.1E-05   stopping-criterion for ELM
   LREAL  =      F    real-space projection
   LCOMPAT=      F    compatible to vasp.4.4
   LREAL_COMPAT= F    compatible to vasp.4.5.1-3
   GGA_COMPAT  = T    GGA compatible to vasp.4.4-vasp.4.6
   LMAXPAW     = -100 max onsite density
   LMAXMIX     =    2 max onsite mixed and CHGCAR
   VOSKOWN=      0    Vosko Wilk Nusair interpolation
   ROPT   =    0.00000
 Ionic relaxation
   EDIFFG = 0.5E-01   stopping-criterion for IOM
   NSW    =    382    number of steps for IOM
   NBLOCK =      1;   KBLOCK =    191    inner block; outer block 
   IBRION =      5    ionic relax: 0-MD 1-quasi-New 2-CG
   NFREE  =      2    steps in history (QN), initial steepest desc. (CG)
   ISIF   =      2    stress and relaxation
   IWAVPR =     11    prediction:  0-non 1-charg 2-wave 3-comb
   ISYM   =      2    0-nonsym 1-usesym 2-fastsym
   LCORR  =      T    Harris-Foulkes like correction to forces

   POTIM  = 0.5000    time-step for ionic-motion
   TEIN   =    0.0    initial temperature
   TEBEG  =    0.0;   TEEND  =   0.0 temperature during run
   SMASS  =  -3.00    Nose mass-parameter (am)
   estimated Nose-frequenzy (Omega)   =  0.10E-29 period in steps =****** mass=  -0.149E-26a.u.
   NPACO  =    256;   APACO  = 16.0  distance and # of slots for P.C.
   PSTRESS=    0.0 pullay stress

  Mass of Ions in am
   POMASS =  26.98
  Ionic Valenz
   ZVAL   =   3.00
  Atomic Wigner-Seitz radii
   RWIGS  =  -1.00
   NELECT =      93.0000    total number of electrons
   NUPDOWN=      -1.0000    fix difference up-down

 DOS related values:
   EMIN   =  10.00;   EMAX   =-10.00  energy-range for DOS
   EFERMI =   0.00
   ISMEAR =     1;   SIGMA  =   0.20  broadening in eV -4-tet -1-fermi 0-gaus

 Electronic relaxation 2 (details)
   IALGO  =     48    algorithm
   LDIAG  =      T    sub-space diagonalisation
   IMIX   =      4    mixing-type and parameters
     AMIX     =   0.40;   BMIX     =  1.00
     AMIX_MAG =   1.60;   BMIX_MAG =  1.00
     AMIN     =   0.10
     WC   =   100.;   INIMIX=   1;  MIXPRE=   1

 Intra band minimization:
   WEIMIN = 0.0010     energy-eigenvalue tresh-hold
   EBREAK =  0.40E-08  absolut break condition
   DEPER  =   0.30     relativ break condition  

   TIME   =   0.40     timestep for ELM

  volume/ion in A,a.u.               =      17.06       115.13
  Fermi-wavevector in a.u.,A,eV,Ry     =   0.917161  1.733183 11.445002  0.841184
  Thomas-Fermi vector in A             =   2.042098
 
 Write flags
   LWAVE  =      F    write WAVECAR
   LCHARG =      F    write CHGCAR
   LVTOT  =      F    write LOCPOT, local potential
   LELF   =      F    write electronic localiz. function (ELF)
   LORBIT =      0    0 simple, 1 ext, 2 COOP (PROOUT)


 Dipole corrections
   LMONO  =      F    monopole corrections only (constant potential shift)
   LDIPOL =      F    correct potential (dipole corrections)
   IDIPOL =      0    1-x, 2-y, 3-z, 4-all directions 
   EPSILON=  1.0000000 bulk dielectric constant

 Exchange correlation treatment:
   GGA     =    --    GGA type
   LEXCH   =     8    internal setting for exchange type
   VOSKOWN=      0    Vosko Wilk Nusair interpolation
   LHFCALC =     F    Hartree Fock is set to
   LHFONE  =     F    Hartree Fock one center treatment
   AEXX    =    0.0000 exact exchange contribution

 Linear response parameters
   LEPSILON=     F    determine dielectric tensor
   LRPA    =     F    only Hartree local field effects (RPA)
   LNABLA  =     F    use nabla operator in PAW spheres
   LVEL    =     F    velocity operator in full k-point grid
   LINTERFAST=   F  fast interpolation
   KINTER  =     0    interpolate to denser k-point grid
   CSHIFT  =0.1000    complex shift for real part using Kramers Kronig
   OMEGAMAX=  -1.0    maximum frequency

 Orbital magnetization related:
   ORBITALMAG=     F  switch on orbital magnetization
   LCHIMAG   =     F  perturbation theory with respect to B field



--------------------------------------------------------------------------------------------------------


 finite differences
   using selective dynamics as specified on POSCAR
 charge density and potential will be updated during run
 non-spin polarized calculation
 RMM-DIIS sequential band-by-band
 perform sub-space diagonalisation
    before iterative eigenvector-optimisation
 modified Broyden-mixing scheme, WC =      100.0
 initial mixing is a Kerker type mixing with AMIX =  0.4000 and BMIX =      1.0000
 Hartree-type preconditioning will be used
 using additional bands           15
 reciprocal scheme for non local part
 use partial core corrections
 calculate Harris-corrections to forces 
   (improved forces if not selfconsistent)
 use gradient corrections 
 use of overlap-Matrix (Vanderbilt PP)
 Methfessel and Paxton  Order N= 1 SIGMA  =   0.20


--------------------------------------------------------------------------------------------------------


  energy-cutoff  :      300.00
  volume of cell :      528.90
      direct lattice vectors                 reciprocal lattice vectors
     8.087054000  0.000000000  0.000000000     0.123654423  0.000000000  0.000000000
     0.000000000  8.087054000  0.000000000     0.000000000  0.123654423  0.000000000
     0.000000000  0.000000000  8.087054000     0.000000000  0.000000000  0.123654423

  length of vectors
     8.087054000  8.087054000  8.087054000     0.123654423  0.123654423  0.123654423


 
 k-points in units of 2pi/SCALE and weight: Automatic kpoint scheme                 
   0.03091361  0.03091361  0.03091361       0.500
  -0.03091361  0.03091361  0.03091361       0.500
 
 k-points in reciprocal lattice and weights: Automatic kpoint scheme                 
   0.25000000  0.25000000  0.25000000       0.500
  -0.25000000  0.25000000  0.25000000       0.500
 
 position of ions in fractional coordinates (direct lattice) 
   0.37500000  0.50000000  0.37500000
   0.99970200  0.00000000  0.99970200
   0.24846500  0.00000000  0.24846500
   0.24812200  0.25335500  0.00238100
   0.00238100  0.25335500  0.24812200
   0.50052700  0.00000000  0.99307700
   0.75692300  0.00000000  0.24947300
   0.75133900  0.25081000  0.99866100
   0.50655600  0.23697100  0.24344400
   0.00091800  0.50000000  0.00091800
   0.24812200  0.74664500  0.00238100
   0.00238100  0.74664500  0.24812200
   0.49482700  0.50000000  0.00541200
   0.74460000  0.50000000  0.25516700
   0.75133900  0.74919000  0.99866100
   0.50655600  0.76302900  0.24344400
   0.99307700  0.00000000  0.50052700
   0.24947300  0.00000000  0.75692300
   0.24344400  0.23697100  0.50655600
   0.99866100  0.25081000  0.75133900
   0.50153400  0.00000000  0.50153400
   0.75030200  0.00000000  0.75030200
   0.74762400  0.25335400  0.50187700
   0.50187700  0.25335400  0.74762400
   0.00541200  0.50000000  0.49482700
   0.25516700  0.50000000  0.74460000
   0.24344400  0.76302900  0.50655600
   0.99866100  0.74919000  0.75133900
   0.74908800  0.50000000  0.74908800
   0.74762400  0.74664600  0.50187700
   0.50187700  0.74664600  0.74762400
 
 position of ions in cartesian coordinates  (Angst):
   3.03264525  4.04352700  3.03264525
   8.08464406  0.00000000  8.08464406
   2.00934987  0.00000000  2.00934987
   2.00657601  2.04889557  0.01925528
   0.01925528  2.04889557  2.00657601
   4.04778888  0.00000000  8.03106733
   6.12127717  0.00000000  2.01750162
   6.07611907  2.02831401  8.07622543
   4.09654573  1.91639727  1.96874477
   0.00742392  4.04352700  0.00742392
   2.00657601  6.03815843  0.01925528
   0.01925528  6.03815843  2.00657601
   4.00169267  4.04352700  0.04376714
   6.02162041  4.04352700  2.06354931
   6.07611907  6.05873999  8.07622543
   4.09654573  6.17065673  1.96874477
   8.03106733  0.00000000  4.04778888
   2.01750162  0.00000000  6.12127717
   1.96874477  1.91639727  4.09654573
   8.07622543  2.02831401  6.07611907
   4.05593254  0.00000000  4.05593254
   6.06773279  0.00000000  6.06773279
   6.04607566  2.04888748  4.05870640
   4.05870640  2.04888748  6.04607566
   0.04376714  4.04352700  4.00169267
   2.06354931  4.04352700  6.02162041
   1.96874477  6.17065673  4.09654573
   8.07622543  6.05873999  6.07611907
   6.05791511  4.04352700  6.05791511
   6.04607566  6.03816652  4.05870640
   4.05870640  6.03816652  6.04607566
 


--------------------------------------------------------------------------------------------------------


 k-point  1 :  0.25000.25000.2500  plane waves:    6238
 k-point  2 :  -.25000.25000.2500  plane waves:    6238

 maximum and minimum number of plane-waves per node :    6238   6238

 maximum number of plane-waves:    6238
 maximal index in each direction: 
   IXMAX= 11   IYMAX= 11   IZMAX= 11
   IXMIN=-11   IYMIN=-11   IZMIN=-11

 NGX is ok and might be reduce to  46
 NGY is ok and might be reduce to  46
 NGZ is ok and might be reduce to  46

 serial   3D FFT for wavefunctions
 parallel 3D FFT for charge:
    minimum data exchange during FFTs selected (reduces bandwidth)


 total amount of memory used by VASP on root node 125108. kBytes
========================================================================

   base      :    30000. kBytes
   nonl-proj :     3892. kBytes
   fftplans  :    30736. kBytes
   grid      :    47517. kBytes
   one-center:       95. kBytes
   wavefun   :    12868. kBytes
 
 Broyden mixing: mesh for mixing (old mesh)
   NGX = 23   NGY = 23   NGZ = 23
  (NGX  = 96   NGY  = 96   NGZ  = 96)
  gives a total of  12167 points

 initial charge density was supplied:
 charge density of overlapping atoms calculated
 number of electron   93.0000000 magnetization 
 keeping initial charge density in first step


--------------------------------------------------------------------------------------------------------


 Maximum index for augmentation-charges         7949 (set IRDMAX)


--------------------------------------------------------------------------------------------------------


 First call to EWALD:  gamma=   0.219
 Maximum number of real-space cells 3x 3x 3
 Maximum number of reciprocal cells 3x 3x 3

    FEWALD:  cpu time    0.07: real time    0.02
   RESPFUN:  cpu time    0.00: real time    0.00


----------------------------------------- Iteration    1(   1)  ---------------------------------------


    POTLOK:  cpu time    1.75: real time    1.72
    SETDIJ:  cpu time    0.15: real time    0.15
    EDDIAG:  cpu time    4.65: real time    2.95
  RMM-DIIS:  cpu time   21.37: real time    6.78
    ORTHCH:  cpu time    0.33: real time    0.08
       DOS:  cpu time    0.01: real time    0.00
    --------------------------------------------
      LOOP:  cpu time   28.27: real time   11.68

 eigenvalue-minimisations  :   124
 total energy-change (2. order) : 0.3059926E+03  (-0.1690173E+04)
 number of electron   93.0000000 magnetization 
 augmentation part    93.0000000 magnetization 

 Free energy of the ion-electron system (eV)
  ---------------------------------------------------
  alpha Z        PSCENC =        -6.10292531
  Ewald energy   TEWEN  =     -2233.44441945
  -1/2 Hartree   DENC   =       -14.87570434
  -exchange  EXHF       =         0.00000000
  -V(xc)+E(xc)   XCENC  =      -814.89410781
  PAW double counting   =      1102.18190231     -111.56847430
  entropy T*S    EENTRO =         0.00749343
  eigenvalues    EBANDS =       725.02250024
  atomic energy  EATOM  =      1659.66634407
  ---------------------------------------------------
  free energy    TOTEN  =       305.99260884 eV

  energy without entropy =      305.98511541  energy(sigma->0) =      305.99011103


--------------------------------------------------------------------------------------------------------




----------------------------------------- Iteration    1(   2)  ---------------------------------------


    EDDIAG:  cpu time    4.52: real time    2.93
  RMM-DIIS:  cpu time   21.28: real time    6.77
    ORTHCH:  cpu time    0.33: real time    0.08
       DOS:  cpu time    0.01: real time    0.00
    --------------------------------------------
      LOOP:  cpu time   26.15: real time    9.79

 eigenvalue-minimisations  :   124
 total energy-change (2. order) :-0.3153789E+03  (-0.3097115E+03)
 number of electron   93.0000000 magnetization 
 augmentation part    93.0000000 magnetization 

 Free energy of the ion-electron system (eV)
  ---------------------------------------------------
  alpha Z        PSCENC =        -6.10292531
  Ewald energy   TEWEN  =     -2233.44441945
  -1/2 Hartree   DENC   =       -14.87570434
  -exchange  EXHF       =         0.00000000
  -V(xc)+E(xc)   XCENC  =      -814.89410781
  PAW double counting   =      1102.18190231     -111.56847430
  entropy T*S    EENTRO =        -0.02067756
  eigenvalues    EBANDS =       409.67176619
  atomic energy  EATOM  =      1659.66634407
  ---------------------------------------------------
  free energy    TOTEN  =        -9.38629620 eV

  energy without entropy =       -9.36561864  energy(sigma->0) =       -9.37940368


--------------------------------------------------------------------------------------------------------




----------------------------------------- Iteration    1(   3)  ---------------------------------------


    EDDIAG:  cpu time    4.56: real time    2.93
  RMM-DIIS:  cpu time   21.21: real time    6.76
    ORTHCH:  cpu time    0.33: real time    0.08
       DOS:  cpu time    0.01: real time    0.00
    --------------------------------------------
      LOOP:  cpu time   26.12: real time    9.78

 eigenvalue-minimisations  :   124
 total energy-change (2. order) :-0.7431731E+02  (-0.7628880E+02)
 number of electron   93.0000000 magnetization 
 augmentation part    93.0000000 magnetization 

 Free energy of the ion-electron system (eV)
  ---------------------------------------------------
  alpha Z        PSCENC =        -6.10292531
  Ewald energy   TEWEN  =     -2233.44441945
  -1/2 Hartree   DENC   =       -14.87570434
  -exchange  EXHF       =         0.00000000
  -V(xc)+E(xc)   XCENC  =      -814.89410781
  PAW double counting   =      1102.18190231     -111.56847430
  entropy T*S    EENTRO =        -0.05319591
  eigenvalues    EBANDS =       335.38697665
  atomic energy  EATOM  =      1659.66634407
  ---------------------------------------------------
  free energy    TOTEN  =       -83.70360409 eV

  energy without entropy =      -83.65040818  energy(sigma->0) =      -83.68587212


--------------------------------------------------------------------------------------------------------




----------------------------------------- Iteration    1(   4)  ---------------------------------------


    EDDIAG:  cpu time    4.57: real time    2.94
  RMM-DIIS:  cpu time   21.73: real time    6.81
    ORTHCH:  cpu time    0.33: real time    0.08
       DOS:  cpu time    0.01: real time    0.00
    --------------------------------------------
      LOOP:  cpu time   26.65: real time    9.83

 eigenvalue-minimisations  :   124
 total energy-change (2. order) :-0.1944536E+02  (-0.1907667E+02)
 number of electron   93.0000000 magnetization 
 augmentation part    93.0000000 magnetization 

 Free energy of the ion-electron system (eV)
  ---------------------------------------------------
  alpha Z        PSCENC =        -6.10292531
  Ewald energy   TEWEN  =     -2233.44441945
  -1/2 Hartree   DENC   =       -14.87570434
  -exchange  EXHF       =         0.00000000
  -V(xc)+E(xc)   XCENC  =      -814.89410781
  PAW double counting   =      1102.18190231     -111.56847430
  entropy T*S    EENTRO =         0.03313250
  eigenvalues    EBANDS =       315.85529128
  atomic energy  EATOM  =      1659.66634407
  ---------------------------------------------------
  free energy    TOTEN  =      -103.14896105 eV

  energy without entropy =     -103.18209355  energy(sigma->0) =     -103.16000521


--------------------------------------------------------------------------------------------------------




----------------------------------------- Iteration    1(   5)  ---------------------------------------


    EDDIAG:  cpu time    4.58: real time    2.94
  RMM-DIIS:  cpu time   21.66: real time    6.81
    ORTHCH:  cpu time    0.33: real time    0.08
       DOS:  cpu time    0.01: real time    0.00
    --------------------------------------------
      LOOP:  cpu time   26.58: real time    9.83

 eigenvalue-minimisations  :   124
 total energy-change (2. order) :-0.6869822E+01  (-0.6035579E+01)
 number of electron   93.0000000 magnetization 
 augmentation part    93.0000000 magnetization 

 Free energy of the ion-electron system (eV)
  ---------------------------------------------------
  alpha Z        PSCENC =        -6.10292531
  Ewald energy   TEWEN  =     -2233.44441945
  -1/2 Hartree   DENC   =       -14.87570434
  -exchange  EXHF       =         0.00000000
  -V(xc)+E(xc)   XCENC  =      -814.89410781
  PAW double counting   =      1102.18190231     -111.56847430
  entropy T*S    EENTRO =        -0.02969403
  eigenvalues    EBANDS =       309.04829589
  atomic energy  EATOM  =      1659.66634407
  ---------------------------------------------------
  free energy    TOTEN  =      -110.01878297 eV

  energy without entropy =     -109.98908894  energy(sigma->0) =     -110.00888496


--------------------------------------------------------------------------------------------------------




----------------------------------------- Iteration    1(   6)  ---------------------------------------


    EDDIAG:  cpu time    4.66: real time    2.94
  RMM-DIIS:  cpu time   21.52: real time    6.79
    ORTHCH:  cpu time    0.33: real time    0.08
       DOS:  cpu time    0.01: real time    0.00
    --------------------------------------------
      LOOP:  cpu time   26.53: real time    9.82

 eigenvalue-minimisations  :   124
 total energy-change (2. order) :-0.2673036E+01  (-0.2239726E+01)
 number of electron   93.0000000 magnetization 
 augmentation part    93.0000000 magnetization 

 Free energy of the ion-electron system (eV)
  ---------------------------------------------------
  alpha Z        PSCENC =        -6.10292531
  Ewald energy   TEWEN  =     -2233.44441945
  -1/2 Hartree   DENC   =       -14.87570434
  -exchange  EXHF       =         0.00000000
  -V(xc)+E(xc)   XCENC  =      -814.89410781
  PAW double counting   =      1102.18190231     -111.56847430
  entropy T*S    EENTRO =        -0.02778821
  eigenvalues    EBANDS =       306.37335373
  atomic energy  EATOM  =      1659.66634407
  ---------------------------------------------------
  free energy    TOTEN  =      -112.69181931 eV

  energy without entropy =     -112.66403110  energy(sigma->0) =     -112.68255658


--------------------------------------------------------------------------------------------------------




----------------------------------------- Iteration    1(   7)  ---------------------------------------


    EDDIAG:  cpu time    4.45: real time    2.91
  RMM-DIIS:  cpu time   21.45: real time    6.79
    ORTHCH:  cpu time    0.33: real time    0.08
       DOS:  cpu time    0.01: real time    0.00
    --------------------------------------------
      LOOP:  cpu time   26.25: real time    9.79

 eigenvalue-minimisations  :   124
 total energy-change (2. order) :-0.1135884E+01  (-0.9646711E+00)
 number of electron   93.0000000 magnetization 
 augmentation part    93.0000000 magnetization 

 Free energy of the ion-electron system (eV)
  ---------------------------------------------------
  alpha Z        PSCENC =        -6.10292531
  Ewald energy   TEWEN  =     -2233.44441945
  -1/2 Hartree   DENC   =       -14.87570434
  -exchange  EXHF       =         0.00000000
  -V(xc)+E(xc)   XCENC  =      -814.89410781
  PAW double counting   =      1102.18190231     -111.56847430
  entropy T*S    EENTRO =        -0.04853568
  eigenvalues    EBANDS =       305.25821726
  atomic energy  EATOM  =      1659.66634407
  ---------------------------------------------------
  free energy    TOTEN  =      -113.82770324 eV

  energy without entropy =     -113.77916757  energy(sigma->0) =     -113.81152469


--------------------------------------------------------------------------------------------------------




----------------------------------------- Iteration    1(   8)  ---------------------------------------


    EDDIAG:  cpu time    4.50: real time    2.93
  RMM-DIIS:  cpu time   21.38: real time    6.80
    ORTHCH:  cpu time    0.33: real time    0.08
       DOS:  cpu time    0.01: real time    0.00
    --------------------------------------------
      LOOP:  cpu time   26.24: real time    9.82

 eigenvalue-minimisations  :   124
 total energy-change (2. order) :-0.5335255E+00  (-0.4509096E+00)
 number of electron   93.0000000 magnetization 
 augmentation part    93.0000000 magnetization 

 Free energy of the ion-electron system (eV)
  ---------------------------------------------------
  alpha Z        PSCENC =        -6.10292531
  Ewald energy   TEWEN  =     -2233.44441945
  -1/2 Hartree   DENC   =       -14.87570434
  -exchange  EXHF       =         0.00000000
  -V(xc)+E(xc)   XCENC  =      -814.89410781
  PAW double counting   =      1102.18190231     -111.56847430
  entropy T*S    EENTRO =        -0.05155432
  eigenvalues    EBANDS =       304.72771037
  atomic energy  EATOM  =      1659.66634407
  ---------------------------------------------------
  free energy    TOTEN  =      -114.36122878 eV

  energy without entropy =     -114.30967446  energy(sigma->0) =     -114.34404401


--------------------------------------------------------------------------------------------------------




----------------------------------------- Iteration    1(   9)  ---------------------------------------


    EDDIAG:  cpu time    4.52: real time    2.93
  RMM-DIIS:  cpu time   49.27: real time   13.96
    ORTHCH:  cpu time    0.33: real time    0.08
       DOS:  cpu time    0.01: real time    0.00
    --------------------------------------------
      LOOP:  cpu time   54.13: real time   16.98

 eigenvalue-minimisations  :   294
 total energy-change (2. order) :-0.4601829E+00  (-0.4258276E+00)
 number of electron   93.0000000 magnetization 
 augmentation part    93.0000000 magnetization 

 Free energy of the ion-electron system (eV)
  ---------------------------------------------------
  alpha Z        PSCENC =        -6.10292531
  Ewald energy   TEWEN  =     -2233.44441945
  -1/2 Hartree   DENC   =       -14.87570434
  -exchange  EXHF       =         0.00000000
  -V(xc)+E(xc)   XCENC  =      -814.89410781
  PAW double counting   =      1102.18190231     -111.56847430
  entropy T*S    EENTRO =        -0.05900131
  eigenvalues    EBANDS =       304.27497440
  atomic energy  EATOM  =      1659.66634407
  ---------------------------------------------------
  free energy    TOTEN  =      -114.82141173 eV

  energy without entropy =     -114.76241042  energy(sigma->0) =     -114.80174463


--------------------------------------------------------------------------------------------------------




----------------------------------------- Iteration    1(  10)  ---------------------------------------


    EDDIAG:  cpu time    4.57: real time    2.94
  RMM-DIIS:  cpu time   49.68: real time   13.93
    ORTHCH:  cpu time    0.33: real time    0.08
       DOS:  cpu time    0.01: real time    0.00
    --------------------------------------------
      LOOP:  cpu time   54.59: real time   16.95

 eigenvalue-minimisations  :   292
 total energy-change (2. order) :-0.8176761E-01  (-0.4995067E-01)
 number of electron   93.0000000 magnetization 
 augmentation part    93.0000000 magnetization 

 Free energy of the ion-electron system (eV)
  ---------------------------------------------------
  alpha Z        PSCENC =        -6.10292531
  Ewald energy   TEWEN  =     -2233.44441945
  -1/2 Hartree   DENC   =       -14.87570434
  -exchange  EXHF       =         0.00000000
  -V(xc)+E(xc)   XCENC  =      -814.89410781
  PAW double counting   =      1102.18190231     -111.56847430
  entropy T*S    EENTRO =        -0.05408751
  eigenvalues    EBANDS =       304.18829300
  atomic energy  EATOM  =      1659.66634407
  ---------------------------------------------------
  free energy    TOTEN  =      -114.90317934 eV

  energy without entropy =     -114.84909183  energy(sigma->0) =     -114.88515017


--------------------------------------------------------------------------------------------------------




----------------------------------------- Iteration    1(  11)  ---------------------------------------


    EDDIAG:  cpu time    4.65: real time    2.94
  RMM-DIIS:  cpu time   43.85: real time   12.37
    ORTHCH:  cpu time    0.33: real time    0.08
       DOS:  cpu time    0.01: real time    0.00
    --------------------------------------------
      LOOP:  cpu time   48.85: real time   15.40

 eigenvalue-minimisations  :   257
 total energy-change (2. order) :-0.1201252E-01  (-0.3366384E-02)
 number of electron   93.0000000 magnetization 
 augmentation part    93.0000000 magnetization 

 Free energy of the ion-electron system (eV)
  ---------------------------------------------------
  alpha Z        PSCENC =        -6.10292531
  Ewald energy   TEWEN  =     -2233.44441945
  -1/2 Hartree   DENC   =       -14.87570434
  -exchange  EXHF       =         0.00000000
  -V(xc)+E(xc)   XCENC  =      -814.89410781
  PAW double counting   =      1102.18190231     -111.56847430
  entropy T*S    EENTRO =        -0.05262154
  eigenvalues    EBANDS =       304.17481450
  atomic energy  EATOM  =      1659.66634407
  ---------------------------------------------------
  free energy    TOTEN  =      -114.91519186 eV

  energy without entropy =     -114.86257033  energy(sigma->0) =     -114.89765135


--------------------------------------------------------------------------------------------------------




----------------------------------------- Iteration    1(  12)  ---------------------------------------


    EDDIAG:  cpu time    4.48: real time    2.93
  RMM-DIIS:  cpu time   40.86: real time   11.68
    ORTHCH:  cpu time    0.33: real time    0.08
       DOS:  cpu time    0.01: real time    0.00
    CHARGE:  cpu time    1.72: real time    1.63
    MIXING:  cpu time    0.06: real time    0.06
    --------------------------------------------
      LOOP:  cpu time   47.48: real time   16.39

 eigenvalue-minimisations  :   240
 total energy-change (2. order) :-0.3830651E-03  (-0.8048567E-04)
 number of electron   92.9999998 magnetization 
 augmentation part    -1.1461383 magnetization 

 Broyden mixing:
  rms(total) = 0.54508E+00    rms(broyden)= 0.54506E+00
  rms(prec ) = 0.86698E+00
  weight for this iteration     100.00

 Free energy of the ion-electron system (eV)
  ---------------------------------------------------
  alpha Z        PSCENC =        -6.10292531
  Ewald energy   TEWEN  =     -2233.44441945
  -1/2 Hartree   DENC   =       -14.87570434
  -exchange  EXHF       =         0.00000000
  -V(xc)+E(xc)   XCENC  =      -814.89410781
  PAW double counting   =      1102.18190231     -111.56847430
  entropy T*S    EENTRO =        -0.05209537
  eigenvalues    EBANDS =       304.17390527
  atomic energy  EATOM  =      1659.66634407
  ---------------------------------------------------
  free energy    TOTEN  =      -114.91557493 eV

  energy without entropy =     -114.86347956  energy(sigma->0) =     -114.89820981


--------------------------------------------------------------------------------------------------------




----------------------------------------- Iteration    1(  13)  ---------------------------------------


    POTLOK:  cpu time    1.71: real time    1.71
    SETDIJ:  cpu time    0.15: real time    0.15
    EDDIAG:  cpu time    4.64: real time    2.94
  RMM-DIIS:  cpu time   41.29: real time   12.06
    ORTHCH:  cpu time    0.33: real time    0.08
       DOS:  cpu time    0.01: real time    0.00
    CHARGE:  cpu time    1.71: real time    1.62
    MIXING:  cpu time    0.05: real time    0.05
    --------------------------------------------
      LOOP:  cpu time   49.90: real time   18.63

 eigenvalue-minimisations  :   249
 total energy-change (2. order) : 0.6001560E+00  (-0.6837305E-01)
 number of electron   92.9999998 magnetization 
 augmentation part    -1.1596963 magnetization 

 Broyden mixing:
  rms(total) = 0.33318E+00    rms(broyden)= 0.33318E+00
  rms(prec ) = 0.49127E+00
  weight for this iteration     100.00

 eigenvalues of (default mixing * dielectric matrix)
  average eigenvalue GAMMA=   2.4934
  2.4934

 Free energy of the ion-electron system (eV)
  ---------------------------------------------------
  alpha Z        PSCENC =        -6.10292531
  Ewald energy   TEWEN  =     -2233.44441945
  -1/2 Hartree   DENC   =       -15.81456906
  -exchange  EXHF       =         0.00000000
  -V(xc)+E(xc)   XCENC  =      -813.77982679
  PAW double counting   =      1104.45758360     -113.98612897
  entropy T*S    EENTRO =        -0.07482869
  eigenvalues    EBANDS =       304.76335171
  atomic energy  EATOM  =      1659.66634407
  ---------------------------------------------------
  free energy    TOTEN  =      -114.31541889 eV

  energy without entropy =     -114.24059021  energy(sigma->0) =     -114.29047600


--------------------------------------------------------------------------------------------------------




----------------------------------------- Iteration    1(  14)  ---------------------------------------


    POTLOK:  cpu time    1.71: real time    1.71
    SETDIJ:  cpu time    0.15: real time    0.15
    EDDIAG:  cpu time    4.64: real time    2.94
  RMM-DIIS:  cpu time   42.10: real time   12.27
    ORTHCH:  cpu time    0.33: real time    0.08
       DOS:  cpu time    0.01: real time    0.00
    CHARGE:  cpu time    1.72: real time    1.63
    MIXING:  cpu time    0.06: real time    0.05
    --------------------------------------------
      LOOP:  cpu time   50.72: real time   18.84

 eigenvalue-minimisations  :   253
 total energy-change (2. order) : 0.2662615E+00  (-0.2292068E-01)
 number of electron   92.9999998 magnetization 
 augmentation part    -1.1783624 magnetization 

 Broyden mixing:
  rms(total) = 0.10603E+00    rms(broyden)= 0.10603E+00
  rms(prec ) = 0.15653E+00
  weight for this iteration     100.00

 eigenvalues of (default mixing * dielectric matrix)
  average eigenvalue GAMMA=   1.8655
  2.5876  1.1434

 Free energy of the ion-electron system (eV)
  ---------------------------------------------------
  alpha Z        PSCENC =        -6.10292531
  Ewald energy   TEWEN  =     -2233.44441945
  -1/2 Hartree   DENC   =       -16.84233126
  -exchange  EXHF       =         0.00000000
  -V(xc)+E(xc)   XCENC  =      -812.29880071
  PAW double counting   =      1106.56366883     -116.27473380
  entropy T*S    EENTRO =        -0.07777001
  eigenvalues    EBANDS =       304.76181024
  atomic energy  EATOM  =      1659.66634407
  ---------------------------------------------------
  free energy    TOTEN  =      -114.04915741 eV

  energy without entropy =     -113.97138739  energy(sigma->0) =     -114.02323407


--------------------------------------------------------------------------------------------------------




----------------------------------------- Iteration    1(  15)  ---------------------------------------


    POTLOK:  cpu time    1.78: real time    1.72
    SETDIJ:  cpu time    0.15: real time    0.15
    EDDIAG:  cpu time    4.64: real time    2.94
  RMM-DIIS:  cpu time   43.62: real time   12.57
    ORTHCH:  cpu time    0.33: real time    0.08
       DOS:  cpu time    0.01: real time    0.00
    CHARGE:  cpu time    1.72: real time    1.62
    MIXING:  cpu time    0.07: real time    0.06
    --------------------------------------------
      LOOP:  cpu time   52.32: real time   19.15

 eigenvalue-minimisations  :   259
 total energy-change (2. order) : 0.3202609E-01  (-0.3080226E-02)
 number of electron   92.9999998 magnetization 
 augmentation part    -1.1891337 magnetization 

 Broyden mixing:
  rms(total) = 0.14752E-01    rms(broyden)= 0.14752E-01
  rms(prec ) = 0.26578E-01
  weight for this iteration     100.00

 eigenvalues of (default mixing * dielectric matrix)
  average eigenvalue GAMMA=   1.8268
  2.6103  1.0782  1.7918

 Free energy of the ion-electron system (eV)
  ---------------------------------------------------
  alpha Z        PSCENC =        -6.10292531
  Ewald energy   TEWEN  =     -2233.44441945
  -1/2 Hartree   DENC   =       -17.34347858
  -exchange  EXHF       =         0.00000000
  -V(xc)+E(xc)   XCENC  =      -811.55382953
  PAW double counting   =      1107.58764316     -117.40219872
  entropy T*S    EENTRO =        -0.07584074
  eigenvalues    EBANDS =       304.65157379
  atomic energy  EATOM  =      1659.66634407
  ---------------------------------------------------
  free energy    TOTEN  =      -114.01713131 eV

  energy without entropy =     -113.94129058  energy(sigma->0) =     -113.99185107


--------------------------------------------------------------------------------------------------------




----------------------------------------- Iteration    1(  16)  ---------------------------------------


    POTLOK:  cpu time    1.80: real time    1.72
    SETDIJ:  cpu time    0.15: real time    0.15
    EDDIAG:  cpu time    4.64: real time    2.94
  RMM-DIIS:  cpu time   42.51: real time   12.39
    ORTHCH:  cpu time    0.33: real time    0.08
       DOS:  cpu time    0.01: real time    0.00
    CHARGE:  cpu time    1.71: real time    1.61
    MIXING:  cpu time    0.09: real time    0.06
    --------------------------------------------
      LOOP:  cpu time   51.24: real time   18.95

 eigenvalue-minimisations  :   256
 total energy-change (2. order) : 0.1234894E-02  (-0.3797818E-03)
 number of electron   92.9999998 magnetization 
 augmentation part    -1.1917111 magnetization 

 Broyden mixing:
  rms(total) = 0.44247E-02    rms(broyden)= 0.44246E-02
  rms(prec ) = 0.74523E-02
  weight for this iteration     100.00

 eigenvalues of (default mixing * dielectric matrix)
  average eigenvalue GAMMA=   1.8060
  2.6368  2.1523  1.0990  1.3360

 Free energy of the ion-electron system (eV)
  ---------------------------------------------------
  alpha Z        PSCENC =        -6.10292531
  Ewald energy   TEWEN  =     -2233.44441945
  -1/2 Hartree   DENC   =       -17.31615361
  -exchange  EXHF       =         0.00000000
  -V(xc)+E(xc)   XCENC  =      -811.47524883
  PAW double counting   =      1107.85917845     -117.69992776
  entropy T*S    EENTRO =        -0.07549941
  eigenvalues    EBANDS =       304.57275543
  atomic energy  EATOM  =      1659.66634407
  ---------------------------------------------------
  free energy    TOTEN  =      -114.01589642 eV

  energy without entropy =     -113.94039701  energy(sigma->0) =     -113.99072995


--------------------------------------------------------------------------------------------------------




----------------------------------------- Iteration    1(  17)  ---------------------------------------


    POTLOK:  cpu time    1.86: real time    1.73
    SETDIJ:  cpu time    0.15: real time    0.15
    EDDIAG:  cpu time    4.64: real time    2.94
  RMM-DIIS:  cpu time   44.43: real time   12.78
    ORTHCH:  cpu time    0.33: real time    0.08
       DOS:  cpu time    0.01: real time    0.00
    CHARGE:  cpu time    1.71: real time    1.61
    MIXING:  cpu time    0.09: real time    0.06
    --------------------------------------------
      LOOP:  cpu time   53.22: real time   19.36

 eigenvalue-minimisations  :   265
 total energy-change (2. order) : 0.2754931E-04  (-0.4711659E-04)
 number of electron   92.9999998 magnetization 
 augmentation part    -1.1926345 magnetization 

 Broyden mixing:
  rms(total) = 0.11615E-02    rms(broyden)= 0.11615E-02
  rms(prec ) = 0.19292E-02
  weight for this iteration     100.00

 eigenvalues of (default mixing * dielectric matrix)
  average eigenvalue GAMMA=   1.7801
  2.6431  2.2550  1.7224  1.1399  1.1399

 Free energy of the ion-electron system (eV)
  ---------------------------------------------------
  alpha Z        PSCENC =        -6.10292531
  Ewald energy   TEWEN  =     -2233.44441945
  -1/2 Hartree   DENC   =       -17.30342724
  -exchange  EXHF       =         0.00000000
  -V(xc)+E(xc)   XCENC  =      -811.45487033
  PAW double counting   =      1107.93736582     -117.78899207
  entropy T*S    EENTRO =        -0.07526069
  eigenvalues    EBANDS =       304.55031635
  atomic energy  EATOM  =      1659.66634407
  ---------------------------------------------------
  free energy    TOTEN  =      -114.01586887 eV

  energy without entropy =     -113.94060818  energy(sigma->0) =     -113.99078197


--------------------------------------------------------------------------------------------------------




----------------------------------------- Iteration    1(  18)  ---------------------------------------


    POTLOK:  cpu time    1.84: real time    1.71
    SETDIJ:  cpu time    0.15: real time    0.15
    EDDIAG:  cpu time    4.64: real time    2.94
  RMM-DIIS:  cpu time   44.95: real time   12.78
    ORTHCH:  cpu time    0.33: real time    0.08
       DOS:  cpu time    0.01: real time    0.00
    CHARGE:  cpu time    1.71: real time    1.62
    MIXING:  cpu time    0.10: real time    0.06
    --------------------------------------------
      LOOP:  cpu time   53.73: real time   19.35

 eigenvalue-minimisations  :   267
 total energy-change (2. order) :-0.9612734E-05  (-0.5550824E-05)
 number of electron   92.9999998 magnetization 
 augmentation part    -1.1929813 magnetization 

 Broyden mixing:
  rms(total) = 0.50989E-03    rms(broyden)= 0.50987E-03
  rms(prec ) = 0.83003E-03
  weight for this iteration     100.00

 eigenvalues of (default mixing * dielectric matrix)
  average eigenvalue GAMMA=   1.7521
  2.5967  2.5967  1.0334  1.0334  1.7460  1.5065

 Free energy of the ion-electron system (eV)
  ---------------------------------------------------
  alpha Z        PSCENC =        -6.10292531
  Ewald energy   TEWEN  =     -2233.44441945
  -1/2 Hartree   DENC   =       -17.31108338
  -exchange  EXHF       =         0.00000000
  -V(xc)+E(xc)   XCENC  =      -811.45090025
  PAW double counting   =      1107.93728435     -117.79131874
  entropy T*S    EENTRO =        -0.07538137
  eigenvalues    EBANDS =       304.55652161
  atomic energy  EATOM  =      1659.66634407
  ---------------------------------------------------
  free energy    TOTEN  =      -114.01587848 eV

  energy without entropy =     -113.94049711  energy(sigma->0) =     -113.99075136


--------------------------------------------------------------------------------------------------------




----------------------------------------- Iteration    1(  19)  ---------------------------------------


    POTLOK:  cpu time    1.84: real time    1.71
    SETDIJ:  cpu time    0.15: real time    0.15
    EDDIAG:  cpu time    4.64: real time    2.94
  RMM-DIIS:  cpu time   35.68: real time   10.33
    ORTHCH:  cpu time    0.33: real time    0.08
       DOS:  cpu time    0.01: real time    0.00
    CHARGE:  cpu time    1.71: real time    1.62
    MIXING:  cpu time    0.10: real time    0.06
    --------------------------------------------
      LOOP:  cpu time   44.46: real time   16.90

 eigenvalue-minimisations  :   210
 total energy-change (2. order) :-0.4992252E-05  (-0.5735402E-06)
 number of electron   92.9999998 magnetization 
 augmentation part    -1.1930660 magnetization 

 Broyden mixing:
  rms(total) = 0.12846E-03    rms(broyden)= 0.12845E-03
  rms(prec ) = 0.22892E-03
  weight for this iteration     100.00

 eigenvalues of (default mixing * dielectric matrix)
  average eigenvalue GAMMA=   1.7149
  2.6990  2.5276  1.7933  1.6077  1.3791  0.9988  0.9988

 Free energy of the ion-electron system (eV)
  ---------------------------------------------------
  alpha Z        PSCENC =        -6.10292531
  Ewald energy   TEWEN  =     -2233.44441945
  -1/2 Hartree   DENC   =       -17.31155005
  -exchange  EXHF       =         0.00000000
  -V(xc)+E(xc)   XCENC  =      -811.44931729
  PAW double counting   =      1107.92714518     -117.78239654
  entropy T*S    EENTRO =        -0.07532079
  eigenvalues    EBANDS =       304.55655671
  atomic energy  EATOM  =      1659.66634407
  ---------------------------------------------------
  free energy    TOTEN  =      -114.01588347 eV

  energy without entropy =     -113.94056268  energy(sigma->0) =     -113.99077654


--------------------------------------------------------------------------------------------------------




----------------------------------------- Iteration    1(  20)  ---------------------------------------


    POTLOK:  cpu time    1.84: real time    1.72
    SETDIJ:  cpu time    0.15: real time    0.15
    EDDIAG:  cpu time    4.64: real time    2.94
  RMM-DIIS:  cpu time   24.00: real time    7.36
    ORTHCH:  cpu time    0.33: real time    0.08
       DOS:  cpu time    0.01: real time    0.00
    --------------------------------------------
      LOOP:  cpu time   30.97: real time   12.26

 eigenvalue-minimisations  :   141
 total energy-change (2. order) :-0.8148131E-06  (-0.6148339E-07)
 number of electron   92.9999998 magnetization 
 augmentation part    -1.1930660 magnetization 

 Free energy of the ion-electron system (eV)
  ---------------------------------------------------
  alpha Z        PSCENC =        -6.10292531
  Ewald energy   TEWEN  =     -2233.44441945
  -1/2 Hartree   DENC   =       -17.31281483
  -exchange  EXHF       =         0.00000000
  -V(xc)+E(xc)   XCENC  =      -811.44887096
  PAW double counting   =      1107.92058308     -117.77603191
  entropy T*S    EENTRO =        -0.07533037
  eigenvalues    EBANDS =       304.55758139
  atomic energy  EATOM  =      1659.66634407
  ---------------------------------------------------
  free energy    TOTEN  =      -114.01588429 eV

  energy without entropy =     -113.94055392  energy(sigma->0) =     -113.99077417


--------------------------------------------------------------------------------------------------------




 average (electrostatic) potential at core
  the test charge radii are     1.0406
  (the norm of the test charge is              1.0000)
       1 -72.9662       2 -72.9798       3 -73.0482       4 -72.9898       5 -72.9898
       6 -73.0459       7 -73.0459       8 -72.9974       9 -72.8834      10 -72.9557
      11 -72.9898      12 -72.9898      13 -73.0520      14 -73.0520      15 -72.9974
      16 -72.8834      17 -73.0459      18 -73.0459      19 -72.8834      20 -72.9974
      21 -73.0482      22 -72.9798      23 -72.9899      24 -72.9899      25 -73.0520
      26 -73.0520      27 -72.8834      28 -72.9974      29 -72.9557      30 -72.9899
      31 -72.9899
 
 
 
 E-fermi :   7.8742     XC(G=0): -10.0490     alpha+bet :-14.3870
   add alpha+bet to get absolut eigen values

 k-point   1 :       0.2500    0.2500    0.2500
  band No.  band energies     occupation 
      1      -2.9369      2.00000
      2      -1.9053      2.00000
      3      -1.8208      2.00000
      4      -1.6629      2.00000
      5      -0.7747      2.00000
      6      -0.7148      2.00000
      7      -0.4689      2.00000
      8       0.3150      2.00000
      9       0.3663      2.00000
     10       0.4169      2.00000
     11       0.6284      2.00000
     12       1.4060      2.00000
     13       1.4278      2.00000
     14       1.4637      2.00000
     15       1.5266      2.00000
     16       1.7318      2.00000
     17       1.8550      2.00000
     18       2.5884      2.00000
     19       2.6580      2.00000
     20       2.7456      2.00000
     21       3.5471      2.00000
     22       3.5960      2.00000
     23       3.6476      2.00000
     24       3.6954      2.00000
     25       3.7311      2.00000
     26       4.0726      2.00000
     27       4.5940      2.00000
     28       4.6142      2.00000
     29       4.6636      2.00000
     30       4.7449      2.00000
     31       4.7509      2.00000
     32       4.7742      2.00000
     33       4.9041      2.00000
     34       5.0715      2.00000
     35       5.0972      2.00000
     36       5.7547      2.00000
     37       5.8454      2.00000
     38       6.1624      2.00000
     39       6.7553      2.00000
     40       6.8233      2.00000
     41       6.8395      2.00000
     42       6.9131      2.00000
     43       6.9784      2.00000
     44       7.0003      2.00000
     45       7.1394      2.00000
     46       7.7916      1.63720
     47       7.9144      0.66727
     48       7.9179      0.63986
     49       7.9489      0.41412
     50       8.0270      0.03951
     51       8.1196     -0.07091
     52       8.2088     -0.03946
     53       8.2457     -0.02463
     54       8.4314     -0.00059
     55       9.0966      0.00000
     56       9.1925      0.00000
     57       9.2404      0.00000
     58       9.3427      0.00000
     59       9.3487      0.00000
     60       9.4651      0.00000
     61       9.9938      0.00000
     62      10.0182      0.00000

 k-point   2 :      -0.2500    0.2500    0.2500
  band No.  band energies     occupation 
      1      -2.9372      2.00000
      2      -1.9149      2.00000
      3      -1.7408      2.00000
      4      -1.7397      2.00000
      5      -0.7920      2.00000
      6      -0.6278      2.00000
      7      -0.5535      2.00000
      8       0.3055      2.00000
      9       0.4272      2.00000
     10       0.4770      2.00000
     11       0.5639      2.00000
     12       1.4131      2.00000
     13       1.4528      2.00000
     14       1.4561      2.00000
     15       1.5505      2.00000
     16       1.5630      2.00000
     17       1.8990      2.00000
     18       2.5440      2.00000
     19       2.6988      2.00000
     20       2.8386      2.00000
     21       3.5698      2.00000
     22       3.6033      2.00000
     23       3.6890      2.00000
     24       3.6954      2.00000
     25       3.7762      2.00000
     26       3.8736      2.00000
     27       4.5665      2.00000
     28       4.6498      2.00000
     29       4.6597      2.00000
     30       4.7079      2.00000
     31       4.7710      2.00000
     32       4.7887      2.00000
     33       4.9682      2.00000
     34       5.0113      2.00000
     35       5.1444      2.00000
     36       5.7223      2.00000
     37       5.9071      2.00000
     38       6.1526      2.00000
     39       6.7324      2.00000
     40       6.8041      2.00000
     41       6.8369      2.00000
     42       6.9097      2.00000
     43       6.9747      2.00000
     44       6.9963      2.00000
     45       7.0850      2.00000
     46       7.8111      1.50548
     47       7.8662      1.06733
     48       7.9636      0.32082
     49       8.0237      0.04922
     50       8.1239     -0.07074
     51       8.1527     -0.06409
     52       8.2279     -0.03134
     53       8.2334     -0.02917
     54       8.3024     -0.00987
     55       9.1316      0.00000
     56       9.1766      0.00000
     57       9.1875      0.00000
     58       9.3287      0.00000
     59       9.3591      0.00000
     60       9.5646      0.00000
     61       9.9927      0.00000
     62      10.0361      0.00000


--------------------------------------------------------------------------------------------------------


 soft charge-density along one line, spin component           1
         0         1         2         3         4         5         6         7         8         9
 total charge-density along one line
 
 pseudopotential strength for first ion, spin component:           1
  8.461  -0.006   0.000   0.000   0.000   0.000   0.000   0.000
 -0.006   0.000   0.000   0.000   0.000   0.000   0.000   0.000
  0.000   0.000   1.990   0.000   0.000  -0.026   0.000   0.000
  0.000   0.000   0.000   1.990   0.000   0.000  -0.026   0.000
  0.000   0.000   0.000   0.000   1.990   0.000   0.000  -0.026
  0.000   0.000  -0.026   0.000   0.000  -0.012   0.000   0.000
  0.000   0.000   0.000  -0.026   0.000   0.000  -0.012   0.000
  0.000   0.000   0.000   0.000  -0.026   0.000   0.000  -0.012
 total augmentation occupancy for first ion, spin component:           1
  1.446  -0.484   0.000   0.000   0.000   0.000   0.000   0.000
 -0.484   0.416   0.000   0.000   0.000   0.000   0.000   0.000
  0.000   0.000   0.911   0.000   0.000  -0.224   0.000   0.000
  0.000   0.000   0.000   0.606  -0.175   0.000  -0.131   0.048
  0.000   0.000   0.000  -0.175   0.606   0.000   0.048  -0.131
  0.000   0.000  -0.224   0.000   0.000   0.060   0.000   0.000
  0.000   0.000   0.000  -0.131   0.048   0.000   0.034  -0.015
  0.000   0.000   0.000   0.048  -0.131   0.000  -0.015   0.034


------------------------ aborting loop because EDIFF is reached ----------------------------------------




--------------------------------------------------------------------------------------------------------



  FREE ENERGIE OF THE ION-ELECTRON SYSTEM (eV)
  ---------------------------------------------------
  free  energy   TOTEN  =      -114.015884 eV

  energy  without entropy=     -113.940554  energy(sigma->0) =     -113.990774
 
    CHARGE:  cpu time    1.62: real time    1.62
    FORLOC:  cpu time    0.68: real time    0.68
    FORNL :  cpu time    5.78: real time    5.78
    STRESS:  cpu time   37.49: real time    9.98
    FORCOR:  cpu time    2.33: real time    2.33
    FORHAR:  cpu time    1.06: real time    1.06
    MIXING:  cpu time    0.11: real time    0.06

  FORCE on cell =-STRESS in cart. coord.  units (eV):
  Direction    XX          YY          ZZ          XY          YZ          ZX
  --------------------------------------------------------------------------------------
  Alpha Z    -6.10293    -6.10293    -6.10293
  Ewald    -748.74375  -735.96572  -748.74375     0.00000     0.00000    -8.90901
  Hartree     7.08137     3.15080     7.08137     0.00000     0.00000    -0.83454
  E(xc)    -264.21792  -264.69904  -264.21792     0.00000     0.00000     0.08613
  Local      -5.46698   -15.51545    -5.46698     0.00000     0.00000    10.06958
  n-local   586.64882   592.57862   586.64880     0.13519    -0.80190    -1.34828
  augment   -31.72262   -32.00726   -31.72263     0.00001     0.00001     0.10809
  Kinetic   461.03945   460.33387   461.03950     0.12989    -1.28661    -0.40879
  Fock        0.00000     0.00000     0.00000     0.00000     0.00000     0.00000
  -------------------------------------------------------------------------------------
  Total      -1.48454     1.77289    -1.48454     0.00000     0.00000    -1.23682
  in kB      -4.49708     5.37059    -4.49708     0.00000     0.00000    -3.74666
  external pressure =       -1.21 kB  Pullay stress =        0.00 kB


 VOLUME and BASIS-vectors are now :
 -----------------------------------------------------------------------------
  energy-cutoff  :      300.00
  volume of cell :      528.90
      direct lattice vectors                 reciprocal lattice vectors
     8.087054000  0.000000000  0.000000000     0.123654423  0.000000000  0.000000000
     0.000000000  8.087054000  0.000000000     0.000000000  0.123654423  0.000000000
     0.000000000  0.000000000  8.087054000     0.000000000  0.000000000  0.123654423

  length of vectors
     8.087054000  8.087054000  8.087054000     0.123654423  0.123654423  0.123654423


 FORCES acting on ions
    electron-ion (+dipol)            ewald-force                    non-local-force                 convergence-correction
 -----------------------------------------------------------------------------------------------
   -.169E-02 -.228E-13 -.169E-02   0.159E-02 0.211E-14 0.159E-02   0.798E-04 0.000E+00 0.798E-04   0.435E-05 0.248E-14 0.435E-05
   -.122E+01 0.198E-12 -.122E+01   0.126E+01 -.322E-14 0.126E+01   -.364E-01 0.000E+00 -.364E-01   0.103E-03 0.272E-14 0.103E-03
   -.214E+00 0.773E-13 -.214E+00   0.316E+00 -.738E-14 0.316E+00   -.111E+00 0.000E+00 -.111E+00   0.114E-03 -.253E-14 0.115E-03
   -.123E+01 -.789E+01 -.527E+01   0.861E+00 0.793E+01 0.524E+01   0.369E+00 0.121E-01 0.710E-01   0.105E-03 0.174E-03 0.565E-04
   -.527E+01 -.789E+01 -.123E+01   0.524E+01 0.793E+01 0.861E+00   0.710E-01 0.121E-01 0.369E+00   0.561E-04 0.174E-03 0.105E-03
   0.118E+01 0.225E-13 -.627E+00   -.131E+01 -.205E-14 0.277E+00   0.151E+00 0.000E+00 0.311E+00   -.624E-04 0.860E-15 0.860E-04
   0.628E+00 -.519E-14 -.118E+01   -.277E+00 0.709E-13 0.131E+01   -.311E+00 0.000E+00 -.151E+00   -.971E-04 0.911E-15 0.735E-04
   0.602E+00 -.340E+01 -.601E+00   -.715E+00 0.345E+01 0.714E+00   0.924E-01 -.153E-01 -.923E-01   -.913E-04 0.206E-03 0.768E-04
   0.350E+01 -.574E+01 -.350E+01   -.340E+01 0.620E+01 0.340E+01   -.769E-01 -.516E+00 0.771E-01   -.817E-04 0.150E-03 0.895E-04
   -.633E+01 -.298E-13 -.633E+01   0.616E+01 0.185E-11 0.616E+01   0.168E+00 0.000E+00 0.168E+00   0.427E-04 -.239E-14 0.433E-04
   -.123E+01 0.789E+01 -.527E+01   0.861E+00 -.793E+01 0.524E+01   0.369E+00 -.121E-01 0.710E-01   0.105E-03 -.174E-03 0.565E-04
   -.527E+01 0.789E+01 -.123E+01   0.524E+01 -.793E+01 0.861E+00   0.710E-01 -.121E-01 0.369E+00   0.561E-04 -.174E-03 0.105E-03
   0.489E+01 -.239E-12 -.250E+01   -.512E+01 -.857E-12 0.238E+01   0.237E+00 0.000E+00 0.141E+00   -.577E-04 -.510E-15 0.770E-04
   0.250E+01 -.619E-13 -.489E+01   -.238E+01 -.867E-12 0.513E+01   -.141E+00 0.000E+00 -.236E+00   -.882E-04 -.650E-15 0.713E-04
   0.602E+00 0.340E+01 -.601E+00   -.715E+00 -.345E+01 0.714E+00   0.924E-01 0.153E-01 -.923E-01   -.913E-04 -.206E-03 0.768E-04
   0.350E+01 0.574E+01 -.350E+01   -.340E+01 -.620E+01 0.340E+01   -.769E-01 0.516E+00 0.771E-01   -.817E-04 -.150E-03 0.895E-04
   -.627E+00 -.273E-13 0.118E+01   0.277E+00 -.389E-14 -.131E+01   0.311E+00 0.000E+00 0.151E+00   0.858E-04 -.220E-14 -.626E-04
   -.118E+01 0.327E-13 0.628E+00   0.131E+01 -.205E-14 -.277E+00   -.151E+00 0.000E+00 -.311E+00   0.732E-04 0.678E-15 -.973E-04
   -.350E+01 -.574E+01 0.350E+01   0.340E+01 0.620E+01 -.340E+01   0.771E-01 -.516E+00 -.769E-01   0.892E-04 0.150E-03 -.820E-04
   -.601E+00 -.340E+01 0.602E+00   0.714E+00 0.345E+01 -.715E+00   -.923E-01 -.153E-01 0.924E-01   0.765E-04 0.206E-03 -.917E-04
   0.213E+00 -.936E-13 0.213E+00   -.314E+00 0.893E-12 -.314E+00   0.111E+00 0.000E+00 0.111E+00   -.102E-03 -.111E-14 -.102E-03
   0.122E+01 0.718E-13 0.122E+01   -.126E+01 -.687E-13 -.126E+01   0.360E-01 0.000E+00 0.360E-01   -.114E-03 0.121E-14 -.114E-03
   0.527E+01 -.789E+01 0.123E+01   -.524E+01 0.793E+01 -.859E+00   -.714E-01 0.124E-01 -.369E+00   -.648E-04 0.175E-03 -.893E-04
   0.123E+01 -.789E+01 0.527E+01   -.859E+00 0.793E+01 -.524E+01   -.369E+00 0.124E-01 -.714E-01   -.890E-04 0.174E-03 -.652E-04
   -.250E+01 0.203E-12 0.489E+01   0.238E+01 -.881E-12 -.512E+01   0.141E+00 0.000E+00 0.237E+00   0.765E-04 0.255E-14 -.581E-04
   -.489E+01 0.304E-14 0.250E+01   0.513E+01 -.879E-12 -.238E+01   -.236E+00 0.000E+00 -.141E+00   0.709E-04 -.519E-15 -.888E-04
   -.350E+01 0.574E+01 0.350E+01   0.340E+01 -.620E+01 -.340E+01   0.771E-01 0.516E+00 -.769E-01   0.892E-04 -.150E-03 -.820E-04
   -.601E+00 0.340E+01 0.602E+00   0.714E+00 -.345E+01 -.715E+00   -.923E-01 0.153E-01 0.924E-01   0.765E-04 -.206E-03 -.917E-04
   0.633E+01 -.764E-13 0.633E+01   -.616E+01 -.333E-15 -.616E+01   -.168E+00 0.000E+00 -.168E+00   -.544E-04 -.813E-15 -.550E-04
   0.527E+01 0.789E+01 0.123E+01   -.524E+01 -.793E+01 -.859E+00   -.714E-01 -.124E-01 -.369E+00   -.648E-04 -.175E-03 -.893E-04
   0.123E+01 0.789E+01 0.527E+01   -.859E+00 -.793E+01 -.524E+01   -.369E+00 -.124E-01 -.714E-01   -.890E-04 -.174E-03 -.652E-04
 -----------------------------------------------------------------------------------------------
   -.817E-04 -.325E-12 -.817E-04   0.289E-14 -.142E-13 -.160E-13   0.919E-04 -.937E-16 0.919E-04   -.590E-05 -.159E-14 -.590E-05
 
 
 POSITION                                       TOTAL-FORCE (eV/Angst)
 -----------------------------------------------------------------------------------
      3.03265      4.04353      3.03265        -0.000017      0.000000     -0.000017
      8.08464      0.00000      8.08464         0.005459      0.000000      0.005459
      2.00935      0.00000      2.00935        -0.009009      0.000000     -0.009009
      2.00658      2.04890      0.01926        -0.003023      0.051268      0.039825
      0.01926      2.04890      2.00658         0.039825      0.051268     -0.003023
      4.04779      0.00000      8.03107         0.027750      0.000000     -0.039131
      6.12128      0.00000      2.01750         0.039133      0.000000     -0.027726
      6.07612      2.02831      8.07623        -0.020610      0.038951      0.020630
      4.09655      1.91640      1.96874         0.020116     -0.054325     -0.020034
      0.00742      4.04353      0.00742        -0.001098      0.000000     -0.001098
      2.00658      6.03816      0.01926        -0.003023     -0.051268      0.039825
      0.01926      6.03816      2.00658         0.039825     -0.051268     -0.003023
      4.00169      4.04353      0.04377         0.003185      0.000000      0.022352
      6.02162      4.04353      2.06355        -0.022472      0.000000     -0.003027
      6.07612      6.05874      8.07623        -0.020610     -0.038951      0.020630
      4.09655      6.17066      1.96874         0.020116      0.054325     -0.020034
      8.03107      0.00000      4.04779        -0.039131      0.000000      0.027750
      2.01750      0.00000      6.12128        -0.027726      0.000000      0.039133
      1.96874      1.91640      4.09655        -0.020034     -0.054325      0.020116
      8.07623      2.02831      6.07612         0.020630      0.038951     -0.020610
      4.05593      0.00000      4.05593         0.009106      0.000000      0.009106
      6.06773      0.00000      6.06773        -0.005571      0.000000     -0.005571
      6.04608      2.04889      4.05871        -0.039945      0.051354      0.003102
      4.05871      2.04889      6.04608         0.003102      0.051354     -0.039945
      0.04377      4.04353      4.00169         0.022352      0.000000      0.003185
      2.06355      4.04353      6.02162        -0.003027      0.000000     -0.022472
      1.96874      6.17066      4.09655        -0.020034      0.054325      0.020116
      8.07623      6.05874      6.07612         0.020630     -0.038951     -0.020610
      6.05792      4.04353      6.05792         0.000947      0.000000      0.000947
      6.04608      6.03817      4.05871        -0.039945     -0.051354      0.003102
      4.05871      6.03817      6.04608         0.003102     -0.051354     -0.039945
 -----------------------------------------------------------------------------------
    total drift:                                0.000004      0.000000      0.000004


--------------------------------------------------------------------------------------------------------


    POTLOK:  cpu time    1.97: real time    1.85


--------------------------------------------------------------------------------------------------------


  FORCES: max atom, RMS     0.000024    0.000004
  FORCE total and by dimension    0.000024    0.000017

 ----------------------------------------------------------------------------- 
|                                                                             |
|           W    W    AA    RRRRR   N    N  II  N    N   GGGG   !!!           |
|           W    W   A  A   R    R  NN   N  II  NN   N  G    G  !!!           |
|           W    W  A    A  R    R  N N  N  II  N N  N  G       !!!           |
|           W WW W  AAAAAA  RRRRR   N  N N  II  N  N N  G  GGG   !            |
|           WW  WW  A    A  R   R   N   NN  II  N   NN  G    G                |
|           W    W  A    A  R    R  N    N  II  N    N   GGGG   !!!           |
|                                                                             |
|      Your timestep is larger than 0.1 Angst.                                |
|      For finite differences this really does not make sense. I will         |
|      reset POTIM to 0.015. I recommend to use 0.01 to 0.02 for finite       |
|      differences.                                                           |
|                                                                             |
 ----------------------------------------------------------------------------- 

 Finite differences:
   Step               POTIM =   1.500000000000000E-002
   Degrees of freedom DOF   =            3
  LATTYP: Found a simple cubic cell.
 ALAT       =     8.0870540000
  
  Lattice vectors:
  
 A1 = (   8.0870540000,   0.0000000000,   0.0000000000)
 A2 = (   0.0000000000,   8.0870540000,   0.0000000000)
 A3 = (   0.0000000000,   0.0000000000,   8.0870540000)
 Subroutine PRICEL returns:
 Original cell was already a primitive cell.
 

Analysis of symmetry for initial positions (statically):

 Routine SETGRP: Setting up the symmetry group for a 
 simple cubic supercell.


 Subroutine GETGRP returns: Found  2 space group operations
 (whereof  2 operations were pure point group operations)
 out of a pool of 48 trial point group operations.


The static configuration has the point symmetry C_1h.

Analysis of symmetry for dynamics (positions and initial velocities):

 Subroutine DYNSYM returns: Found  2 space group operations
 (whereof  2 operations were pure point group operations)
 out of a pool of  2 trial space group operations
 (whereof  2 operations were pure point group operations)
 and found also     1 'primitive' translations


The dynamic configuration has the point symmetry C_1h.

Analysis of constrained symmetry for selective dynamics:

 Subroutine DYNSYM returns: Found  2 space group operations
 (whereof  2 operations were pure point group operations)
 out of a pool of  2 trial space group operations
 (whereof  2 operations were pure point group operations)
 and found also     1 'primitive' translations


The constrained configuration has the point symmetry C_1h.
 
 KPOINTS: Automatic kpoint scheme                 

Automatic generation of k-mesh.
 
 Subroutine IBZKPT returns following result:
 ===========================================
 
 Found      2 irreducible k-points:
 
 Following reciprocal coordinates:
            Coordinates               Weight
  0.250000  0.250000  0.250000      4.000000
 -0.250000  0.250000  0.250000      4.000000
 
 Following cartesian coordinates:
            Coordinates               Weight
  0.030914  0.030914  0.030914      4.000000
 -0.030914  0.030914  0.030914      4.000000
 
    WAVPRE:  cpu time    0.72: real time    0.72
    FEWALD:  cpu time    0.01: real time    0.01
    ORTHCH:  cpu time    5.21: real time    1.32
     LOOP+:  cpu time  861.84: real time  315.27
   RESPFUN:  cpu time    0.01: real time    0.00


----------------------------------------- Iteration    2(   1)  ---------------------------------------


    POTLOK:  cpu time    1.87: real time    1.71
    SETDIJ:  cpu time    0.15: real time    0.15
    EDDIAG:  cpu time    4.64: real time    2.94
  RMM-DIIS:  cpu time   41.26: real time   12.12
    ORTHCH:  cpu time    0.33: real time    0.08
       DOS:  cpu time    0.01: real time    0.00
    CHARGE:  cpu time    1.72: real time    1.63
    MIXING:  cpu time    0.05: real time    0.05
    --------------------------------------------
      LOOP:  cpu time   50.03: real time   18.70

 eigenvalue-minimisations  :   248
 total energy-change (2. order) : 0.1140476E-03  (-0.2373140E-02)
 number of electron   92.9999998 magnetization 
 augmentation part    -1.1931371 magnetization 

 Broyden mixing:
  rms(total) = 0.33232E-02    rms(broyden)= 0.33224E-02
  rms(prec ) = 0.69640E-02
  weight for this iteration     100.00

 Free energy of the ion-electron system (eV)
  ---------------------------------------------------
  alpha Z        PSCENC =        -6.10292531
  Ewald energy   TEWEN  =     -2233.44181318
  -1/2 Hartree   DENC   =       -17.31468278
  -exchange  EXHF       =         0.00000000
  -V(xc)+E(xc)   XCENC  =      -811.44878807
  PAW double counting   =      1107.91675320     -117.77220585
  entropy T*S    EENTRO =        -0.07528322
  eigenvalues    EBANDS =       304.55683171
  atomic energy  EATOM  =      1659.66634407
  ---------------------------------------------------
  free energy    TOTEN  =      -114.01576943 eV

  energy without entropy =     -113.94048621  energy(sigma->0) =     -113.99067502


--------------------------------------------------------------------------------------------------------




----------------------------------------- Iteration    2(   2)  ---------------------------------------


    POTLOK:  cpu time    1.73: real time    1.73
    SETDIJ:  cpu time    0.15: real time    0.15
    EDDIAG:  cpu time    4.64: real time    2.95
  RMM-DIIS:  cpu time   42.97: real time   12.44
    ORTHCH:  cpu time    0.33: real time    0.08
       DOS:  cpu time    0.01: real time    0.00
    CHARGE:  cpu time    1.72: real time    1.63
    MIXING:  cpu time    0.05: real time    0.05
    --------------------------------------------
      LOOP:  cpu time   51.60: real time   19.03

 eigenvalue-minimisations  :   258
 total energy-change (2. order) : 0.3083518E-04  (-0.3692458E-04)
 number of electron   92.9999998 magnetization 
 augmentation part    -1.1931405 magnetization 

 Broyden mixing:
  rms(total) = 0.18404E-02    rms(broyden)= 0.18403E-02
  rms(prec ) = 0.31688E-02
  weight for this iteration     100.00

 eigenvalues of (default mixing * dielectric matrix)
  average eigenvalue GAMMA=   1.9409
  1.9409

 Free energy of the ion-electron system (eV)
  ---------------------------------------------------
[...]
  -------------------------------------------------------------------------------------
  Total      -1.48486     1.77393    -1.48544     0.00000     0.00000    -1.23606
  in kB      -4.49805     5.37374    -4.49982     0.00000     0.00000    -3.74438
  external pressure =       -1.21 kB  Pullay stress =        0.00 kB


 VOLUME and BASIS-vectors are now :
 -----------------------------------------------------------------------------
  energy-cutoff  :      300.00
  volume of cell :      528.90
      direct lattice vectors                 reciprocal lattice vectors
     8.087054000  0.000000000  0.000000000     0.123654423  0.000000000  0.000000000
     0.000000000  8.087054000  0.000000000     0.000000000  0.123654423  0.000000000
     0.000000000  0.000000000  8.087054000     0.000000000  0.000000000  0.123654423

  length of vectors
     8.087054000  8.087054000  8.087054000     0.123654423  0.123654423  0.123654423


 FORCES acting on ions
    electron-ion (+dipol)            ewald-force                    non-local-force                 convergence-correction
 -----------------------------------------------------------------------------------------------
   0.320E+00 0.103E-15 -.375E+00   -.251E+00 0.283E-14 0.352E+00   -.107E+00 0.000E+00 0.459E-01   0.542E-03 -.267E-03 -.238E-02
   -.121E+01 0.199E-12 -.120E+01   0.125E+01 -.322E-14 0.124E+01   -.404E-01 0.000E+00 -.377E-01   -.366E-04 0.162E-03 0.270E-03
   -.206E+00 0.774E-13 -.236E+00   0.309E+00 -.738E-14 0.338E+00   -.111E+00 0.000E+00 -.113E+00   0.102E-03 0.257E-03 -.114E-03
   -.122E+01 -.785E+01 -.521E+01   0.842E+00 0.789E+01 0.518E+01   0.372E+00 0.141E-01 0.752E-01   0.243E-03 0.323E-03 0.614E-03
   -.525E+01 -.787E+01 -.125E+01   0.522E+01 0.791E+01 0.883E+00   0.727E-01 0.126E-01 0.369E+00   0.150E-03 0.185E-03 -.158E-03
   0.118E+01 0.261E-13 -.610E+00   -.130E+01 -.205E-14 0.254E+00   0.150E+00 0.000E+00 0.315E+00   0.624E-04 0.205E-03 0.174E-03
   0.629E+00 -.591E-14 -.120E+01   -.273E+00 0.709E-13 0.132E+01   -.315E+00 0.000E+00 -.149E+00   -.142E-05 0.205E-03 -.176E-03
   0.589E+00 -.338E+01 -.577E+00   -.705E+00 0.344E+01 0.692E+00   0.945E-01 -.192E-01 -.946E-01   -.135E-03 0.129E-03 0.308E-03
   0.343E+01 -.561E+01 -.353E+01   -.335E+01 0.610E+01 0.344E+01   -.556E-01 -.557E+00 0.651E-01   -.404E-03 0.910E-03 -.280E-03
   -.631E+01 -.360E-13 -.629E+01   0.614E+01 0.185E-11 0.612E+01   0.169E+00 0.000E+00 0.165E+00   0.433E-04 -.164E-03 0.461E-03
   -.122E+01 0.785E+01 -.521E+01   0.842E+00 -.789E+01 0.518E+01   0.372E+00 -.141E-01 0.752E-01   0.199E-03 -.332E-03 0.563E-03
   -.525E+01 0.787E+01 -.125E+01   0.522E+01 -.791E+01 0.883E+00   0.727E-01 -.126E-01 0.369E+00   0.100E-03 -.194E-03 -.201E-03
   0.484E+01 -.237E-12 -.235E+01   -.508E+01 -.857E-12 0.224E+01   0.238E+00 0.000E+00 0.135E+00   -.247E-03 -.208E-03 0.123E-02
   0.245E+01 -.688E-13 -.493E+01   -.233E+01 -.867E-12 0.516E+01   -.135E+00 0.000E+00 -.233E+00   -.560E-03 -.208E-03 -.388E-03
   0.589E+00 0.338E+01 -.577E+00   -.705E+00 -.344E+01 0.692E+00   0.945E-01 0.192E-01 -.946E-01   -.909E-04 -.130E-03 0.263E-03
   0.343E+01 0.561E+01 -.353E+01   -.335E+01 -.610E+01 0.344E+01   -.556E-01 0.557E+00 0.651E-01   -.357E-03 -.876E-03 -.327E-03
   -.626E+00 -.283E-13 0.117E+01   0.281E+00 -.389E-14 -.129E+01   0.308E+00 0.000E+00 0.153E+00   0.822E-04 0.205E-03 -.248E-03
   -.119E+01 0.336E-13 0.646E+00   0.131E+01 -.205E-14 -.300E+00   -.152E+00 0.000E+00 -.307E+00   0.113E-03 0.205E-03 0.665E-04
   -.357E+01 -.587E+01 0.346E+01   0.345E+01 0.631E+01 -.336E+01   0.984E-01 -.475E+00 -.891E-01   -.173E-03 -.546E-03 -.503E-03
   -.614E+00 -.341E+01 0.626E+00   0.724E+00 0.346E+01 -.737E+00   -.903E-01 -.116E-01 0.901E-01   0.682E-05 -.202E-04 0.156E-03
   0.221E+00 -.955E-13 0.191E+00   -.321E+00 0.893E-12 -.293E+00   0.110E+00 0.000E+00 0.109E+00   0.147E-04 0.257E-03 -.225E-03
   0.123E+01 0.729E-13 0.123E+01   -.126E+01 -.687E-13 -.127E+01   0.321E-01 0.000E+00 0.348E-01   -.102E-03 0.162E-03 0.180E-03
   0.529E+01 -.790E+01 0.121E+01   -.526E+01 0.794E+01 -.837E+00   -.697E-01 0.118E-01 -.369E+00   -.557E-04 -.398E-04 -.303E-03
   0.124E+01 -.792E+01 0.533E+01   -.877E+00 0.796E+01 -.530E+01   -.366E+00 0.104E-01 -.672E-01   0.967E-04 -.137E-03 0.393E-03
   -.255E+01 0.202E-12 0.485E+01   0.243E+01 -.881E-12 -.509E+01   0.146E+00 0.000E+00 0.241E+00   -.317E-03 -.208E-03 -.508E-03
   -.494E+01 -.534E-14 0.265E+01   0.517E+01 -.879E-12 -.252E+01   -.235E+00 0.000E+00 -.146E+00   -.962E-04 -.208E-03 0.979E-03
   -.357E+01 0.587E+01 0.346E+01   0.345E+01 -.631E+01 -.336E+01   0.984E-01 0.475E+00 -.891E-01   -.220E-03 0.581E-03 -.456E-03
   -.614E+00 0.341E+01 0.626E+00   0.724E+00 -.346E+01 -.737E+00   -.903E-01 0.116E-01 0.901E-01   -.373E-04 0.194E-04 0.200E-03
   0.635E+01 -.757E-13 0.637E+01   -.618E+01 -.333E-15 -.620E+01   -.166E+00 0.000E+00 -.170E+00   -.932E-04 -.164E-03 0.331E-03
   0.529E+01 0.790E+01 0.121E+01   -.526E+01 -.794E+01 -.837E+00   -.697E-01 -.118E-01 -.369E+00   -.543E-05 0.307E-04 -.260E-03
   0.124E+01 0.792E+01 0.533E+01   -.877E+00 -.796E+01 -.530E+01   -.366E+00 -.104E-01 -.672E-01   0.140E-03 0.128E-03 0.443E-03
 -----------------------------------------------------------------------------------------------
   -.341E-02 -.364E-12 -.125E-02   -.666E-15 0.000E+00 0.373E-13   0.463E-02 0.104E-16 0.124E-02   -.104E-02 0.265E-03 0.106E-03
 
 
 POSITION                                       TOTAL-FORCE (eV/Angst)
 -----------------------------------------------------------------------------------
      3.03265      4.04353      3.01765        -0.038524      0.000000      0.020615
      8.08464      0.00000      8.08464         0.006426      0.000000      0.004915
      2.00935      0.00000      2.00935        -0.007693      0.000000     -0.011073
      2.00658      2.04890      0.01926        -0.004232      0.050746      0.041106
      0.01926      2.04890      2.00658         0.039984      0.052186     -0.002243
      4.04779      0.00000      8.03107         0.026754      0.000000     -0.040439
      6.12128      0.00000      2.01750         0.041274      0.000000     -0.025872
      6.07612      2.02831      8.07623        -0.021100      0.039928      0.020365
      4.09655      1.91640      1.96874         0.027711     -0.072485     -0.024997
      0.00742      4.04353      0.00742         0.000038      0.000000     -0.002469
      2.00658      6.03816      0.01926        -0.004232     -0.050746      0.041106
      0.01926      6.03816      2.00658         0.039984     -0.052186     -0.002243
      4.00169      4.04353      0.04377         0.004981      0.000000      0.022963
      6.02162      4.04353      2.06355        -0.021470      0.000000     -0.004072
      6.07612      6.05874      8.07623        -0.021100     -0.039928      0.020365
      4.09655      6.17066      1.96874         0.027711      0.072485     -0.024997
      8.03107      0.00000      4.04779        -0.036977      0.000000      0.029529
      2.01750      0.00000      6.12128        -0.028699      0.000000      0.037845
      1.96874      1.91640      4.09655        -0.012575     -0.036411      0.014959
      8.07623      2.02831      6.07612         0.020126      0.038042     -0.020837
      4.05593      0.00000      4.05593         0.010454      0.000000      0.006960
      6.06773      0.00000      6.06773        -0.004683      0.000000     -0.006172
      6.04608      2.04889      4.05871        -0.039820      0.050438      0.003812
      4.05871      2.04889      6.04608         0.001879      0.051954     -0.038638
      0.04377      4.04353      4.00169         0.023386      0.000000      0.002137
      2.06355      4.04353      6.02162        -0.001338      0.000000     -0.021552
      1.96874      6.17066      4.09655        -0.012575      0.036411      0.014959
      8.07623      6.05874      6.07612         0.020126     -0.038042     -0.020837
      6.05792      4.04353      6.05792         0.002124      0.000000     -0.000371
      6.04608      6.03817      4.05871        -0.039820     -0.050438      0.003812
      4.05871      6.03817      6.04608         0.001879     -0.051954     -0.038638
 -----------------------------------------------------------------------------------
    total drift:                                0.000190      0.000265      0.000090
 d Force =-0.3525257E-05[-0.618E-03, 0.611E-03]  d Energy = 0.1043589E-05-0.457E-05
 d Force =-0.4762533E-04[-0.106E-01, 0.105E-01]  d Ewald  =-0.4762306E-04-0.228E-08


--------------------------------------------------------------------------------------------------------


    POTLOK:  cpu time    1.99: real time    1.86


--------------------------------------------------------------------------------------------------------


  FORCES: max atom, RMS     0.043693    0.007848
  FORCE total and by dimension    0.043693    0.038524
 Finite differences progress:
  Degree of freedom:   3/  3
  Displacement:        2/  2
  Total:               6/  6
 
 SECOND DERIVATIVES (NOT SYMMETRIZED)
 ------------------------------------
               1X          1Y          1Z 
  1X    -1.361024    0.000000    2.558041
  1Y    -0.000536   -9.459405   -0.000536
  1Z     2.556704    0.000000   -1.366525
 
 
 Eigenvectors and eigenvalues of the dynamical matrix
 ----------------------------------------------------
 
 
   1 f  =    9.256474 THz    58.160139 2PiTHz  308.762716 cm-1    38.281712 meV
             X         Y         Z           dx          dy          dz
      3.032645  4.043527  3.032645    -0.000025   -1.000000   -0.000025  
      8.084644  0.000000  8.084644            0           0           0  
      2.009350  0.000000  2.009350            0           0           0  
      2.006576  2.048896  0.019255            0           0           0  
      0.019255  2.048896  2.006576            0           0           0  
      4.047789  0.000000  8.031067            0           0           0  
      6.121277  0.000000  2.017502            0           0           0  
      6.076119  2.028314  8.076225            0           0           0  
      4.096546  1.916397  1.968745            0           0           0  
      0.007424  4.043527  0.007424            0           0           0  
      2.006576  6.038158  0.019255            0           0           0  
      0.019255  6.038158  2.006576            0           0           0  
      4.001693  4.043527  0.043767            0           0           0  
      6.021620  4.043527  2.063549            0           0           0  
      6.076119  6.058740  8.076225            0           0           0  
      4.096546  6.170657  1.968745            0           0           0  
      8.031067  0.000000  4.047789            0           0           0  
      2.017502  0.000000  6.121277            0           0           0  
      1.968745  1.916397  4.096546            0           0           0  
      8.076225  2.028314  6.076119            0           0           0  
      4.055933  0.000000  4.055933            0           0           0  
      6.067733  0.000000  6.067733            0           0           0  
      6.046076  2.048887  4.058706            0           0           0  
      4.058706  2.048887  6.046076            0           0           0  
      0.043767  4.043527  4.001693            0           0           0  
      2.063549  4.043527  6.021620            0           0           0  
      1.968745  6.170657  4.096546            0           0           0  
      8.076225  6.058740  6.076119            0           0           0  
      6.057915  4.043527  6.057915            0           0           0  
      6.046076  6.038167  4.058706            0           0           0  
      4.058706  6.038167  6.046076            0           0           0  
 
   2 f  =    5.959643 THz    37.445544 2PiTHz  198.792302 cm-1    24.647113 meV
             X         Y         Z           dx          dy          dz
      3.032645  4.043527  3.032645    -0.706726    0.000000    0.707487  
      8.084644  0.000000  8.084644            0           0           0  
      2.009350  0.000000  2.009350            0           0           0  
      2.006576  2.048896  0.019255            0           0           0  
      0.019255  2.048896  2.006576            0           0           0  
      4.047789  0.000000  8.031067            0           0           0  
      6.121277  0.000000  2.017502            0           0           0  
      6.076119  2.028314  8.076225            0           0           0  
      4.096546  1.916397  1.968745            0           0           0  
      0.007424  4.043527  0.007424            0           0           0  
      2.006576  6.038158  0.019255            0           0           0  
      0.019255  6.038158  2.006576            0           0           0  
      4.001693  4.043527  0.043767            0           0           0  
      6.021620  4.043527  2.063549            0           0           0  
      6.076119  6.058740  8.076225            0           0           0  
      4.096546  6.170657  1.968745            0           0           0  
      8.031067  0.000000  4.047789            0           0           0  
      2.017502  0.000000  6.121277            0           0           0  
      1.968745  1.916397  4.096546            0           0           0  
      8.076225  2.028314  6.076119            0           0           0  
      4.055933  0.000000  4.055933            0           0           0  
      6.067733  0.000000  6.067733            0           0           0  
      6.046076  2.048887  4.058706            0           0           0  
      4.058706  2.048887  6.046076            0           0           0  
      0.043767  4.043527  4.001693            0           0           0  
      2.063549  4.043527  6.021620            0           0           0  
      1.968745  6.170657  4.096546            0           0           0  
      8.076225  6.058740  6.076119            0           0           0  
      6.057915  4.043527  6.057915            0           0           0  
      6.046076  6.038167  4.058706            0           0           0  
      4.058706  6.038167  6.046076            0           0           0  
 
   3 f/i=    3.288085 THz    20.659649 2PiTHz  109.678715 cm-1    13.598432 meV
             X         Y         Z           dx          dy          dz
      3.032645  4.043527  3.032645    -0.707487    0.000036   -0.706726  
      8.084644  0.000000  8.084644            0           0           0  
      2.009350  0.000000  2.009350            0           0           0  
      2.006576  2.048896  0.019255            0           0           0  
      0.019255  2.048896  2.006576            0           0           0  
      4.047789  0.000000  8.031067            0           0           0  
      6.121277  0.000000  2.017502            0           0           0  
      6.076119  2.028314  8.076225            0           0           0  
      4.096546  1.916397  1.968745            0           0           0  
      0.007424  4.043527  0.007424            0           0           0  
      2.006576  6.038158  0.019255            0           0           0  
      0.019255  6.038158  2.006576            0           0           0  
      4.001693  4.043527  0.043767            0           0           0  
      6.021620  4.043527  2.063549            0           0           0  
      6.076119  6.058740  8.076225            0           0           0  
      4.096546  6.170657  1.968745            0           0           0  
      8.031067  0.000000  4.047789            0           0           0  
      2.017502  0.000000  6.121277            0           0           0  
      1.968745  1.916397  4.096546            0           0           0  
      8.076225  2.028314  6.076119            0           0           0  
      4.055933  0.000000  4.055933            0           0           0  
      6.067733  0.000000  6.067733            0           0           0  
      6.046076  2.048887  4.058706            0           0           0  
      4.058706  2.048887  6.046076            0           0           0  
      0.043767  4.043527  4.001693            0           0           0  
      2.063549  4.043527  6.021620            0           0           0  
      1.968745  6.170657  4.096546            0           0           0  
      8.076225  6.058740  6.076119            0           0           0  
      6.057915  4.043527  6.057915            0           0           0  
      6.046076  6.038167  4.058706            0           0           0  
      4.058706  6.038167  6.046076            0           0           0  
 
 Finite differences POTIM=  1.500000000000000E-002
  LATTYP: Found a simple cubic cell.
 ALAT       =     8.0870540000
  
  Lattice vectors:
  
 A1 = (   8.0870540000,   0.0000000000,   0.0000000000)
 A2 = (   0.0000000000,   8.0870540000,   0.0000000000)
 A3 = (   0.0000000000,   0.0000000000,   8.0870540000)
 Subroutine PRICEL returns:
 Original cell was already a primitive cell.
 

Analysis of symmetry for initial positions (statically):

 Routine SETGRP: Setting up the symmetry group for a 
 simple cubic supercell.


 Subroutine GETGRP returns: Found  4 space group operations
 (whereof  4 operations were pure point group operations)
 out of a pool of 48 trial point group operations.


The static configuration has the point symmetry C_2v.

Analysis of symmetry for dynamics (positions and initial velocities):

 Subroutine DYNSYM returns: Found  4 space group operations
 (whereof  4 operations were pure point group operations)
 out of a pool of  4 trial space group operations
 (whereof  4 operations were pure point group operations)
 and found also     1 'primitive' translations


The dynamic configuration has the point symmetry C_2v.

Analysis of constrained symmetry for selective dynamics:

 Subroutine DYNSYM returns: Found  4 space group operations
 (whereof  4 operations were pure point group operations)
 out of a pool of  4 trial space group operations
 (whereof  4 operations were pure point group operations)
 and found also     1 'primitive' translations


The constrained configuration has the point symmetry C_2v.
 
 KPOINTS: Automatic kpoint scheme                 

Automatic generation of k-mesh.
 
 Subroutine IBZKPT returns following result:
 ===========================================
 
 Found      2 irreducible k-points:
 
 Following reciprocal coordinates:
            Coordinates               Weight
  0.250000  0.250000  0.250000      4.000000
 -0.250000  0.250000  0.250000      4.000000
 
 Following cartesian coordinates:
            Coordinates               Weight
  0.030914  0.030914  0.030914      4.000000
 -0.030914  0.030914  0.030914      4.000000
 
     LOOP+:  cpu time  292.10: real time  113.06
    4ORBIT:  cpu time    0.00: real time    0.00

 total amount of memory used by VASP on root node 125108. kBytes
========================================================================

   base      :    30000. kBytes
   nonl-proj :     3892. kBytes
   fftplans  :    30736. kBytes
   grid      :    47517. kBytes
   one-center:       95. kBytes
   wavefun   :    12868. kBytes
 
  
  
 General timing and accounting informations for this job:
 ========================================================
  
                  Total CPU time used (sec):     3051.038
                            User time (sec):     3025.420
                          System time (sec):       25.618
                         Elapsed time (sec):     1151.496
  
                   Maximum memory used (kb):           0.
                   Average memory used (kb):           0.
  
                          Minor page faults:       617178
                          Major page faults:           30
                 Voluntary context switches:        17374
