    3    3  191    1
  0.1535906E+02  0.3585051E-09  0.3585051E-09  0.3585051E-09  0.5000000E-15
  1.000000000000000E-004
  CAR 
 unknown system                          
   24    1   16
 
  0.0000000E+00  0.0000000E+00  0.0000000E+00  0.1000000E+01
   1       -3.647319
   2        0.069572
   3        1.458249
   4        1.458249
   5        1.458249
   6        1.751855
   7        1.751856
   8        4.504120
   9        4.504120
  10        4.504121
  11        4.867510
  12        4.867511
  13        5.584686
  14        5.584687
  15        5.584687
  16        5.674745
