       N       E                     dE             d eps       ncg     rms          rms(c)
DAV:   1     0.126209839903E+03    0.12621E+03   -0.75970E+03    32   0.122E+03
DAV:   2    -0.130738341799E+02   -0.13928E+03   -0.13378E+03    32   0.304E+02
DAV:   3    -0.244449637390E+02   -0.11371E+02   -0.11309E+02    56   0.781E+01
DAV:   4    -0.246415935568E+02   -0.19663E+00   -0.19660E+00    40   0.123E+01
DAV:   5    -0.246444500803E+02   -0.28565E-02   -0.28565E-02    48   0.122E+00    0.730E+00
DAV:   6    -0.238282434969E+02    0.81621E+00   -0.28914E+00    32   0.263E+01    0.367E+00
DAV:   7    -0.239075857866E+02   -0.79342E-01   -0.46438E-02    32   0.357E+00    0.194E+00
DAV:   8    -0.239538886355E+02   -0.46303E-01   -0.21209E-02    40   0.197E+00    0.906E-02
DAV:   9    -0.239540107397E+02   -0.12210E-03   -0.11590E-03    24   0.464E-01    0.427E-02
DAV:  10    -0.239540888136E+02   -0.78074E-04   -0.15533E-04    16   0.184E-01
   1 F= -.23954089E+02 E0= -.23962828E+02  d E =-.239541E+02
