<?xml version="1.0" encoding="ISO-8859-1"?>
<modeling>
 <generator>
  <i name="program" type="string">vasp </i>
  <i name="version" type="string">5.2.2  </i>
  <i name="subversion" type="string">15Apr09 complex  parallel </i>
  <i name="platform" type="string">LinuxIFC </i>
  <i name="date" type="string">2016 12 16 </i>
  <i name="time" type="string">16:00:00 </i>
 </generator>
 <incar>
  <i type="string" name="PREC">accurate</i>
  <i type="int" name="IALGO">    48</i>
  <i type="int" name="IBRION">     2</i>
  <i name="EDIFFG">      0.05000000</i>
  <i type="int" name="NSW">   191</i>
  <i type="int" name="ISIF">     2</i>
  <i name="ENCUT">    300.00000000</i>
  <i name="NELECT">     98.00000000</i>
  <i type="int" name="ISMEAR">     1</i>
  <i name="SIGMA">      0.20000000</i>
  <i type="logical" name="LWAVE"> F  </i>
  <i type="logical" name="LCHARG"> F  </i>
  <i type="logical" name="LPEAD"> F  </i>
  <i type="logical" name="LCALCPOL"> F  </i>
  <i type="logical" name="LCALCEPS"> F  </i>
  <v name="EFIELD_PEAD">      0.00000000      0.00000000      0.00000000</v>
  <i type="logical" name="LEFG"> F  </i>
 </incar>
 <kpoints>
  <generation param="Gamma">
   <v type="int" name="divisions">       1        1        1 </v>
   <v name="usershift">      0.00000000       0.00000000       0.00000000 </v>
   <v name="genvec1">      1.00000000       0.00000000       0.00000000 </v>
   <v name="genvec2">      0.00000000       1.00000000       0.00000000 </v>
   <v name="genvec3">      0.00000000       0.00000000       1.00000000 </v>
   <v name="shift">      0.00000000       0.00000000       0.00000000 </v>
  </generation>
  <varray name="kpointlist" >
   <v>       0.00000000       0.00000000       0.00000000 </v>
  </varray>
  <varray name="weights" >
   <v>       1.00000000 </v>
  </varray>
 </kpoints>
 <parameters>
  <separator name="general" >
   <i type="string" name="SYSTEM">unknown system</i>
   <i type="logical" name="LCOMPAT"> F  </i>
  </separator>
  <separator name="electronic" >
   <i type="string" name="PREC">accura</i>
   <i name="ENMAX">    300.00000000</i>
   <i name="ENAUG">    291.05200000</i>
   <i name="EDIFF">      0.00010000</i>
   <i type="int" name="IALGO">    48</i>
   <i type="int" name="IWAVPR">    11</i>
   <i type="int" name="NBANDS">    96</i>
   <i name="NELECT">     98.00000000</i>
   <separator name="electronic smearing" >
    <i type="int" name="ISMEAR">     1</i>
    <i name="SIGMA">      0.20000000</i>
   </separator>
   <separator name="electronic projectors" >
    <i type="logical" name="LREAL"> F  </i>
    <v name="ROPT">      0.00000000      0.00000000</v>
    <i type="int" name="LMAXPAW">  -100</i>
    <i type="int" name="LMAXMIX">     2</i>
   </separator>
   <separator name="electronic startup" >
    <i type="int" name="ISTART">     0</i>
    <i type="int" name="ICHARG">     2</i>
    <i type="int" name="INIWAV">     1</i>
   </separator>
   <separator name="electronic spin" >
    <i type="int" name="ISPIN">     1</i>
    <i type="logical" name="LNONCOLLINEAR"> F  </i>
    <v name="MAGMOM">      1.00000000      1.00000000      1.00000000      1.00000000      1.00000000      1.00000000      1.00000000      1.00000000      1.00000000      1.00000000      1.00000000      1.00000000      1.00000000      1.00000000      1.00000000      1.00000000      1.00000000      1.00000000      1.00000000      1.00000000
      1.00000000      1.00000000      1.00000000      1.00000000      1.00000000      1.00000000      1.00000000      1.00000000      1.00000000      1.00000000      1.00000000      1.00000000      1.00000000</v>
    <i name="NUPDOWN">     -1.00000000</i>
    <i type="logical" name="LSORBIT"> F  </i>
    <v name="SAXIS">      0.00000000      0.00000000      1.00000000</v>
    <i type="logical" name="LSPIRAL"> F  </i>
    <v name="QSPIRAL">      0.00000000      0.00000000      0.00000000</v>
    <i type="logical" name="LZEROZ"> F  </i>
   </separator>
   <separator name="electronic exchange-correlation" >
    <i type="logical" name="LASPH"> F  </i>
    <i type="logical" name="LMETAGGA"> F  </i>
   </separator>
   <separator name="electronic convergence" >
    <i type="int" name="NELM">    60</i>
    <i type="int" name="NELMDL">   -12</i>
    <i type="int" name="NELMIN">     2</i>
    <i name="ENINI">    300.00000000</i>
    <separator name="electronic convergence detail" >
     <i type="logical" name="LDIAG"> T  </i>
     <i name="WEIMIN">      0.00100000</i>
     <i name="EBREAK">      0.00000038</i>
     <i name="DEPER">      0.30000000</i>
     <i type="int" name="NRMM">     4</i>
     <i name="TIME">      0.40000000</i>
    </separator>
   </separator>
   <separator name="electronic mixer" >
    <i name="AMIX">      0.40000000</i>
    <i name="BMIX">      1.00000000</i>
    <i name="AMIN">      0.10000000</i>
    <i name="AMIX_MAG">      1.60000000</i>
    <i name="BMIX_MAG">      1.00000000</i>
    <separator name="electronic mixer details" >
     <i type="int" name="IMIX">     4</i>
     <i type="int" name="MAXMIX">   -45</i>
     <i name="WC">    100.00000000</i>
     <i type="int" name="INIMIX">     1</i>
     <i type="int" name="MIXPRE">     1</i>
     <i type="int" name="MREMOVE">     5</i>
    </separator>
   </separator>
   <separator name="electronic dipolcorrection" >
    <i type="logical" name="LDIPOL"> F  </i>
    <i type="logical" name="LMONO"> F  </i>
    <i type="int" name="IDIPOL">     0</i>
    <i name="EPSILON">      1.00000000</i>
    <v name="DIPOL">   -100.00000000   -100.00000000   -100.00000000</v>
    <i name="EFIELD">      0.00000000</i>
   </separator>
  </separator>
  <separator name="grids" >
   <i type="int" name="NGX">    48</i>
   <i type="int" name="NGY">    48</i>
   <i type="int" name="NGZ">    48</i>
   <i type="int" name="NGXF">    96</i>
   <i type="int" name="NGYF">    96</i>
   <i type="int" name="NGZF">    96</i>
   <i type="logical" name="ADDGRID"> F  </i>
  </separator>
  <separator name="ionic" >
   <i type="int" name="NSW">   191</i>
   <i type="int" name="IBRION">     2</i>
   <i type="int" name="ISIF">     2</i>
   <i name="PSTRESS">      0.00000000</i>
   <i name="EDIFFG">      0.05000000</i>
   <i type="int" name="NFREE">     1</i>
   <i name="POTIM">      0.50000000</i>
   <i name="SMASS">     -3.00000000</i>
  </separator>
  <separator name="ionic md" >
   <i name="TEBEG">      0.00010000</i>
   <i name="TEEND">      0.00010000</i>
   <i type="int" name="NBLOCK">     1</i>
   <i type="int" name="KBLOCK">   191</i>
   <i type="int" name="NPACO">   256</i>
   <i name="APACO">     16.00000000</i>
  </separator>
  <separator name="symmetry" >
   <i type="int" name="ISYM">     2</i>
   <i name="SYMPREC">      0.00001000</i>
  </separator>
  <separator name="dos" >
   <i type="logical" name="LORBIT"> F  </i>
   <v name="RWIGS">     -1.00000000     -1.00000000</v>
   <i type="int" name="NEDOS">   301</i>
   <i name="EMIN">     10.00000000</i>
   <i name="EMAX">    -10.00000000</i>
   <i name="EFERMI">      0.00000000</i>
  </separator>
  <separator name="writing" >
   <i type="int" name="NWRITE">     2</i>
   <i type="logical" name="LWAVE"> F  </i>
   <i type="logical" name="LCHARG"> F  </i>
   <i type="logical" name="LPARD"> F  </i>
   <i type="logical" name="LVTOT"> F  </i>
   <i type="logical" name="LELF"> F  </i>
   <i type="logical" name="LOPTICS"> F  </i>
   <v name="STM">      0.00000000      0.00000000      0.00000000      0.00000000      0.00000000</v>
  </separator>
  <separator name="performance" >
   <i type="int" name="NPAR">    32</i>
   <i type="int" name="NSIM">     4</i>
   <i type="int" name="NBLK">    32</i>
   <i type="logical" name="LPLANE"> T  </i>
   <i type="logical" name="LSCALAPACK"> F  </i>
   <i type="logical" name="LSCAAWARE"> F  </i>
   <i type="logical" name="LSCALU"> F  </i>
   <i type="logical" name="LASYNC"> F  </i>
  </separator>
  <separator name="miscellaneous" >
   <i type="int" name="IDIOT">     3</i>
   <i type="logical" name="LMUSIC"> F  </i>
   <v name="POMASS">     26.98200000     24.30500000</v>
   <i type="logical" name="LCORR"> T  </i>
  </separator>
  <i type="logical" name="LREAL_COMPAT"> F  </i>
  <i type="logical" name="GGA_COMPAT"> T  </i>
  <i type="logical" name="LBERRY"> F  </i>
  <i type="int" name="ICORELEVEL">     0</i>
  <i type="logical" name="LDAU"> F  </i>
  <i type="int" name="I_CONSTRAINED_M">     0</i>
  <separator name="electronic exchange-correlation" >
   <i type="string" name="GGA">--</i>
   <i type="int" name="VOSKOWN">     0</i>
   <i type="logical" name="LHFCALC"> F  </i>
   <i type="logical" name="LHFONE"> F  </i>
   <i type="logical" name="LRHFCALC"> F  </i>
   <i type="logical" name="LTHOMAS"> F  </i>
   <i type="logical" name="LMODELHF"> F  </i>
   <i name="ENCUTFOCK">      0.00000000</i>
   <i name="ENCUT4O">     -1.00000000</i>
   <i type="int" name="EXXOEP">     0</i>
   <i type="int" name="FOURORBIT">     0</i>
   <i name="AEXX">      0.00000000</i>
   <i name="HFALPHA">      0.00000000</i>
   <i name="ALDAX">      1.00000000</i>
   <i name="AGGAX">      1.00000000</i>
   <i name="ALDAC">      1.00000000</i>
   <i name="AGGAC">      1.00000000</i>
   <i type="int" name="NKREDX">     1</i>
   <i type="int" name="NKREDY">     1</i>
   <i type="int" name="NKREDZ">     1</i>
   <i type="logical" name="SHIFTRED"> F  </i>
   <i type="logical" name="ODDONLY"> F  </i>
   <i type="logical" name="EVENONLY"> F  </i>
   <i type="int" name="LMAXFOCK">     0</i>
   <i type="int" name="NMAXFOCKAE">     0</i>
   <i name="HFSCREEN">      0.00000000</i>
   <i name="HFSCREENC">      0.00000000</i>
  </separator>
  <separator name="model GW" >
   <i type="int" name="MODEL_GW">     0</i>
   <i name="MODEL_EPS0">      9.61625750</i>
   <i name="MODEL_ALPHA">      1.00000000</i>
  </separator>
  <separator name="linear response parameters" >
   <i type="logical" name="LEPSILON"> F  </i>
   <i type="logical" name="LRPA"> F  </i>
   <i type="logical" name="LNABLA"> F  </i>
   <i type="logical" name="LVEL"> F  </i>
   <i type="int" name="KINTER">     0</i>
   <i name="CSHIFT">      0.10000000</i>
   <i name="OMEGAMAX">     -1.00000000</i>
  </separator>
  <separator name="orbital magnetization" >
   <i type="logical" name="ORBITALMAG"> F  </i>
   <i type="logical" name="LMAGBLOCH"> F  </i>
   <i type="logical" name="LCHIMAG"> F  </i>
   <i type="logical" name="LGAUGE"> T  </i>
   <i type="int" name="MAGATOM">     0</i>
   <v name="MAGDIPOL">      0.00000000      0.00000000      0.00000000</v>
   <v name="AVECCONST">      0.00000000      0.00000000      0.00000000</v>
  </separator>
  <separator name="response functions" >
   <i type="logical" name="LRPA"> T  </i>
   <i type="logical" name="LTCTE"> F  </i>
   <i type="logical" name="LTETE"> F  </i>
   <i type="logical" name="L2ORDER"> F  </i>
   <i type="logical" name="LGWLF"> F  </i>
   <i name="ENCUTGW">    200.00000000</i>
   <i name="ENCUTGWSOFT">     -2.00000000</i>
   <i name="ENCUTLF">     -1.00000000</i>
   <i type="int" name="LMAXMP2">    -1</i>
   <i name="SCISSOR">      0.00000000</i>
   <i type="int" name="NOMEGA">     0</i>
   <i type="int" name="NOMEGAR">     0</i>
   <i type="int" name="NBANDSGW">    -1</i>
   <i type="int" name="NBANDSLF">    -1</i>
   <i type="int" name="NELM">     1</i>
   <i type="int" name="DIM">     3</i>
   <i type="int" name="ANTIRES">     0</i>
   <i type="logical" name="LUSEW"> F  </i>
   <i name="OMEGAMAX">    -30.00000000</i>
   <i name="OMEGATL">   -200.00000000</i>
   <i type="int" name="OMEGAGRID">     0</i>
   <i name="CSHIFT">     -0.10000000</i>
   <i type="logical" name="SELFENERGY"> F  </i>
   <i type="logical" name="LSPECTRAL"> F  </i>
   <i type="logical" name="ODDONLYGW"> F  </i>
   <i type="logical" name="EVENONLYGW"> F  </i>
   <i type="int" name="NKREDLFX">     1</i>
   <i type="int" name="NKREDLFY">     1</i>
   <i type="int" name="NKREDLFZ">     1</i>
   <i type="int" name="MAXMEM">  1024</i>
   <i type="int" name="TELESCOPE">     0</i>
  </separator>
 </parameters>
 <atominfo>
  <atoms>      33 </atoms>
  <types>       2 </types>
  <array name="atoms" >
   <dimension dim="1">ion</dimension>
   <field type="string">element</field>
   <field type="int">atomtype</field>
   <set>
    <rc><c>Al</c><c>   1</c></rc>
    <rc><c>Al</c><c>   1</c></rc>
    <rc><c>Al</c><c>   1</c></rc>
    <rc><c>Al</c><c>   1</c></rc>
    <rc><c>Al</c><c>   1</c></rc>
    <rc><c>Al</c><c>   1</c></rc>
    <rc><c>Al</c><c>   1</c></rc>
    <rc><c>Al</c><c>   1</c></rc>
    <rc><c>Al</c><c>   1</c></rc>
    <rc><c>Al</c><c>   1</c></rc>
    <rc><c>Al</c><c>   1</c></rc>
    <rc><c>Al</c><c>   1</c></rc>
    <rc><c>Al</c><c>   1</c></rc>
    <rc><c>Al</c><c>   1</c></rc>
    <rc><c>Al</c><c>   1</c></rc>
    <rc><c>Al</c><c>   1</c></rc>
    <rc><c>Al</c><c>   1</c></rc>
    <rc><c>Al</c><c>   1</c></rc>
    <rc><c>Al</c><c>   1</c></rc>
    <rc><c>Al</c><c>   1</c></rc>
    <rc><c>Al</c><c>   1</c></rc>
    <rc><c>Al</c><c>   1</c></rc>
    <rc><c>Al</c><c>   1</c></rc>
    <rc><c>Al</c><c>   1</c></rc>
    <rc><c>Al</c><c>   1</c></rc>
    <rc><c>Al</c><c>   1</c></rc>
    <rc><c>Al</c><c>   1</c></rc>
    <rc><c>Al</c><c>   1</c></rc>
    <rc><c>Al</c><c>   1</c></rc>
    <rc><c>Al</c><c>   1</c></rc>
    <rc><c>Al</c><c>   1</c></rc>
    <rc><c>Al</c><c>   1</c></rc>
    <rc><c>Mg</c><c>   2</c></rc>
   </set>
  </array>
  <array name="atomtypes" >
   <dimension dim="1">type</dimension>
   <field type="int">atomspertype</field>
   <field type="string">element</field>
   <field>mass</field>
   <field>valence</field>
   <field type="string">pseudopotential</field>
   <set>
    <rc><c>  32</c><c>Al</c><c>     26.98200000</c><c>      3.00000000</c><c> PAW_PBE Al 04Jan2001                   </c></rc>
    <rc><c>   1</c><c>Mg</c><c>     24.30500000</c><c>      2.00000000</c><c> PAW_PBE Mg 05Jan2001                   </c></rc>
   </set>
  </array>
 </atominfo>
 <structure name="initialpos" >
  <crystal>
   <varray name="basis" >
    <v>       8.08704000       0.00000000       0.00000000 </v>
    <v>       0.00000000       8.08704000       0.00000000 </v>
    <v>       0.00000000       0.00000000       8.08704000 </v>
   </varray>
   <i name="volume">    528.89416249 </i>
   <varray name="rec_basis" >
    <v>       0.12365464       0.00000000       0.00000000 </v>
    <v>       0.00000000       0.12365464       0.00000000 </v>
    <v>       0.00000000       0.00000000       0.12365464 </v>
   </varray>
  </crystal>
  <varray name="positions" >
   <v>       0.00000000       0.00000000       0.00000000 </v>
   <v>       0.25000000       0.00000000       0.25000000 </v>
   <v>       0.25000000       0.25000000       0.00000000 </v>
   <v>       0.00000000       0.25000000       0.25000000 </v>
   <v>       0.50000000       0.00000000       0.00000000 </v>
   <v>       0.75000000       0.00000000       0.25000000 </v>
   <v>       0.75000000       0.25000000       0.00000000 </v>
   <v>       0.50000000       0.25000000       0.25000000 </v>
   <v>       0.00000000       0.50000000       0.00000000 </v>
   <v>       0.25000000       0.50000000       0.25000000 </v>
   <v>       0.25000000       0.75000000       0.00000000 </v>
   <v>       0.00000000       0.75000000       0.25000000 </v>
   <v>       0.50000000       0.50000000       0.00000000 </v>
   <v>       0.75000000       0.50000000       0.25000000 </v>
   <v>       0.75000000       0.75000000       0.00000000 </v>
   <v>       0.50000000       0.75000000       0.25000000 </v>
   <v>       0.00000000       0.00000000       0.50000000 </v>
   <v>       0.25000000       0.00000000       0.75000000 </v>
   <v>       0.25000000       0.25000000       0.50000000 </v>
   <v>       0.00000000       0.25000000       0.75000000 </v>
   <v>       0.50000000       0.00000000       0.50000000 </v>
   <v>       0.75000000       0.00000000       0.75000000 </v>
   <v>       0.75000000       0.25000000       0.50000000 </v>
   <v>       0.50000000       0.25000000       0.75000000 </v>
   <v>       0.00000000       0.50000000       0.50000000 </v>
   <v>       0.25000000       0.50000000       0.75000000 </v>
   <v>       0.25000000       0.75000000       0.50000000 </v>
   <v>       0.00000000       0.75000000       0.75000000 </v>
   <v>       0.50000000       0.50000000       0.50000000 </v>
   <v>       0.75000000       0.50000000       0.75000000 </v>
   <v>       0.75000000       0.75000000       0.50000000 </v>
   <v>       0.50000000       0.75000000       0.75000000 </v>
   <v>       0.66000000       0.66000000       0.66000000 </v>
  </varray>
 </structure>
 <calculation>
  <scstep>
   <time name="diag">    0.09    0.09</time>
   <time name="diis">    0.18    0.18</time>
   <time name="orth">    0.01    0.01</time>
   <time name="total">    0.38    0.40</time>
   <energy>
    <i name="alphaZ">     -8.27958290 </i>
    <i name="ewald">  -2377.70297664 </i>
    <i name="hartreedc">     -9.50484566 </i>
    <i name="XCdc">   -846.35375069 </i>
    <i name="pawpsdc">   1149.32568210 </i>
    <i name="pawaedc">   -115.70169129 </i>
    <i name="eentropy">      0.04913771 </i>
    <i name="bandstr">    659.05223584 </i>
    <i name="atom">   1736.20668909 </i>
    <i name="e_fr_energy">    187.09089755 </i>
    <i name="e_wo_entrp">    187.04175984 </i>
    <i name="e_0_energy">    187.07451832 </i>
   </energy>
  </scstep>
  <scstep>
   <time name="diag">    0.09    0.09</time>
   <time name="diis">    0.17    0.18</time>
   <time name="orth">    0.01    0.01</time>
   <time name="total">    0.27    0.28</time>
   <energy>
    <i name="e_fr_energy">    -31.37971210 </i>
    <i name="e_wo_entrp">    -31.37564838 </i>
    <i name="e_0_energy">    -31.37835753 </i>
   </energy>
  </scstep>
  <scstep>
   <time name="diag">    0.09    0.09</time>
   <time name="diis">    0.17    0.17</time>
   <time name="orth">    0.01    0.01</time>
   <time name="total">    0.27    0.28</time>
   <energy>
    <i name="e_fr_energy">    -69.04558775 </i>
    <i name="e_wo_entrp">    -69.03727215 </i>
    <i name="e_0_energy">    -69.04281588 </i>
   </energy>
  </scstep>
  <scstep>
   <time name="diag">    0.09    0.09</time>
   <time name="diis">    0.17    0.17</time>
   <time name="orth">    0.01    0.01</time>
   <time name="total">    0.27    0.29</time>
   <energy>
    <i name="e_fr_energy">    -82.31286802 </i>
    <i name="e_wo_entrp">    -82.27494913 </i>
    <i name="e_0_energy">    -82.30022839 </i>
   </energy>
  </scstep>
  <scstep>
   <time name="diag">    0.09    0.09</time>
   <time name="diis">    0.17    0.17</time>
   <time name="orth">    0.01    0.01</time>
   <time name="total">    0.27    0.28</time>
   <energy>
    <i name="e_fr_energy">    -85.59499616 </i>
    <i name="e_wo_entrp">    -85.50521225 </i>
    <i name="e_0_energy">    -85.56506819 </i>
   </energy>
  </scstep>
  <scstep>
   <time name="diag">    0.09    0.09</time>
   <time name="diis">    0.17    0.17</time>
   <time name="orth">    0.01    0.01</time>
   <time name="total">    0.27    0.28</time>
   <energy>
    <i name="e_fr_energy">    -86.25647481 </i>
    <i name="e_wo_entrp">    -86.16330948 </i>
    <i name="e_0_energy">    -86.22541970 </i>
   </energy>
  </scstep>
  <scstep>
   <time name="diag">    0.09    0.09</time>
   <time name="diis">    0.17    0.17</time>
   <time name="orth">    0.01    0.01</time>
   <time name="total">    0.27    0.28</time>
   <energy>
    <i name="e_fr_energy">    -86.36747082 </i>
    <i name="e_wo_entrp">    -86.27537664 </i>
    <i name="e_0_energy">    -86.33677276 </i>
   </energy>
  </scstep>
  <scstep>
   <time name="diag">    0.09    0.09</time>
   <time name="diis">    0.17    0.17</time>
   <time name="orth">    0.01    0.01</time>
   <time name="total">    0.27    0.28</time>
   <energy>
    <i name="e_fr_energy">    -86.38500962 </i>
    <i name="e_wo_entrp">    -86.29338253 </i>
    <i name="e_0_energy">    -86.35446726 </i>
   </energy>
  </scstep>
  <scstep>
   <time name="diag">    0.09    0.09</time>
   <time name="diis">    0.35    0.35</time>
   <time name="orth">    0.01    0.01</time>
   <time name="total">    0.44    0.45</time>
   <energy>
    <i name="e_fr_energy">    -86.38871172 </i>
    <i name="e_wo_entrp">    -86.29721677 </i>
    <i name="e_0_energy">    -86.35821341 </i>
   </energy>
  </scstep>
  <scstep>
   <time name="diag">    0.09    0.09</time>
   <time name="diis">    0.30    0.30</time>
   <time name="orth">    0.01    0.01</time>
   <time name="total">    0.40    0.41</time>
   <energy>
    <i name="e_fr_energy">    -86.38907954 </i>
    <i name="e_wo_entrp">    -86.29759920 </i>
    <i name="e_0_energy">    -86.35858609 </i>
   </energy>
  </scstep>
  <scstep>
   <time name="diag">    0.09    0.09</time>
   <time name="diis">    0.31    0.32</time>
   <time name="orth">    0.01    0.01</time>
   <time name="total">    0.41    0.42</time>
   <energy>
    <i name="e_fr_energy">    -86.38909679 </i>
    <i name="e_wo_entrp">    -86.29761655 </i>
    <i name="e_0_energy">    -86.35860338 </i>
   </energy>
  </scstep>
  <scstep>
   <time name="diag">    0.09    0.09</time>
   <time name="diis">    0.25    0.25</time>
   <time name="orth">    0.01    0.01</time>
   <time name="total">    0.47    0.48</time>
   <energy>
    <i name="e_fr_energy">    -86.38910158 </i>
    <i name="e_wo_entrp">    -86.29762133 </i>
    <i name="e_0_energy">    -86.35860816 </i>
   </energy>
  </scstep>
  <scstep>
   <time name="diag">    0.09    0.09</time>
   <time name="diis">    0.31    0.31</time>
   <time name="orth">    0.01    0.01</time>
   <time name="total">    0.58    0.58</time>
   <energy>
    <i name="e_fr_energy">    -84.06575925 </i>
    <i name="e_wo_entrp">    -83.94942142 </i>
    <i name="e_0_energy">    -84.02697997 </i>
   </energy>
  </scstep>
  <scstep>
   <time name="diag">    0.09    0.09</time>
   <time name="diis">    0.31    0.31</time>
   <time name="orth">    0.01    0.01</time>
   <time name="total">    0.57    0.58</time>
   <energy>
    <i name="e_fr_energy">    -83.46734769 </i>
    <i name="e_wo_entrp">    -83.35286213 </i>
    <i name="e_0_energy">    -83.42918584 </i>
   </energy>
  </scstep>
  <scstep>
   <time name="diag">    0.09    0.09</time>
   <time name="diis">    0.31    0.31</time>
   <time name="orth">    0.01    0.01</time>
   <time name="total">    0.57    0.58</time>
   <energy>
    <i name="e_fr_energy">    -83.17333215 </i>
    <i name="e_wo_entrp">    -83.03250126 </i>
    <i name="e_0_energy">    -83.12638852 </i>
   </energy>
  </scstep>
  <scstep>
   <time name="diag">    0.09    0.09</time>
   <time name="diis">    0.31    0.31</time>
   <time name="orth">    0.01    0.01</time>
   <time name="total">    0.58    0.58</time>
   <energy>
    <i name="e_fr_energy">    -83.13806998 </i>
    <i name="e_wo_entrp">    -83.00903560 </i>
    <i name="e_0_energy">    -83.09505852 </i>
   </energy>
  </scstep>
  <scstep>
   <time name="diag">    0.09    0.09</time>
   <time name="diis">    0.31    0.31</time>
   <time name="orth">    0.01    0.01</time>
   <time name="total">    0.57    0.58</time>
   <energy>
    <i name="e_fr_energy">    -83.13740336 </i>
    <i name="e_wo_entrp">    -83.00614349 </i>
    <i name="e_0_energy">    -83.09365007 </i>
   </energy>
  </scstep>
  <scstep>
   <time name="diag">    0.09    0.09</time>
   <time name="diis">    0.25    0.25</time>
   <time name="orth">    0.01    0.01</time>
   <time name="total">    0.41    0.42</time>
   <energy>
    <i name="alphaZ">     -8.27958290 </i>
    <i name="ewald">  -2377.70297664 </i>
    <i name="hartreedc">    -12.75961074 </i>
    <i name="XCdc">   -841.89236302 </i>
    <i name="pawpsdc">   1155.28631927 </i>
    <i name="pawaedc">   -122.48645696 </i>
    <i name="eentropy">     -0.13075534 </i>
    <i name="bandstr">    388.62142400 </i>
    <i name="atom">   1736.20668909 </i>
    <i name="e_fr_energy">    -83.13731324 </i>
    <i name="e_wo_entrp">    -83.00655790 </i>
    <i name="e_0_energy">    -83.09372813 </i>
   </energy>
  </scstep>
  <structure>
   <crystal>
    <varray name="basis" >
     <v>       8.08704000       0.00000000       0.00000000 </v>
     <v>       0.00000000       8.08704000       0.00000000 </v>
     <v>       0.00000000       0.00000000       8.08704000 </v>
    </varray>
    <i name="volume">    528.89416249 </i>
    <varray name="rec_basis" >
     <v>       0.12365464       0.00000000       0.00000000 </v>
     <v>       0.00000000       0.12365464       0.00000000 </v>
     <v>       0.00000000       0.00000000       0.12365464 </v>
    </varray>
   </crystal>
   <varray name="positions" >
    <v>       0.00000000       0.00000000       0.00000000 </v>
    <v>       0.25000000       0.00000000       0.25000000 </v>
    <v>       0.25000000       0.25000000       0.00000000 </v>
    <v>       0.00000000       0.25000000       0.25000000 </v>
    <v>       0.50000000       0.00000000       0.00000000 </v>
    <v>       0.75000000       0.00000000       0.25000000 </v>
    <v>       0.75000000       0.25000000       0.00000000 </v>
    <v>       0.50000000       0.25000000       0.25000000 </v>
    <v>       0.00000000       0.50000000       0.00000000 </v>
    <v>       0.25000000       0.50000000       0.25000000 </v>
    <v>       0.25000000       0.75000000       0.00000000 </v>
    <v>       0.00000000       0.75000000       0.25000000 </v>
    <v>       0.50000000       0.50000000       0.00000000 </v>
    <v>       0.75000000       0.50000000       0.25000000 </v>
    <v>       0.75000000       0.75000000       0.00000000 </v>
    <v>       0.50000000       0.75000000       0.25000000 </v>
    <v>       0.00000000       0.00000000       0.50000000 </v>
    <v>       0.25000000       0.00000000       0.75000000 </v>
    <v>       0.25000000       0.25000000       0.50000000 </v>
    <v>       0.00000000       0.25000000       0.75000000 </v>
    <v>       0.50000000       0.00000000       0.50000000 </v>
    <v>       0.75000000       0.00000000       0.75000000 </v>
    <v>       0.75000000       0.25000000       0.50000000 </v>
    <v>       0.50000000       0.25000000       0.75000000 </v>
    <v>       0.00000000       0.50000000       0.50000000 </v>
    <v>       0.25000000       0.50000000       0.75000000 </v>
    <v>       0.25000000       0.75000000       0.50000000 </v>
    <v>       0.00000000       0.75000000       0.75000000 </v>
    <v>       0.50000000       0.50000000       0.50000000 </v>
    <v>       0.75000000       0.50000000       0.75000000 </v>
    <v>       0.75000000       0.75000000       0.50000000 </v>
    <v>       0.50000000       0.75000000       0.75000000 </v>
    <v>       0.66000000       0.66000000       0.66000000 </v>
   </varray>
  </structure>
  <varray name="forces" >
   <v>       0.14114619       0.14114619       0.14114619 </v>
   <v>      -0.22433330       0.17833641      -0.22433330 </v>
   <v>      -0.22433330      -0.22433330       0.17833641 </v>
   <v>       0.17833641      -0.22433330      -0.22433330 </v>
   <v>      -0.17199459      -0.02362917      -0.02362917 </v>
   <v>       0.28494663      -0.03660321       0.01270196 </v>
   <v>       0.28494663       0.01270196      -0.03660321 </v>
   <v>      -0.10271541       0.05373629       0.05373629 </v>
   <v>      -0.02362917      -0.17199459      -0.02362917 </v>
   <v>       0.05373629      -0.10271541       0.05373629 </v>
   <v>       0.01270196       0.28494663      -0.03660321 </v>
   <v>      -0.03660321       0.28494663       0.01270196 </v>
   <v>       0.14657116       0.14657116      -0.28545059 </v>
   <v>      -0.16784419       0.15200202       0.15980511 </v>
   <v>      -0.17099611      -0.17099611      -0.34739211 </v>
   <v>       0.15200202      -0.16784419       0.15980511 </v>
   <v>      -0.02362917      -0.02362917      -0.17199459 </v>
   <v>       0.01270196      -0.03660321       0.28494663 </v>
   <v>       0.05373629       0.05373629      -0.10271541 </v>
   <v>      -0.03660321       0.01270196       0.28494663 </v>
   <v>       0.14657116      -0.28545059       0.14657116 </v>
   <v>      -0.17099611      -0.34739211      -0.17099611 </v>
   <v>      -0.16784419       0.15980511       0.15200202 </v>
   <v>       0.15200202       0.15980511      -0.16784419 </v>
   <v>      -0.28545059       0.14657116       0.14657116 </v>
   <v>       0.15980511       0.15200202      -0.16784419 </v>
   <v>       0.15980511      -0.16784419       0.15200202 </v>
   <v>      -0.34739211      -0.17099611      -0.17099611 </v>
   <v>      -1.32467232      -1.32467232      -1.32467232 </v>
   <v>       7.52533641     -13.68989575       7.52533641 </v>
   <v>       7.52533641       7.52533641     -13.68989575 </v>
   <v>     -13.68989575       7.52533641       7.52533641 </v>
   <v>       0.17925096       0.17925096       0.17925096 </v>
  </varray>
  <varray name="stress" >
   <v>      57.38922031     -41.87750741     -41.87750741 </v>
   <v>     -41.87750741      57.38922031     -41.87750741 </v>
   <v>     -41.87750741     -41.87750741      57.38922031 </v>
  </varray>
  <energy>
   <i name="e_fr_energy">    -83.13731324 </i>
   <i name="e_wo_entrp">    -83.09372813 </i>
   <i name="e_0_energy">     -0.13075534 </i>
  </energy>
  <time name="totalsc">    8.09    8.21</time>
 </calculation>
 <calculation>
  <scstep>
   <time name="diag">    0.09    0.09</time>
   <time name="diis">    0.31    0.31</time>
   <time name="orth">    0.01    0.01</time>
   <time name="total">    0.57    0.58</time>
   <energy>
    <i name="alphaZ">     -8.27958290 </i>
    <i name="ewald">  -2381.89758526 </i>
    <i name="hartreedc">    -10.86858545 </i>
    <i name="XCdc">   -841.54607113 </i>
    <i name="pawpsdc">   1155.38890866 </i>
    <i name="pawaedc">   -122.59827136 </i>
    <i name="eentropy">     -0.10282002 </i>
    <i name="bandstr">    372.53281456 </i>
    <i name="atom">   1736.20668909 </i>
    <i name="e_fr_energy">   -101.16450380 </i>
    <i name="e_wo_entrp">   -101.06168378 </i>
    <i name="e_0_energy">   -101.13023046 </i>
   </energy>
  </scstep>
  <scstep>
   <time name="diag">    0.09    0.09</time>
   <time name="diis">    0.35    0.35</time>
   <time name="orth">    0.01    0.01</time>
   <time name="total">    0.62    0.62</time>
   <energy>
    <i name="e_fr_energy">    -97.34672180 </i>
    <i name="e_wo_entrp">    -97.27132522 </i>
    <i name="e_0_energy">    -97.32158960 </i>
   </energy>
  </scstep>
  <scstep>
   <time name="diag">    0.09    0.09</time>
   <time name="diis">    0.31    0.31</time>
   <time name="orth">    0.01    0.01</time>
   <time name="total">    0.57    0.57</time>
   <energy>
    <i name="e_fr_energy">    -96.43850331 </i>
    <i name="e_wo_entrp">    -96.34167802 </i>
    <i name="e_0_energy">    -96.40622822 </i>
   </energy>
  </scstep>
  <scstep>
   <time name="diag">    0.09    0.09</time>
   <time name="diis">    0.31    0.31</time>
   <time name="orth">    0.01    0.01</time>
   <time name="total">    0.57    0.58</time>
   <energy>
    <i name="e_fr_energy">    -96.30609837 </i>
    <i name="e_wo_entrp">    -96.21772930 </i>
    <i name="e_0_energy">    -96.27664201 </i>
   </energy>
  </scstep>
  <scstep>
   <time name="diag">    0.09    0.09</time>
   <time name="diis">    0.31    0.31</time>
   <time name="orth">    0.01    0.01</time>
   <time name="total">    0.57    0.58</time>
   <energy>
    <i name="e_fr_energy">    -96.29478243 </i>
    <i name="e_wo_entrp">    -96.21009690 </i>
    <i name="e_0_energy">    -96.26655392 </i>
   </energy>
  </scstep>
  <scstep>
   <time name="diag">    0.09    0.09</time>
   <time name="diis">    0.31    0.31</time>
   <time name="orth">    0.01    0.01</time>
   <time name="total">    0.58    0.58</time>
   <energy>
    <i name="e_fr_energy">    -96.29285936 </i>
    <i name="e_wo_entrp">    -96.20820476 </i>
    <i name="e_0_energy">    -96.26464116 </i>
   </energy>
  </scstep>
  <scstep>
   <time name="diag">    0.09    0.09</time>
   <time name="diis">    0.31    0.31</time>
   <time name="orth">    0.01    0.01</time>
   <time name="total">    0.57    0.58</time>
   <energy>
    <i name="e_fr_energy">    -96.29237458 </i>
    <i name="e_wo_entrp">    -96.20825122 </i>
    <i name="e_0_energy">    -96.26433346 </i>
   </energy>
  </scstep>
  <scstep>
   <time name="diag">    0.09    0.09</time>
   <time name="diis">    0.23    0.23</time>
   <time name="orth">    0.01    0.01</time>
   <time name="total">    0.40    0.40</time>
   <energy>
    <i name="alphaZ">     -8.27958290 </i>
    <i name="ewald">  -2381.89758526 </i>
    <i name="hartreedc">    -18.30509030 </i>
    <i name="XCdc">   -841.04861636 </i>
    <i name="pawpsdc">   1157.83684211 </i>
    <i name="pawaedc">   -124.99718314 </i>
    <i name="eentropy">     -0.08416613 </i>
    <i name="bandstr">    384.27634699 </i>
    <i name="atom">   1736.20668909 </i>
    <i name="e_fr_energy">    -96.29234590 </i>
    <i name="e_wo_entrp">    -96.20817977 </i>
    <i name="e_0_energy">    -96.26429053 </i>
   </energy>
  </scstep>
  <structure>
   <crystal>
    <varray name="basis" >
     <v>       8.08704000       0.00000000       0.00000000 </v>
     <v>       0.00000000       8.08704000       0.00000000 </v>
     <v>       0.00000000       0.00000000       8.08704000 </v>
    </varray>
    <i name="volume">    528.89416249 </i>
    <varray name="rec_basis" >
     <v>       0.12365464       0.00000000       0.00000000 </v>
     <v>       0.00000000       0.12365464       0.00000000 </v>
     <v>       0.00000000       0.00000000       0.12365464 </v>
    </varray>
   </crystal>
   <varray name="positions" >
    <v>       0.00084200       0.00084200       0.00084200 </v>
    <v>       0.24866176       0.00106385       0.24866176 </v>
    <v>       0.24866176       0.24866176       0.00106385 </v>
    <v>       0.00106385       0.24866176       0.24866176 </v>
    <v>       0.49897398      -0.00014096      -0.00014096 </v>
    <v>       0.75169983      -0.00021835       0.25007577 </v>
    <v>       0.75169983       0.25007577      -0.00021835 </v>
    <v>       0.49938726       0.25032056       0.25032056 </v>
    <v>      -0.00014096       0.49897398      -0.00014096 </v>
    <v>       0.25032056       0.49938726       0.25032056 </v>
    <v>       0.25007577       0.75169983      -0.00021835 </v>
    <v>      -0.00021835       0.75169983       0.25007577 </v>
    <v>       0.50087436       0.50087436      -0.00170283 </v>
    <v>       0.74899874       0.50090676       0.25095331 </v>
    <v>       0.74897994       0.74897994      -0.00207234 </v>
    <v>       0.50090676       0.74899874       0.25095331 </v>
    <v>      -0.00014096      -0.00014096       0.49897398 </v>
    <v>       0.25007577      -0.00021835       0.75169983 </v>
    <v>       0.25032056       0.25032056       0.49938726 </v>
    <v>      -0.00021835       0.25007577       0.75169983 </v>
    <v>       0.50087436      -0.00170283       0.50087436 </v>
    <v>       0.74897994      -0.00207234       0.74897994 </v>
    <v>       0.74899874       0.25095331       0.50090676 </v>
    <v>       0.50090676       0.25095331       0.74899874 </v>
    <v>      -0.00170283       0.50087436       0.50087436 </v>
    <v>       0.25095331       0.50090676       0.74899874 </v>
    <v>       0.25095331       0.74899874       0.50090676 </v>
    <v>      -0.00207234       0.74897994       0.74897994 </v>
    <v>       0.49209776       0.49209776       0.49209776 </v>
    <v>       0.79489185       0.41833391       0.79489185 </v>
    <v>       0.79489185       0.79489185       0.41833391 </v>
    <v>       0.41833391       0.79489185       0.79489185 </v>
    <v>       0.66106931       0.66106931       0.66106931 </v>
   </varray>
  </structure>
  <varray name="forces" >
   <v>       0.09921178       0.09921178       0.09921178 </v>
   <v>      -0.04190140       0.28428387      -0.04190140 </v>
   <v>      -0.04190140      -0.04190140       0.28428387 </v>
   <v>       0.28428387      -0.04190140      -0.04190140 </v>
   <v>       0.39677558       0.84272838       0.84272838 </v>
   <v>      -0.98974811       2.88439756      -2.37539970 </v>
   <v>      -0.98974811      -2.37539970       2.88439756 </v>
   <v>       0.13467253      -0.22442699      -0.22442699 </v>
   <v>       0.84272838       0.39677558       0.84272838 </v>
   <v>      -0.22442699       0.13467253      -0.22442699 </v>
   <v>      -2.37539970      -0.98974811       2.88439756 </v>
   <v>       2.88439756      -0.98974811      -2.37539970 </v>
   <v>      -0.05173378      -0.05173378       0.11577407 </v>
   <v>       0.13982776       0.02399238      -0.25046507 </v>
   <v>       0.05545275       0.05545275      -0.01384827 </v>
   <v>       0.02399238       0.13982776      -0.25046507 </v>
   <v>       0.84272838       0.84272838       0.39677558 </v>
   <v>      -2.37539970       2.88439756      -0.98974811 </v>
   <v>      -0.22442699      -0.22442699       0.13467253 </v>
   <v>       2.88439756      -2.37539970      -0.98974811 </v>
   <v>      -0.05173378       0.11577407      -0.05173378 </v>
   <v>       0.05545275      -0.01384827       0.05545275 </v>
   <v>       0.13982776      -0.25046507       0.02399238 </v>
   <v>       0.02399238      -0.25046507       0.13982776 </v>
   <v>       0.11577407      -0.05173378      -0.05173378 </v>
   <v>      -0.25046507       0.02399238       0.13982776 </v>
   <v>      -0.25046507       0.13982776       0.02399238 </v>
   <v>      -0.01384827       0.05545275       0.05545275 </v>
   <v>      -1.41174343      -1.41174343      -1.41174343 </v>
   <v>      -2.29385297       3.74277782      -2.29385297 </v>
   <v>      -2.29385297      -2.29385297       3.74277782 </v>
   <v>       3.74277782      -2.29385297      -2.29385297 </v>
   <v>       1.21435444       1.21435444       1.21435444 </v>
  </varray>
  <varray name="stress" >
   <v>      52.54936284     -19.10976405     -19.10976405 </v>
   <v>     -19.10976405      52.54936284     -19.10976405 </v>
   <v>     -19.10976405     -19.10976405      52.54936284 </v>
  </varray>
  <energy>
   <i name="e_fr_energy">    -96.29234590 </i>
   <i name="e_wo_entrp">    -96.26429053 </i>
   <i name="e_0_energy">     -0.08416613 </i>
  </energy>
  <time name="totalsc">    5.23    5.28</time>
 </calculation>
 <calculation>
  <scstep>
   <time name="diag">    0.09    0.09</time>
   <time name="diis">    0.31    0.31</time>
   <time name="orth">    0.01    0.01</time>
   <time name="total">    0.57    0.58</time>
   <energy>
    <i name="alphaZ">     -8.27958290 </i>
    <i name="ewald">  -2392.94832618 </i>
    <i name="hartreedc">    -11.96880264 </i>
    <i name="XCdc">   -841.21000592 </i>
    <i name="pawpsdc">   1157.82726674 </i>
    <i name="pawaedc">   -124.98733331 </i>
    <i name="eentropy">     -0.13068797 </i>
    <i name="bandstr">    387.27934862 </i>
    <i name="atom">   1736.20668909 </i>
    <i name="e_fr_energy">    -98.21143446 </i>
    <i name="e_wo_entrp">    -98.08074649 </i>
    <i name="e_0_energy">    -98.16787181 </i>
   </energy>
  </scstep>
  <scstep>
   <time name="diag">    0.09    0.09</time>
   <time name="diis">    0.31    0.31</time>
   <time name="orth">    0.01    0.01</time>
   <time name="total">    0.57    0.58</time>
   <energy>
    <i name="e_fr_energy">    -97.86121288 </i>
    <i name="e_wo_entrp">    -97.76495647 </i>
    <i name="e_0_energy">    -97.82912741 </i>
   </energy>
  </scstep>
  <scstep>
   <time name="diag">    0.09    0.09</time>
   <time name="diis">    0.31    0.31</time>
   <time name="orth">    0.01    0.01</time>
   <time name="total">    0.58    0.63</time>
   <energy>
    <i name="e_fr_energy">    -97.82150317 </i>
    <i name="e_wo_entrp">    -97.72254346 </i>
    <i name="e_0_energy">    -97.78851660 </i>
   </energy>
  </scstep>
  <scstep>
   <time name="diag">    0.09    0.09</time>
   <time name="diis">    0.31    0.31</time>
   <time name="orth">    0.01    0.01</time>
   <time name="total">    0.57    0.58</time>
   <energy>
    <i name="e_fr_energy">    -97.81552680 </i>
    <i name="e_wo_entrp">    -97.71031800 </i>
    <i name="e_0_energy">    -97.78045720 </i>
   </energy>
  </scstep>
  <scstep>
   <time name="diag">    0.09    0.09</time>
   <time name="diis">    0.31    0.31</time>
   <time name="orth">    0.01    0.01</time>
   <time name="total">    0.57    0.57</time>
   <energy>
    <i name="e_fr_energy">    -97.81458016 </i>
    <i name="e_wo_entrp">    -97.71002492 </i>
    <i name="e_0_energy">    -97.77972841 </i>
   </energy>
  </scstep>
  <scstep>
   <time name="diag">    0.09    0.09</time>
   <time name="diis">    0.25    0.25</time>
   <time name="orth">    0.01    0.01</time>
   <time name="total">    0.51    0.51</time>
   <energy>
    <i name="e_fr_energy">    -97.81439299 </i>
    <i name="e_wo_entrp">    -97.70978933 </i>
    <i name="e_0_energy">    -97.77952510 </i>
   </energy>
  </scstep>
  <scstep>
   <time name="diag">    0.09    0.09</time>
   <time name="diis">    0.23    0.23</time>
   <time name="orth">    0.01    0.01</time>
   <time name="total">    0.39    0.40</time>
   <energy>
    <i name="alphaZ">     -8.27958290 </i>
    <i name="ewald">  -2392.94832618 </i>
    <i name="hartreedc">    -10.41707584 </i>
    <i name="XCdc">   -841.40403220 </i>
    <i name="pawpsdc">   1153.17080871 </i>
    <i name="pawaedc">   -120.13932179 </i>
    <i name="eentropy">     -0.10476610 </i>
    <i name="bandstr">    386.10123469 </i>
    <i name="atom">   1736.20668909 </i>
    <i name="e_fr_energy">    -97.81437252 </i>
    <i name="e_wo_entrp">    -97.70960642 </i>
    <i name="e_0_energy">    -97.77945049 </i>
   </energy>
  </scstep>
  <structure>
   <crystal>
    <varray name="basis" >
     <v>       8.08704000       0.00000000       0.00000000 </v>
     <v>       0.00000000       8.08704000       0.00000000 </v>
     <v>       0.00000000       0.00000000       8.08704000 </v>
    </varray>
    <i name="volume">    528.89416249 </i>
    <varray name="rec_basis" >
     <v>       0.12365464       0.00000000       0.00000000 </v>
     <v>       0.00000000       0.12365464       0.00000000 </v>
     <v>       0.00000000       0.00000000       0.12365464 </v>
    </varray>
   </crystal>
   <varray name="positions" >
    <v>       0.00061040       0.00061040       0.00061040 </v>
    <v>       0.24902985       0.00077123       0.24902985 </v>
    <v>       0.24902985       0.24902985       0.00077123 </v>
    <v>       0.00077123       0.24902985       0.24902985 </v>
    <v>       0.49925619      -0.00010219      -0.00010219 </v>
    <v>       0.75123228      -0.00015829       0.25005493 </v>
    <v>       0.75123228       0.25005493      -0.00015829 </v>
    <v>       0.49955580       0.25023239       0.25023239 </v>
    <v>      -0.00010219       0.49925619      -0.00010219 </v>
    <v>       0.25023239       0.49955580       0.25023239 </v>
    <v>       0.25005493       0.75123228      -0.00015829 </v>
    <v>      -0.00015829       0.75123228       0.25005493 </v>
    <v>       0.50063386       0.50063386      -0.00123446 </v>
    <v>       0.74927414       0.50065735       0.25069109 </v>
    <v>       0.74926051       0.74926051      -0.00150233 </v>
    <v>       0.50065735       0.74927414       0.25069109 </v>
    <v>      -0.00010219      -0.00010219       0.49925619 </v>
    <v>       0.25005493      -0.00015829       0.75123228 </v>
    <v>       0.25023239       0.25023239       0.49955580 </v>
    <v>      -0.00015829       0.25005493       0.75123228 </v>
    <v>       0.50063386      -0.00123446       0.50063386 </v>
    <v>       0.74926051      -0.00150233       0.74926051 </v>
    <v>       0.74927414       0.25069109       0.50065735 </v>
    <v>       0.50065735       0.25069109       0.74927414 </v>
    <v>      -0.00123446       0.50063386       0.50063386 </v>
    <v>       0.25069109       0.50065735       0.74927414 </v>
    <v>       0.25069109       0.74927414       0.50065735 </v>
    <v>      -0.00150233       0.74926051       0.74926051 </v>
    <v>       0.49427132       0.49427132       0.49427132 </v>
    <v>       0.78254411       0.44079661       0.78254411 </v>
    <v>       0.78254411       0.78254411       0.44079661 </v>
    <v>       0.44079661       0.78254411       0.78254411 </v>
    <v>       0.66077519       0.66077519       0.66077519 </v>
   </varray>
  </structure>
  <varray name="forces" >
   <v>       0.09198110       0.09198110       0.09198110 </v>
   <v>      -0.07125888       0.12272507      -0.07125888 </v>
   <v>      -0.07125888      -0.07125888       0.12272507 </v>
   <v>       0.12272507      -0.07125888      -0.07125888 </v>
   <v>       0.25744813       0.55182282       0.55182282 </v>
   <v>      -0.55275739       1.23120003      -1.08578648 </v>
   <v>      -0.55275739      -1.08578648       1.23120003 </v>
   <v>       0.34390860      -0.15970624      -0.15970624 </v>
   <v>       0.55182282       0.25744813       0.55182282 </v>
   <v>      -0.15970624       0.34390860      -0.15970624 </v>
   <v>      -1.08578648      -0.55275739       1.23120003 </v>
   <v>       1.23120003      -0.55275739      -1.08578648 </v>
   <v>       0.02494248       0.02494248       0.07938025 </v>
   <v>       0.05705411       0.10187515      -0.28242704 </v>
   <v>      -0.05785608      -0.05785608       0.12966723 </v>
   <v>       0.10187515       0.05705411      -0.28242704 </v>
   <v>       0.55182282       0.55182282       0.25744813 </v>
   <v>      -1.08578648       1.23120003      -0.55275739 </v>
   <v>      -0.15970624      -0.15970624       0.34390860 </v>
   <v>       1.23120003      -1.08578648      -0.55275739 </v>
   <v>       0.02494248       0.07938025       0.02494248 </v>
   <v>      -0.05785608       0.12966723      -0.05785608 </v>
   <v>       0.05705411      -0.28242704       0.10187515 </v>
   <v>       0.10187515      -0.28242704       0.05705411 </v>
   <v>       0.07938025       0.02494248       0.02494248 </v>
   <v>      -0.28242704       0.10187515       0.05705411 </v>
   <v>      -0.28242704       0.05705411       0.10187515 </v>
   <v>       0.12966723      -0.05785608      -0.05785608 </v>
   <v>      -1.53007420      -1.53007420      -1.53007420 </v>
   <v>       0.04806306      -0.36677883       0.04806306 </v>
   <v>       0.04806306       0.04806306      -0.36677883 </v>
   <v>      -0.36677883       0.04806306       0.04806306 </v>
   <v>       1.26141155       1.26141155       1.26141155 </v>
  </varray>
  <varray name="stress" >
   <v>      30.26625539     -15.27037828     -15.27037828 </v>
   <v>     -15.27037828      30.26625539     -15.27037828 </v>
   <v>     -15.27037828     -15.27037828      30.26625539 </v>
  </varray>
  <energy>
   <i name="e_fr_energy">    -97.81437252 </i>
   <i name="e_wo_entrp">    -97.77945049 </i>
   <i name="e_0_energy">     -0.10476610 </i>
  </energy>
  <time name="totalsc">    4.58    4.66</time>
 </calculation>
 <calculation>
  <scstep>
   <time name="diag">    0.09    0.09</time>
   <time name="diis">    0.31    0.31</time>
   <time name="orth">    0.01    0.01</time>
   <time name="total">    0.57    0.58</time>
   <energy>
    <i name="alphaZ">     -8.27958290 </i>
    <i name="ewald">  -2394.97306178 </i>
    <i name="hartreedc">     -9.77450114 </i>
    <i name="XCdc">   -841.37944132 </i>
    <i name="pawpsdc">   1153.16129206 </i>
    <i name="pawaedc">   -120.12923233 </i>
    <i name="eentropy">     -0.10847040 </i>
    <i name="bandstr">    386.09729740 </i>
    <i name="atom">   1736.20668909 </i>
    <i name="e_fr_energy">    -99.17901131 </i>
    <i name="e_wo_entrp">    -99.07054092 </i>
    <i name="e_0_energy">    -99.14285452 </i>
   </energy>
  </scstep>
  <scstep>
   <time name="diag">    0.09    0.09</time>
   <time name="diis">    0.31    0.31</time>
   <time name="orth">    0.01    0.01</time>
   <time name="total">    0.57    0.57</time>
   <energy>
    <i name="e_fr_energy">    -99.02502054 </i>
    <i name="e_wo_entrp">    -98.93744564 </i>
    <i name="e_0_energy">    -98.99582891 </i>
   </energy>
  </scstep>
  <scstep>
   <time name="diag">    0.09    0.09</time>
   <time name="diis">    0.31    0.31</time>
   <time name="orth">    0.01    0.01</time>
   <time name="total">    0.57    0.57</time>
   <energy>
    <i name="e_fr_energy">    -98.99635698 </i>
    <i name="e_wo_entrp">    -98.89967867 </i>
    <i name="e_0_energy">    -98.96413088 </i>
   </energy>
  </scstep>
  <scstep>
   <time name="diag">    0.09    0.09</time>
   <time name="diis">    0.31    0.31</time>
   <time name="orth">    0.01    0.01</time>
   <time name="total">    0.57    0.57</time>
   <energy>
    <i name="e_fr_energy">    -98.99442674 </i>
    <i name="e_wo_entrp">    -98.89853150 </i>
    <i name="e_0_energy">    -98.96246166 </i>
   </energy>
  </scstep>
  <scstep>
   <time name="diag">    0.09    0.09</time>
   <time name="diis">    0.29    0.29</time>
   <time name="orth">    0.01    0.01</time>
   <time name="total">    0.45    0.46</time>
   <energy>
    <i name="alphaZ">     -8.27958290 </i>
    <i name="ewald">  -2394.97306178 </i>
    <i name="hartreedc">     -9.62045461 </i>
    <i name="XCdc">   -841.41573205 </i>
    <i name="pawpsdc">   1152.35841448 </i>
    <i name="pawaedc">   -119.27907727 </i>
    <i name="eentropy">     -0.09613166 </i>
    <i name="bandstr">    386.10458692 </i>
    <i name="atom">   1736.20668909 </i>
    <i name="e_fr_energy">    -98.99434976 </i>
    <i name="e_wo_entrp">    -98.89821810 </i>
    <i name="e_0_energy">    -98.96230588 </i>
   </energy>
  </scstep>
  <structure>
   <crystal>
    <varray name="basis" >
     <v>       8.08704000       0.00000000       0.00000000 </v>
     <v>       0.00000000       8.08704000       0.00000000 </v>
     <v>       0.00000000       0.00000000       8.08704000 </v>
    </varray>
    <i name="volume">    528.89416249 </i>
    <varray name="rec_basis" >
     <v>       0.12365464       0.00000000       0.00000000 </v>
     <v>       0.00000000       0.12365464       0.00000000 </v>
     <v>       0.00000000       0.00000000       0.12365464 </v>
    </varray>
   </crystal>
   <varray name="positions" >
    <v>       0.00113884       0.00113884       0.00113884 </v>
    <v>       0.24861239       0.00147559       0.24861239 </v>
    <v>       0.24861239       0.24861239       0.00147559 </v>
    <v>       0.00147559       0.24861239       0.24861239 </v>
    <v>       0.50069541       0.00300692       0.00300692 </v>
    <v>       0.74813626       0.00677973       0.24393496 </v>
    <v>       0.74813626       0.24393496       0.00677973 </v>
    <v>       0.50148729       0.24933586       0.24933586 </v>
    <v>       0.00300692       0.50069541       0.00300692 </v>
    <v>       0.24933586       0.50148729       0.24933586 </v>
    <v>       0.24393496       0.74813626       0.00677973 </v>
    <v>       0.00677973       0.74813626       0.24393496 </v>
    <v>       0.50078476       0.50078476      -0.00080702 </v>
    <v>       0.74958398       0.50124232       0.24911020 </v>
    <v>       0.74892235       0.74892235      -0.00079576 </v>
    <v>       0.50124232       0.74958398       0.24911020 </v>
    <v>       0.00300692       0.00300692       0.50069541 </v>
    <v>       0.24393496       0.00677973       0.74813626 </v>
    <v>       0.24933586       0.24933586       0.50148729 </v>
    <v>       0.00677973       0.24393496       0.74813626 </v>
    <v>       0.50078476      -0.00080702       0.50078476 </v>
    <v>       0.74892235      -0.00079576       0.74892235 </v>
    <v>       0.74958398       0.24911020       0.50124232 </v>
    <v>       0.50124232       0.24911020       0.74958398 </v>
    <v>      -0.00080702       0.50078476       0.50078476 </v>
    <v>       0.24911020       0.50124232       0.74958398 </v>
    <v>       0.24911020       0.74958398       0.50124232 </v>
    <v>      -0.00079576       0.74892235       0.74892235 </v>
    <v>       0.48555285       0.48555285       0.48555285 </v>
    <v>       0.78334358       0.43776750       0.78334358 </v>
    <v>       0.78334358       0.78334358       0.43776750 </v>
    <v>       0.43776750       0.78334358       0.78334358 </v>
    <v>       0.66789869       0.66789869       0.66789869 </v>
   </varray>
  </structure>
  <varray name="forces" >
   <v>       0.05389824       0.05389824       0.05389824 </v>
   <v>      -0.00624636       0.19493436      -0.00624636 </v>
   <v>      -0.00624636      -0.00624636       0.19493436 </v>
   <v>       0.19493436      -0.00624636      -0.00624636 </v>
   <v>       0.11504679       0.33711948       0.33711948 </v>
   <v>      -0.39144225       0.67966663      -0.60097725 </v>
   <v>      -0.39144225      -0.60097725       0.67966663 </v>
   <v>       0.12377995      -0.09014822      -0.09014822 </v>
   <v>       0.33711948       0.11504679       0.33711948 </v>
   <v>      -0.09014822       0.12377995      -0.09014822 </v>
   <v>      -0.60097725      -0.39144225       0.67966663 </v>
   <v>       0.67966663      -0.39144225      -0.60097725 </v>
   <v>      -0.05178826      -0.05178826       0.07023591 </v>
   <v>       0.08171618      -0.02582551      -0.22176214 </v>
   <v>       0.06915384       0.06915384       0.14549513 </v>
   <v>      -0.02582551       0.08171618      -0.22176214 </v>
   <v>       0.33711948       0.33711948       0.11504679 </v>
   <v>      -0.60097725       0.67966663      -0.39144225 </v>
   <v>      -0.09014822      -0.09014822       0.12377995 </v>
   <v>       0.67966663      -0.60097725      -0.39144225 </v>
   <v>      -0.05178826       0.07023591      -0.05178826 </v>
   <v>       0.06915384       0.14549513       0.06915384 </v>
   <v>       0.08171618      -0.22176214      -0.02582551 </v>
   <v>      -0.02582551      -0.22176214       0.08171618 </v>
   <v>       0.07023591      -0.05178826      -0.05178826 </v>
   <v>      -0.22176214      -0.02582551       0.08171618 </v>
   <v>      -0.22176214       0.08171618      -0.02582551 </v>
   <v>       0.14549513       0.06915384       0.06915384 </v>
   <v>      -0.59156635      -0.59156635      -0.59156635 </v>
   <v>       0.28342562      -0.76796294       0.28342562 </v>
   <v>       0.28342562       0.28342562      -0.76796294 </v>
   <v>      -0.76796294       0.28342562       0.28342562 </v>
   <v>       0.53035539       0.53035539       0.53035539 </v>
  </varray>
  <varray name="stress" >
   <v>      23.86720200     -15.92519705     -15.92519705 </v>
   <v>     -15.92519705      23.86720200     -15.92519705 </v>
   <v>     -15.92519705     -15.92519705      23.86720200 </v>
  </varray>
  <energy>
   <i name="e_fr_energy">    -98.99434976 </i>
   <i name="e_wo_entrp">    -98.96230588 </i>
   <i name="e_0_energy">     -0.09613166 </i>
  </energy>
  <time name="totalsc">    3.52    3.55</time>
 </calculation>
 <calculation>
  <scstep>
   <time name="diag">    0.09    0.09</time>
   <time name="diis">    0.32    0.32</time>
   <time name="orth">    0.01    0.01</time>
   <time name="total">    0.58    0.59</time>
   <energy>
    <i name="alphaZ">     -8.27958290 </i>
    <i name="ewald">  -2390.41631745 </i>
    <i name="hartreedc">    -12.69333795 </i>
    <i name="XCdc">   -841.32218114 </i>
    <i name="pawpsdc">   1152.32678715 </i>
    <i name="pawaedc">   -119.24487377 </i>
    <i name="eentropy">     -0.13156543 </i>
    <i name="bandstr">    383.67358821 </i>
    <i name="atom">   1736.20668909 </i>
    <i name="e_fr_energy">    -99.88079419 </i>
    <i name="e_wo_entrp">    -99.74922876 </i>
    <i name="e_0_energy">    -99.83693905 </i>
   </energy>
  </scstep>
  <scstep>
   <time name="diag">    0.09    0.09</time>
   <time name="diis">    0.31    0.31</time>
   <time name="orth">    0.01    0.01</time>
   <time name="total">    0.57    0.57</time>
   <energy>
    <i name="e_fr_energy">    -99.56310011 </i>
    <i name="e_wo_entrp">    -99.44515826 </i>
    <i name="e_0_energy">    -99.52378616 </i>
   </energy>
  </scstep>
  <scstep>
   <time name="diag">    0.09    0.09</time>
   <time name="diis">    0.35    0.35</time>
   <time name="orth">    0.01    0.01</time>
   <time name="total">    0.69    0.69</time>
   <energy>
    <i name="e_fr_energy">    -99.49000562 </i>
    <i name="e_wo_entrp">    -99.36244399 </i>
    <i name="e_0_energy">    -99.44748508 </i>
   </energy>
  </scstep>
  <scstep>
   <time name="diag">    0.13    0.13</time>
   <time name="diis">    0.31    0.31</time>
   <time name="orth">    0.01    0.01</time>
   <time name="total">    0.63    0.63</time>
   <energy>
    <i name="e_fr_energy">    -99.48557930 </i>
    <i name="e_wo_entrp">    -99.36270742 </i>
    <i name="e_0_energy">    -99.44462200 </i>
   </energy>
  </scstep>
  <scstep>
   <time name="diag">    0.09    0.09</time>
   <time name="diis">    0.31    0.31</time>
   <time name="orth">    0.01    0.01</time>
   <time name="total">    0.47    0.48</time>
   <energy>
    <i name="alphaZ">     -8.27958290 </i>
    <i name="ewald">  -2390.41631745 </i>
    <i name="hartreedc">    -13.57288259 </i>
    <i name="XCdc">   -841.26597795 </i>
    <i name="pawpsdc">   1152.90838194 </i>
    <i name="pawaedc">   -119.85092728 </i>
    <i name="eentropy">     -0.12401184 </i>
    <i name="bandstr">    384.90912233 </i>
    <i name="atom">   1736.20668909 </i>
    <i name="e_fr_energy">    -99.48550665 </i>
    <i name="e_wo_entrp">    -99.36149481 </i>
    <i name="e_0_energy">    -99.44416937 </i>
   </energy>
  </scstep>
  <structure>
   <crystal>
    <varray name="basis" >
     <v>       8.08704000       0.00000000       0.00000000 </v>
     <v>       0.00000000       8.08704000       0.00000000 </v>
     <v>       0.00000000       0.00000000       8.08704000 </v>
    </varray>
    <i name="volume">    528.89416249 </i>
    <varray name="rec_basis" >
     <v>       0.12365464       0.00000000       0.00000000 </v>
     <v>       0.00000000       0.12365464       0.00000000 </v>
     <v>       0.00000000       0.00000000       0.12365464 </v>
    </varray>
   </crystal>
   <varray name="positions" >
    <v>       0.00192248       0.00192248       0.00192248 </v>
    <v>       0.24799331       0.00252012       0.24799331 </v>
    <v>       0.24799331       0.24799331       0.00252012 </v>
    <v>       0.00252012       0.24799331       0.24799331 </v>
    <v>       0.50282971       0.00761758       0.00761758 </v>
    <v>       0.74354501       0.01706847       0.23485935 </v>
    <v>       0.74354501       0.23485935       0.01706847 </v>
    <v>       0.50435159       0.24800635       0.24800635 </v>
    <v>       0.00761758       0.50282971       0.00761758 </v>
    <v>       0.24800635       0.50435159       0.24800635 </v>
    <v>       0.23485935       0.74354501       0.01706847 </v>
    <v>       0.01706847       0.74354501       0.23485935 </v>
    <v>       0.50100854       0.50100854      -0.00017315 </v>
    <v>       0.75004346       0.50210981       0.24676582 </v>
    <v>       0.74842088       0.74842088       0.00025204 </v>
    <v>       0.50210981       0.75004346       0.24676582 </v>
    <v>       0.00761758       0.00761758       0.50282971 </v>
    <v>       0.23485935       0.01706847       0.74354501 </v>
    <v>       0.24800635       0.24800635       0.50435159 </v>
    <v>       0.01706847       0.23485935       0.74354501 </v>
    <v>       0.50100854      -0.00017315       0.50100854 </v>
    <v>       0.74842088       0.00025204       0.74842088 </v>
    <v>       0.75004346       0.24676582       0.50210981 </v>
    <v>       0.50210981       0.24676582       0.75004346 </v>
    <v>      -0.00017315       0.50100854       0.50100854 </v>
    <v>       0.24676582       0.50210981       0.75004346 </v>
    <v>       0.24676582       0.75004346       0.50210981 </v>
    <v>       0.00025204       0.74842088       0.74842088 </v>
    <v>       0.47262381       0.47262381       0.47262381 </v>
    <v>       0.78452914       0.43327550       0.78452914 </v>
    <v>       0.78452914       0.78452914       0.43327550 </v>
    <v>       0.43327550       0.78452914       0.78452914 </v>
    <v>       0.67846247       0.67846247       0.67846247 </v>
   </varray>
  </structure>
  <varray name="forces" >
   <v>       0.12352214       0.12352214       0.12352214 </v>
   <v>       0.04565604       0.37463185       0.04565604 </v>
   <v>       0.04565604       0.04565604       0.37463185 </v>
   <v>       0.37463185       0.04565604       0.04565604 </v>
   <v>      -0.24823907       0.02464719       0.02464719 </v>
   <v>      -0.05972498      -0.35959531       0.36509575 </v>
   <v>      -0.05972498       0.36509575      -0.35959531 </v>
   <v>      -0.29150402      -0.12309334      -0.12309334 </v>
   <v>       0.02464719      -0.24823907       0.02464719 </v>
   <v>      -0.12309334      -0.29150402      -0.12309334 </v>
   <v>       0.36509575      -0.05972498      -0.35959531 </v>
   <v>      -0.35959531      -0.05972498       0.36509575 </v>
   <v>      -0.16559185      -0.16559185      -0.02446429 </v>
   <v>       0.19550665      -0.21349161      -0.10874157 </v>
   <v>       0.18631045       0.18631045       0.21591860 </v>
   <v>      -0.21349161       0.19550665      -0.10874157 </v>
   <v>       0.02464719       0.02464719      -0.24823907 </v>
   <v>       0.36509575      -0.35959531      -0.05972498 </v>
   <v>      -0.12309334      -0.12309334      -0.29150402 </v>
   <v>      -0.35959531       0.36509575      -0.05972498 </v>
   <v>      -0.16559185      -0.02446429      -0.16559185 </v>
   <v>       0.18631045       0.21591860       0.18631045 </v>
   <v>       0.19550665      -0.10874157      -0.21349161 </v>
   <v>      -0.21349161      -0.10874157       0.19550665 </v>
   <v>      -0.02446429      -0.16559185      -0.16559185 </v>
   <v>      -0.10874157      -0.21349161       0.19550665 </v>
   <v>      -0.10874157       0.19550665      -0.21349161 </v>
   <v>       0.21591860       0.18631045       0.18631045 </v>
   <v>       0.36400565       0.36400565       0.36400565 </v>
   <v>       0.49314419      -1.04044926       0.49314419 </v>
   <v>       0.49314419       0.49314419      -1.04044926 </v>
   <v>      -1.04044926       0.49314419       0.49314419 </v>
   <v>      -0.03366480      -0.03366480      -0.03366480 </v>
  </varray>
  <varray name="stress" >
   <v>      26.95821718     -14.19667267     -14.19667267 </v>
   <v>     -14.19667267      26.95821718     -14.19667267 </v>
   <v>     -14.19667267     -14.19667267      26.95821718 </v>
  </varray>
  <energy>
   <i name="e_fr_energy">    -99.48550665 </i>
   <i name="e_wo_entrp">    -99.44416937 </i>
   <i name="e_0_energy">     -0.12401184 </i>
  </energy>
  <time name="totalsc">    3.73    3.77</time>
 </calculation>
 <calculation>
  <scstep>
   <time name="diag">    0.09    0.09</time>
   <time name="diis">    0.31    0.31</time>
   <time name="orth">    0.01    0.01</time>
   <time name="total">    0.58    0.59</time>
   <energy>
    <i name="alphaZ">     -8.27958290 </i>
    <i name="ewald">  -2388.17742513 </i>
    <i name="hartreedc">    -15.50032041 </i>
    <i name="XCdc">   -841.22110398 </i>
    <i name="pawpsdc">   1152.96984157 </i>
    <i name="pawaedc">   -119.91382175 </i>
    <i name="eentropy">     -0.05443865 </i>
    <i name="bandstr">    384.11304894 </i>
    <i name="atom">   1736.20668909 </i>
    <i name="e_fr_energy">    -99.85711322 </i>
    <i name="e_wo_entrp">    -99.80267457 </i>
    <i name="e_0_energy">    -99.83896700 </i>
   </energy>
  </scstep>
  <scstep>
   <time name="diag">    0.09    0.09</time>
   <time name="diis">    0.31    0.31</time>
   <time name="orth">    0.01    0.01</time>
   <time name="total">    0.57    0.58</time>
   <energy>
    <i name="e_fr_energy">    -99.76927403 </i>
    <i name="e_wo_entrp">    -99.69360256 </i>
    <i name="e_0_energy">    -99.74405021 </i>
   </energy>
  </scstep>
  <scstep>
   <time name="diag">    0.09    0.09</time>
   <time name="diis">    0.31    0.31</time>
   <time name="orth">    0.01    0.01</time>
   <time name="total">    0.58    0.59</time>
   <energy>
    <i name="e_fr_energy">    -99.75730179 </i>
    <i name="e_wo_entrp">    -99.68035794 </i>
    <i name="e_0_energy">    -99.73165384 </i>
   </energy>
  </scstep>
  <scstep>
   <time name="diag">    0.09    0.09</time>
   <time name="diis">    0.31    0.31</time>
   <time name="orth">    0.01    0.01</time>
   <time name="total">    0.56    0.57</time>
   <energy>
    <i name="e_fr_energy">    -99.75602761 </i>
    <i name="e_wo_entrp">    -99.67857999 </i>
    <i name="e_0_energy">    -99.73021174 </i>
   </energy>
  </scstep>
  <scstep>
   <time name="diag">    0.09    0.09</time>
   <time name="diis">    0.23    0.23</time>
   <time name="orth">    0.01    0.01</time>
   <time name="total">    0.42    0.46</time>
   <energy>
    <i name="alphaZ">     -8.27958290 </i>
    <i name="ewald">  -2388.17742513 </i>
    <i name="hartreedc">    -15.99562067 </i>
    <i name="XCdc">   -841.19373932 </i>
    <i name="pawpsdc">   1153.34108378 </i>
    <i name="pawaedc">   -120.29318224 </i>
    <i name="eentropy">     -0.07779159 </i>
    <i name="bandstr">    384.71357887 </i>
    <i name="atom">   1736.20668909 </i>
    <i name="e_fr_energy">    -99.75599011 </i>
    <i name="e_wo_entrp">    -99.67819853 </i>
    <i name="e_0_energy">    -99.73005958 </i>
   </energy>
  </scstep>
  <structure>
   <crystal>
    <varray name="basis" >
     <v>       8.08704000       0.00000000       0.00000000 </v>
     <v>       0.00000000       8.08704000       0.00000000 </v>
     <v>       0.00000000       0.00000000       8.08704000 </v>
    </varray>
    <i name="volume">    528.89416249 </i>
    <varray name="rec_basis" >
     <v>       0.12365464       0.00000000       0.00000000 </v>
     <v>       0.00000000       0.12365464       0.00000000 </v>
     <v>       0.00000000       0.00000000       0.12365464 </v>
    </varray>
   </crystal>
   <varray name="positions" >
    <v>       0.00282533       0.00282533       0.00282533 </v>
    <v>       0.24832702       0.00525839       0.24832702 </v>
    <v>       0.24832702       0.24832702       0.00525839 </v>
    <v>       0.00525839       0.24832702       0.24832702 </v>
    <v>       0.50101528       0.00779773       0.00779773 </v>
    <v>       0.74310846       0.01444011       0.23752792 </v>
    <v>       0.74310846       0.23752792       0.01444011 </v>
    <v>       0.50222092       0.24710663       0.24710663 </v>
    <v>       0.00779773       0.50101528       0.00779773 </v>
    <v>       0.24710663       0.50222092       0.24710663 </v>
    <v>       0.23752792       0.74310846       0.01444011 </v>
    <v>       0.01444011       0.74310846       0.23752792 </v>
    <v>       0.49979820       0.49979820      -0.00035197 </v>
    <v>       0.75147246       0.50054935       0.24597100 </v>
    <v>       0.74978266       0.74978266       0.00183024 </v>
    <v>       0.50054935       0.75147246       0.24597100 </v>
    <v>       0.00779773       0.00779773       0.50101528 </v>
    <v>       0.23752792       0.01444011       0.74310846 </v>
    <v>       0.24710663       0.24710663       0.50222092 </v>
    <v>       0.01444011       0.23752792       0.74310846 </v>
    <v>       0.49979820      -0.00035197       0.49979820 </v>
    <v>       0.74978266       0.00183024       0.74978266 </v>
    <v>       0.75147246       0.24597100       0.50054935 </v>
    <v>       0.50054935       0.24597100       0.75147246 </v>
    <v>      -0.00035197       0.49979820       0.49979820 </v>
    <v>       0.24597100       0.50054935       0.75147246 </v>
    <v>       0.24597100       0.75147246       0.50054935 </v>
    <v>       0.00183024       0.74978266       0.74978266 </v>
    <v>       0.47528441       0.47528441       0.47528441 </v>
    <v>       0.78813364       0.42567063       0.78813364 </v>
    <v>       0.78813364       0.78813364       0.42567063 </v>
    <v>       0.42567063       0.78813364       0.78813364 </v>
    <v>       0.67821641       0.67821641       0.67821641 </v>
   </varray>
  </structure>
  <varray name="forces" >
   <v>       0.04665620       0.04665620       0.04665620 </v>
   <v>       0.05216398       0.34757984       0.05216398 </v>
   <v>       0.05216398       0.05216398       0.34757984 </v>
   <v>       0.34757984       0.05216398       0.05216398 </v>
   <v>      -0.12439213       0.08031413       0.08031413 </v>
   <v>      -0.17601994       0.32402822      -0.18484955 </v>
   <v>      -0.17601994      -0.18484955       0.32402822 </v>
   <v>      -0.27377917      -0.09206774      -0.09206774 </v>
   <v>       0.08031413      -0.12439213       0.08031413 </v>
   <v>      -0.09206774      -0.27377917      -0.09206774 </v>
   <v>      -0.18484955      -0.17601994       0.32402822 </v>
   <v>       0.32402822      -0.17601994      -0.18484955 </v>
   <v>      -0.14475563      -0.14475563       0.05187251 </v>
   <v>       0.13773883      -0.15435187      -0.11776448 </v>
   <v>       0.18607190       0.18607190       0.10918115 </v>
   <v>      -0.15435187       0.13773883      -0.11776448 </v>
   <v>       0.08031413       0.08031413      -0.12439213 </v>
   <v>      -0.18484955       0.32402822      -0.17601994 </v>
   <v>      -0.09206774      -0.09206774      -0.27377917 </v>
   <v>       0.32402822      -0.18484955      -0.17601994 </v>
   <v>      -0.14475563       0.05187251      -0.14475563 </v>
   <v>       0.18607190       0.10918115       0.18607190 </v>
   <v>       0.13773883      -0.11776448      -0.15435187 </v>
   <v>      -0.15435187      -0.11776448       0.13773883 </v>
   <v>       0.05187251      -0.14475563      -0.14475563 </v>
   <v>      -0.11776448      -0.15435187       0.13773883 </v>
   <v>      -0.11776448       0.13773883      -0.15435187 </v>
   <v>       0.10918115       0.18607190       0.18607190 </v>
   <v>       0.15167257       0.15167257       0.15167257 </v>
   <v>      -0.11194238       0.08224508      -0.11194238 </v>
   <v>      -0.11194238      -0.11194238       0.08224508 </v>
   <v>       0.08224508      -0.11194238      -0.11194238 </v>
   <v>       0.01183299       0.01183299       0.01183299 </v>
  </varray>
  <varray name="stress" >
   <v>      27.45279415     -14.83616193     -14.83616193 </v>
   <v>     -14.83616193      27.45279415     -14.83616193 </v>
   <v>     -14.83616193     -14.83616193      27.45279415 </v>
  </varray>
  <energy>
   <i name="e_fr_energy">    -99.75599011 </i>
   <i name="e_wo_entrp">    -99.73005958 </i>
   <i name="e_0_energy">     -0.07779159 </i>
  </energy>
  <time name="totalsc">    3.50    3.60</time>
 </calculation>
 <calculation>
  <scstep>
   <time name="diag">    0.09    0.09</time>
   <time name="diis">    0.31    0.31</time>
   <time name="orth">    0.01    0.01</time>
   <time name="total">    0.57    0.58</time>
   <energy>
    <i name="alphaZ">     -8.27958290 </i>
    <i name="ewald">  -2388.09534024 </i>
    <i name="hartreedc">    -16.05892410 </i>
    <i name="XCdc">   -841.19135381 </i>
    <i name="pawpsdc">   1153.36325923 </i>
    <i name="pawaedc">   -120.31565555 </i>
    <i name="eentropy">     -0.07614760 </i>
    <i name="bandstr">    384.69084179 </i>
    <i name="atom">   1736.20668909 </i>
    <i name="e_fr_energy">    -99.75621409 </i>
    <i name="e_wo_entrp">    -99.68006649 </i>
    <i name="e_0_energy">    -99.73083156 </i>
   </energy>
  </scstep>
  <scstep>
   <time name="diag">    0.09    0.09</time>
   <time name="diis">    0.23    0.23</time>
   <time name="orth">    0.01    0.01</time>
   <time name="total">    0.39    0.40</time>
   <energy>
    <i name="alphaZ">     -8.27958290 </i>
    <i name="ewald">  -2388.09534024 </i>
    <i name="hartreedc">    -16.07476135 </i>
    <i name="XCdc">   -841.19029947 </i>
    <i name="pawpsdc">   1153.37775711 </i>
    <i name="pawaedc">   -120.33060123 </i>
    <i name="eentropy">     -0.07671948 </i>
    <i name="bandstr">    384.70670037 </i>
    <i name="atom">   1736.20668909 </i>
    <i name="e_fr_energy">    -99.75615809 </i>
    <i name="e_wo_entrp">    -99.67943862 </i>
    <i name="e_0_energy">    -99.73058493 </i>
   </energy>
  </scstep>
  <structure>
   <crystal>
    <varray name="basis" >
     <v>       8.08704000       0.00000000       0.00000000 </v>
     <v>       0.00000000       8.08704000       0.00000000 </v>
     <v>       0.00000000       0.00000000       8.08704000 </v>
    </varray>
    <i name="volume">    528.89416249 </i>
    <varray name="rec_basis" >
     <v>       0.12365464       0.00000000       0.00000000 </v>
     <v>       0.00000000       0.12365464       0.00000000 </v>
     <v>       0.00000000       0.00000000       0.12365464 </v>
    </varray>
   </crystal>
   <varray name="positions" >
    <v>       0.00284797       0.00284797       0.00284797 </v>
    <v>       0.24833539       0.00532706       0.24833539 </v>
    <v>       0.24833539       0.24833539       0.00532706 </v>
    <v>       0.00532706       0.24833539       0.24833539 </v>
    <v>       0.50096977       0.00780225       0.00780225 </v>
    <v>       0.74309752       0.01437419       0.23759485 </v>
    <v>       0.74309752       0.23759485       0.01437419 </v>
    <v>       0.50216748       0.24708406       0.24708406 </v>
    <v>       0.00780225       0.50096977       0.00780225 </v>
    <v>       0.24708406       0.50216748       0.24708406 </v>
    <v>       0.23759485       0.74309752       0.01437419 </v>
    <v>       0.01437419       0.74309752       0.23759485 </v>
    <v>       0.49976784       0.49976784      -0.00035645 </v>
    <v>       0.75150830       0.50051021       0.24595107 </v>
    <v>       0.74981681       0.74981681       0.00186982 </v>
    <v>       0.50051021       0.75150830       0.24595107 </v>
    <v>       0.00780225       0.00780225       0.50096977 </v>
    <v>       0.23759485       0.01437419       0.74309752 </v>
    <v>       0.24708406       0.24708406       0.50216748 </v>
    <v>       0.01437419       0.23759485       0.74309752 </v>
    <v>       0.49976784      -0.00035645       0.49976784 </v>
    <v>       0.74981681       0.00186982       0.74981681 </v>
    <v>       0.75150830       0.24595107       0.50051021 </v>
    <v>       0.50051021       0.24595107       0.75150830 </v>
    <v>      -0.00035645       0.49976784       0.49976784 </v>
    <v>       0.24595107       0.50051021       0.75150830 </v>
    <v>       0.24595107       0.75150830       0.50051021 </v>
    <v>       0.00186982       0.74981681       0.74981681 </v>
    <v>       0.47535114       0.47535114       0.47535114 </v>
    <v>       0.78822404       0.42547990       0.78822404 </v>
    <v>       0.78822404       0.78822404       0.42547990 </v>
    <v>       0.42547990       0.78822404       0.78822404 </v>
    <v>       0.67821024       0.67821024       0.67821024 </v>
   </varray>
  </structure>
  <varray name="forces" >
   <v>       0.04335295       0.04335295       0.04335295 </v>
   <v>       0.05258373       0.34745608       0.05258373 </v>
   <v>       0.05258373       0.05258373       0.34745608 </v>
   <v>       0.34745608       0.05258373       0.05258373 </v>
   <v>      -0.12063102       0.07981465       0.07981465 </v>
   <v>      -0.17907246       0.34003879      -0.19856611 </v>
   <v>      -0.17907246      -0.19856611       0.34003879 </v>
   <v>      -0.27379172      -0.08956724      -0.08956724 </v>
   <v>       0.07981465      -0.12063102       0.07981465 </v>
   <v>      -0.08956724      -0.27379172      -0.08956724 </v>
   <v>      -0.19856611      -0.17907246       0.34003879 </v>
   <v>       0.34003879      -0.17907246      -0.19856611 </v>
   <v>      -0.14333956      -0.14333956       0.05246144 </v>
   <v>       0.13516851      -0.15117809      -0.11630027 </v>
   <v>       0.18615110       0.18615110       0.10460523 </v>
   <v>      -0.15117809       0.13516851      -0.11630027 </v>
   <v>       0.07981465       0.07981465      -0.12063102 </v>
   <v>      -0.19856611       0.34003879      -0.17907246 </v>
   <v>      -0.08956724      -0.08956724      -0.27379172 </v>
   <v>       0.34003879      -0.19856611      -0.17907246 </v>
   <v>      -0.14333956       0.05246144      -0.14333956 </v>
   <v>       0.18615110       0.10460523       0.18615110 </v>
   <v>       0.13516851      -0.11630027      -0.15117809 </v>
   <v>      -0.15117809      -0.11630027       0.13516851 </v>
   <v>       0.05246144      -0.14333956      -0.14333956 </v>
   <v>      -0.11630027      -0.15117809       0.13516851 </v>
   <v>      -0.11630027       0.13516851      -0.15117809 </v>
   <v>       0.10460523       0.18615110       0.18615110 </v>
   <v>       0.14712851       0.14712851       0.14712851 </v>
   <v>      -0.12893865       0.11201323      -0.12893865 </v>
   <v>      -0.12893865      -0.12893865       0.11201323 </v>
   <v>       0.11201323      -0.12893865      -0.12893865 </v>
   <v>       0.01381654       0.01381654       0.01381654 </v>
  </varray>
  <varray name="stress" >
   <v>      27.52289280     -14.87636283     -14.87636283 </v>
   <v>     -14.87636283      27.52289280     -14.87636283 </v>
   <v>     -14.87636283     -14.87636283      27.52289280 </v>
  </varray>
  <energy>
   <i name="e_fr_energy">    -99.75615809 </i>
   <i name="e_wo_entrp">    -99.73058493 </i>
   <i name="e_0_energy">     -0.07671948 </i>
  </energy>
  <time name="totalsc">    1.75    1.78</time>
 </calculation>
 <calculation>
  <scstep>
   <time name="diag">    0.09    0.09</time>
   <time name="diis">    0.31    0.31</time>
   <time name="orth">    0.01    0.01</time>
   <time name="total">    0.57    0.58</time>
   <energy>
    <i name="alphaZ">     -8.27958290 </i>
    <i name="ewald">  -2386.34883351 </i>
    <i name="hartreedc">    -17.64747306 </i>
    <i name="XCdc">   -841.17006028 </i>
    <i name="pawpsdc">   1153.38235503 </i>
    <i name="pawaedc">   -120.33533806 </i>
    <i name="eentropy">     -0.01110605 </i>
    <i name="bandstr">    384.24979399 </i>
    <i name="atom">   1736.20668909 </i>
    <i name="e_fr_energy">    -99.95355575 </i>
    <i name="e_wo_entrp">    -99.94244970 </i>
    <i name="e_0_energy">    -99.94985374 </i>
   </energy>
  </scstep>
  <scstep>
   <time name="diag">    0.09    0.09</time>
   <time name="diis">    0.31    0.31</time>
   <time name="orth">    0.01    0.01</time>
   <time name="total">    0.57    0.57</time>
   <energy>
    <i name="e_fr_energy">    -99.91261867 </i>
    <i name="e_wo_entrp">    -99.86308488 </i>
    <i name="e_0_energy">    -99.89610740 </i>
   </energy>
  </scstep>
  <scstep>
   <time name="diag">    0.09    0.09</time>
   <time name="diis">    0.31    0.31</time>
   <time name="orth">    0.01    0.01</time>
   <time name="total">    0.57    0.57</time>
   <energy>
    <i name="e_fr_energy">    -99.90175034 </i>
    <i name="e_wo_entrp">    -99.85520630 </i>
    <i name="e_0_energy">    -99.88623566 </i>
   </energy>
  </scstep>
  <scstep>
   <time name="diag">    0.09    0.09</time>
   <time name="diis">    0.31    0.31</time>
   <time name="orth">    0.01    0.01</time>
   <time name="total">    0.56    0.57</time>
   <energy>
    <i name="e_fr_energy">    -99.90156286 </i>
    <i name="e_wo_entrp">    -99.85532590 </i>
    <i name="e_0_energy">    -99.88615054 </i>
   </energy>
  </scstep>
  <scstep>
   <time name="diag">    0.09    0.09</time>
   <time name="diis">    0.23    0.23</time>
   <time name="orth">    0.01    0.01</time>
   <time name="total">    0.40    0.40</time>
   <energy>
    <i name="alphaZ">     -8.27958290 </i>
[...]
  </energy>
  <time name="totalsc">    2.95    3.04</time>
  <eigenvalues>
   <array>
    <dimension dim="1">band</dimension>
    <dimension dim="2">kpoint</dimension>
    <dimension dim="3">spin</dimension>
    <field>eigene</field>
    <field>occ</field>
    <set>
     <set comment="spin 1">
      <set comment="kpoint 1">
       <r>   -3.1367    1.0000 </r>
       <r>   -1.1810    1.0000 </r>
       <r>   -1.1810    1.0000 </r>
       <r>   -0.8382    1.0000 </r>
       <r>   -0.8382    1.0000 </r>
       <r>   -0.7723    1.0000 </r>
       <r>   -0.4912    1.0000 </r>
       <r>    0.8518    1.0000 </r>
       <r>    0.8518    1.0000 </r>
       <r>    1.0905    1.0000 </r>
       <r>    1.3346    1.0000 </r>
       <r>    1.3346    1.0000 </r>
       <r>    1.4385    1.0000 </r>
       <r>    1.4615    1.0000 </r>
       <r>    1.4615    1.0000 </r>
       <r>    1.6855    1.0000 </r>
       <r>    1.6855    1.0000 </r>
       <r>    1.7394    1.0000 </r>
       <r>    1.8374    1.0000 </r>
       <r>    3.1450    1.0000 </r>
       <r>    3.5668    1.0000 </r>
       <r>    3.5785    1.0000 </r>
       <r>    3.5785    1.0000 </r>
       <r>    3.7118    1.0000 </r>
       <r>    3.7118    1.0000 </r>
       <r>    3.7639    1.0000 </r>
       <r>    3.8538    1.0000 </r>
       <r>    5.1077    1.0000 </r>
       <r>    5.1900    1.0000 </r>
       <r>    5.1900    1.0000 </r>
       <r>    6.1592    1.0000 </r>
       <r>    6.4625    1.0000 </r>
       <r>    6.4625    1.0000 </r>
       <r>    6.6382    1.0000 </r>
       <r>    6.8519    1.0000 </r>
       <r>    6.8519    1.0000 </r>
       <r>    7.0293    1.0000 </r>
       <r>    7.2180    1.0000 </r>
       <r>    7.2180    1.0000 </r>
       <r>    7.3335    1.0000 </r>
       <r>    7.3939    1.0000 </r>
       <r>    7.3939    1.0000 </r>
       <r>    7.5425    1.0000 </r>
       <r>    7.5425    1.0000 </r>
       <r>    7.6087    1.0000 </r>
       <r>    7.6976    1.0000 </r>
       <r>    7.6976    1.0000 </r>
       <r>    8.1306    1.0281 </r>
       <r>    8.3106    0.9152 </r>
       <r>    8.5571    0.0616 </r>
       <r>    8.5571    0.0616 </r>
       <r>    8.7436   -0.0242 </r>
       <r>    8.7436   -0.0242 </r>
       <r>    8.7872   -0.0147 </r>
       <r>    8.9165   -0.0015 </r>
       <r>    8.9350   -0.0010 </r>
       <r>    8.9350   -0.0010 </r>
       <r>    9.1349    0.0000 </r>
       <r>    9.2183    0.0000 </r>
       <r>    9.2183    0.0000 </r>
       <r>    9.2926    0.0000 </r>
       <r>    9.2926    0.0000 </r>
       <r>    9.4674    0.0000 </r>
       <r>    9.4674    0.0000 </r>
       <r>    9.4882    0.0000 </r>
       <r>    9.6348    0.0000 </r>
       <r>    9.7577    0.0000 </r>
       <r>    9.7577    0.0000 </r>
       <r>    9.8206    0.0000 </r>
       <r>   10.1657    0.0000 </r>
       <r>   10.1657    0.0000 </r>
       <r>   10.7086    0.0000 </r>
       <r>   10.7086    0.0000 </r>
       <r>   10.7723    0.0000 </r>
       <r>   10.7997    0.0000 </r>
       <r>   10.7997    0.0000 </r>
       <r>   10.8768    0.0000 </r>
       <r>   11.1912    0.0000 </r>
       <r>   11.2262    0.0000 </r>
       <r>   11.2262    0.0000 </r>
       <r>   11.8068    0.0000 </r>
       <r>   13.3286    0.0000 </r>
       <r>   13.3850    0.0000 </r>
       <r>   13.3850    0.0000 </r>
       <r>   13.6074    0.0000 </r>
       <r>   13.6074    0.0000 </r>
       <r>   13.7609    0.0000 </r>
       <r>   13.8562    0.0000 </r>
       <r>   13.8562    0.0000 </r>
       <r>   13.9445    0.0000 </r>
       <r>   15.1914    0.0000 </r>
       <r>   15.2466    0.0000 </r>
       <r>   15.2482    0.0000 </r>
       <r>   15.3247    0.0000 </r>
       <r>   15.3256    0.0000 </r>
       <r>   15.4842    0.0000 </r>
      </set>
     </set>
    </set>
   </array>
  </eigenvalues>
  <separator name="orbital magnetization" >
   <v name="MAGDIPOLOUT">      0.00000000      0.00000000      0.00000000</v>
  </separator>
  <dos>
   <i name="efermi">      8.42848523 </i>
   <total>
    <array>
     <dimension dim="1">gridpoints</dimension>
     <dimension dim="2">spin</dimension>
     <field>energy</field>
     <field>total</field>
     <field>integrated</field>
     <set>
      <set comment="spin 1">
       <r>  -5.1367   0.0000   0.0000 </r>
       <r>  -5.0613   0.0000   0.0000 </r>
       <r>  -4.9859   0.0000   0.0000 </r>
       <r>  -4.9105   0.0000   0.0000 </r>
       <r>  -4.8351   0.0000   0.0000 </r>
       <r>  -4.7597   0.0000   0.0000 </r>
       <r>  -4.6843   0.0000   0.0000 </r>
       <r>  -4.6089   0.0000   0.0000 </r>
       <r>  -4.5335   0.0000   0.0000 </r>
       <r>  -4.4581   0.0000   0.0000 </r>
       <r>  -4.3827   0.0000   0.0000 </r>
       <r>  -4.3073   0.0000   0.0000 </r>
       <r>  -4.2319   0.0000   0.0000 </r>
       <r>  -4.1565   0.0000   0.0000 </r>
       <r>  -4.0811   0.0000   0.0000 </r>
       <r>  -4.0057   0.0000   0.0000 </r>
       <r>  -3.9303   0.0000   0.0000 </r>
       <r>  -3.8549  -0.0001   0.0000 </r>
       <r>  -3.7795  -0.0007  -0.0001 </r>
       <r>  -3.7041  -0.0053  -0.0005 </r>
       <r>  -3.6287  -0.0307  -0.0028 </r>
       <r>  -3.5533  -0.1242  -0.0121 </r>
       <r>  -3.4779  -0.3245  -0.0366 </r>
       <r>  -3.4025  -0.4169  -0.0680 </r>
       <r>  -3.3271   0.3890  -0.0387 </r>
       <r>  -3.2517   2.9455   0.1834 </r>
       <r>  -3.1763   6.4887   0.6727 </r>
       <r>  -3.1009   8.2971   1.2983 </r>
       <r>  -3.0254   6.6404   1.7990 </r>
       <r>  -2.9500   3.1106   2.0335 </r>
       <r>  -2.8746   0.4691   2.0689 </r>
       <r>  -2.7992  -0.4073   2.0382 </r>
       <r>  -2.7238  -0.3353   2.0129 </r>
       <r>  -2.6484  -0.1315   2.0030 </r>
       <r>  -2.5730  -0.0331   2.0005 </r>
       <r>  -2.4976  -0.0058   2.0001 </r>
       <r>  -2.4222  -0.0007   2.0000 </r>
       <r>  -2.3468  -0.0001   2.0000 </r>
       <r>  -2.2714   0.0000   2.0000 </r>
       <r>  -2.1960   0.0000   2.0000 </r>
       <r>  -2.1206   0.0000   2.0000 </r>
       <r>  -2.0452   0.0000   2.0000 </r>
       <r>  -1.9698   0.0000   2.0000 </r>
       <r>  -1.8944  -0.0001   2.0000 </r>
       <r>  -1.8190  -0.0015   1.9999 </r>
       <r>  -1.7436  -0.0119   1.9990 </r>
       <r>  -1.6682  -0.0678   1.9939 </r>
       <r>  -1.5928  -0.2674   1.9737 </r>
       <r>  -1.5174  -0.6773   1.9226 </r>
       <r>  -1.4420  -0.8125   1.8614 </r>
       <r>  -1.3666   0.9565   1.9335 </r>
       <r>  -1.2912   6.1684   2.3986 </r>
       <r>  -1.2158  12.8539   3.3678 </r>
       <r>  -1.1404  15.5041   4.5369 </r>
       <r>  -1.0650  12.0869   5.4483 </r>
       <r>  -0.9896   8.6622   6.1014 </r>
       <r>  -0.9142  12.0490   7.0100 </r>
       <r>  -0.8388  19.7545   8.4995 </r>
       <r>  -0.7634  22.6438  10.2069 </r>
       <r>  -0.6880  17.3191  11.5128 </r>
       <r>  -0.6126  10.0351  12.2695 </r>
       <r>  -0.5372   7.0640  12.8022 </r>
       <r>  -0.4617   7.1686  13.3427 </r>
       <r>  -0.3863   6.0502  13.7989 </r>
       <r>  -0.3109   3.0778  14.0310 </r>
       <r>  -0.2355   0.5366  14.0714 </r>
       <r>  -0.1601  -0.4004  14.0412 </r>
       <r>  -0.0847  -0.3559  14.0144 </r>
       <r>  -0.0093  -0.1453  14.0034 </r>
       <r>   0.0661  -0.0379  14.0006 </r>
       <r>   0.1415  -0.0070  14.0001 </r>
       <r>   0.2169  -0.0025  13.9999 </r>
       <r>   0.2923  -0.0130  13.9989 </r>
       <r>   0.3677  -0.0724  13.9934 </r>
       <r>   0.4431  -0.2813  13.9722 </r>
       <r>   0.5185  -0.6998  13.9195 </r>
       <r>   0.5939  -0.8148  13.8580 </r>
       <r>   0.6693   1.0189  13.9348 </r>
       <r>   0.7447   6.2929  14.4093 </r>
       <r>   0.8201  13.1536  15.4012 </r>
       <r>   0.8955  16.6745  16.6585 </r>
       <r>   0.9709  14.7280  17.7690 </r>
       <r>   1.0463  10.5004  18.5608 </r>
       <r>   1.1217   7.8052  19.1493 </r>
       <r>   1.1971   8.7550  19.8095 </r>
       <r>   1.2725  15.1701  20.9533 </r>
       <r>   1.3479  25.7647  22.8961 </r>
       <r>   1.4233  33.6286  25.4318 </r>
       <r>   1.4987  33.0197  27.9215 </r>
       <r>   1.5741  27.5490  29.9988 </r>
       <r>   1.6495  25.3811  31.9126 </r>
       <r>   1.7249  27.1772  33.9619 </r>
       <r>   1.8003  26.0733  35.9279 </r>
       <r>   1.8757  18.6931  37.3374 </r>
       <r>   1.9511   8.9924  38.0154 </r>
       <r>   2.0265   2.0822  38.1724 </r>
       <r>   2.1020  -0.6868  38.1207 </r>
       <r>   2.1774  -0.9249  38.0509 </r>
       <r>   2.2528  -0.4766  38.0150 </r>
       <r>   2.3282  -0.1563  38.0032 </r>
       <r>   2.4036  -0.0358  38.0005 </r>
       <r>   2.4790  -0.0062  38.0000 </r>
       <r>   2.5544  -0.0036  37.9998 </r>
       <r>   2.6298  -0.0185  37.9984 </r>
       <r>   2.7052  -0.0840  37.9920 </r>
       <r>   2.7806  -0.2547  37.9728 </r>
       <r>   2.8560  -0.4356  37.9400 </r>
       <r>   2.9314  -0.0242  37.9382 </r>
       <r>   3.0068   1.9479  38.0850 </r>
       <r>   3.0822   5.3391  38.4876 </r>
       <r>   3.1576   7.7008  39.0683 </r>
       <r>   3.2330   6.4229  39.5526 </r>
       <r>   3.3084   2.5933  39.7481 </r>
       <r>   3.3838   1.2591  39.8431 </r>
       <r>   3.4592   7.1621  40.3831 </r>
       <r>   3.5346  19.8028  41.8763 </r>
       <r>   3.6100  32.8547  44.3536 </r>
       <r>   3.6854  39.5589  47.3365 </r>
       <r>   3.7608  37.6357  50.1743 </r>
       <r>   3.8362  28.8281  52.3481 </r>
       <r>   3.9116  16.9830  53.6286 </r>
       <r>   3.9870   6.6680  54.1314 </r>
       <r>   4.0624   0.7549  54.1883 </r>
       <r>   4.1378  -1.0677  54.1078 </r>
       <r>   4.2132  -0.8946  54.0404 </r>
       <r>   4.2886  -0.3927  54.0108 </r>
       <r>   4.3640  -0.1150  54.0021 </r>
       <r>   4.4394  -0.0242  54.0003 </r>
       <r>   4.5148  -0.0068  53.9998 </r>
       <r>   4.5902  -0.0225  53.9981 </r>
       <r>   4.6657  -0.1110  53.9897 </r>
       <r>   4.7411  -0.3912  53.9602 </r>
       <r>   4.8165  -0.8911  53.8930 </r>
       <r>   4.8919  -0.9060  53.8247 </r>
       <r>   4.9673   1.6048  53.9457 </r>
       <r>   5.0427   8.5785  54.5926 </r>
       <r>   5.1181  18.0460  55.9533 </r>
       <r>   5.1935  23.3796  57.7162 </r>
       <r>   5.2689  19.8133  59.2101 </r>
       <r>   5.3443  10.4737  59.9999 </r>
       <r>   5.4197   2.4908  60.1877 </r>
       <r>   5.4951  -0.8253  60.1255 </r>
       <r>   5.5705  -1.0261  60.0481 </r>
       <r>   5.6459  -0.4928  60.0109 </r>
       <r>   5.7213  -0.2235  59.9941 </r>
       <r>   5.7967  -0.2882  59.9724 </r>
       <r>   5.8721  -0.4459  59.9387 </r>
       <r>   5.9475  -0.0320  59.9363 </r>
       <r>   6.0229   1.8698  60.0773 </r>
       <r>   6.0983   5.0040  60.4546 </r>
       <r>   6.1737   7.1941  60.9971 </r>
       <r>   6.2491   7.1976  61.5398 </r>
       <r>   6.3245   7.6429  62.1161 </r>
       <r>   6.3999  11.5001  62.9832 </r>
       <r>   6.4753  16.5404  64.2304 </r>
       <r>   6.5507  17.9203  65.5817 </r>
       <r>   6.6261  15.2296  66.7300 </r>
       <r>   6.7015  12.8229  67.6969 </r>
       <r>   6.7769  13.9676  68.7501 </r>
       <r>   6.8523  16.9771  70.0303 </r>
       <r>   6.9277  17.6875  71.3639 </r>
       <r>   7.0031  15.2772  72.5159 </r>
       <r>   7.0785  13.4953  73.5335 </r>
       <r>   7.1539  15.9573  74.7367 </r>
       <r>   7.2294  22.2344  76.4132 </r>
       <r>   7.3048  28.7156  78.5785 </r>
       <r>   7.3802  32.4179  81.0229 </r>
       <r>   7.4556  33.6522  83.5604 </r>
       <r>   7.5310  34.6670  86.1744 </r>
       <r>   7.6064  35.4538  88.8477 </r>
       <r>   7.6818  32.5268  91.3003 </r>
       <r>   7.7572  23.5486  93.0759 </r>
       <r>   7.8326  11.5709  93.9484 </r>
       <r>   7.9080   2.6734  94.1500 </r>
       <r>   7.9834   0.3351  94.1752 </r>
       <r>   8.0588   3.3117  94.4250 </r>
       <r>   8.1342   7.7718  95.0110 </r>
       <r>   8.2096  10.4930  95.8022 </r>
       <r>   8.2850  10.6468  96.6050 </r>
       <r>   8.3604   9.6146  97.3299 </r>
       <r>   8.4358   9.9481  98.0801 </r>
       <r>   8.5112  13.2340  99.0779 </r>
       <r>   8.5866  18.3304 100.4601 </r>
       <r>   8.6620  23.5436 102.2354 </r>
       <r>   8.7374  28.7671 104.4045 </r>
       <r>   8.8128  33.2758 106.9136 </r>
       <r>   8.8882  34.4176 109.5088 </r>
       <r>   8.9636  30.4413 111.8041 </r>
       <r>   9.0390  24.3296 113.6386 </r>
       <r>   9.1144  22.8605 115.3624 </r>
       <r>   9.1898  28.3640 117.5011 </r>
       <r>   9.2652  34.6654 120.1150 </r>
       <r>   9.3406  35.8132 122.8154 </r>
       <r>   9.4160  33.1972 125.3186 </r>
       <r>   9.4914  30.0353 127.5833 </r>
       <r>   9.5668  26.7933 129.6036 </r>
       <r>   9.6422  24.9086 131.4818 </r>
       <r>   9.7176  25.9956 133.4420 </r>
       <r>   9.7931  26.3662 135.4300 </r>
       <r>   9.8685  20.7691 136.9961 </r>
       <r>   9.9439  11.3594 137.8526 </r>
       <r>  10.0193   6.2960 138.3274 </r>
       <r>  10.0947   9.2610 139.0257 </r>
       <r>  10.1701  14.6722 140.1320 </r>
       <r>  10.2455  14.7276 141.2425 </r>
       <r>  10.3209   8.5167 141.8847 </r>
       <r>  10.3963   1.2978 141.9825 </r>
       <r>  10.4717  -2.2914 141.8098 </r>
       <r>  10.5471   0.1957 141.8245 </r>
       <r>  10.6225  10.7447 142.6347 </r>
       <r>  10.6979  27.5431 144.7115 </r>
       <r>  10.7733  41.1912 147.8175 </r>
       <r>  10.8487  41.2009 150.9241 </r>
       <r>  10.9241  27.7177 153.0141 </r>
       <r>  10.9995  12.5752 153.9623 </r>
       <r>  11.0749   7.7984 154.5504 </r>
       <r>  11.1503  14.4852 155.6426 </r>
       <r>  11.2257  22.5312 157.3415 </r>
       <r>  11.3011  21.7482 158.9814 </r>
       <r>  11.3765  12.6009 159.9316 </r>
       <r>  11.4519   3.2174 160.1742 </r>
       <r>  11.5273  -1.1860 160.0847 </r>
       <r>  11.6027  -1.0591 160.0049 </r>
       <r>  11.6781   1.7758 160.1388 </r>
       <r>  11.7535   5.7129 160.5695 </r>
       <r>  11.8289   8.1834 161.1866 </r>
       <r>  11.9043   7.1623 161.7266 </r>
       <r>  11.9797   3.7530 162.0096 </r>
       <r>  12.0551   0.8116 162.0708 </r>
       <r>  12.1305  -0.3505 162.0444 </r>
       <r>  12.2059  -0.3739 162.0162 </r>
       <r>  12.2813  -0.1617 162.0040 </r>
       <r>  12.3568  -0.0438 162.0007 </r>
       <r>  12.4322  -0.0082 162.0001 </r>
       <r>  12.5076  -0.0011 162.0000 </r>
       <r>  12.5830  -0.0001 162.0000 </r>
       <r>  12.6584  -0.0004 162.0000 </r>
       <r>  12.7338  -0.0036 161.9997 </r>
       <r>  12.8092  -0.0253 161.9978 </r>
       <r>  12.8846  -0.1294 161.9880 </r>
       <r>  12.9600  -0.4602 161.9533 </r>
       <r>  13.0354  -1.0400 161.8749 </r>
       <r>  13.1108  -0.9971 161.7997 </r>
       <r>  13.1862   2.0091 161.9512 </r>
       <r>  13.2616   9.7262 162.6846 </r>
       <r>  13.3370  19.2549 164.1365 </r>
       <r>  13.4124  24.2498 165.9650 </r>
       <r>  13.4878  22.8678 167.6893 </r>
       <r>  13.5632  19.9758 169.1955 </r>
       <r>  13.6386  19.7141 170.6820 </r>
       <r>  13.7140  22.0702 172.3462 </r>
       <r>  13.7894  25.8459 174.2950 </r>
       <r>  13.8648  28.3864 176.4355 </r>
       <r>  13.9402  25.5131 178.3592 </r>
       <r>  14.0156  16.6820 179.6171 </r>
       <r>  14.0910   6.7988 180.1298 </r>
       <r>  14.1664   0.7093 180.1832 </r>
       <r>  14.2418  -1.1011 180.1002 </r>
       <r>  14.3172  -0.8593 180.0354 </r>
       <r>  14.3926  -0.3521 180.0089 </r>
       <r>  14.4680  -0.0961 180.0016 </r>
       <r>  14.5434  -0.0194 180.0002 </r>
       <r>  14.6188  -0.0094 179.9994 </r>
       <r>  14.6942  -0.0447 179.9961 </r>
       <r>  14.7696  -0.2107 179.9802 </r>
       <r>  14.8450  -0.6968 179.9276 </r>
       <r>  14.9205  -1.4616 179.8174 </r>
       <r>  14.9959  -1.2024 179.7268 </r>
       <r>  15.0713   3.2802 179.9741 </r>
       <r>  15.1467  14.4639 181.0647 </r>
       <r>  15.2221  28.9591 183.2483 </r>
       <r>  15.2975  37.7402 186.0941 </r>
       <r>  15.3729  35.0460 188.7366 </r>
       <r>  15.4483  24.4666 190.5815 </r>
       <r>  15.5237  13.4409 191.5950 </r>
       <r>  15.5991   5.7207 192.0263 </r>
       <r>  15.6745   1.3546 192.1285 </r>
       <r>  15.7499  -0.4571 192.0940 </r>
       <r>  15.8253  -0.6900 192.0420 </r>
       <r>  15.9007  -0.3850 192.0129 </r>
       <r>  15.9761  -0.1337 192.0029 </r>
       <r>  16.0515  -0.0318 192.0005 </r>
       <r>  16.1269  -0.0054 192.0001 </r>
       <r>  16.2023  -0.0007 192.0000 </r>
       <r>  16.2777  -0.0001 192.0000 </r>
       <r>  16.3531   0.0000 192.0000 </r>
       <r>  16.4285   0.0000 192.0000 </r>
       <r>  16.5039   0.0000 192.0000 </r>
       <r>  16.5793   0.0000 192.0000 </r>
       <r>  16.6547   0.0000 192.0000 </r>
       <r>  16.7301   0.0000 192.0000 </r>
       <r>  16.8055   0.0000 192.0000 </r>
       <r>  16.8809   0.0000 192.0000 </r>
       <r>  16.9563   0.0000 192.0000 </r>
       <r>  17.0317   0.0000 192.0000 </r>
       <r>  17.1071   0.0000 192.0000 </r>
       <r>  17.1825   0.0000 192.0000 </r>
       <r>  17.2579   0.0000 192.0000 </r>
       <r>  17.3333   0.0000 192.0000 </r>
       <r>  17.4087   0.0000 192.0000 </r>
       <r>  17.4842   0.0000 192.0000 </r>
      </set>
     </set>
    </array>
   </total>
  </dos>
 </calculation>
 <structure name="finalpos" >
  <crystal>
   <varray name="basis" >
    <v>       8.08704000       0.00000000       0.00000000 </v>
    <v>       0.00000000       8.08704000       0.00000000 </v>
    <v>       0.00000000       0.00000000       8.08704000 </v>
   </varray>
   <i name="volume">    528.89416249 </i>
   <varray name="rec_basis" >
    <v>       0.12365464       0.00000000       0.00000000 </v>
    <v>       0.00000000       0.12365464       0.00000000 </v>
    <v>       0.00000000       0.00000000       0.12365464 </v>
   </varray>
  </crystal>
  <varray name="positions" >
   <v>       0.00970196       0.00970196       0.00970196 </v>
   <v>       0.25082978       0.01565550       0.25082978 </v>
   <v>       0.25082978       0.25082978       0.01565550 </v>
   <v>       0.01565550       0.25082978       0.25082978 </v>
   <v>       0.48721270       0.00478647       0.00478647 </v>
   <v>       0.73589542       0.02748249       0.24581209 </v>
   <v>       0.73589542       0.24581209       0.02748249 </v>
   <v>       0.47940026       0.24232911       0.24232911 </v>
   <v>       0.00478647       0.48721270       0.00478647 </v>
   <v>       0.24232911       0.47940026       0.24232911 </v>
   <v>       0.24581209       0.73589542       0.02748249 </v>
   <v>       0.02748249       0.73589542       0.24581209 </v>
   <v>       0.48802878       0.48802878       0.00540108 </v>
   <v>       0.75675979       0.48221560       0.23660451 </v>
   <v>       0.76877120       0.76877120       0.04721574 </v>
   <v>       0.48221560       0.75675979       0.23660451 </v>
   <v>       0.00478647       0.00478647       0.48721270 </v>
   <v>       0.24581209       0.02748249       0.73589542 </v>
   <v>       0.24232911       0.24232911       0.47940026 </v>
   <v>       0.02748249       0.24581209       0.73589542 </v>
   <v>       0.48802878       0.00540108       0.48802878 </v>
   <v>       0.76877120       0.04721574       0.76877120 </v>
   <v>       0.75675979       0.23660451       0.48221560 </v>
   <v>       0.48221560       0.23660451       0.75675979 </v>
   <v>       0.00540108       0.48802878       0.48802878 </v>
   <v>       0.23660451       0.48221560       0.75675979 </v>
   <v>       0.23660451       0.75675979       0.48221560 </v>
   <v>       0.04721574       0.76877120       0.76877120 </v>
   <v>       0.48898029       0.48898029       0.48898029 </v>
   <v>       0.76490204       0.40039387       0.76490204 </v>
   <v>       0.76490204       0.76490204       0.40039387 </v>
   <v>       0.40039387       0.76490204       0.76490204 </v>
   <v>       0.71720407       0.71720407       0.71720407 </v>
  </varray>
 </structure>
</modeling>
