  31  31   0   0
  0.1706118E+02  0.8087052E-09  0.8087052E-09  0.8087052E-09  0.5000000E-15
  1.000000000000000E-004
  CAR 
 unknown system                          
     13.26620068     -4.95700746  301      7.85291554      1.00000000
     -4.957  0.0000E+00  0.0000E+00
     -4.896  0.0000E+00  0.0000E+00
     -4.836  0.0000E+00  0.0000E+00
     -4.775  0.0000E+00  0.0000E+00
     -4.714  0.0000E+00  0.0000E+00
     -4.653  0.0000E+00  0.0000E+00
     -4.593 -0.3225E-29 -0.1959E-30
     -4.532 -0.4052E-27 -0.2481E-28
     -4.471 -0.4253E-25 -0.2608E-26
     -4.410 -0.3705E-23 -0.2277E-24
     -4.350 -0.2678E-21 -0.1650E-22
     -4.289 -0.1606E-19 -0.9921E-21
     -4.228 -0.7987E-18 -0.4951E-19
     -4.167 -0.3293E-16 -0.2050E-17
     -4.107 -0.1092E-14 -0.6835E-16
     -4.046 -0.3078E-13 -0.1938E-14
     -3.985 -0.7181E-12 -0.4556E-13
     -3.924 -0.1385E-10 -0.8868E-12
     -3.864 -0.2205E-09 -0.1428E-10
     -3.803 -0.2896E-08 -0.1902E-09
     -3.742 -0.3130E-07 -0.2091E-08
     -3.681 -0.2778E-06 -0.1896E-07
     -3.621 -0.2018E-05 -0.1415E-06
     -3.560 -0.1194E-04 -0.8668E-06
     -3.499 -0.5717E-04 -0.4340E-05
     -3.438 -0.2191E-03 -0.1765E-04
     -3.378 -0.6587E-03 -0.5766E-04
     -3.317 -0.1494E-02 -0.1484E-03
     -3.256 -0.2300E-02 -0.2881E-03
     -3.195 -0.1350E-02 -0.3701E-03
     -3.135  0.4265E-02 -0.1110E-03
     -3.074  0.1626E-01  0.8764E-03
     -3.013  0.3160E-01  0.2796E-02
     -2.952  0.4243E-01  0.5374E-02
     -2.892  0.4178E-01  0.7911E-02
     -2.831  0.3008E-01  0.9739E-02
     -2.770  0.1477E-01  0.1064E-01
     -2.709  0.3397E-02  0.1084E-01
     -2.649 -0.1610E-02  0.1074E-01
     -2.588 -0.2258E-02  0.1061E-01
     -2.527 -0.1408E-02  0.1052E-01
     -2.467 -0.6592E-03  0.1048E-01
     -2.406 -0.4481E-03  0.1045E-01
     -2.345 -0.8629E-03  0.1040E-01
     -2.284 -0.2019E-02  0.1028E-01
     -2.224 -0.3603E-02  0.1006E-01
     -2.163 -0.3725E-02  0.9834E-02
     -2.102  0.1719E-02  0.9939E-02
     -2.041  0.1702E-01  0.1097E-01
     -1.981  0.4184E-01  0.1351E-01
     -1.920  0.6837E-01  0.1767E-01
     -1.859  0.8560E-01  0.2287E-01
     -1.798  0.8788E-01  0.2821E-01
     -1.738  0.7820E-01  0.3296E-01
     -1.677  0.6289E-01  0.3678E-01
     -1.616  0.4580E-01  0.3956E-01
     -1.555  0.2855E-01  0.4129E-01
     -1.495  0.1342E-01  0.4211E-01
     -1.434  0.3091E-02  0.4229E-01
     -1.373 -0.1657E-02  0.4219E-01
     -1.312 -0.2544E-02  0.4204E-01
     -1.252 -0.2105E-02  0.4191E-01
     -1.191 -0.2107E-02  0.4178E-01
     -1.130 -0.3041E-02  0.4160E-01
     -1.069 -0.3782E-02  0.4137E-01
     -1.009 -0.1086E-02  0.4130E-01
     -0.948  0.9480E-02  0.4188E-01
     -0.887  0.2969E-01  0.4368E-01
     -0.826  0.5442E-01  0.4699E-01
     -0.766  0.7292E-01  0.5142E-01
     -0.705  0.7679E-01  0.5608E-01
     -0.644  0.6712E-01  0.6016E-01
     -0.583  0.5286E-01  0.6337E-01
     -0.523  0.4230E-01  0.6594E-01
     -0.462  0.3705E-01  0.6819E-01
     -0.401  0.3328E-01  0.7021E-01
     -0.340  0.2701E-01  0.7185E-01
     -0.280  0.1777E-01  0.7293E-01
     -0.219  0.8269E-02  0.7343E-01
     -0.158  0.1313E-02  0.7351E-01
     -0.097 -0.2537E-02  0.7336E-01
     -0.037 -0.4577E-02  0.7308E-01
      0.024 -0.5493E-02  0.7275E-01
      0.085 -0.3065E-02  0.7256E-01
      0.145  0.7559E-02  0.7302E-01
      0.206  0.2982E-01  0.7483E-01
      0.267  0.6042E-01  0.7850E-01
      0.328  0.8863E-01  0.8389E-01
      0.388  0.1032E+00  0.9015E-01
      0.449  0.1007E+00  0.9627E-01
      0.510  0.8742E-01  0.1016E+00
      0.571  0.7197E-01  0.1060E+00
      0.631  0.5856E-01  0.1095E+00
      0.692  0.4577E-01  0.1123E+00
      0.753  0.3146E-01  0.1142E+00
      0.814  0.1680E-01  0.1152E+00
      0.874  0.5155E-02  0.1155E+00
      0.935 -0.1647E-02  0.1154E+00
      0.996 -0.4866E-02  0.1151E+00
      1.057 -0.6758E-02  0.1147E+00
      1.117 -0.7158E-02  0.1143E+00
      1.178 -0.1431E-02  0.1142E+00
      1.239  0.1775E-01  0.1153E+00
      1.300  0.5385E-01  0.1186E+00
      1.360  0.9923E-01  0.1246E+00
      1.421  0.1357E+00  0.1328E+00
      1.482  0.1461E+00  0.1417E+00
      1.543  0.1283E+00  0.1495E+00
      1.603  0.9676E-01  0.1554E+00
      1.664  0.7001E-01  0.1596E+00
      1.725  0.5676E-01  0.1631E+00
      1.786  0.5363E-01  0.1663E+00
      1.846  0.5294E-01  0.1695E+00
      1.907  0.4956E-01  0.1726E+00
      1.968  0.4171E-01  0.1751E+00
      2.029  0.2992E-01  0.1769E+00
      2.089  0.1681E-01  0.1779E+00
      2.150  0.5948E-02  0.1783E+00
      2.211 -0.6879E-03  0.1782E+00
      2.272 -0.3844E-02  0.1780E+00
      2.332 -0.5402E-02  0.1777E+00
      2.393 -0.5471E-02  0.1774E+00
      2.454 -0.6682E-03  0.1773E+00
      2.515  0.1431E-01  0.1782E+00
      2.575  0.4146E-01  0.1807E+00
      2.636  0.7445E-01  0.1852E+00
      2.697  0.9996E-01  0.1913E+00
      2.757  0.1062E+00  0.1977E+00
      2.818  0.9123E-01  0.2033E+00
      2.879  0.6321E-01  0.2071E+00
      2.940  0.3400E-01  0.2092E+00
      3.000  0.1220E-01  0.2099E+00
      3.061  0.3040E-03  0.2100E+00
      3.122 -0.4135E-02  0.2097E+00
      3.183 -0.5378E-02  0.2094E+00
      3.243 -0.6519E-02  0.2090E+00
      3.304 -0.7398E-02  0.2085E+00
      3.365 -0.3538E-02  0.2083E+00
      3.426  0.1275E-01  0.2091E+00
      3.486  0.4747E-01  0.2120E+00
      3.547  0.9760E-01  0.2179E+00
      3.608  0.1477E+00  0.2269E+00
      3.669  0.1761E+00  0.2376E+00
      3.729  0.1687E+00  0.2478E+00
      3.790  0.1305E+00  0.2557E+00
      3.851  0.8311E-01  0.2608E+00
      3.912  0.4923E-01  0.2638E+00
      3.972  0.3670E-01  0.2660E+00
      4.033  0.3622E-01  0.2682E+00
      4.094  0.3365E-01  0.2703E+00
      4.155  0.2304E-01  0.2717E+00
      4.215  0.8350E-02  0.2722E+00
      4.276 -0.3515E-02  0.2720E+00
      4.337 -0.7460E-02  0.2715E+00
      4.398  0.6561E-03  0.2715E+00
      4.458  0.2470E-01  0.2730E+00
      4.519  0.6430E-01  0.2769E+00
      4.580  0.1105E+00  0.2837E+00
      4.641  0.1486E+00  0.2927E+00
      4.701  0.1674E+00  0.3029E+00
      4.762  0.1666E+00  0.3130E+00
      4.823  0.1553E+00  0.3224E+00
      4.884  0.1419E+00  0.3310E+00
      4.944  0.1286E+00  0.3388E+00
      5.005  0.1137E+00  0.3457E+00
      5.066  0.9673E-01  0.3516E+00
      5.127  0.8006E-01  0.3565E+00
      5.187  0.6490E-01  0.3604E+00
      5.248  0.4970E-01  0.3634E+00
      5.309  0.3289E-01  0.3654E+00
      5.369  0.1592E-01  0.3664E+00
      5.430  0.2700E-02  0.3666E+00
      5.491 -0.3031E-02  0.3664E+00
      5.552  0.9241E-03  0.3664E+00
      5.612  0.1460E-01  0.3673E+00
      5.673  0.3443E-01  0.3694E+00
      5.734  0.5300E-01  0.3726E+00
      5.795  0.6276E-01  0.3765E+00
      5.855  0.6092E-01  0.3802E+00
      5.916  0.5010E-01  0.3832E+00
      5.977  0.3520E-01  0.3853E+00
      6.038  0.2120E-01  0.3866E+00
      6.098  0.1313E-01  0.3874E+00
      6.159  0.1464E-01  0.3883E+00
      6.220  0.2451E-01  0.3898E+00
      6.281  0.3542E-01  0.3920E+00
      6.341  0.3835E-01  0.3943E+00
      6.402  0.2964E-01  0.3961E+00
      6.463  0.1434E-01  0.3970E+00
      6.524  0.3583E-02  0.3972E+00
      6.584  0.8541E-02  0.3977E+00
      6.645  0.3364E-01  0.3997E+00
      6.706  0.7154E-01  0.4041E+00
      6.767  0.1062E+00  0.4105E+00
      6.827  0.1259E+00  0.4182E+00
      6.888  0.1346E+00  0.4264E+00
      6.949  0.1444E+00  0.4351E+00
      7.010  0.1572E+00  0.4447E+00
      7.070  0.1599E+00  0.4544E+00
      7.131  0.1384E+00  0.4628E+00
      7.192  0.9535E-01  0.4686E+00
      7.253  0.4796E-01  0.4715E+00
      7.313  0.1319E-01  0.4723E+00
      7.374 -0.3782E-02  0.4721E+00
      7.435 -0.8322E-02  0.4716E+00
      7.496 -0.8257E-02  0.4711E+00
      7.556 -0.7495E-02  0.4706E+00
      7.617 -0.4151E-02  0.4704E+00
      7.678  0.7415E-02  0.4708E+00
      7.738  0.3129E-01  0.4727E+00
      7.799  0.6425E-01  0.4766E+00
      7.860  0.9585E-01  0.4824E+00
      7.921  0.1171E+00  0.4895E+00
      7.981  0.1295E+00  0.4974E+00
      8.042  0.1429E+00  0.5061E+00
      8.103  0.1632E+00  0.5160E+00
      8.164  0.1836E+00  0.5272E+00
      8.224  0.1892E+00  0.5387E+00
      8.285  0.1705E+00  0.5490E+00
      8.346  0.1313E+00  0.5570E+00
      8.407  0.8519E-01  0.5622E+00
      8.467  0.4512E-01  0.5649E+00
      8.528  0.1758E-01  0.5660E+00
      8.589  0.2510E-02  0.5661E+00
      8.650 -0.3651E-02  0.5659E+00
      8.710 -0.5331E-02  0.5656E+00
      8.771 -0.6028E-02  0.5652E+00
      8.832 -0.6667E-02  0.5648E+00
      8.893 -0.4217E-02  0.5646E+00
      8.953  0.7577E-02  0.5650E+00
      9.014  0.3310E-01  0.5670E+00
      9.075  0.6779E-01  0.5711E+00
      9.136  0.9809E-01  0.5771E+00
      9.196  0.1131E+00  0.5840E+00
      9.257  0.1163E+00  0.5910E+00
      9.318  0.1207E+00  0.5984E+00
      9.379  0.1305E+00  0.6063E+00
      9.439  0.1338E+00  0.6144E+00
      9.500  0.1162E+00  0.6215E+00
      9.561  0.7814E-01  0.6262E+00
      9.622  0.3471E-01  0.6283E+00
      9.682  0.2015E-02  0.6285E+00
      9.743 -0.1192E-01  0.6277E+00
      9.804 -0.4109E-02  0.6275E+00
      9.865  0.2767E-01  0.6292E+00
      9.925  0.8087E-01  0.6341E+00
      9.986  0.1416E+00  0.6427E+00
     10.047  0.1877E+00  0.6541E+00
     10.108  0.2010E+00  0.6663E+00
     10.168  0.1778E+00  0.6771E+00
     10.229  0.1289E+00  0.6849E+00
     10.290  0.7315E-01  0.6894E+00
     10.350  0.3018E-01  0.6912E+00
     10.411  0.1366E-01  0.6920E+00
     10.472  0.2629E-01  0.6936E+00
     10.533  0.5854E-01  0.6972E+00
     10.593  0.9220E-01  0.7028E+00
     10.654  0.1089E+00  0.7094E+00
     10.715  0.1013E+00  0.7156E+00
     10.776  0.7831E-01  0.7203E+00
     10.836  0.5794E-01  0.7238E+00
     10.897  0.5163E-01  0.7270E+00
     10.958  0.5616E-01  0.7304E+00
     11.019  0.6117E-01  0.7341E+00
     11.079  0.6175E-01  0.7378E+00
     11.140  0.6066E-01  0.7415E+00
     11.201  0.6036E-01  0.7452E+00
     11.262  0.5753E-01  0.7487E+00
     11.322  0.4740E-01  0.7516E+00
     11.383  0.3063E-01  0.7534E+00
     11.444  0.1355E-01  0.7543E+00
     11.505  0.2144E-02  0.7544E+00
     11.565 -0.2394E-02  0.7542E+00
     11.626 -0.2637E-02  0.7541E+00
     11.687 -0.1550E-02  0.7540E+00
     11.748 -0.6500E-03  0.7539E+00
     11.808 -0.2093E-03  0.7539E+00
     11.869 -0.5336E-04  0.7539E+00
     11.930 -0.1094E-04  0.7539E+00
     11.991 -0.1821E-05  0.7539E+00
     12.051 -0.2473E-06  0.7539E+00
     12.112 -0.2754E-07  0.7539E+00
     12.173 -0.2521E-08  0.7539E+00
     12.234 -0.1901E-09  0.7539E+00
     12.294 -0.1182E-10  0.7539E+00
     12.355 -0.6077E-12  0.7539E+00
     12.416 -0.2582E-13  0.7539E+00
     12.477 -0.9186E-15  0.7539E+00
     12.537 -0.1914E-16  0.7539E+00
     12.598  0.0000E+00  0.7539E+00
     12.659  0.0000E+00  0.7539E+00
     12.720  0.0000E+00  0.7539E+00
     12.780  0.0000E+00  0.7539E+00
     12.841  0.0000E+00  0.7539E+00
     12.902  0.0000E+00  0.7539E+00
     12.962  0.0000E+00  0.7539E+00
     13.023  0.0000E+00  0.7539E+00
     13.084  0.0000E+00  0.7539E+00
     13.145  0.0000E+00  0.7539E+00
     13.205  0.0000E+00  0.7539E+00
     13.266  0.0000E+00  0.7539E+00
