   31   31  191    1
  0.1706118E+02  0.8087052E-09  0.8087052E-09  0.8087052E-09  0.5000000E-15
  1.000000000000000E-004
  CAR 
 unknown system                          
   92    2   72
 
  0.2500000E+00  0.2500000E+00  0.2500000E+00  0.5000000E+00
   1       -2.954133
   2       -1.923720
   3       -1.873583
   4       -1.639526
   5       -0.802518
   6       -0.749549
   7       -0.384084
   8        0.293570
   9        0.331970
  10        0.504804
  11        0.613139
  12        1.347489
  13        1.401094
  14        1.419122
  15        1.553904
  16        1.728811
  17        1.967342
  18        2.662616
  19        2.678424
  20        2.850355
  21        3.542494
  22        3.612715
  23        3.659547
  24        3.713518
  25        3.751540
  26        4.037899
  27        4.541264
  28        4.595124
  29        4.634105
  30        4.756566
  31        4.813824
  32        4.884112
  33        4.934741
  34        5.057698
  35        5.242274
  36        5.718998
  37        5.832632
  38        6.335785
  39        6.737057
  40        6.762341
  41        6.796193
  42        6.970929
  43        7.014156
  44        7.072796
  45        7.114717
  46        7.814403
  47        7.845912
  48        7.940263
  49        8.080484
  50        8.165552
  51        8.229373
  52        8.257864
  53        8.330307
  54        8.417318
  55        9.091467
  56        9.154262
  57        9.164021
  58        9.395109
  59        9.417274
  60        9.478926
  61        9.980306
  62        9.986232
  63       10.069129
  64       10.117698
  65       10.187606
  66       10.212807
  67       10.530687
  68       10.674837
  69       10.699672
  70       10.926744
  71       11.013045
  72       11.255306
 
 -0.2500000E+00  0.2500000E+00  0.2500000E+00  0.5000000E+00
   1       -2.957007
   2       -1.917009
   3       -1.816905
   4       -1.706676
   5       -0.801145
   6       -0.667268
   7       -0.519492
   8        0.298828
   9        0.398960
  10        0.434075
  11        0.685551
  12        1.375777
  13        1.459966
  14        1.472067
  15        1.506383
  16        1.727082
  17        1.872214
  18        2.630991
  19        2.735935
  20        2.773549
  21        3.552356
  22        3.625078
  23        3.653848
  24        3.688361
  25        3.764166
  26        4.007782
  27        4.570999
  28        4.653303
  29        4.675247
  30        4.724936
  31        4.743364
  32        4.915334
  33        4.934418
  34        5.056459
  35        5.180930
  36        5.731830
  37        5.951453
  38        6.263950
  39        6.755381
  40        6.775346
  41        6.880336
  42        7.005442
  43        7.023732
  44        7.059227
  45        7.136257
  46        7.846182
  47        7.911622
  48        7.979510
  49        8.069059
  50        8.128926
  51        8.137051
  52        8.181982
  53        8.227126
  54        8.276754
  55        9.134698
  56        9.157735
  57        9.303269
  58        9.396601
  59        9.402708
  60        9.481601
  61        9.986457
  62        9.994411
  63       10.011379
  64       10.074137
  65       10.119775
  66       10.178959
  67       10.572219
  68       10.620623
  69       10.665328
  70       10.949097
  71       11.145221
  72       11.266201
