Processors received = 12
script running on host compute-1-25.local
PBS_NODEFILE
compute-1-25
compute-1-25
compute-1-25
compute-1-25
compute-1-25
compute-1-25
compute-1-25
compute-1-25
compute-1-25
compute-1-25
compute-1-25
compute-1-25
 running on   12 nodes
 distr:  one band on    1 nodes,   12 groups
 vasp.5.2.2 15Apr09 complex 
 POSCAR found type information on POSCAR  Al Mg
 POSCAR found :  2 types and   31 ions

 ----------------------------------------------------------------------------- 
|                                                                             |
|  ADVICE TO THIS USER RUNNING 'VASP/VAMP'   (HEAR YOUR MASTER'S VOICE ...):  |
|                                                                             |
|      You have a (more or less) 'large supercell' and for larger cells       |
|      it might be more efficient to use real space projection operators      |
|      So try LREAL= Auto  in the INCAR   file.                               |
|      Mind: If you want to do a very accurate calculations keep the          |
|      reciprocal projection scheme          (i.e. LREAL=.FALSE.)             |
|                                                                             |
 ----------------------------------------------------------------------------- 

 LDA part: xc-table for Pade appr. of Perdew
 POSCAR, INCAR and KPOINTS ok, starting setup
 FFT: planning ...(           1 )
 reading WAVECAR
 entering main loop
       N       E                     dE             d eps       ncg     rms          rms(c)
RMM:   1     0.231961698528E+03    0.23196E+03   -0.15498E+04   144   0.531E+02
RMM:   2    -0.390096104469E+02   -0.27097E+03   -0.25891E+03   144   0.110E+02
RMM:   3    -0.944991363659E+02   -0.55490E+02   -0.53829E+02   144   0.360E+01
RMM:   4    -0.107207729552E+03   -0.12709E+02   -0.10949E+02   144   0.197E+01
RMM:   5    -0.111393329365E+03   -0.41856E+01   -0.31451E+01   144   0.100E+01
RMM:   6    -0.112746689466E+03   -0.13534E+01   -0.10057E+01   144   0.559E+00
RMM:   7    -0.113215845867E+03   -0.46916E+00   -0.35951E+00   144   0.317E+00
RMM:   8    -0.113390977342E+03   -0.17513E+00   -0.14270E+00   144   0.187E+00
RMM:   9    -0.113482232272E+03   -0.91255E-01   -0.81567E-01   330   0.112E+00
RMM:  10    -0.113500302645E+03   -0.18070E-01   -0.13132E-01   328   0.311E-01
RMM:  11    -0.113501515408E+03   -0.12128E-02   -0.79649E-03   321   0.816E-02
RMM:  12    -0.113501536371E+03   -0.20963E-04   -0.17595E-04   268   0.161E-02    0.536E+00
RMM:  13    -0.112864694903E+03    0.63684E+00   -0.60728E-01   288   0.109E+00    0.327E+00
RMM:  14    -0.112621366887E+03    0.24333E+00   -0.14433E-01   288   0.755E-01    0.129E+00
RMM:  15    -0.112575285662E+03    0.46081E-01   -0.31958E-02   288   0.406E-01    0.147E-01
RMM:  16    -0.112574237817E+03    0.10478E-02   -0.27415E-03   290   0.108E-01    0.460E-02
RMM:  17    -0.112574252759E+03   -0.14942E-04   -0.27643E-04   300   0.399E-02    0.141E-02
RMM:  18    -0.112574266105E+03   -0.13347E-04   -0.33970E-05   310   0.155E-02    0.555E-03
RMM:  19    -0.112574272268E+03   -0.61630E-05   -0.44927E-06   229   0.599E-03    0.136E-03
RMM:  20    -0.112574272725E+03   -0.45666E-06   -0.81223E-07   181   0.294E-03
   1 F= -.11257427E+03 E0= -.11256136E+03  d E =-.387524E-01

 ----------------------------------------------------------------------------- 
|                                                                             |
|           W    W    AA    RRRRR   N    N  II  N    N   GGGG   !!!           |
|           W    W   A  A   R    R  NN   N  II  NN   N  G    G  !!!           |
|           W    W  A    A  R    R  N N  N  II  N N  N  G       !!!           |
|           W WW W  AAAAAA  RRRRR   N  N N  II  N  N N  G  GGG   !            |
|           WW  WW  A    A  R   R   N   NN  II  N   NN  G    G                |
|           W    W  A    A  R    R  N    N  II  N    N   GGGG   !!!           |
|                                                                             |
|      Your timestep is larger than 0.1 Angst.                                |
|      For finite differences this really does not make sense. I will         |
|      reset POTIM to 0.015. I recommend to use 0.01 to 0.02 for finite       |
|      differences.                                                           |
|                                                                             |
 ----------------------------------------------------------------------------- 

 Finite differences POTIM= 0.01500 DOF=   3
 bond charge predicted
       N       E                     dE             d eps       ncg     rms          rms(c)
RMM:   1    -0.112573769318E+03    0.50295E-03   -0.10375E-02   288   0.295E-01    0.249E-02
RMM:   2    -0.112573744750E+03    0.24568E-04   -0.18783E-04   299   0.365E-02    0.124E-02
RMM:   3    -0.112573743352E+03    0.13980E-05   -0.32195E-05   289   0.143E-02    0.521E-03
RMM:   4    -0.112573744124E+03   -0.77196E-06   -0.40901E-06   225   0.574E-03
   2 F= -.11257374E+03 E0= -.11256086E+03  d E =-.386394E-01
 Finite differences progress:
  Degree of freedom:   1/  3
  Displacement:        1/  2
  Total:               1/  6
 bond charge predicted
       N       E                     dE             d eps       ncg     rms          rms(c)
RMM:   1    -0.112573865082E+03   -0.12173E-03   -0.41424E-02   288   0.591E-01    0.495E-02
RMM:   2    -0.112573762802E+03    0.10228E-03   -0.73342E-04   300   0.720E-02    0.247E-02
RMM:   3    -0.112573756585E+03    0.62168E-05   -0.12756E-04   290   0.282E-02    0.102E-02
RMM:   4    -0.112573760016E+03   -0.34309E-05   -0.18128E-05   304   0.112E-02    0.440E-03
RMM:   5    -0.112573760886E+03   -0.87053E-06   -0.14149E-06   184   0.396E-03
   3 F= -.11257376E+03 E0= -.11256081E+03  d E =-.388629E-01
 Finite differences progress:
  Degree of freedom:   1/  3
  Displacement:        2/  2
  Total:               2/  6
 bond charge predicted
       N       E                     dE             d eps       ncg     rms          rms(c)
RMM:   1    -0.112573666851E+03    0.93165E-04   -0.21264E-02   432   0.422E-01    0.343E-02
RMM:   2    -0.112573617948E+03    0.48903E-04   -0.40351E-04   457   0.518E-02    0.175E-02
RMM:   3    -0.112573606096E+03    0.11852E-04   -0.60009E-05   439   0.191E-02    0.796E-03
RMM:   4    -0.112573601702E+03    0.43944E-05   -0.11541E-05   405   0.810E-03    0.341E-03
RMM:   5    -0.112573598659E+03    0.30424E-05   -0.41397E-06   348   0.418E-03    0.903E-04
RMM:   6    -0.112573597517E+03    0.11426E-05   -0.11430E-06   274   0.224E-03    0.369E-04
RMM:   7    -0.112573597160E+03    0.35637E-06   -0.48927E-07   248   0.145E-03
   4 F= -.11257360E+03 E0= -.11256068E+03  d E =-.387401E-01
 Finite differences progress:
  Degree of freedom:   2/  3
  Displacement:        1/  2
  Total:               3/  6
 bond charge predicted
       N       E                     dE             d eps       ncg     rms          rms(c)
RMM:   1    -0.112573770603E+03   -0.17309E-03   -0.33335E-02   432   0.461E-01    0.543E-02
RMM:   2    -0.112573603341E+03    0.16726E-03   -0.74718E-04   439   0.631E-02    0.252E-02
RMM:   3    -0.112573593702E+03    0.96396E-05   -0.11077E-04   438   0.240E-02    0.113E-02
RMM:   4    -0.112573596214E+03   -0.25127E-05   -0.16288E-05   424   0.967E-03    0.484E-03
RMM:   5    -0.112573597001E+03   -0.78699E-06   -0.15168E-06   276   0.369E-03
   5 F= -.11257360E+03 E0= -.11256068E+03  d E =-.387402E-01
 Finite differences progress:
  Degree of freedom:   2/  3
  Displacement:        2/  2
  Total:               4/  6
 bond charge predicted
       N       E                     dE             d eps       ncg     rms          rms(c)
RMM:   1    -0.112574626772E+03   -0.10306E-02   -0.21146E-02   288   0.417E-01    0.308E-02
RMM:   2    -0.112574397594E+03    0.22918E-03   -0.37273E-04   311   0.497E-02    0.173E-02
RMM:   3    -0.112574165058E+03    0.23254E-03   -0.53795E-05   288   0.178E-02    0.782E-03
RMM:   4    -0.112573987079E+03    0.17798E-03   -0.14468E-05   276   0.812E-03    0.300E-03
RMM:   5    -0.112573851247E+03    0.13583E-03   -0.63917E-06   252   0.450E-03    0.883E-04
RMM:   6    -0.112573794049E+03    0.57199E-04   -0.14625E-06   193   0.226E-03    0.509E-04
RMM:   7    -0.112573760254E+03    0.33795E-04   -0.80101E-07   167   0.160E-03    0.252E-04
RMM:   8    -0.112573741940E+03    0.18314E-04   -0.49317E-07   144   0.119E-03    0.105E-04
RMM:   9    -0.112573740039E+03    0.19009E-05   -0.15177E-07   106   0.835E-04    0.588E-05
RMM:  10    -0.112573742184E+03   -0.21451E-05   -0.43967E-08    79   0.683E-04    0.246E-05
RMM:  11    -0.112573743166E+03   -0.98221E-06   -0.46821E-09    55   0.634E-04
   6 F= -.11257374E+03 E0= -.11256086E+03  d E =-.386384E-01
 Finite differences progress:
  Degree of freedom:   3/  3
  Displacement:        1/  2
  Total:               5/  6
 bond charge predicted
       N       E                     dE             d eps       ncg     rms          rms(c)
RMM:   1    -0.112573860152E+03   -0.11797E-03   -0.41458E-02   288   0.591E-01    0.498E-02
RMM:   2    -0.112573761287E+03    0.98865E-04   -0.74808E-04   300   0.729E-02    0.248E-02
RMM:   3    -0.112573756140E+03    0.51472E-05   -0.12886E-04   290   0.285E-02    0.104E-02
RMM:   4    -0.112573759851E+03   -0.37112E-05   -0.18712E-05   306   0.114E-02    0.446E-03
RMM:   5    -0.112573760807E+03   -0.95637E-06   -0.14367E-06   185   0.397E-03
   7 F= -.11257376E+03 E0= -.11256081E+03  d E =-.388629E-01
 Finite differences progress:
  Degree of freedom:   3/  3
  Displacement:        2/  2
  Total:               6/  6
 Finite differences POTIM=  1.500000000000000E-002
