 107 107   0   0
  0.1212439E+02  0.1090639E-08  0.1090639E-08  0.1090639E-08  0.5000000E-15
  1.000000000000000E-004
  CAR 
 unknown system                          
     26.91755421     -7.52982206  301      3.68830722      1.00000000
     -7.530  0.0000E+00  0.0000E+00  0.0000E+00  0.0000E+00
     -7.415  0.0000E+00  0.0000E+00  0.0000E+00  0.0000E+00
     -7.300  0.0000E+00  0.0000E+00  0.0000E+00  0.0000E+00
     -7.185  0.0000E+00  0.0000E+00  0.0000E+00  0.0000E+00
     -7.071  0.0000E+00  0.0000E+00  0.0000E+00  0.0000E+00
     -6.956  0.0000E+00  0.0000E+00  0.0000E+00  0.0000E+00
     -6.841  0.0000E+00  0.0000E+00  0.0000E+00  0.0000E+00
     -6.726  0.0000E+00  0.0000E+00  0.0000E+00  0.0000E+00
     -6.611  0.0000E+00  0.0000E+00  0.0000E+00  0.0000E+00
     -6.496  0.0000E+00  0.0000E+00  0.0000E+00  0.0000E+00
     -6.382  0.0000E+00  0.0000E+00  0.0000E+00  0.0000E+00
     -6.267  0.0000E+00  0.0000E+00  0.0000E+00  0.0000E+00
     -6.152  0.0000E+00  0.0000E+00  0.0000E+00  0.0000E+00
     -6.037  0.0000E+00  0.0000E+00  0.0000E+00  0.0000E+00
     -5.922  0.0000E+00  0.0000E+00  0.0000E+00  0.0000E+00
     -5.807  0.0000E+00  0.0000E+00  0.0000E+00  0.0000E+00
     -5.693  0.0000E+00  0.0000E+00  0.0000E+00  0.0000E+00
     -5.578  0.0000E+00  0.0000E+00  0.0000E+00  0.0000E+00
     -5.463  0.1169E+01  0.1165E+01  0.7358E-01  0.7303E-01
     -5.348  0.2953E+01  0.2951E+01  0.3400E+00  0.3386E+00
     -5.233  0.2940E+01  0.2942E+01  0.6872E+00  0.6858E+00
     -5.119  0.1084E+01  0.1089E+01  0.9447E+00  0.9442E+00
     -5.004  0.4026E+01  0.4014E+01  0.1162E+01  0.1160E+01
     -4.889  0.3406E+01  0.3417E+01  0.1718E+01  0.1717E+01
     -4.774  0.3099E+01  0.3099E+01  0.2101E+01  0.2100E+01
     -4.659  0.2055E+01  0.2055E+01  0.2458E+01  0.2457E+01
     -4.544  0.1015E+02  0.9661E+01  0.2901E+01  0.2896E+01
     -4.430  0.4832E+01  0.4854E+01  0.3688E+01  0.3685E+01
     -4.315  0.1706E+01  0.1701E+01  0.4166E+01  0.4166E+01
     -4.200  0.5195E+01  0.5190E+01  0.4606E+01  0.4604E+01
     -4.085  0.3764E+01  0.3773E+01  0.5223E+01  0.5221E+01
     -3.970  0.6017E+01  0.6089E+01  0.6104E+01  0.6101E+01
     -3.855  0.1108E+02  0.1074E+02  0.6663E+01  0.6658E+01
     -3.741  0.4143E+01  0.4045E+01  0.7259E+01  0.7258E+01
     -3.626  0.0000E+00  0.0000E+00  0.8000E+01  0.8000E+01
     -3.511  0.3458E+01  0.3440E+01  0.8846E+01  0.8845E+01
     -3.396  0.9555E+01  0.9483E+01  0.9631E+01  0.9627E+01
     -3.281  0.4401E+01  0.4406E+01  0.1038E+02  0.1038E+02
     -3.166  0.1070E+02  0.1065E+02  0.1106E+02  0.1105E+02
     -3.052  0.1024E+02  0.1058E+02  0.1233E+02  0.1232E+02
     -2.937  0.6598E+01  0.6667E+01  0.1361E+02  0.1360E+02
     -2.822  0.7289E+01  0.7293E+01  0.1453E+02  0.1453E+02
     -2.707  0.6932E+01  0.7028E+01  0.1582E+02  0.1582E+02
     -2.592  0.3371E+01  0.3367E+01  0.1643E+02  0.1642E+02
     -2.478  0.7403E+01  0.7149E+01  0.1702E+02  0.1701E+02
     -2.363  0.1956E+02  0.1955E+02  0.1884E+02  0.1883E+02
     -2.248  0.6351E+01  0.6339E+01  0.2074E+02  0.2074E+02
     -2.133  0.9130E+01  0.9158E+01  0.2194E+02  0.2194E+02
     -2.018  0.1220E+02  0.1218E+02  0.2292E+02  0.2292E+02
     -1.903  0.1543E+02  0.1532E+02  0.2471E+02  0.2471E+02
     -1.789  0.1424E+02  0.1425E+02  0.2642E+02  0.2642E+02
     -1.674  0.2554E+02  0.2561E+02  0.2901E+02  0.2900E+02
     -1.559  0.6225E+01  0.6453E+01  0.3101E+02  0.3101E+02
     -1.444  0.2109E+02  0.2095E+02  0.3280E+02  0.3279E+02
     -1.329  0.3683E+02  0.3654E+02  0.3685E+02  0.3684E+02
     -1.214  0.3975E+02  0.3866E+02  0.4155E+02  0.4155E+02
     -1.100  0.5345E+02  0.5349E+02  0.4711E+02  0.4710E+02
     -0.985  0.5388E+02  0.5272E+02  0.5457E+02  0.5457E+02
     -0.870  0.4379E+02  0.4363E+02  0.6154E+02  0.6154E+02
     -0.755  0.4684E+02  0.4652E+02  0.6925E+02  0.6924E+02
     -0.640  0.9199E+02  0.9278E+02  0.7869E+02  0.7869E+02
     -0.526  0.1255E+03  0.1259E+03  0.8997E+02  0.8997E+02
     -0.411  0.1693E+03  0.1691E+03  0.1036E+03  0.1036E+03
     -0.296  0.1271E+03  0.1267E+03  0.1187E+03  0.1187E+03
     -0.181  0.1062E+03  0.1063E+03  0.1325E+03  0.1325E+03
     -0.066  0.1360E+03  0.1356E+03  0.1459E+03  0.1459E+03
      0.049  0.1329E+03  0.1328E+03  0.1596E+03  0.1596E+03
      0.163  0.1384E+03  0.1414E+03  0.1734E+03  0.1734E+03
      0.278  0.1412E+03  0.1421E+03  0.1897E+03  0.1897E+03
      0.393  0.1705E+03  0.1701E+03  0.2098E+03  0.2098E+03
      0.508  0.2228E+03  0.2513E+03  0.2284E+03  0.2284E+03
      0.623  0.2406E+03  0.2436E+03  0.2521E+03  0.2521E+03
      0.738  0.2712E+03  0.2395E+03  0.2760E+03  0.2760E+03
      0.852  0.1821E+03  0.1850E+03  0.3029E+03  0.3030E+03
      0.967  0.1428E+03  0.1428E+03  0.3249E+03  0.3249E+03
      1.082  0.1586E+03  0.1628E+03  0.3426E+03  0.3426E+03
      1.197  0.1378E+03  0.1369E+03  0.3593E+03  0.3594E+03
      1.312  0.2072E+03  0.2083E+03  0.3790E+03  0.3790E+03
      1.426  0.1800E+03  0.1804E+03  0.4029E+03  0.4030E+03
      1.541  0.2008E+03  0.2079E+03  0.4257E+03  0.4257E+03
      1.656  0.1490E+03  0.1505E+03  0.4460E+03  0.4460E+03
      1.771  0.2148E+03  0.2083E+03  0.4671E+03  0.4671E+03
      1.886  0.3542E+03  0.3343E+03  0.4910E+03  0.4911E+03
      2.001  0.3092E+03  0.3481E+03  0.5231E+03  0.5232E+03
      2.115  0.1576E+03  0.1586E+03  0.5494E+03  0.5494E+03
      2.230  0.2771E+02  0.2770E+02  0.5569E+03  0.5569E+03
      2.345  0.1805E+02  0.1805E+02  0.5594E+03  0.5594E+03
      2.460  0.1922E+02  0.1923E+02  0.5627E+03  0.5628E+03
      2.575  0.2476E+02  0.2474E+02  0.5645E+03  0.5645E+03
      2.690  0.5848E+01  0.5849E+01  0.5663E+03  0.5663E+03
      2.804  0.4907E+02  0.4925E+02  0.5691E+03  0.5691E+03
      2.919  0.1531E+02  0.1531E+02  0.5718E+03  0.5718E+03
      3.034  0.6640E+01  0.6593E+01  0.5730E+03  0.5730E+03
      3.149  0.2430E+02  0.2429E+02  0.5754E+03  0.5754E+03
      3.264  0.1438E+02  0.1440E+02  0.5780E+03  0.5780E+03
      3.379  0.1684E+02  0.1685E+02  0.5803E+03  0.5802E+03
      3.493  0.1408E+02  0.1408E+02  0.5820E+03  0.5820E+03
      3.608  0.8316E+01  0.8315E+01  0.5836E+03  0.5836E+03
      3.723  0.1779E+02  0.1786E+02  0.5850E+03  0.5850E+03
      3.838  0.1584E+02  0.1602E+02  0.5870E+03  0.5870E+03
      3.953  0.3769E+02  0.3764E+02  0.5887E+03  0.5887E+03
      4.067  0.2178E+02  0.2291E+02  0.5917E+03  0.5917E+03
      4.182  0.1035E+02  0.1033E+02  0.5934E+03  0.5934E+03
      4.297  0.5392E+01  0.5417E+01  0.5943E+03  0.5943E+03
      4.412  0.1360E+02  0.2400E+02  0.5954E+03  0.5954E+03
      4.527  0.1544E+02  0.1544E+02  0.5971E+03  0.5971E+03
      4.642  0.1273E+02  0.1274E+02  0.5989E+03  0.5989E+03
      4.756  0.1894E+02  0.1897E+02  0.6008E+03  0.6008E+03
      4.871  0.1593E+02  0.1595E+02  0.6031E+03  0.6031E+03
      4.986  0.1555E+02  0.1556E+02  0.6047E+03  0.6047E+03
      5.101  0.1577E+02  0.1576E+02  0.6065E+03  0.6065E+03
      5.216  0.1005E+02  0.9961E+01  0.6079E+03  0.6079E+03
      5.331  0.1292E+02  0.1293E+02  0.6091E+03  0.6091E+03
      5.445  0.8163E+01  0.8167E+01  0.6104E+03  0.6104E+03
      5.560  0.1607E+02  0.1617E+02  0.6119E+03  0.6119E+03
      5.675  0.7473E+01  0.7495E+01  0.6131E+03  0.6131E+03
      5.790  0.1112E+02  0.1114E+02  0.6146E+03  0.6146E+03
      5.905  0.1509E+02  0.1529E+02  0.6168E+03  0.6168E+03
      6.019  0.7735E+01  0.7735E+01  0.6181E+03  0.6181E+03
      6.134  0.1393E+02  0.1422E+02  0.6192E+03  0.6192E+03
      6.249  0.1215E+02  0.1188E+02  0.6206E+03  0.6206E+03
      6.364  0.9498E+01  0.9099E+01  0.6221E+03  0.6221E+03
      6.479  0.6897E+01  0.6891E+01  0.6228E+03  0.6228E+03
      6.594  0.9307E+01  0.9311E+01  0.6240E+03  0.6240E+03
      6.708  0.9094E+01  0.9098E+01  0.6253E+03  0.6253E+03
      6.823  0.1434E+02  0.1350E+02  0.6263E+03  0.6263E+03
      6.938  0.1146E+02  0.1147E+02  0.6274E+03  0.6274E+03
      7.053  0.1150E+02  0.1146E+02  0.6285E+03  0.6285E+03
      7.168  0.1373E+02  0.1372E+02  0.6300E+03  0.6300E+03
      7.283  0.1122E+02  0.1123E+02  0.6316E+03  0.6316E+03
      7.397  0.8176E+01  0.8182E+01  0.6330E+03  0.6330E+03
      7.512  0.5579E+01  0.5582E+01  0.6338E+03  0.6338E+03
      7.627  0.2288E+02  0.2296E+02  0.6349E+03  0.6349E+03
      7.742  0.1624E+02  0.1606E+02  0.6367E+03  0.6367E+03
      7.857  0.2092E+02  0.2239E+02  0.6393E+03  0.6393E+03
      7.971  0.2779E+02  0.2757E+02  0.6412E+03  0.6412E+03
      8.086  0.8745E+01  0.8493E+01  0.6424E+03  0.6424E+03
      8.201  0.1527E+02  0.1527E+02  0.6440E+03  0.6440E+03
      8.316  0.2002E+02  0.2004E+02  0.6462E+03  0.6462E+03
      8.431  0.1223E+02  0.1222E+02  0.6480E+03  0.6480E+03
      8.546  0.2095E+02  0.2088E+02  0.6498E+03  0.6497E+03
      8.660  0.1138E+02  0.1146E+02  0.6517E+03  0.6517E+03
      8.775  0.4294E+01  0.4224E+01  0.6532E+03  0.6532E+03
      8.890  0.1796E+02  0.1814E+02  0.6549E+03  0.6549E+03
      9.005  0.4270E+01  0.5298E+01  0.6572E+03  0.6572E+03
      9.120  0.8496E+01  0.8486E+01  0.6580E+03  0.6580E+03
      9.235  0.1236E+02  0.1236E+02  0.6593E+03  0.6593E+03
      9.349  0.1545E+02  0.1544E+02  0.6611E+03  0.6611E+03
      9.464  0.1179E+02  0.1178E+02  0.6627E+03  0.6627E+03
      9.579  0.2049E+02  0.2050E+02  0.6648E+03  0.6648E+03
      9.694  0.8169E+01  0.8175E+01  0.6668E+03  0.6668E+03
      9.809  0.9553E+01  0.9642E+01  0.6678E+03  0.6678E+03
      9.924  0.1211E+02  0.1210E+02  0.6691E+03  0.6691E+03
     10.038  0.1704E+02  0.1699E+02  0.6709E+03  0.6709E+03
     10.153  0.1008E+02  0.1008E+02  0.6727E+03  0.6726E+03
     10.268  0.6147E+01  0.6134E+01  0.6737E+03  0.6737E+03
     10.383  0.1168E+02  0.1168E+02  0.6752E+03  0.6752E+03
     10.498  0.1172E+02  0.1172E+02  0.6769E+03  0.6769E+03
     10.612  0.1856E+02  0.1868E+02  0.6784E+03  0.6784E+03
     10.727  0.1524E+02  0.1515E+02  0.6800E+03  0.6800E+03
     10.842  0.1428E+02  0.1427E+02  0.6818E+03  0.6818E+03
     10.957  0.2114E+02  0.2105E+02  0.6838E+03  0.6838E+03
     11.072  0.1779E+02  0.1716E+02  0.6859E+03  0.6859E+03
     11.187  0.1936E+02  0.1938E+02  0.6881E+03  0.6881E+03
     11.301  0.9011E+01  0.8684E+01  0.6899E+03  0.6899E+03
     11.416  0.1774E+02  0.1771E+02  0.6915E+03  0.6915E+03
     11.531  0.1055E+02  0.1055E+02  0.6935E+03  0.6935E+03
     11.646  0.1433E+02  0.1433E+02  0.6952E+03  0.6952E+03
     11.761  0.2123E+02  0.2001E+02  0.6971E+03  0.6971E+03
     11.876  0.1739E+02  0.1768E+02  0.6992E+03  0.6992E+03
     11.990  0.2675E+02  0.2695E+02  0.7012E+03  0.7012E+03
     12.105  0.2328E+02  0.2328E+02  0.7038E+03  0.7038E+03
     12.220  0.2627E+02  0.2606E+02  0.7068E+03  0.7068E+03
     12.335  0.1729E+02  0.1733E+02  0.7096E+03  0.7096E+03
     12.450  0.1452E+02  0.1448E+02  0.7113E+03  0.7113E+03
     12.564  0.1607E+02  0.1684E+02  0.7132E+03  0.7131E+03
     12.679  0.1624E+02  0.1603E+02  0.7150E+03  0.7150E+03
     12.794  0.4944E+02  0.2314E+02  0.7176E+03  0.7176E+03
     12.909  0.2544E+02  0.2567E+02  0.7204E+03  0.7204E+03
     13.024  0.1500E+02  0.1497E+02  0.7227E+03  0.7227E+03
     13.139  0.1887E+02  0.1500E+02  0.7246E+03  0.7246E+03
     13.253  0.1493E+02  0.1518E+02  0.7266E+03  0.7266E+03
     13.368  0.2082E+02  0.2049E+02  0.7280E+03  0.7280E+03
     13.483  0.1271E+02  0.1271E+02  0.7299E+03  0.7299E+03
     13.598  0.2933E+02  0.2809E+02  0.7321E+03  0.7321E+03
     13.713  0.1536E+02  0.1535E+02  0.7348E+03  0.7348E+03
     13.828  0.1363E+02  0.1365E+02  0.7377E+03  0.7377E+03
     13.942  0.1178E+02  0.1152E+02  0.7399E+03  0.7399E+03
     14.057  0.1346E+02  0.1370E+02  0.7425E+03  0.7425E+03
     14.172  0.3402E+02  0.2711E+02  0.7449E+03  0.7449E+03
     14.287  0.1132E+02  0.1134E+02  0.7471E+03  0.7471E+03
     14.402  0.1094E+02  0.1110E+02  0.7491E+03  0.7491E+03
     14.516  0.1754E+02  0.1776E+02  0.7515E+03  0.7515E+03
     14.631  0.2358E+02  0.2363E+02  0.7538E+03  0.7538E+03
     14.746  0.2221E+02  0.2224E+02  0.7564E+03  0.7564E+03
     14.861  0.2064E+02  0.2028E+02  0.7589E+03  0.7589E+03
     14.976  0.2358E+02  0.2347E+02  0.7609E+03  0.7609E+03
     15.091  0.1639E+02  0.1653E+02  0.7635E+03  0.7635E+03
     15.205  0.3312E+02  0.3311E+02  0.7663E+03  0.7663E+03
     15.320  0.1622E+02  0.1625E+02  0.7688E+03  0.7688E+03
     15.435  0.1555E+02  0.3252E+02  0.7708E+03  0.7708E+03
     15.550  0.1351E+02  0.1342E+02  0.7729E+03  0.7729E+03
     15.665  0.2819E+02  0.1661E+02  0.7759E+03  0.7759E+03
     15.780  0.1391E+02  0.1391E+02  0.7774E+03  0.7774E+03
     15.894  0.2492E+02  0.2495E+02  0.7799E+03  0.7799E+03
     16.009  0.2432E+02  0.2439E+02  0.7830E+03  0.7830E+03
     16.124  0.1813E+02  0.1883E+02  0.7855E+03  0.7855E+03
     16.239  0.2073E+02  0.2101E+02  0.7880E+03  0.7880E+03
     16.354  0.1302E+02  0.1344E+02  0.7903E+03  0.7903E+03
     16.469  0.2757E+02  0.2985E+02  0.7930E+03  0.7930E+03
     16.583  0.2099E+02  0.2081E+02  0.7957E+03  0.7956E+03
     16.698  0.2341E+02  0.2335E+02  0.7980E+03  0.7979E+03
     16.813  0.2565E+02  0.2562E+02  0.8013E+03  0.8012E+03
     16.928  0.2552E+02  0.3315E+02  0.8046E+03  0.8046E+03
     17.043  0.2726E+02  0.2727E+02  0.8076E+03  0.8076E+03
     17.157  0.1606E+02  0.1610E+02  0.8104E+03  0.8104E+03
     17.272  0.2023E+02  0.2020E+02  0.8129E+03  0.8129E+03
     17.387  0.2142E+02  0.2138E+02  0.8155E+03  0.8155E+03
     17.502  0.2245E+02  0.2254E+02  0.8184E+03  0.8184E+03
     17.617  0.1293E+02  0.1293E+02  0.8209E+03  0.8209E+03
     17.732  0.1872E+02  0.1896E+02  0.8227E+03  0.8227E+03
     17.846  0.2234E+02  0.2235E+02  0.8253E+03  0.8253E+03
     17.961  0.1736E+02  0.1727E+02  0.8276E+03  0.8276E+03
     18.076  0.3027E+02  0.3059E+02  0.8307E+03  0.8307E+03
     18.191  0.2877E+02  0.2850E+02  0.8338E+03  0.8338E+03
     18.306  0.2033E+02  0.2034E+02  0.8362E+03  0.8362E+03
     18.421  0.1810E+02  0.1814E+02  0.8389E+03  0.8389E+03
     18.535  0.1461E+02  0.1461E+02  0.8411E+03  0.8411E+03
     18.650  0.1694E+02  0.1701E+02  0.8430E+03  0.8430E+03
     18.765  0.2229E+02  0.2238E+02  0.8454E+03  0.8454E+03
     18.880  0.4863E+02  0.2480E+02  0.8484E+03  0.8484E+03
     18.995  0.2127E+02  0.2122E+02  0.8511E+03  0.8511E+03
     19.109  0.1344E+02  0.1756E+02  0.8531E+03  0.8531E+03
     19.224  0.2232E+02  0.1729E+02  0.8550E+03  0.8550E+03
     19.339  0.2094E+02  0.2104E+02  0.8577E+03  0.8577E+03
     19.454  0.2397E+02  0.2374E+02  0.8602E+03  0.8602E+03
     19.569  0.3062E+02  0.3010E+02  0.8630E+03  0.8630E+03
     19.684  0.2262E+02  0.2165E+02  0.8655E+03  0.8655E+03
     19.798  0.1664E+02  0.1656E+02  0.8678E+03  0.8678E+03
     19.913  0.1589E+02  0.1597E+02  0.8700E+03  0.8700E+03
     20.028  0.8075E+01  0.7701E+01  0.8720E+03  0.8720E+03
     20.143  0.8996E+01  0.9022E+01  0.8735E+03  0.8735E+03
     20.258  0.1558E+02  0.1559E+02  0.8752E+03  0.8752E+03
     20.373  0.1978E+02  0.1982E+02  0.8771E+03  0.8771E+03
     20.487  0.1953E+02  0.1965E+02  0.8795E+03  0.8795E+03
     20.602  0.1482E+02  0.1580E+02  0.8816E+03  0.8816E+03
     20.717  0.1472E+02  0.1472E+02  0.8835E+03  0.8835E+03
     20.832  0.1672E+02  0.1651E+02  0.8854E+03  0.8854E+03
     20.947  0.1690E+02  0.1686E+02  0.8873E+03  0.8873E+03
     21.062  0.1631E+02  0.1631E+02  0.8895E+03  0.8895E+03
     21.176  0.1823E+02  0.1822E+02  0.8916E+03  0.8916E+03
     21.291  0.1700E+02  0.1700E+02  0.8938E+03  0.8938E+03
     21.406  0.1588E+02  0.1692E+02  0.8960E+03  0.8960E+03
     21.521  0.1910E+02  0.1913E+02  0.8979E+03  0.8979E+03
     21.636  0.1901E+02  0.1904E+02  0.9000E+03  0.9000E+03
     21.750  0.2078E+02  0.2081E+02  0.9026E+03  0.9026E+03
     21.865  0.1618E+02  0.1618E+02  0.9050E+03  0.9049E+03
     21.980  0.1600E+02  0.1602E+02  0.9070E+03  0.9070E+03
     22.095  0.1555E+02  0.1747E+02  0.9089E+03  0.9089E+03
     22.210  0.1677E+02  0.1675E+02  0.9109E+03  0.9109E+03
     22.325  0.2136E+02  0.2143E+02  0.9132E+03  0.9131E+03
     22.439  0.1679E+02  0.1679E+02  0.9155E+03  0.9155E+03
     22.554  0.1779E+02  0.1794E+02  0.9176E+03  0.9176E+03
     22.669  0.1968E+02  0.1957E+02  0.9198E+03  0.9197E+03
     22.784  0.1956E+02  0.1956E+02  0.9220E+03  0.9220E+03
     22.899  0.2331E+02  0.2327E+02  0.9247E+03  0.9247E+03
     23.014  0.2659E+02  0.2655E+02  0.9278E+03  0.9278E+03
     23.128  0.2084E+02  0.2081E+02  0.9310E+03  0.9310E+03
     23.243  0.1419E+02  0.1419E+02  0.9329E+03  0.9329E+03
     23.358  0.2713E+02  0.2889E+02  0.9355E+03  0.9355E+03
     23.473  0.2265E+02  0.2265E+02  0.9386E+03  0.9386E+03
     23.588  0.2210E+02  0.2212E+02  0.9415E+03  0.9415E+03
     23.702  0.1858E+02  0.1861E+02  0.9441E+03  0.9441E+03
     23.817  0.2073E+02  0.2043E+02  0.9464E+03  0.9464E+03
     23.932  0.2245E+02  0.2244E+02  0.9497E+03  0.9497E+03
     24.047  0.3175E+02  0.3166E+02  0.9532E+03  0.9532E+03
     24.162  0.2290E+02  0.2290E+02  0.9563E+03  0.9563E+03
     24.277  0.2928E+02  0.2905E+02  0.9588E+03  0.9588E+03
     24.391  0.3161E+02  0.3146E+02  0.9623E+03  0.9623E+03
     24.506  0.2358E+02  0.2319E+02  0.9662E+03  0.9662E+03
     24.621  0.1848E+02  0.1893E+02  0.9681E+03  0.9681E+03
     24.736  0.1765E+02  0.1722E+02  0.9704E+03  0.9704E+03
     24.851  0.4497E+01  0.6163E+01  0.9719E+03  0.9718E+03
     24.966  0.0000E+00  0.0000E+00  0.9720E+03  0.9720E+03
     25.080  0.0000E+00  0.0000E+00  0.9720E+03  0.9720E+03
     25.195  0.0000E+00  0.0000E+00  0.9720E+03  0.9720E+03
     25.310  0.0000E+00  0.0000E+00  0.9720E+03  0.9720E+03
     25.425  0.0000E+00  0.0000E+00  0.9720E+03  0.9720E+03
     25.540  0.0000E+00  0.0000E+00  0.9720E+03  0.9720E+03
     25.654  0.0000E+00  0.0000E+00  0.9720E+03  0.9720E+03
     25.769  0.0000E+00  0.0000E+00  0.9720E+03  0.9720E+03
     25.884  0.0000E+00  0.0000E+00  0.9720E+03  0.9720E+03
     25.999  0.0000E+00  0.0000E+00  0.9720E+03  0.9720E+03
     26.114  0.0000E+00  0.0000E+00  0.9720E+03  0.9720E+03
     26.229  0.0000E+00  0.0000E+00  0.9720E+03  0.9720E+03
     26.343  0.0000E+00  0.0000E+00  0.9720E+03  0.9720E+03
     26.458  0.0000E+00  0.0000E+00  0.9720E+03  0.9720E+03
     26.573  0.0000E+00  0.0000E+00  0.9720E+03  0.9720E+03
     26.688  0.0000E+00  0.0000E+00  0.9720E+03  0.9720E+03
     26.803  0.0000E+00  0.0000E+00  0.9720E+03  0.9720E+03
     26.918  0.0000E+00  0.0000E+00  0.9720E+03  0.9720E+03
