Automatically generated mesh
      32
Reciprocal lattice
    0.12500000000000    0.12500000000000    0.12500000000000             2
    0.37500000000000    0.12500000000000    0.12500000000000             2
   -0.37500000000000    0.12500000000000    0.12500000000000             2
   -0.12500000000000    0.12500000000000    0.12500000000000             2
    0.12500000000000    0.37500000000000    0.12500000000000             2
    0.37500000000000    0.37500000000000    0.12500000000000             2
   -0.37500000000000    0.37500000000000    0.12500000000000             2
   -0.12500000000000    0.37500000000000    0.12500000000000             2
    0.12500000000000   -0.37500000000000    0.12500000000000             2
    0.37500000000000   -0.37500000000000    0.12500000000000             2
   -0.37500000000000   -0.37500000000000    0.12500000000000             2
   -0.12500000000000   -0.37500000000000    0.12500000000000             2
    0.12500000000000   -0.12500000000000    0.12500000000000             2
    0.37500000000000   -0.12500000000000    0.12500000000000             2
   -0.37500000000000   -0.12500000000000    0.12500000000000             2
   -0.12500000000000   -0.12500000000000    0.12500000000000             2
    0.12500000000000    0.12500000000000    0.37500000000000             2
    0.37500000000000    0.12500000000000    0.37500000000000             2
   -0.37500000000000    0.12500000000000    0.37500000000000             2
   -0.12500000000000    0.12500000000000    0.37500000000000             2
    0.12500000000000    0.37500000000000    0.37500000000000             2
    0.37500000000000    0.37500000000000    0.37500000000000             2
   -0.37500000000000    0.37500000000000    0.37500000000000             2
   -0.12500000000000    0.37500000000000    0.37500000000000             2
    0.12500000000000   -0.37500000000000    0.37500000000000             2
    0.37500000000000   -0.37500000000000    0.37500000000000             2
   -0.37500000000000   -0.37500000000000    0.37500000000000             2
   -0.12500000000000   -0.37500000000000    0.37500000000000             2
    0.12500000000000   -0.12500000000000    0.37500000000000             2
    0.37500000000000   -0.12500000000000    0.37500000000000             2
   -0.37500000000000   -0.12500000000000    0.37500000000000             2
   -0.12500000000000   -0.12500000000000    0.37500000000000             2
Tetrahedra
       192    0.00260416666667
         2         1         2         6        17
         2         1         5         6        17
         2         5         6        17        21
         2         2         6        17        18
         2         6        17        18        22
         2         6        17        21        22
         2         2         3         7        18
         2         2         6         7        18
         2         6         7        18        22
         2         3         7        18        19
         2         7        18        19        23
         2         7        18        22        23
         2         3         4         8        19
         2         3         7         8        19
         2         7         8        19        23
         2         4         8        19        20
         2         8        19        20        24
         2         8        19        23        24
         2         1         4         5        20
         2         4         5         8        20
         2         5         8        20        24
         2         1         5        17        20
         2         5        17        20        21
         2         5        20        21        24
         2         5         6        10        21
         2         5         9        10        21
         2         9        10        21        25
         2         6        10        21        22
         2        10        21        22        26
         2        10        21        25        26
         2         6         7        11        22
         2         6        10        11        22
         2        10        11        22        26
         2         7        11        22        23
         2        11        22        23        27
         2        11        22        26        27
         2         7         8        12        23
         2         7        11        12        23
         2        11        12        23        27
         2         8        12        23        24
         2        12        23        24        28
         2        12        23        27        28
         2         5         8         9        24
         2         8         9        12        24
         2         9        12        24        28
         2         5         9        21        24
         2         9        21        24        25
         2         9        24        25        28
         2         9        10        14        25
         2         9        13        14        25
         2        13        14        25        29
         2        10        14        25        26
         2        14        25        26        30
         2        14        25        29        30
         2        10        11        15        26
         2        10        14        15        26
         2        14        15        26        30
         2        11        15        26        27
         2        15        26        27        31
         2        15        26        30        31
         2        11        12        16        27
         2        11        15        16        27
         2        15        16        27        31
         2        12        16        27        28
         2        16        27        28        32
         2        16        27        31        32
         2         9        12        13        28
         2        12        13        16        28
         2        13        16        28        32
         2         9        13        25        28
         2        13        25        28        29
         2        13        28        29        32
         2         2        13        14        29
         2         1         2        13        29
         2         1         2        17        29
         2         2        14        29        30
         2         2        18        29        30
         2         2        17        18        29
         2         3        14        15        30
         2         2         3        14        30
         2         2         3        18        30
         2         3        15        30        31
         2         3        19        30        31
         2         3        18        19        30
         2         4        15        16        31
         2         3         4        15        31
         2         3         4        19        31
         2         4        16        31        32
         2         4        20        31        32
         2         4        19        20        31
         2         1        13        16        32
         2         1         4        16        32
         2         1         4        20        32
         2         1        13        29        32
         2         1        17        29        32
         2         1        17        20        32
         2        17        18        22        32
         2        17        21        22        32
         2        21        22        28        32
         2        18        22        31        32
         2        22        27        31        32
         2        22        27        28        32
         2        18        19        23        31
         2        18        22        23        31
         2        22        23        27        31
         2        19        23        30        31
         2        23        26        30        31
         2        23        26        27        31
         2        19        20        24        30
         2        19        23        24        30
         2        23        24        26        30
         2        20        24        29        30
         2        24        25        29        30
         2        24        25        26        30
         2        17        20        21        29
         2        20        21        24        29
         2        21        24        25        29
         2        17        21        29        32
         2        21        28        29        32
         2        21        25        28        29
         2        21        22        26        28
         2        21        25        26        28
         2        24        25        26        28
         2        22        26        27        28
         2        23        26        27        28
         2        23        24        26        28
         2        22        23        27        27
         2        22        26        27        27
         2        23        26        27        27
         2        21        24        25        25
         2        24        25        25        28
         2        21        25        25        28
         2        18        20        29        30
         2        17        18        20        29
         2        17        18        20        32
         2        18        19        20        30
         2        18        19        20        31
         2        18        20        31        32
         2        19        19        30        31
         2        18        19        19        30
         2        18        19        19        31
         2        17        17        29        32
         2        17        17        20        32
         2        17        17        20        29
         2         1        11        15        16
         2         1        11        12        16
         2         1         5        11        12
         2         1         2        11        15
         2         1         2         6        11
         2         1         5         6        11
         2         2        10        14        15
         2         2        10        11        15
         2         2         6        10        11
         2         2         3        10        14
         2         2         3         7        10
         2         2         6         7        10
         2         3         9        13        14
         2         3         9        10        14
         2         3         7         9        10
         2         3         4         9        13
         2         3         4         8         9
         2         3         7         8         9
         2         4        12        13        16
         2         4         9        12        13
         2         4         8         9        12
         2         1         4        12        16
         2         1         4         5        12
         2         4         5         8        12
         2         5         7        11        12
         2         5         7         8        12
         2         5         7         8         9
         2         5         6         7        11
         2         5         6         7        10
         2         5         7         9        10
         2         6         6        10        11
         2         6         6         7        11
         2         6         6         7        10
         2         8         8         9        12
         2         5         8         8         9
         2         5         8         8        12
         2         3         4        13        15
         2         4        13        15        16
         2         1        13        15        16
         2         3        13        14        15
         2         2        13        14        15
         2         1         2        13        15
         2         2         3        14        14
         2         3        14        14        15
         2         2        14        14        15
         2         1         4        16        16
         2         1        13        16        16
         2         4        13        16        16
