unknown system                          
           1
    10.906394    0.000000    0.000000
     0.000000   10.906394    0.000000
     0.000000    0.000000   10.906394
   Al   Mg
   1 106
Direct configuration=     1
   0.00592077  0.00001735  0.00597823
   0.01003890  0.00001864  0.32938952
   0.00280900  0.99998884  0.66566079
   0.00050566  0.33305306  0.00056821
   0.99754428  0.33717123  0.33520612
   0.00018927  0.33236247  0.66800805
   0.00055005  0.66696141  0.00061200
   0.99752302  0.66278895  0.33518802
   0.00021090  0.66766050  0.66801073
   0.32949146  0.00001236  0.00997449
   0.25120745  0.99986065  0.25134061
   0.33331795  0.00001118  0.66518375
   0.33518957  0.33726022  0.99753762
   0.33567683  0.33736667  0.33563814
   0.33463973  0.33161606  0.66732867
   0.33518006  0.66269237  0.99751447
   0.33568499  0.66261111  0.33564145
   0.33462569  0.66843216  0.66732529
   0.66560722  0.99999028  0.00279048
   0.66508423  0.00000949  0.33333388
   0.66651433  0.99995858  0.66653145
   0.66807574  0.33245666  0.00015933
   0.66732956  0.33164776  0.33472663
   0.66718446  0.33178747  0.66712872
   0.66808712  0.66755894  0.00018128
   0.66732241  0.66839714  0.33471839
   0.66717026  0.66822306  0.66711388
   0.00387546  0.16774564  0.16908187
   0.00134044  0.16653532  0.50006023
   0.00195380  0.16586140  0.83418798
   0.99823940  0.49999022  0.16694730
   0.99871437  0.49999836  0.50307440
   0.00011553  0.50001516  0.83386061
   0.00394474  0.83232071  0.16911287
   0.00133379  0.83347451  0.50007088
   0.00198676  0.83412556  0.83422425
   0.33673482  0.18100846  0.16489585
   0.33330950  0.16573464  0.49705418
   0.33388962  0.16535205  0.83547168
   0.33550658  0.49999317  0.16686488
   0.33525759  0.49998588  0.50312922
   0.33513580  0.50001078  0.83114953
   0.33684788  0.81886393  0.16482625
   0.33328184  0.83432988  0.49700992
   0.33386327  0.83466952  0.83549894
   0.66542964  0.16509932  0.16835909
   0.66629052  0.16483517  0.49959600
   0.66702552  0.16515200  0.83410595
   0.66944795  0.49999110  0.16726090
   0.66707857  0.50003089  0.50164940
   0.66797011  0.50002168  0.83316748
   0.66539928  0.83493307  0.16837344
   0.66626722  0.83515727  0.49956843
   0.66703340  0.83478735  0.83411000
   0.17199114  0.00002924  0.49143244
   0.16912533  0.00000478  0.83597046
   0.16648952  0.33808422  0.16645584
   0.16708294  0.33661712  0.50393081
   0.16777658  0.33220713  0.83305314
   0.16650285  0.66190481  0.16646407
   0.16709505  0.66332469  0.50397407
   0.16777017  0.66784086  0.83307963
   0.49154521  0.00002502  0.17188174
   0.49723510  0.00001749  0.49728345
   0.49885859  0.99998440  0.83552987
   0.50391973  0.33668008  0.16707853
   0.50089881  0.33191043  0.50094451
   0.50154534  0.33226323  0.83281466
   0.50397791  0.66325393  0.16708881
   0.50085802  0.66811887  0.50090604
   0.50152459  0.66776786  0.83282691
   0.83583964  0.00000846  0.16913231
   0.83547412  0.99998577  0.49886114
   0.83455239  0.99994862  0.83456978
   0.83306183  0.33219487  0.16786361
   0.83289875  0.33217384  0.50153629
   0.83389426  0.33208971  0.83383549
   0.83307751  0.66785043  0.16786037
   0.83291341  0.66786234  0.50151481
   0.83392207  0.66789819  0.83385967
   0.16906672  0.16775967  0.00390013
   0.16496074  0.18111919  0.33669744
   0.16834253  0.16500458  0.66547805
   0.16685403  0.49998708  0.99822722
   0.16686520  0.49999007  0.33550051
   0.16716661  0.50000548  0.66937611
   0.16910081  0.83230170  0.00398049
   0.16489304  0.81875555  0.33679678
   0.16834950  0.83502768  0.66545037
   0.50011900  0.16669059  0.00128121
   0.49701150  0.16573617  0.33328786
   0.49957584  0.16483200  0.66635612
   0.50313840  0.49999365  0.99864567
   0.50314491  0.49998071  0.33533886
   0.50160910  0.50003230  0.66700334
   0.50013797  0.83331001  0.00127033
   0.49696225  0.83432083  0.33326902
   0.49954273  0.83516137  0.66633926
   0.83412018  0.16586867  0.00197943
   0.83540542  0.16528019  0.33391254
   0.83414324  0.16510308  0.66699781
   0.83391984  0.50001412  0.00014102
   0.83124106  0.50001973  0.33523814
   0.83329145  0.50002034  0.66787086
   0.83415141  0.83411998  0.00201196
   0.83543285  0.83474709  0.33388765
   0.83415555  0.83483408  0.66699872
