Processors received = 32
script running on host compute-2-6.local
PBS_NODEFILE
compute-2-6
compute-2-6
compute-2-6
compute-2-6
compute-2-6
compute-2-6
compute-2-6
compute-2-6
compute-2-6
compute-2-6
compute-2-6
compute-2-6
compute-2-6
compute-2-6
compute-2-6
compute-2-6
compute-2-6
compute-2-6
compute-2-6
compute-2-6
compute-2-6
compute-2-6
compute-2-6
compute-2-6
compute-2-6
compute-2-6
compute-2-6
compute-2-6
compute-2-6
compute-2-6
compute-2-6
compute-2-6
 running on   32 nodes
 distr:  one band on    1 nodes,   32 groups
 vasp.5.2.2 15Apr09 complex 
 POSCAR found type information on POSCAR  Al
 POSCAR found :  1 types and   32 ions

 ----------------------------------------------------------------------------- 
|                                                                             |
|  ADVICE TO THIS USER RUNNING 'VASP/VAMP'   (HEAR YOUR MASTER'S VOICE ...):  |
|                                                                             |
|      You have a (more or less) 'large supercell' and for larger cells       |
|      it might be more efficient to use real space projection operators      |
|      So try LREAL= Auto  in the INCAR   file.                               |
|      Mind: If you want to do a very accurate calculations keep the          |
|      reciprocal projection scheme          (i.e. LREAL=.FALSE.)             |
|                                                                             |
 ----------------------------------------------------------------------------- 

 LDA part: xc-table for Pade appr. of Perdew
 POSCAR, INCAR and KPOINTS ok, starting setup
 FFT: planning ...(           1 )
 reading WAVECAR
 entering main loop
       N       E                     dE             d eps       ncg     rms          rms(c)
RMM:   1     0.155794436072E+03    0.15579E+03   -0.14093E+04    96   0.390E+02
RMM:   2    -0.686303113533E+02   -0.22442E+03   -0.20432E+03    96   0.779E+01
RMM:   3    -0.108739520915E+03   -0.40109E+02   -0.34427E+02    96   0.243E+01
RMM:   4    -0.116308014968E+03   -0.75685E+01   -0.53767E+01    96   0.118E+01
RMM:   5    -0.118158474723E+03   -0.18505E+01   -0.11066E+01    96   0.496E+00
RMM:   6    -0.118580319193E+03   -0.42184E+00   -0.23497E+00    96   0.224E+00
RMM:   7    -0.118649012736E+03   -0.68694E-01   -0.51059E-01    96   0.980E-01
RMM:   8    -0.118660673383E+03   -0.11661E-01   -0.97840E-02    96   0.425E-01
RMM:   9    -0.118663046690E+03   -0.23733E-02   -0.21894E-02   185   0.188E-01
RMM:  10    -0.118663201718E+03   -0.15503E-03   -0.13806E-03   156   0.479E-02
RMM:  11    -0.118663206122E+03   -0.44036E-05   -0.36707E-05   134   0.156E-02
RMM:  12    -0.118663207170E+03   -0.10485E-05   -0.10358E-05   116   0.879E-03    0.547E+00
RMM:  13    -0.118255849748E+03    0.40736E+00   -0.34688E-02   192   0.410E-01    0.341E+00
RMM:  14    -0.117949767577E+03    0.30608E+00   -0.12052E-01   192   0.712E-01    0.135E-01
RMM:  15    -0.117950118823E+03   -0.35125E-03   -0.17380E-03   192   0.103E-01    0.358E-02
RMM:  16    -0.117950133702E+03   -0.14879E-04   -0.37342E-05   115   0.133E-02
   1 F= -.11795013E+03 E0= -.11786261E+03  d E =-.117950E+03
 curvature:   0.00 expect dE= 0.000E+00 dE for cont linesearch  0.000E+00
 trial: gam= 0.00000 g(F)=  0.305E-60 g(S)=  0.482E+00 ort = 0.000E+00 (trialstep = 0.100E+01)
 search vector abs. value=  0.482E+00
 bond charge predicted
       N       E                     dE             d eps       ncg     rms          rms(c)
RMM:   1    -0.118148327772E+03   -0.19821E+00   -0.25897E+00   192   0.320E+00    0.813E-01
RMM:   2    -0.118134281590E+03    0.14046E-01   -0.10589E-02   192   0.212E-01    0.516E-01
RMM:   3    -0.118124042636E+03    0.10239E-01   -0.44631E-03   192   0.120E-01    0.256E-02
RMM:   4    -0.118124064278E+03   -0.21642E-04   -0.11789E-04   116   0.316E-02
   2 F= -.11812406E+03 E0= -.11803606E+03  d E =-.173931E+00
 trial-energy change:   -0.173931  1 .order   -0.181962   -0.482042    0.118118
 step:   0.7899(harm=  0.8032)  dis= 0.00000  next Energy=  -118.136549 (dE=-0.186E+00)
 bond charge predicted
       N       E                     dE             d eps       ncg     rms          rms(c)
RMM:   1    -0.118137402139E+03   -0.13360E-01   -0.11637E-01   192   0.680E-01    0.174E-01
RMM:   2    -0.118136800968E+03    0.60117E-03   -0.35814E-04   154   0.421E-02    0.109E-01
RMM:   3    -0.118136393198E+03    0.40777E-03   -0.19247E-04   114   0.293E-02    0.462E-03
RMM:   4    -0.118136396991E+03   -0.37935E-05   -0.24841E-05   110   0.148E-02
   3 F= -.11813640E+03 E0= -.11804858E+03  d E =-.186263E+00
 curvature:  -0.40 expect dE=-0.194E-06 dE for cont linesearch -0.194E-06
 trial: gam=-0.00100 g(F)=  0.209E-60 g(S)=  0.486E-06 ort = 0.484E-03 (trialstep = 0.958E+00)
 search vector abs. value=  0.100E-09
 reached required accuracy - stopping structural energy minimisation
