  32  32   0   0
  0.1652794E+02  0.8087040E-09  0.8087040E-09  0.8087040E-09  0.5000000E-15
  1.000000000000000E-004
  CAR 
 unknown system                          
     13.56771674     -4.79393118  301      7.84528401      1.00000000
     -4.794  0.0000E+00  0.0000E+00
     -4.733  0.0000E+00  0.0000E+00
     -4.672  0.0000E+00  0.0000E+00
     -4.610  0.0000E+00  0.0000E+00
     -4.549  0.0000E+00  0.0000E+00
     -4.488  0.0000E+00  0.0000E+00
     -4.427 -0.7926E-27 -0.4851E-28
     -4.365 -0.1023E-24 -0.6307E-26
     -4.304 -0.1099E-22 -0.6789E-24
     -4.243 -0.9772E-21 -0.6049E-22
     -4.182 -0.7190E-19 -0.4461E-20
     -4.121 -0.4376E-17 -0.2723E-18
     -4.059 -0.2203E-15 -0.1375E-16
     -3.998 -0.9164E-14 -0.5746E-15
     -3.937 -0.3051E-12 -0.1925E-13
     -3.876 -0.8644E-11 -0.5483E-12
     -3.815 -0.2017E-09 -0.1289E-10
     -3.753 -0.3879E-08 -0.2503E-09
     -3.692 -0.6141E-07 -0.4009E-08
     -3.631 -0.7991E-06 -0.5292E-07
     -3.570 -0.8531E-05 -0.5750E-06
     -3.509 -0.7452E-04 -0.5136E-05
     -3.447 -0.5309E-03 -0.3763E-04
     -3.386 -0.3069E-02 -0.2254E-03
     -3.325 -0.1428E-01 -0.1100E-02
     -3.264 -0.5286E-01 -0.4335E-02
     -3.203 -0.1521E+00 -0.1365E-01
     -3.141 -0.3245E+00 -0.3351E-01
     -3.080 -0.4453E+00 -0.6076E-01
     -3.019 -0.1145E+00 -0.6777E-01
     -2.958  0.1240E+01  0.8145E-02
     -2.897  0.3795E+01  0.2404E+00
     -2.835  0.6693E+01  0.6500E+00
     -2.774  0.8306E+01  0.1158E+01
     -2.713  0.7554E+01  0.1621E+01
     -2.652  0.4953E+01  0.1924E+01
     -2.591  0.2103E+01  0.2053E+01
     -2.529  0.2595E+00  0.2069E+01
     -2.468 -0.4027E+00  0.2044E+01
     -2.407 -0.3923E+00  0.2020E+01
     -2.346 -0.2134E+00  0.2007E+01
     -2.285 -0.9028E-01  0.2001E+01
     -2.223 -0.6113E-01  0.1998E+01
     -2.162 -0.1360E+00  0.1989E+01
     -2.101 -0.3616E+00  0.1967E+01
     -2.040 -0.7442E+00  0.1922E+01
     -1.978 -0.9992E+00  0.1860E+01
     -1.917 -0.2769E+00  0.1843E+01
     -1.856  0.2633E+01  0.2005E+01
     -1.795  0.8248E+01  0.2509E+01
     -1.734  0.1519E+02  0.3439E+01
     -1.672  0.2043E+02  0.4690E+01
     -1.611  0.2129E+02  0.5993E+01
     -1.550  0.1748E+02  0.7063E+01
     -1.489  0.1117E+02  0.7746E+01
     -1.428  0.5154E+01  0.8062E+01
     -1.366  0.1201E+01  0.8135E+01
     -1.305 -0.5148E+00  0.8104E+01
     -1.244 -0.7952E+00  0.8055E+01
     -1.183 -0.5437E+00  0.8022E+01
     -1.122 -0.2988E+00  0.8004E+01
     -1.060 -0.2550E+00  0.7988E+01
     -0.999 -0.4515E+00  0.7960E+01
     -0.938 -0.7971E+00  0.7912E+01
     -0.877 -0.8481E+00  0.7860E+01
     -0.816  0.3584E+00  0.7882E+01
     -0.754  0.3822E+01  0.8115E+01
     -0.693  0.9381E+01  0.8690E+01
     -0.632  0.1505E+02  0.9610E+01
     -0.571  0.1821E+02  0.1072E+02
     -0.510  0.1778E+02  0.1181E+02
     -0.448  0.1477E+02  0.1272E+02
     -0.387  0.1082E+02  0.1338E+02
     -0.326  0.6906E+01  0.1380E+02
     -0.265  0.3517E+01  0.1402E+02
     -0.204  0.1080E+01  0.1408E+02
     -0.142 -0.1943E+00  0.1407E+02
     -0.081 -0.5707E+00  0.1404E+02
     -0.020 -0.6042E+00  0.1400E+02
      0.041 -0.7578E+00  0.1395E+02
      0.103 -0.1125E+01  0.1388E+02
      0.164 -0.1176E+01  0.1381E+02
      0.225  0.3680E+00  0.1383E+02
      0.286  0.4917E+01  0.1414E+02
      0.347  0.1248E+02  0.1490E+02
      0.409  0.2058E+02  0.1616E+02
      0.470  0.2552E+02  0.1772E+02
      0.531  0.2520E+02  0.1926E+02
      0.592  0.2051E+02  0.2052E+02
      0.653  0.1402E+02  0.2138E+02
      0.715  0.7895E+01  0.2186E+02
      0.776  0.3168E+01  0.2205E+02
      0.837  0.1071E+00  0.2206E+02
      0.898 -0.1397E+01  0.2197E+02
      0.959 -0.1430E+01  0.2189E+02
      1.021  0.3188E+00  0.2191E+02
      1.082  0.4389E+01  0.2218E+02
      1.143  0.1075E+02  0.2283E+02
      1.204  0.1816E+02  0.2394E+02
      1.265  0.2451E+02  0.2544E+02
      1.327  0.2788E+02  0.2715E+02
      1.388  0.2766E+02  0.2884E+02
      1.449  0.2475E+02  0.3036E+02
      1.510  0.2078E+02  0.3163E+02
      1.571  0.1701E+02  0.3267E+02
      1.633  0.1386E+02  0.3352E+02
      1.694  0.1146E+02  0.3422E+02
      1.755  0.1018E+02  0.3485E+02
      1.816  0.1043E+02  0.3548E+02
      1.877  0.1217E+02  0.3623E+02
      1.939  0.1497E+02  0.3715E+02
      2.000  0.1846E+02  0.3828E+02
      2.061  0.2223E+02  0.3964E+02
      2.122  0.2547E+02  0.4120E+02
      2.183  0.2712E+02  0.4286E+02
      2.245  0.2667E+02  0.4449E+02
      2.306  0.2454E+02  0.4599E+02
      2.367  0.2171E+02  0.4732E+02
      2.428  0.1911E+02  0.4849E+02
      2.490  0.1725E+02  0.4954E+02
      2.551  0.1598E+02  0.5052E+02
      2.612  0.1469E+02  0.5142E+02
      2.673  0.1291E+02  0.5221E+02
      2.734  0.1105E+02  0.5289E+02
      2.796  0.1013E+02  0.5351E+02
      2.857  0.1065E+02  0.5416E+02
      2.918  0.1218E+02  0.5491E+02
      2.979  0.1389E+02  0.5576E+02
      3.040  0.1524E+02  0.5669E+02
      3.102  0.1570E+02  0.5765E+02
      3.163  0.1467E+02  0.5855E+02
      3.224  0.1241E+02  0.5931E+02
      3.285  0.1073E+02  0.5996E+02
      3.346  0.1167E+02  0.6068E+02
      3.408  0.1523E+02  0.6161E+02
      3.469  0.1885E+02  0.6276E+02
      3.530  0.1955E+02  0.6396E+02
      3.591  0.1653E+02  0.6497E+02
      3.652  0.1166E+02  0.6569E+02
      3.714  0.7833E+01  0.6617E+02
      3.775  0.6910E+01  0.6659E+02
      3.836  0.8905E+01  0.6713E+02
      3.897  0.1247E+02  0.6790E+02
      3.958  0.1586E+02  0.6887E+02
      4.020  0.1776E+02  0.6995E+02
      4.081  0.1786E+02  0.7105E+02
      4.142  0.1689E+02  0.7208E+02
      4.203  0.1605E+02  0.7306E+02
      4.264  0.1613E+02  0.7405E+02
      4.326  0.1690E+02  0.7508E+02
      4.387  0.1731E+02  0.7614E+02
      4.448  0.1659E+02  0.7716E+02
      4.509  0.1502E+02  0.7808E+02
      4.571  0.1362E+02  0.7891E+02
      4.632  0.1278E+02  0.7969E+02
      4.693  0.1184E+02  0.8042E+02
      4.754  0.9969E+01  0.8103E+02
      4.815  0.7394E+01  0.8148E+02
      4.877  0.5690E+01  0.8183E+02
      4.938  0.6593E+01  0.8223E+02
      4.999  0.1037E+02  0.8287E+02
      5.060  0.1541E+02  0.8381E+02
      5.121  0.1960E+02  0.8501E+02
      5.183  0.2197E+02  0.8636E+02
      5.244  0.2293E+02  0.8776E+02
      5.305  0.2311E+02  0.8917E+02
      5.366  0.2275E+02  0.9057E+02
      5.427  0.2179E+02  0.9190E+02
      5.489  0.2019E+02  0.9314E+02
      5.550  0.1820E+02  0.9425E+02
      5.611  0.1646E+02  0.9526E+02
      5.672  0.1570E+02  0.9622E+02
      5.733  0.1586E+02  0.9719E+02
      5.795  0.1577E+02  0.9815E+02
      5.856  0.1396E+02  0.9901E+02
      5.917  0.1007E+02  0.9962E+02
      5.978  0.5326E+01  0.9995E+02
      6.039  0.1530E+01  0.1000E+03
      6.101 -0.1310E+00  0.1000E+03
      6.162  0.5010E+00  0.1001E+03
      6.223  0.2800E+01  0.1002E+03
      6.284  0.5739E+01  0.1006E+03
      6.345  0.8337E+01  0.1011E+03
      6.407  0.1008E+02  0.1017E+03
      6.468  0.1086E+02  0.1024E+03
      6.529  0.1062E+02  0.1030E+03
      6.590  0.9295E+01  0.1036E+03
      6.651  0.7274E+01  0.1040E+03
      6.713  0.5488E+01  0.1044E+03
      6.774  0.4710E+01  0.1047E+03
      6.835  0.4821E+01  0.1050E+03
      6.896  0.5128E+01  0.1053E+03
      6.958  0.5485E+01  0.1056E+03
      7.019  0.6744E+01  0.1060E+03
      7.080  0.9734E+01  0.1066E+03
      7.141  0.1402E+02  0.1075E+03
      7.202  0.1814E+02  0.1086E+03
      7.264  0.2086E+02  0.1099E+03
      7.325  0.2184E+02  0.1112E+03
      7.386  0.2129E+02  0.1125E+03
      7.447  0.1984E+02  0.1137E+03
      7.508  0.1824E+02  0.1148E+03
      7.570  0.1674E+02  0.1159E+03
      7.631  0.1489E+02  0.1168E+03
      7.692  0.1252E+02  0.1175E+03
      7.753  0.1038E+02  0.1182E+03
      7.814  0.9150E+01  0.1187E+03
      7.876  0.8277E+01  0.1192E+03
      7.937  0.6574E+01  0.1196E+03
      7.998  0.3769E+01  0.1199E+03
      8.059  0.1026E+01  0.1199E+03
      8.120  0.5426E-01  0.1199E+03
      8.182  0.1970E+01  0.1201E+03
      8.243  0.6509E+01  0.1205E+03
      8.304  0.1182E+02  0.1212E+03
      8.365  0.1558E+02  0.1221E+03
      8.426  0.1708E+02  0.1232E+03
      8.488  0.1804E+02  0.1243E+03
      8.549  0.2062E+02  0.1255E+03
      8.610  0.2485E+02  0.1271E+03
      8.671  0.2857E+02  0.1288E+03
      8.732  0.2986E+02  0.1306E+03
      8.794  0.2869E+02  0.1324E+03
      8.855  0.2615E+02  0.1340E+03
      8.916  0.2287E+02  0.1354E+03
      8.977  0.1861E+02  0.1365E+03
      9.039  0.1330E+02  0.1374E+03
      9.100  0.7681E+01  0.1378E+03
      9.161  0.2948E+01  0.1380E+03
      9.222  0.4190E-01  0.1380E+03
      9.283 -0.5549E+00  0.1380E+03
      9.345  0.1302E+01  0.1381E+03
      9.406  0.5240E+01  0.1384E+03
      9.467  0.1005E+02  0.1390E+03
      9.528  0.1409E+02  0.1399E+03
      9.589  0.1632E+02  0.1409E+03
      9.651  0.1692E+02  0.1419E+03
      9.712  0.1663E+02  0.1429E+03
      9.773  0.1603E+02  0.1439E+03
      9.834  0.1551E+02  0.1448E+03
      9.895  0.1548E+02  0.1458E+03
      9.957  0.1603E+02  0.1468E+03
     10.018  0.1631E+02  0.1478E+03
     10.079  0.1511E+02  0.1487E+03
     10.140  0.1230E+02  0.1494E+03
     10.201  0.9537E+01  0.1500E+03
     10.263  0.9141E+01  0.1506E+03
     10.324  0.1195E+02  0.1513E+03
     10.385  0.1639E+02  0.1523E+03
     10.446  0.1955E+02  0.1535E+03
     10.507  0.1952E+02  0.1547E+03
     10.569  0.1697E+02  0.1557E+03
     10.630  0.1434E+02  0.1566E+03
     10.691  0.1342E+02  0.1574E+03
     10.752  0.1406E+02  0.1583E+03
     10.813  0.1501E+02  0.1592E+03
     10.875  0.1525E+02  0.1602E+03
     10.936  0.1454E+02  0.1610E+03
     10.997  0.1331E+02  0.1619E+03
     11.058  0.1222E+02  0.1626E+03
     11.119  0.1154E+02  0.1633E+03
     11.181  0.1090E+02  0.1640E+03
     11.242  0.9815E+01  0.1646E+03
     11.303  0.8341E+01  0.1651E+03
     11.364  0.7238E+01  0.1655E+03
     11.426  0.7283E+01  0.1660E+03
     11.487  0.8304E+01  0.1665E+03
     11.548  0.9015E+01  0.1670E+03
     11.609  0.8115E+01  0.1675E+03
     11.670  0.5579E+01  0.1679E+03
     11.732  0.2631E+01  0.1680E+03
     11.793  0.5334E+00  0.1681E+03
     11.854 -0.3553E+00  0.1681E+03
     11.915 -0.4444E+00  0.1680E+03
     11.976 -0.2686E+00  0.1680E+03
     12.038 -0.1136E+00  0.1680E+03
     12.099 -0.3663E-01  0.1680E+03
     12.160 -0.9307E-02  0.1680E+03
     12.221 -0.1896E-02  0.1680E+03
     12.282 -0.3129E-03  0.1680E+03
     12.344 -0.4208E-04  0.1680E+03
     12.405 -0.4631E-05  0.1680E+03
     12.466 -0.4182E-06  0.1680E+03
     12.527 -0.3107E-07  0.1680E+03
     12.588 -0.1902E-08  0.1680E+03
     12.650 -0.9603E-10  0.1680E+03
     12.711 -0.4002E-11  0.1680E+03
     12.772 -0.1397E-12  0.1680E+03
     12.833 -0.3628E-14  0.1680E+03
     12.894  0.0000E+00  0.1680E+03
     12.956  0.0000E+00  0.1680E+03
     13.017  0.0000E+00  0.1680E+03
     13.078  0.0000E+00  0.1680E+03
     13.139  0.0000E+00  0.1680E+03
     13.200  0.0000E+00  0.1680E+03
     13.262  0.0000E+00  0.1680E+03
     13.323  0.0000E+00  0.1680E+03
     13.384  0.0000E+00  0.1680E+03
     13.445  0.0000E+00  0.1680E+03
     13.507  0.0000E+00  0.1680E+03
     13.568  0.0000E+00  0.1680E+03
