   32   32    1    1
  0.1652794E+02  0.8087040E-09  0.8087040E-09  0.8087040E-09  0.5000000E-15
  1.000000000000000E-004
  CAR 
 unknown system                          
  119    4   84
 
  0.2500000E+00  0.2500000E+00  0.2500000E+00  0.2500000E+00
   1       -2.793692
   2       -1.707031
   3       -1.679221
   4       -1.579599
   5       -0.622896
   6       -0.594031
   7       -0.424908
   8        0.408617
   9        0.429406
  10        0.462066
  11        0.629407
  12        1.161975
  13        1.198872
  14        1.309713
  15        1.389860
  16        1.511161
  17        1.543930
  18        1.867420
  19        1.946976
  20        2.062554
  21        2.122194
  22        2.229618
  23        2.267365
  24        2.373627
  25        2.477589
  26        2.571584
  27        2.656266
  28        2.932511
  29        3.110389
  30        3.156647
  31        3.377738
  32        3.458978
  33        3.582170
  34        3.800529
  35        3.942661
  36        4.033335
  37        4.177534
  38        4.347485
  39        4.427924
  40        4.597006
  41        4.725953
  42        5.046743
  43        5.095019
  44        5.201499
  45        5.319835
  46        5.381781
  47        5.491896
  48        5.561713
  49        5.760479
  50        5.866314
  51        6.300594
  52        6.559257
  53        6.863844
  54        7.124943
  55        7.169939
  56        7.310120
  57        7.388014
  58        7.578135
  59        7.634992
  60        7.868368
  61        8.308090
  62        8.395730
  63        8.548199
  64        8.631713
  65        8.687679
  66        8.747553
  67        8.859303
  68        8.916086
  69        8.972614
  70        9.479570
  71        9.534320
  72        9.716842
  73        9.811504
  74       10.047510
  75       10.071190
  76       10.308395
  77       10.456451
  78       10.469299
  79       10.667995
  80       10.871643
  81       10.892900
  82       11.103219
  83       11.252541
  84       11.536426
 
 -0.2500000E+00  0.2500000E+00  0.2500000E+00  0.2500000E+00
   1       -2.791216
   2       -1.724091
   3       -1.689592
   4       -1.561239
   5       -0.629270
   6       -0.593878
   7       -0.440943
   8        0.422739
   9        0.452061
  10        0.511648
  11        0.646046
  12        1.271216
  13        1.299955
  14        1.328675
  15        1.347529
  16        1.460587
  17        1.625675
  18        1.668972
  19        1.832510
  20        2.019682
  21        2.081234
  22        2.193871
  23        2.217409
  24        2.322617
  25        2.363472
  26        2.591190
  27        2.787650
  28        2.923269
  29        3.089508
  30        3.182050
  31        3.400047
  32        3.502624
  33        3.510590
  34        3.902153
  35        3.986916
  36        4.112908
  37        4.251004
  38        4.342412
  39        4.521535
  40        4.631100
  41        4.746858
  42        5.044783
  43        5.098213
  44        5.220405
  45        5.281261
  46        5.362253
  47        5.458377
  48        5.595741
  49        5.722876
  50        5.840870
  51        6.418177
  52        6.464771
  53        6.673993
  54        7.221365
  55        7.278753
  56        7.345729
  57        7.404865
  58        7.487921
  59        7.551568
  60        7.843475
  61        8.329532
  62        8.369047
  63        8.577994
  64        8.618438
  65        8.630529
  66        8.676925
  67        8.792275
  68        8.808428
  69        8.834795
  70        9.625730
  71        9.673032
  72        9.769116
  73        9.900837
  74        9.941138
  75        9.964640
  76       10.260968
  77       10.442657
  78       10.460555
  79       10.688818
  80       10.741209
  81       10.768231
  82       11.117668
  83       11.246229
  84       11.554107
 
  0.2500000E+00 -0.2500000E+00  0.2500000E+00  0.2500000E+00
   1       -2.793013
   2       -1.722840
   3       -1.683930
   4       -1.559814
   5       -0.626158
   6       -0.617896
   7       -0.380273
   8        0.406567
   9        0.414816
  10        0.480101
  11        0.608485
  12        1.167687
  13        1.228668
  14        1.300323
  15        1.361020
  16        1.474557
  17        1.582206
  18        1.883037
  19        1.954199
  20        2.055061
  21        2.122076
  22        2.202121
  23        2.282445
  24        2.360743
  25        2.463453
  26        2.590282
  27        2.615090
  28        2.922071
  29        3.067318
  30        3.179724
  31        3.438174
  32        3.493241
  33        3.562200
  34        3.766700
  35        3.981785
  36        4.076973
  37        4.191737
  38        4.298566
  39        4.423038
  40        4.613023
  41        4.808365
  42        5.025903
  43        5.088728
  44        5.250254
  45        5.273269
  46        5.406287
  47        5.441293
  48        5.568724
  49        5.738797
  50        5.852913
  51        6.286235
  52        6.528024
  53        6.846633
  54        7.119232
  55        7.164205
  56        7.360767
  57        7.382521
  58        7.545768
  59        7.654889
  60        7.848583
  61        8.318783
  62        8.361613
  63        8.529790
  64        8.623337
  65        8.675909
  66        8.724185
  67        8.857949
  68        8.930876
  69        9.067559
  70        9.486169
  71        9.531543
  72        9.698139
  73        9.849649
  74       10.014326
  75       10.055022
  76       10.352529
  77       10.466436
  78       10.478669
  79       10.700565
  80       10.838264
  81       10.940409
  82       11.104813
  83       11.268160
  84       11.523813
 
 -0.2500000E+00 -0.2500000E+00  0.2500000E+00  0.2500000E+00
   1       -2.793931
   2       -1.704284
   3       -1.676435
   4       -1.586939
   5       -0.619363
   6       -0.592196
   7       -0.423703
   8        0.403252
   9        0.418067
  10        0.492591
  11        0.606956
  12        1.164017
  13        1.230605
  14        1.346881
  15        1.383165
  16        1.467219
  17        1.633543
  18        1.733930
  19        1.882409
  20        2.081248
  21        2.109723
  22        2.160779
  23        2.221067
  24        2.388346
  25        2.478834
  26        2.682499
  27        2.842286
  28        2.902093
  29        3.036315
  30        3.159448
  31        3.410580
  32        3.460030
  33        3.600326
  34        3.869972
  35        3.963607
  36        4.046421
  37        4.171863
  38        4.354053
  39        4.387952
  40        4.447151
  41        4.671503
  42        5.029013
  43        5.117804
  44        5.234588
  45        5.265060
  46        5.419942
  47        5.507673
  48        5.625906
  49        5.745916
  50        5.807537
  51        6.329854
  52        6.539702
  53        6.921364
  54        7.145523
  55        7.158098
  56        7.292732
  57        7.363587
  58        7.577408
  59        7.632819
  60        7.873882
  61        8.315041
  62        8.371030
  63        8.529833
  64        8.636850
  65        8.688593
  66        8.757572
  67        8.894996
  68        8.951969
  69        8.997647
  70        9.458867
  71        9.520592
  72        9.656145
  73        9.799407
  74       10.062921
  75       10.092900
  76       10.343671
  77       10.451823
  78       10.469967
  79       10.656538
  80       10.891472
  81       10.937049
  82       11.071631
  83       11.416274
  84       11.567717
