 vasp.5.2.2 15Apr09 complex 
 executed on             LinuxIFC date 2017.01.11  13:42:02
 running on   12 nodes
 distr:  one band on    1 nodes,   12 groups


--------------------------------------------------------------------------------------------------------


 INCAR:
 POTCAR:   PAW_PBE Al 04Jan2001                   
 POTCAR:   PAW_PBE Pt 05Jan2001                   
 POTCAR:   PAW_PBE Au 06Sep2000                   
 POTCAR:   PAW_PBE Ag 06Sep2000                   
 POTCAR:   PAW_PBE Al 04Jan2001                   
   VRHFIN =Al: s2p1                                                             
   LEXCH  = PE                                                                  
   EATOM  =    53.5387 eV,    3.9350 Ry                                         
                                                                                
   TITEL  = PAW_PBE Al 04Jan2001                                                
   LULTRA =        F    use ultrasoft PP ?                                      
   IUNSCR =        1    unscreen: 0-lin 1-nonlin 2-no                           
   RPACOR =    1.500    partial core radius                                     
   POMASS =   26.982; ZVAL   =    3.000    mass and valenz                      
   RCORE  =    1.900    outmost cutoff radius                                   
   RWIGS  =    2.650; RWIGS  =    1.402    wigner-seitz radius (au A)           
   ENMAX  =  240.300; ENMIN  =  180.225 eV                                      
   ICORE  =        2    local potential                                         
   LCOR   =        T    correct aug charges                                     
   LPAW   =        T    paw PP                                                  
   EAUG   =  291.052                                                            
   DEXC   =    -.041                                                            
   RMAX   =    2.974    core radius for proj-oper                               
   RAUG   =    1.300    factor for augmentation sphere                          
   RDEP   =    1.966    radius for radial grids                                 
   QCUT   =   -4.203; QGAM   =    8.405    optimization parameters              
                                                                                
   Description                                                                  
     l     E      TYP  RCUT    TYP  RCUT                                        
     0   .000     23  1.900                                                     
     0   .000     23  1.900                                                     
     1   .000     23  1.900                                                     
     1  1.000     23  1.900                                                     
     2   .000      7  1.900                                                     
  local pseudopotential read in
  partial core-charges read in
  atomic valenz-charges read in
  non local Contribution for L=           0  read in
    real space projection operators read in
  non local Contribution for L=           0  read in
    real space projection operators read in
  non local Contribution for L=           1  read in
    real space projection operators read in
  non local Contribution for L=           1  read in
    real space projection operators read in
    PAW grid and wavefunctions read in
 
   number of l-projection  operators is LMAX  =           4
   number of lm-projection operators is LMMAX =           8
 
 POTCAR:   PAW_PBE Pt 05Jan2001                   
   VRHFIN =Pt: s1d9                                                             
   LEXCH  = PE                                                                  
   EATOM  =   729.1171 eV,   53.5886 Ry                                         
                                                                                
   TITEL  = PAW_PBE Pt 05Jan2001                                                
   LULTRA =        F    use ultrasoft PP ?                                      
   IUNSCR =        1    unscreen: 0-lin 1-nonlin 2-no                           
   RPACOR =    2.330    partial core radius                                     
   POMASS =  195.080; ZVAL   =   10.000    mass and valenz                      
   RCORE  =    2.500    outmost cutoff radius                                   
   RWIGS  =    2.750; RWIGS  =    1.455    wigner-seitz radius (au A)           
   ENMAX  =  230.283; ENMIN  =  172.712 eV                                      
   RCLOC  =    1.896    cutoff for local pot                                    
   LCOR   =        T    correct aug charges                                     
   LPAW   =        T    paw PP                                                  
   EAUG   =  358.966                                                            
   DEXC   =    -.039                                                            
   RMAX   =    3.038    core radius for proj-oper                               
   RAUG   =    1.300    factor for augmentation sphere                          
   RDEP   =    2.590    radius for radial grids                                 
   QCUT   =   -4.114; QGAM   =    8.228    optimization parameters              
                                                                                
   Description                                                                  
     l     E      TYP  RCUT    TYP  RCUT                                        
     2   .000     23  2.500                                                     
     2   .000     23  2.500                                                     
     0   .000     23  2.500                                                     
     0   .000     23  2.500                                                     
     1  -.200     23  2.500                                                     
     1  1.500     23  2.500                                                     
     3   .000      7   .000                                                     
  local pseudopotential read in
  partial core-charges read in
  atomic valenz-charges read in
  non local Contribution for L=           2  read in
    real space projection operators read in
  non local Contribution for L=           2  read in
    real space projection operators read in
  non local Contribution for L=           0  read in
    real space projection operators read in
  non local Contribution for L=           0  read in
    real space projection operators read in
  non local Contribution for L=           1  read in
    real space projection operators read in
  non local Contribution for L=           1  read in
    real space projection operators read in
    PAW grid and wavefunctions read in
 
   number of l-projection  operators is LMAX  =           6
   number of lm-projection operators is LMMAX =          18
 
 POTCAR:   PAW_PBE Au 06Sep2000                   
   VRHFIN =Au: s1d10                                                            
   LEXCH  = PE                                                                  
   EATOM  =   926.0567 eV,   68.0632 Ry                                         
                                                                                
   TITEL  = PAW_PBE Au 06Sep2000                                                
   LULTRA =        F    use ultrasoft PP ?                                      
   IUNSCR =        1    unscreen: 0-lin 1-nonlin 2-no                           
   RPACOR =    2.330    partial core radius                                     
   POMASS =  196.966; ZVAL   =   11.000    mass and valenz                      
   RCORE  =    2.500    outmost cutoff radius                                   
   RWIGS  =    2.840; RWIGS  =    1.503    wigner-seitz radius (au A)           
   ENMAX  =  229.948; ENMIN  =  172.461 eV                                      
   RCLOC  =    1.964    cutoff for local pot                                    
   LCOR   =        T    correct aug charges                                     
   LPAW   =        T    paw PP                                                  
   EAUG   =  356.670                                                            
   DEXC   =    -.025                                                            
   RMAX   =    3.041    core radius for proj-oper                               
   RAUG   =    1.300    factor for augmentation sphere                          
   RDEP   =    2.598    radius for radial grids                                 
   QCUT   =   -4.111; QGAM   =    8.222    optimization parameters              
                                                                                
   Description                                                                  
     l     E      TYP  RCUT    TYP  RCUT                                        
     2   .000     23  2.500                                                     
     2   .000     23  2.500                                                     
     0   .000     23  2.500                                                     
     0   .000     23  2.500                                                     
     1  -.200     23  2.500                                                     
     1   .000     23  2.500                                                     
     3   .000      7   .000                                                     
  local pseudopotential read in
  partial core-charges read in
  atomic valenz-charges read in
  non local Contribution for L=           2  read in
    real space projection operators read in
  non local Contribution for L=           2  read in
    real space projection operators read in
  non local Contribution for L=           0  read in
    real space projection operators read in
  non local Contribution for L=           0  read in
    real space projection operators read in
  non local Contribution for L=           1  read in
    real space projection operators read in
  non local Contribution for L=           1  read in
    real space projection operators read in
    PAW grid and wavefunctions read in
 
   number of l-projection  operators is LMAX  =           6
   number of lm-projection operators is LMMAX =          18
 
 POTCAR:   PAW_PBE Ag 06Sep2000                   
   VRHFIN =Ag : s1 d10                                                          
   LEXCH  = PE                                                                  
   EATOM  =  1037.4134 eV,   76.2477 Ry                                         
                                                                                
   TITEL  = PAW_PBE Ag 06Sep2000                                                
   LULTRA =        F    use ultrasoft PP ?                                      
   IUNSCR =        1    unscreen: 0-lin 1-nonlin 2-no                           
   RPACOR =    2.000    partial core radius                                     
   POMASS =  107.868; ZVAL   =   11.000    mass and valenz                      
   RCORE  =    2.400    outmost cutoff radius                                   
   RWIGS  =    2.840; RWIGS  =    1.503    wigner-seitz radius (au A)           
   ENMAX  =  249.846; ENMIN  =  187.385 eV                                      
   RCLOC  =    1.962    cutoff for local pot                                    
   LCOR   =        T    correct aug charges                                     
   LPAW   =        T    paw PP                                                  
   EAUG   =  412.496                                                            
   DEXC   =    -.047                                                            
   RMAX   =    2.917    core radius for proj-oper                               
   RAUG   =    1.300    factor for augmentation sphere                          
   RDEP   =    2.416    radius for radial grids                                 
   QCUT   =   -4.285; QGAM   =    8.570    optimization parameters              
                                                                                
   Description                                                                  
     l     E      TYP  RCUT    TYP  RCUT                                        
     2   .000     23  2.400                                                     
     2   .000     23  2.400                                                     
     0   .000     23  2.400                                                     
     0   .000     23  2.400                                                     
     1  -.200     23  2.400                                                     
     1  1.500     23  2.400                                                     
     3   .000      7   .000                                                     
  local pseudopotential read in
  partial core-charges read in
  atomic valenz-charges read in
  non local Contribution for L=           2  read in
    real space projection operators read in
  non local Contribution for L=           2  read in
    real space projection operators read in
  non local Contribution for L=           0  read in
    real space projection operators read in
  non local Contribution for L=           0  read in
    real space projection operators read in
  non local Contribution for L=           1  read in
    real space projection operators read in
  non local Contribution for L=           1  read in
    real space projection operators read in
    PAW grid and wavefunctions read in
 
   number of l-projection  operators is LMAX  =           6
   number of lm-projection operators is LMMAX =          18
 

 ----------------------------------------------------------------------------- 
|                                                                             |
|  ADVICE TO THIS USER RUNNING 'VASP/VAMP'   (HEAR YOUR MASTER'S VOICE ...):  |
|                                                                             |
|      You have a (more or less) 'large supercell' and for larger cells       |
|      it might be more efficient to use real space projection operators      |
|      So try LREAL= Auto  in the INCAR   file.                               |
|      Mind: If you want to do a very accurate calculations keep the          |
|      reciprocal projection scheme          (i.e. LREAL=.FALSE.)             |
|                                                                             |
 ----------------------------------------------------------------------------- 

 PAW_PBE Al 04Jan2001                   :
 energy of atom  1       EATOM=  -53.5387
 kinetic energy error for atom=    0.0011 (will be added to EATOM!!)
 PAW_PBE Pt 05Jan2001                   :
 energy of atom  2       EATOM= -729.1171
 kinetic energy error for atom=    0.0416 (will be added to EATOM!!)
 PAW_PBE Au 06Sep2000                   :
 energy of atom  3       EATOM= -926.0567
 kinetic energy error for atom=    0.0455 (will be added to EATOM!!)
 PAW_PBE Ag 06Sep2000                   :
 energy of atom  4       EATOM=-1037.4134
 kinetic energy error for atom=    0.0535 (will be added to EATOM!!)
 
 
 POSCAR: Al29 Ag1 Pt1 Au1                        
  positions in direct lattice
  velocities in cartesian coordinates
 exchange correlation table for  LEXCH =        8
   RHO(1)=    0.500       N(1)  =     2000
   RHO(2)=  100.500       N(2)  =     4000

 VTST: version 2.03d, (02/18/09)

 CHAIN: initializing optimizer
 
 OPT: Using VASP Dynamics algorithm
 CHAIN: Read ICHAIN            0
 


--------------------------------------------------------------------------------------------------------


 ion  position               nearest neighbor table
   1  0.006  0.992  0.999-  25 2.78  30 2.80   2 2.80  32 2.83  10 2.83   3 2.85  13 2.87   5 2.88
                            19 2.89   4 2.91  17 2.93   6 2.95
   2  0.253  0.991  0.242-  14 2.75   1 2.80  30 2.81  31 2.83   3 2.84  10 2.85  24 2.87  18 2.89
                            15 2.90   4 2.93   7 2.93  16 2.96
   3  0.250  0.245  0.000-  31 2.84   2 2.84   4 2.85   1 2.85  32 2.85  17 2.87   7 2.87  11 2.88
                            23 2.88  21 2.88   9 2.88   8 2.90
   4  0.001  0.251  0.249-   8 2.83   9 2.84   5 2.84  20 2.85   3 2.85   6 2.85  15 2.85  12 2.86
                            22 2.86  16 2.86   1 2.91   2 2.93
   5  0.754  0.001  0.251-  31 2.80  15 2.82   4 2.84  28 2.84  20 2.85  10 2.85  18 2.85  13 2.87
                             1 2.88   7 2.88   6 2.89  14 2.91
   6  0.752  0.253  0.999-  31 2.78   8 2.80  12 2.83  27 2.85   4 2.85   7 2.86  17 2.86  21 2.87
                            19 2.88   5 2.89  11 2.90   1 2.95
   7  0.503  0.254  0.250-  31 2.80  26 2.83  12 2.83   9 2.85  20 2.85  16 2.85  11 2.86  18 2.86
                             6 2.86   3 2.87   5 2.88   2 2.93
   8  0.996  0.499  0.001-  30 2.66   6 2.80  12 2.81  27 2.83   4 2.83  10 2.85  25 2.85  17 2.86
                            13 2.86  23 2.86   9 2.88   3 2.90
   9  0.250  0.499  0.252-  30 2.68  16 2.82  22 2.83  11 2.84   4 2.84  26 2.84  14 2.84   7 2.85
                            24 2.86  10 2.86   8 2.88   3 2.88
  10  0.998  0.747  0.250-  30 2.68  28 2.83  12 2.83   1 2.83  22 2.84   8 2.85   5 2.85   2 2.85
                             9 2.86  13 2.86  15 2.87  24 2.87
  11  0.495  0.504  0.001-  14 2.81  23 2.81  30 2.81  29 2.83   9 2.84  13 2.84   7 2.86  21 2.87
                            12 2.87   3 2.88   6 2.90  27 2.92
  12  0.751  0.501  0.246-   8 2.81  13 2.82  10 2.83   6 2.83   7 2.83  26 2.85   4 2.86  28 2.86
                            20 2.87  11 2.87  22 2.89  14 2.90
  13  0.746  0.749  0.001-  12 2.82  14 2.83  11 2.84  29 2.84  31 2.84   8 2.86  27 2.86  10 2.86
                             5 2.87   1 2.87  25 2.88  19 2.90
  14  0.494  0.751  0.244-   2 2.75  11 2.81  13 2.83  30 2.83  31 2.84   9 2.84  26 2.87  24 2.88
                            18 2.89  12 2.90   5 2.91  28 2.92
  15  0.001  0.001  0.498-   5 2.82  32 2.83  20 2.85  19 2.85   4 2.85  28 2.86  10 2.87  24 2.87
                            16 2.87  17 2.87   2 2.90  25 2.90
  16  0.252  0.252  0.498-   9 2.82  22 2.84  32 2.85   7 2.85  21 2.86  18 2.86  26 2.86   4 2.86
                            17 2.86  15 2.87  23 2.90   2 2.96
  17  0.001  0.252  0.748-  22 2.84  27 2.84  20 2.85  32 2.85  19 2.85  23 2.86   8 2.86   6 2.86
                            16 2.86  15 2.87   3 2.87   1 2.93
  18  0.503  0.002  0.498-   5 2.85  20 2.85  19 2.86   7 2.86  16 2.86  28 2.86  32 2.87  21 2.88
                            14 2.89   2 2.89  29 2.90  24 2.90
  19  0.753  0.002  0.748-  15 2.85  20 2.85  17 2.85  18 2.86  31 2.86  28 2.87  25 2.87   6 2.88
                            21 2.88   1 2.89  13 2.90  29 2.90
  20  0.752  0.251  0.498-   5 2.85  17 2.85   4 2.85  15 2.85   7 2.85  19 2.85  18 2.85  22 2.86
                            21 2.86  27 2.87  12 2.87  26 2.87
  21  0.502  0.255  0.748-  27 2.85  26 2.85  23 2.86  16 2.86  20 2.86   6 2.87  11 2.87  18 2.88
                            31 2.88   3 2.88  19 2.88  32 2.90
  22  0.003  0.500  0.500-  24 2.83   9 2.83  17 2.84  10 2.84  16 2.84  27 2.85  20 2.86   4 2.86
                            28 2.87  23 2.87  25 2.89  12 2.89
  23  0.250  0.503  0.754-  30 2.79  11 2.81  25 2.83  29 2.84  24 2.85  21 2.86  17 2.86   8 2.86
                            22 2.87   3 2.88  16 2.90  26 2.92
  24  0.249  0.748  0.502-  22 2.83  32 2.84  23 2.85  26 2.85  25 2.85   9 2.86  29 2.86  15 2.87
                            10 2.87   2 2.87  14 2.88  18 2.90
  25  0.003  0.750  0.755-   1 2.78  30 2.80  23 2.83  32 2.84   8 2.85  27 2.85  24 2.85  19 2.87
                            13 2.88  22 2.89  15 2.90  28 2.91
  26  0.502  0.502  0.496-   7 2.83   9 2.84  28 2.85  21 2.85  12 2.85  24 2.85  16 2.86  20 2.87
                            14 2.87  27 2.88  23 2.92  29 2.97
  27  0.753  0.501  0.749-   8 2.83  17 2.84   6 2.85  21 2.85  25 2.85  22 2.85  28 2.86  13 2.86
                            20 2.87  26 2.88  11 2.92  29 2.97
  28  0.751  0.750  0.498-  10 2.83   5 2.84  26 2.85  27 2.86  15 2.86  18 2.86  12 2.86  22 2.87
                            19 2.87  25 2.91  14 2.92  29 2.99
  29  0.491  0.757  0.760-  32 2.78  11 2.83  23 2.84  13 2.84  31 2.85  24 2.86  19 2.90  18 2.90
                            30 2.95  27 2.97  26 2.97  28 2.99
  30  0.230  0.729  0.015-   8 2.66   9 2.68  10 2.68  23 2.79   1 2.80  25 2.80   2 2.81  11 2.81
                            14 2.83  29 2.95  32 3.09  31 3.20
  31  0.510  0.009  0.006-   6 2.78   7 2.80   5 2.80   2 2.83   3 2.84  14 2.84  13 2.84  29 2.85
                            19 2.86  21 2.88  32 2.98  30 3.20
  32  0.248  0.001  0.746-  29 2.78  15 2.83   1 2.83  25 2.84  24 2.84  16 2.85  17 2.85   3 2.85
                            18 2.87  21 2.90  31 2.98  30 3.09
 
  LATTYP: Found a simple cubic cell.
 ALAT       =     8.0870400000
  
  Lattice vectors:
  
 A1 = (   8.0870400000,   0.0000000000,   0.0000000000)
 A2 = (   0.0000000000,   8.0870400000,   0.0000000000)
 A3 = (   0.0000000000,   0.0000000000,   8.0870400000)
 Subroutine PRICEL returns:
 Original cell was already a primitive cell.
 

Analysis of symmetry for initial positions (statically):

 Routine SETGRP: Setting up the symmetry group for a 
 simple cubic supercell.


 Subroutine GETGRP returns: Found  1 space group operations
 (whereof  1 operations were pure point group operations)
 out of a pool of 48 trial point group operations.


The static configuration has the point symmetry C_1 .

Analysis of symmetry for dynamics (positions and initial velocities):

 Subroutine DYNSYM returns: Found  1 space group operations
 (whereof  1 operations were pure point group operations)
 out of a pool of  1 trial space group operations
 (whereof  1 operations were pure point group operations)
 and found also     1 'primitive' translations


The dynamic configuration has the point symmetry C_1 .
 
 
 KPOINTS: Automatic kpoint scheme                 

Automatic generation of k-mesh.
 
 Subroutine IBZKPT returns following result:
 ===========================================
 
 Found      4 irreducible k-points:
 
 Following reciprocal coordinates:
            Coordinates               Weight
  0.250000  0.250000  0.250000      2.000000
 -0.250000  0.250000  0.250000      2.000000
  0.250000 -0.250000  0.250000      2.000000
 -0.250000 -0.250000  0.250000      2.000000
 
 Following cartesian coordinates:
            Coordinates               Weight
  0.030914  0.030914  0.030914      2.000000
 -0.030914  0.030914  0.030914      2.000000
  0.030914 -0.030914  0.030914      2.000000
 -0.030914 -0.030914  0.030914      2.000000
 


--------------------------------------------------------------------------------------------------------




 Dimension of arrays:
   k-points           NKPTS =      4   k-points in BZ     NKDIM =      4   number of bands    NBANDS=     84
   number of dos      NEDOS =    301   number of ions     NIONS =     32
   non local maximal  LDIM  =      6   non local SUM 2l+1 LMDIM =     18
   total plane-waves  NPLWV = 110592
   max r-space proj   IRMAX =      1   max aug-charges    IRDMAX=  12985
   dimension x,y,z NGX =    48 NGY =   48 NGZ =   48
   dimension x,y,z NGXF=    96 NGYF=   96 NGZF=   96
   support grid    NGXF=    96 NGYF=   96 NGZF=   96
   ions per type =              29   1   1   1
 NGX,Y,Z   is equivalent  to a cutoff of   9.87,  9.87,  9.87 a.u.
 NGXF,Y,Z  is equivalent  to a cutoff of  19.73, 19.73, 19.73 a.u.


 I would recommend the setting:
   dimension x,y,z NGX =    46 NGY =   46 NGZ =   46
 SYSTEM =  unknown system                          
 POSCAR =  Al29 Ag1 Pt1 Au1                        

 Startparameter for this run:
   NWRITE =      2    write-flag & timer
   PREC   = accura    medium, high low
   ISTART =      0    job   : 0-new  1-cont  2-samecut
   ICHARG =      2    charge: 1-file 2-atom 10-const
   ISPIN  =      1    spin polarized calculation?
   LNONCOLLINEAR =      F non collinear calculations
   LSORBIT =      F    spin-orbit coupling
   INIWAV =      1    electr: 0-lowe 1-rand  2-diag
   LASPH  =      F    aspherical Exc in radial PAW
   METAGGA=      F    non-selfconsistent MetaGGA calc.

 Electronic Relaxation 1
   ENCUT  =  300.0 eV  22.05 Ry    4.70 a.u.  11.42 11.42 11.42*2*pi/ulx,y,z
   ENINI  =  300.0     initial cutoff
   ENAUG  =  412.5 eV  augmentation charge cutoff
   NELM   =     60;   NELMIN=  2; NELMDL=-12     # of ELM steps 
   EDIFF  = 0.1E-03   stopping-criterion for ELM
   LREAL  =      F    real-space projection
   LCOMPAT=      F    compatible to vasp.4.4
   LREAL_COMPAT= F    compatible to vasp.4.5.1-3
   GGA_COMPAT  = T    GGA compatible to vasp.4.4-vasp.4.6
   LMAXPAW     = -100 max onsite density
   LMAXMIX     =    2 max onsite mixed and CHGCAR
   VOSKOWN=      0    Vosko Wilk Nusair interpolation
   ROPT   =    0.00000   0.00000   0.00000   0.00000
 Ionic relaxation
   EDIFFG = 0.5E-01   stopping-criterion for IOM
   NSW    =      0    number of steps for IOM
   NBLOCK =      1;   KBLOCK =      1    inner block; outer block 
   IBRION =     -1    ionic relax: 0-MD 1-quasi-New 2-CG
   NFREE  =      0    steps in history (QN), initial steepest desc. (CG)
   ISIF   =      2    stress and relaxation
   IWAVPR =     10    prediction:  0-non 1-charg 2-wave 3-comb
   ISYM   =      2    0-nonsym 1-usesym 2-fastsym
   LCORR  =      T    Harris-Foulkes like correction to forces

   POTIM  = 0.5000    time-step for ionic-motion
   TEIN   =    0.0    initial temperature
   TEBEG  =    0.0;   TEEND  =   0.0 temperature during run
   SMASS  =  -3.00    Nose mass-parameter (am)
   estimated Nose-frequenzy (Omega)   =  0.10E-29 period in steps =****** mass=  -0.149E-26a.u.
   NPACO  =    256;   APACO  = 16.0  distance and # of slots for P.C.
   PSTRESS=    0.0 pullay stress

  Mass of Ions in am
   POMASS =  26.98195.08196.97107.87
  Ionic Valenz
   ZVAL   =   3.00 10.00 11.00 11.00
  Atomic Wigner-Seitz radii
   RWIGS  =  -1.00 -1.00 -1.00 -1.00
   NELECT =     119.0000    total number of electrons
   NUPDOWN=      -1.0000    fix difference up-down

 DOS related values:
   EMIN   =  10.00;   EMAX   =-10.00  energy-range for DOS
   EFERMI =   0.00
   ISMEAR =     1;   SIGMA  =   0.20  broadening in eV -4-tet -1-fermi 0-gaus

 Electronic relaxation 2 (details)
   IALGO  =     48    algorithm
   LDIAG  =      T    sub-space diagonalisation
   IMIX   =      4    mixing-type and parameters
     AMIX     =   0.40;   BMIX     =  1.00
     AMIX_MAG =   1.60;   BMIX_MAG =  1.00
     AMIN     =   0.10
     WC   =   100.;   INIMIX=   1;  MIXPRE=   1

 Intra band minimization:
   WEIMIN = 0.0000     energy-eigenvalue tresh-hold
   EBREAK =  0.33E-06  absolut break condition
   DEPER  =   0.30     relativ break condition  

   TIME   =   0.40     timestep for ELM

  volume/ion in A,a.u.               =      16.53       111.54
  Fermi-wavevector in a.u.,A,eV,Ry     =   0.995713  1.881625 13.489423  0.991445
  Thomas-Fermi vector in A             =   2.127752
 
 Write flags
   LWAVE  =      F    write WAVECAR
   LCHARG =      F    write CHGCAR
   LVTOT  =      F    write LOCPOT, local potential
   LELF   =      F    write electronic localiz. function (ELF)
   LORBIT =      0    0 simple, 1 ext, 2 COOP (PROOUT)


 Dipole corrections
   LMONO  =      F    monopole corrections only (constant potential shift)
   LDIPOL =      F    correct potential (dipole corrections)
   IDIPOL =      0    1-x, 2-y, 3-z, 4-all directions 
   EPSILON=  1.0000000 bulk dielectric constant

 Exchange correlation treatment:
   GGA     =    --    GGA type
   LEXCH   =     8    internal setting for exchange type
   VOSKOWN=      0    Vosko Wilk Nusair interpolation
   LHFCALC =     F    Hartree Fock is set to
   LHFONE  =     F    Hartree Fock one center treatment
   AEXX    =    0.0000 exact exchange contribution

 Linear response parameters
   LEPSILON=     F    determine dielectric tensor
   LRPA    =     F    only Hartree local field effects (RPA)
   LNABLA  =     F    use nabla operator in PAW spheres
   LVEL    =     F    velocity operator in full k-point grid
   LINTERFAST=   F  fast interpolation
   KINTER  =     0    interpolate to denser k-point grid
   CSHIFT  =0.1000    complex shift for real part using Kramers Kronig
   OMEGAMAX=  -1.0    maximum frequency

 Orbital magnetization related:
   ORBITALMAG=     F  switch on orbital magnetization
   LCHIMAG   =     F  perturbation theory with respect to B field



--------------------------------------------------------------------------------------------------------


 Static calculation
 charge density and potential will be updated during run
 non-spin polarized calculation
 RMM-DIIS sequential band-by-band
 perform sub-space diagonalisation
    before iterative eigenvector-optimisation
 modified Broyden-mixing scheme, WC =      100.0
 initial mixing is a Kerker type mixing with AMIX =  0.4000 and BMIX =      1.0000
 Hartree-type preconditioning will be used
 using additional bands           24
 reciprocal scheme for non local part
 use partial core corrections
 calculate Harris-corrections to forces 
   (improved forces if not selfconsistent)
 use gradient corrections 
 use of overlap-Matrix (Vanderbilt PP)
 Methfessel and Paxton  Order N= 1 SIGMA  =   0.20


--------------------------------------------------------------------------------------------------------


  energy-cutoff  :      300.00
  volume of cell :      528.89
      direct lattice vectors                 reciprocal lattice vectors
     8.087040000  0.000000000  0.000000000     0.123654638  0.000000000  0.000000000
     0.000000000  8.087040000  0.000000000     0.000000000  0.123654638  0.000000000
     0.000000000  0.000000000  8.087040000     0.000000000  0.000000000  0.123654638

  length of vectors
     8.087040000  8.087040000  8.087040000     0.123654638  0.123654638  0.123654638


 
 k-points in units of 2pi/SCALE and weight: Automatic kpoint scheme                 
   0.03091366  0.03091366  0.03091366       0.250
  -0.03091366  0.03091366  0.03091366       0.250
   0.03091366 -0.03091366  0.03091366       0.250
  -0.03091366 -0.03091366  0.03091366       0.250
 
 k-points in reciprocal lattice and weights: Automatic kpoint scheme                 
   0.25000000  0.25000000  0.25000000       0.250
  -0.25000000  0.25000000  0.25000000       0.250
   0.25000000 -0.25000000  0.25000000       0.250
  -0.25000000 -0.25000000  0.25000000       0.250
 
 position of ions in fractional coordinates (direct lattice) 
   0.00594100  0.99162600  0.99936900
   0.25281900  0.99070300  0.24201300
   0.25023600  0.24548200  0.00029700
   0.00067400  0.25096900  0.24863900
   0.75370800  0.00054600  0.25075900
   0.75163800  0.25338400  0.99894600
   0.50251800  0.25369200  0.24993100
   0.99617800  0.49883500  0.00093400
   0.24969300  0.49862200  0.25157700
   0.99838200  0.74707000  0.25036400
   0.49465800  0.50377300  0.00060700
   0.75063900  0.50053200  0.24633900
   0.74632900  0.74889800  0.00145100
   0.49400200  0.75137600  0.24363900
   0.00088500  0.00084600  0.49755400
   0.25174800  0.25157400  0.49821200
   0.00073800  0.25229000  0.74788700
   0.50256600  0.00180200  0.49803300
   0.75253700  0.00156100  0.74788800
   0.75245900  0.25078100  0.49833900
   0.50151100  0.25497400  0.74790100
   0.00279300  0.50006700  0.49956900
   0.24989100  0.50261400  0.75433400
   0.24907200  0.74805700  0.50176900
   0.00287100  0.75009000  0.75460300
   0.50183200  0.50208900  0.49629500
   0.75335700  0.50126000  0.74895300
   0.75146000  0.75001500  0.49767000
   0.49080700  0.75721700  0.76006900
   0.23048800  0.72925200  0.01452400
   0.50973400  0.00921500  0.00565900
   0.24783900  0.00079200  0.74587700
 
 position of ions in cartesian coordinates  (Angst):
   0.04804510  8.01931913  8.08193708
   2.04455737  8.01185479  1.95716881
   2.02366854  1.98522275  0.00240185
   0.00545066  2.02959634  2.01075354
   6.09526674  0.00441552  2.02789806
   6.07852657  2.04912654  8.07851626
   4.06388317  2.05161735  2.02120199
   8.05613133  4.03409860  0.00755330
   2.01927728  4.03237606  2.03451326
   8.07395517  6.04158497  2.02470368
   4.00031903  4.07403240  0.00490883
   6.07044762  4.04782231  1.99215335
   6.03559248  6.05636808  0.01173430
   3.99501393  6.07640777  1.97031834
   0.00715703  0.00684164  4.02373910
   2.03589615  2.03448900  4.02906037
   0.00596824  2.04027932  6.04819208
   4.06427134  0.01457285  4.02761279
   6.08579682  0.01262387  6.04820017
   6.08516603  2.02807598  4.03008743
   4.05573952  2.06198494  6.04830530
   0.02258710  4.04406183  4.04003449
   2.02087851  4.06465952  6.10032923
   2.01425523  6.04956688  4.05782597
   0.02321789  6.06600783  6.10250465
   4.05833546  4.06041383  4.01355752
   6.09242819  4.05370967  6.05681287
   6.07708708  6.06540131  4.02467720
   3.96917584  6.12364417  6.14670841
   1.86396568  5.89749009  0.11745617
   4.12223925  0.07452207  0.04576456
   2.00428391  0.00640494  6.03193713
 


--------------------------------------------------------------------------------------------------------


 k-point  1 :  0.25000.25000.2500  plane waves:    6238
 k-point  2 :  -.25000.25000.2500  plane waves:    6238
 k-point  3 :  0.2500-.25000.2500  plane waves:    6238
 k-point  4 :  -.2500-.25000.2500  plane waves:    6238

 maximum and minimum number of plane-waves per node :    6238   6238

 maximum number of plane-waves:    6238
 maximal index in each direction: 
   IXMAX= 11   IYMAX= 11   IZMAX= 11
   IXMIN=-11   IYMIN=-11   IZMIN=-11

 NGX is ok and might be reduce to  46
 NGY is ok and might be reduce to  46
 NGZ is ok and might be reduce to  46

 serial   3D FFT for wavefunctions
 parallel 3D FFT for charge:
    minimum data exchange during FFTs selected (reduces bandwidth)


 total amount of memory used by VASP on root node  76806. kBytes
========================================================================

   base      :    30000. kBytes
   nonl-proj :    17571. kBytes
   fftplans  :     2983. kBytes
   grid      :    22831. kBytes
   one-center:      497. kBytes
   wavefun   :     2924. kBytes
 
 Broyden mixing: mesh for mixing (old mesh)
   NGX = 23   NGY = 23   NGZ = 23
  (NGX  = 96   NGY  = 96   NGZ  = 96)
  gives a total of  12167 points

 initial charge density was supplied:
 charge density of overlapping atoms calculated
 number of electron  119.0000000 magnetization 
 keeping initial charge density in first step


--------------------------------------------------------------------------------------------------------


 Maximum index for augmentation-charges         1033 (set IRDMAX)


--------------------------------------------------------------------------------------------------------


 First call to EWALD:  gamma=   0.219
 Maximum number of real-space cells 3x 3x 3
 Maximum number of reciprocal cells 3x 3x 3

    FEWALD:  cpu time    0.01: real time    0.01
   RESPFUN:  cpu time    0.00: real time    0.00


----------------------------------------- Iteration    1(   1)  ---------------------------------------


    POTLOK:  cpu time    0.16: real time    0.16
    SETDIJ:  cpu time    0.02: real time    0.02
    EDDIAG:  cpu time    0.71: real time    0.71
  RMM-DIIS:  cpu time    1.63: real time    1.63
    ORTHCH:  cpu time    0.05: real time    0.05
       DOS:  cpu time    0.00: real time    0.00
    --------------------------------------------
      LOOP:  cpu time    2.56: real time    2.56

 eigenvalue-minimisations  :   336
 total energy-change (2. order) : 0.4693676E+03  (-0.2254233E+04)
 number of electron  119.0000000 magnetization 
 augmentation part   119.0000000 magnetization 

 Free energy of the ion-electron system (eV)
  ---------------------------------------------------
  alpha Z        PSCENC =       100.06042719
  Ewald energy   TEWEN  =     -3900.82541517
  -1/2 Hartree   DENC   =     -1290.30802134
  -exchange  EXHF       =         0.00000000
  -V(xc)+E(xc)   XCENC  =      -752.10709895
  PAW double counting   =      3222.50049718    -2197.73173776
  entropy T*S    EENTRO =        -0.01238564
  eigenvalues    EBANDS =      1042.75359632
  atomic energy  EATOM  =      4245.03775698
  ---------------------------------------------------
  free energy    TOTEN  =       469.36761881 eV

  energy without entropy =      469.38000445  energy(sigma->0) =      469.37174735


--------------------------------------------------------------------------------------------------------




----------------------------------------- Iteration    1(   2)  ---------------------------------------


    EDDIAG:  cpu time    0.71: real time    0.71
  RMM-DIIS:  cpu time    1.62: real time    1.62
    ORTHCH:  cpu time    0.04: real time    0.05
       DOS:  cpu time    0.00: real time    0.00
    --------------------------------------------
      LOOP:  cpu time    2.37: real time    2.38

 eigenvalue-minimisations  :   336
 total energy-change (2. order) :-0.4282305E+03  (-0.4153435E+03)
 number of electron  119.0000000 magnetization 
 augmentation part   119.0000000 magnetization 

 Free energy of the ion-electron system (eV)
  ---------------------------------------------------
  alpha Z        PSCENC =       100.06042719
  Ewald energy   TEWEN  =     -3900.82541517
  -1/2 Hartree   DENC   =     -1290.30802134
  -exchange  EXHF       =         0.00000000
  -V(xc)+E(xc)   XCENC  =      -752.10709895
  PAW double counting   =      3222.50049718    -2197.73173776
  entropy T*S    EENTRO =        -0.03150302
  eigenvalues    EBANDS =       614.54216653
  atomic energy  EATOM  =      4245.03775698
  ---------------------------------------------------
  free energy    TOTEN  =        41.13707163 eV

  energy without entropy =       41.16857465  energy(sigma->0) =       41.14757263


--------------------------------------------------------------------------------------------------------




----------------------------------------- Iteration    1(   3)  ---------------------------------------


    EDDIAG:  cpu time    0.70: real time    0.70
  RMM-DIIS:  cpu time    1.62: real time    1.62
    ORTHCH:  cpu time    0.05: real time    0.05
       DOS:  cpu time    0.00: real time    0.00
    --------------------------------------------
      LOOP:  cpu time    2.37: real time    2.37

 eigenvalue-minimisations  :   336
 total energy-change (2. order) :-0.1067181E+03  (-0.9590477E+02)
 number of electron  119.0000000 magnetization 
 augmentation part   119.0000000 magnetization 

 Free energy of the ion-electron system (eV)
  ---------------------------------------------------
  alpha Z        PSCENC =       100.06042719
  Ewald energy   TEWEN  =     -3900.82541517
  -1/2 Hartree   DENC   =     -1290.30802134
  -exchange  EXHF       =         0.00000000
  -V(xc)+E(xc)   XCENC  =      -752.10709895
  PAW double counting   =      3222.50049718    -2197.73173776
  entropy T*S    EENTRO =        -0.03245533
  eigenvalues    EBANDS =       507.82503339
  atomic energy  EATOM  =      4245.03775698
  ---------------------------------------------------
  free energy    TOTEN  =       -65.58101382 eV

  energy without entropy =      -65.54855849  energy(sigma->0) =      -65.57019538


--------------------------------------------------------------------------------------------------------




----------------------------------------- Iteration    1(   4)  ---------------------------------------


    EDDIAG:  cpu time    0.70: real time    0.71
  RMM-DIIS:  cpu time    1.62: real time    1.62
    ORTHCH:  cpu time    0.04: real time    0.05
       DOS:  cpu time    0.00: real time    0.00
    --------------------------------------------
      LOOP:  cpu time    2.37: real time    2.38

 eigenvalue-minimisations  :   336
 total energy-change (2. order) :-0.3596561E+02  (-0.2684094E+02)
 number of electron  119.0000000 magnetization 
 augmentation part   119.0000000 magnetization 

 Free energy of the ion-electron system (eV)
  ---------------------------------------------------
  alpha Z        PSCENC =       100.06042719
  Ewald energy   TEWEN  =     -3900.82541517
  -1/2 Hartree   DENC   =     -1290.30802134
  -exchange  EXHF       =         0.00000000
  -V(xc)+E(xc)   XCENC  =      -752.10709895
  PAW double counting   =      3222.50049718    -2197.73173776
  entropy T*S    EENTRO =        -0.02261537
  eigenvalues    EBANDS =       471.84958677
  atomic energy  EATOM  =      4245.03775698
  ---------------------------------------------------
  free energy    TOTEN  =      -101.54662048 eV

  energy without entropy =     -101.52400511  energy(sigma->0) =     -101.53908203


--------------------------------------------------------------------------------------------------------




----------------------------------------- Iteration    1(   5)  ---------------------------------------


    EDDIAG:  cpu time    0.71: real time    0.71
  RMM-DIIS:  cpu time    1.63: real time    1.63
    ORTHCH:  cpu time    0.05: real time    0.05
       DOS:  cpu time    0.00: real time    0.00
    --------------------------------------------
      LOOP:  cpu time    2.38: real time    2.38

 eigenvalue-minimisations  :   336
 total energy-change (2. order) :-0.1430836E+02  (-0.1133313E+02)
 number of electron  119.0000000 magnetization 
 augmentation part   119.0000000 magnetization 

 Free energy of the ion-electron system (eV)
  ---------------------------------------------------
  alpha Z        PSCENC =       100.06042719
  Ewald energy   TEWEN  =     -3900.82541517
  -1/2 Hartree   DENC   =     -1290.30802134
  -exchange  EXHF       =         0.00000000
  -V(xc)+E(xc)   XCENC  =      -752.10709895
  PAW double counting   =      3222.50049718    -2197.73173776
  entropy T*S    EENTRO =         0.01729889
  eigenvalues    EBANDS =       457.50131488
  atomic energy  EATOM  =      4245.03775698
  ---------------------------------------------------
  free energy    TOTEN  =      -115.85497811 eV

  energy without entropy =     -115.87227699  energy(sigma->0) =     -115.86074440


--------------------------------------------------------------------------------------------------------




----------------------------------------- Iteration    1(   6)  ---------------------------------------


    EDDIAG:  cpu time    0.70: real time    0.70
  RMM-DIIS:  cpu time    1.62: real time    1.62
    ORTHCH:  cpu time    0.05: real time    0.05
       DOS:  cpu time    0.00: real time    0.00
    --------------------------------------------
      LOOP:  cpu time    2.38: real time    2.38

 eigenvalue-minimisations  :   336
 total energy-change (2. order) :-0.6467935E+01  (-0.5768578E+01)
 number of electron  119.0000000 magnetization 
 augmentation part   119.0000000 magnetization 

 Free energy of the ion-electron system (eV)
  ---------------------------------------------------
  alpha Z        PSCENC =       100.06042719
  Ewald energy   TEWEN  =     -3900.82541517
  -1/2 Hartree   DENC   =     -1290.30802134
  -exchange  EXHF       =         0.00000000
  -V(xc)+E(xc)   XCENC  =      -752.10709895
  PAW double counting   =      3222.50049718    -2197.73173776
  entropy T*S    EENTRO =        -0.00027503
  eigenvalues    EBANDS =       451.05095391
  atomic energy  EATOM  =      4245.03775698
  ---------------------------------------------------
  free energy    TOTEN  =      -122.32291299 eV

  energy without entropy =     -122.32263797  energy(sigma->0) =     -122.32282132


--------------------------------------------------------------------------------------------------------




----------------------------------------- Iteration    1(   7)  ---------------------------------------


    EDDIAG:  cpu time    0.71: real time    0.71
  RMM-DIIS:  cpu time    1.63: real time    1.63
    ORTHCH:  cpu time    0.05: real time    0.05
       DOS:  cpu time    0.00: real time    0.00
    --------------------------------------------
      LOOP:  cpu time    2.38: real time    2.38

 eigenvalue-minimisations  :   336
 total energy-change (2. order) :-0.3355125E+01  (-0.2927348E+01)
 number of electron  119.0000000 magnetization 
 augmentation part   119.0000000 magnetization 

 Free energy of the ion-electron system (eV)
  ---------------------------------------------------
  alpha Z        PSCENC =       100.06042719
  Ewald energy   TEWEN  =     -3900.82541517
  -1/2 Hartree   DENC   =     -1290.30802134
  -exchange  EXHF       =         0.00000000
  -V(xc)+E(xc)   XCENC  =      -752.10709895
  PAW double counting   =      3222.50049718    -2197.73173776
  entropy T*S    EENTRO =        -0.00887541
  eigenvalues    EBANDS =       447.70442967
  atomic energy  EATOM  =      4245.03775698
  ---------------------------------------------------
  free energy    TOTEN  =      -125.67803762 eV

  energy without entropy =     -125.66916221  energy(sigma->0) =     -125.67507915


--------------------------------------------------------------------------------------------------------




----------------------------------------- Iteration    1(   8)  ---------------------------------------


    EDDIAG:  cpu time    0.70: real time    0.71
  RMM-DIIS:  cpu time    1.62: real time    1.62
    ORTHCH:  cpu time    0.05: real time    0.05
       DOS:  cpu time    0.00: real time    0.00
    --------------------------------------------
      LOOP:  cpu time    2.38: real time    2.38

 eigenvalue-minimisations  :   336
 total energy-change (2. order) :-0.1642354E+01  (-0.1516783E+01)
 number of electron  119.0000000 magnetization 
 augmentation part   119.0000000 magnetization 

 Free energy of the ion-electron system (eV)
  ---------------------------------------------------
  alpha Z        PSCENC =       100.06042719
  Ewald energy   TEWEN  =     -3900.82541517
  -1/2 Hartree   DENC   =     -1290.30802134
  -exchange  EXHF       =         0.00000000
  -V(xc)+E(xc)   XCENC  =      -752.10709895
  PAW double counting   =      3222.50049718    -2197.73173776
  entropy T*S    EENTRO =        -0.01245210
  eigenvalues    EBANDS =       446.06565247
  atomic energy  EATOM  =      4245.03775698
  ---------------------------------------------------
  free energy    TOTEN  =      -127.32039151 eV

  energy without entropy =     -127.30793941  energy(sigma->0) =     -127.31624081


--------------------------------------------------------------------------------------------------------




----------------------------------------- Iteration    1(   9)  ---------------------------------------


    EDDIAG:  cpu time    0.71: real time    0.71
  RMM-DIIS:  cpu time    3.87: real time    3.90
    ORTHCH:  cpu time    0.04: real time    0.05
       DOS:  cpu time    0.00: real time    0.00
    --------------------------------------------
      LOOP:  cpu time    4.63: real time    4.66

 eigenvalue-minimisations  :   877
 total energy-change (2. order) :-0.1651666E+01  (-0.1574793E+01)
 number of electron  119.0000000 magnetization 
 augmentation part   119.0000000 magnetization 

 Free energy of the ion-electron system (eV)
  ---------------------------------------------------
  alpha Z        PSCENC =       100.06042719
  Ewald energy   TEWEN  =     -3900.82541517
  -1/2 Hartree   DENC   =     -1290.30802134
  -exchange  EXHF       =         0.00000000
  -V(xc)+E(xc)   XCENC  =      -752.10709895
  PAW double counting   =      3222.50049718    -2197.73173776
  entropy T*S    EENTRO =        -0.01496179
  eigenvalues    EBANDS =       444.41649577
  atomic energy  EATOM  =      4245.03775698
  ---------------------------------------------------
  free energy    TOTEN  =      -128.97205789 eV

  energy without entropy =     -128.95709611  energy(sigma->0) =     -128.96707063


--------------------------------------------------------------------------------------------------------




----------------------------------------- Iteration    1(  10)  ---------------------------------------


    EDDIAG:  cpu time    0.70: real time    0.71
  RMM-DIIS:  cpu time    3.99: real time    3.99
    ORTHCH:  cpu time    0.05: real time    0.05
       DOS:  cpu time    0.00: real time    0.00
    --------------------------------------------
      LOOP:  cpu time    4.74: real time    4.74

 eigenvalue-minimisations  :   901
 total energy-change (2. order) :-0.1566468E+00  (-0.1062053E+00)
 number of electron  119.0000000 magnetization 
 augmentation part   119.0000000 magnetization 

 Free energy of the ion-electron system (eV)
  ---------------------------------------------------
  alpha Z        PSCENC =       100.06042719
  Ewald energy   TEWEN  =     -3900.82541517
  -1/2 Hartree   DENC   =     -1290.30802134
  -exchange  EXHF       =         0.00000000
  -V(xc)+E(xc)   XCENC  =      -752.10709895
  PAW double counting   =      3222.50049718    -2197.73173776
  entropy T*S    EENTRO =        -0.00929908
  eigenvalues    EBANDS =       444.25418631
  atomic energy  EATOM  =      4245.03775698
  ---------------------------------------------------
  free energy    TOTEN  =      -129.12870465 eV

  energy without entropy =     -129.11940556  energy(sigma->0) =     -129.12560495


--------------------------------------------------------------------------------------------------------




----------------------------------------- Iteration    1(  11)  ---------------------------------------


    EDDIAG:  cpu time    0.70: real time    0.70
  RMM-DIIS:  cpu time    3.81: real time    3.81
    ORTHCH:  cpu time    0.05: real time    0.05
       DOS:  cpu time    0.00: real time    0.00
    --------------------------------------------
      LOOP:  cpu time    4.57: real time    4.57

 eigenvalue-minimisations  :   824
 total energy-change (2. order) :-0.7356628E-02  (-0.4851072E-02)
 number of electron  119.0000000 magnetization 
 augmentation part   119.0000000 magnetization 

 Free energy of the ion-electron system (eV)
  ---------------------------------------------------
  alpha Z        PSCENC =       100.06042719
  Ewald energy   TEWEN  =     -3900.82541517
  -1/2 Hartree   DENC   =     -1290.30802134
  -exchange  EXHF       =         0.00000000
  -V(xc)+E(xc)   XCENC  =      -752.10709895
  PAW double counting   =      3222.50049718    -2197.73173776
  entropy T*S    EENTRO =        -0.00879551
  eigenvalues    EBANDS =       444.24632611
  atomic energy  EATOM  =      4245.03775698
  ---------------------------------------------------
  free energy    TOTEN  =      -129.13606128 eV

  energy without entropy =     -129.12726576  energy(sigma->0) =     -129.13312944


--------------------------------------------------------------------------------------------------------




----------------------------------------- Iteration    1(  12)  ---------------------------------------


    EDDIAG:  cpu time    0.72: real time    0.72
  RMM-DIIS:  cpu time    3.61: real time    3.61
    ORTHCH:  cpu time    0.05: real time    0.05
       DOS:  cpu time    0.00: real time    0.00
    CHARGE:  cpu time    0.32: real time    0.32
    MIXING:  cpu time    0.00: real time    0.00
    --------------------------------------------
      LOOP:  cpu time    4.70: real time    4.70

 eigenvalue-minimisations  :   738
 total energy-change (2. order) :-0.8757670E-03  (-0.7960656E-03)
 number of electron  119.0000006 magnetization 
 augmentation part     9.4119740 magnetization 

 Broyden mixing:
  rms(total) = 0.14279E+01    rms(broyden)= 0.14278E+01
  rms(prec ) = 0.27634E+01
  weight for this iteration     100.00

 Free energy of the ion-electron system (eV)
  ---------------------------------------------------
  alpha Z        PSCENC =       100.06042719
  Ewald energy   TEWEN  =     -3900.82541517
  -1/2 Hartree   DENC   =     -1290.30802134
  -exchange  EXHF       =         0.00000000
  -V(xc)+E(xc)   XCENC  =      -752.10709895
  PAW double counting   =      3222.50049718    -2197.73173776
  entropy T*S    EENTRO =        -0.00877835
  eigenvalues    EBANDS =       444.24543319
  atomic energy  EATOM  =      4245.03775698
  ---------------------------------------------------
  free energy    TOTEN  =      -129.13693704 eV

  energy without entropy =     -129.12815869  energy(sigma->0) =     -129.13401093


--------------------------------------------------------------------------------------------------------




----------------------------------------- Iteration    1(  13)  ---------------------------------------


    POTLOK:  cpu time    0.16: real time    0.16
    SETDIJ:  cpu time    0.02: real time    0.02
    EDDIAG:  cpu time    0.71: real time    0.71
  RMM-DIIS:  cpu time    3.55: real time    3.55
    ORTHCH:  cpu time    0.05: real time    0.05
       DOS:  cpu time    0.00: real time    0.00
    CHARGE:  cpu time    0.32: real time    0.32
    MIXING:  cpu time    0.00: real time    0.00
    --------------------------------------------
      LOOP:  cpu time    4.81: real time    4.81

 eigenvalue-minimisations  :   759
 total energy-change (2. order) : 0.3341074E+01  (-0.5973675E+01)
 number of electron  119.0000008 magnetization 
 augmentation part    11.7674567 magnetization 

 Broyden mixing:
  rms(total) = 0.61399E+00    rms(broyden)= 0.61381E+00
  rms(prec ) = 0.12127E+01
  weight for this iteration     100.00

 eigenvalues of (default mixing * dielectric matrix)
  average eigenvalue GAMMA=   0.7540
  0.7540

 Free energy of the ion-electron system (eV)
  ---------------------------------------------------
  alpha Z        PSCENC =       100.06042719
  Ewald energy   TEWEN  =     -3900.82541517
  -1/2 Hartree   DENC   =     -1180.66819903
  -exchange  EXHF       =         0.00000000
  -V(xc)+E(xc)   XCENC  =      -753.61238048
  PAW double counting   =      3062.55885980    -2042.39763323
  entropy T*S    EENTRO =         0.00114035
  eigenvalues    EBANDS =       344.04958030
  atomic energy  EATOM  =      4245.03775698
  ---------------------------------------------------
  free energy    TOTEN  =      -125.79586331 eV

  energy without entropy =     -125.79700366  energy(sigma->0) =     -125.79624342


--------------------------------------------------------------------------------------------------------




----------------------------------------- Iteration    1(  14)  ---------------------------------------


    POTLOK:  cpu time    0.16: real time    0.16
    SETDIJ:  cpu time    0.02: real time    0.02
    EDDIAG:  cpu time    0.70: real time    0.70
  RMM-DIIS:  cpu time    3.41: real time    3.41
    ORTHCH:  cpu time    0.05: real time    0.05
       DOS:  cpu time    0.00: real time    0.00
    CHARGE:  cpu time    0.31: real time    0.31
    MIXING:  cpu time    0.00: real time    0.00
    --------------------------------------------
      LOOP:  cpu time    4.65: real time    4.65

 eigenvalue-minimisations  :   735
 total energy-change (2. order) : 0.2139574E+01  (-0.2863888E+00)
 number of electron  119.0000007 magnetization 
 augmentation part    11.3057865 magnetization 

 Broyden mixing:
  rms(total) = 0.27107E+00    rms(broyden)= 0.27106E+00
  rms(prec ) = 0.45033E+00
  weight for this iteration     100.00

 eigenvalues of (default mixing * dielectric matrix)
  average eigenvalue GAMMA=   1.4388
  0.7917  2.0859

 Free energy of the ion-electron system (eV)
  ---------------------------------------------------
  alpha Z        PSCENC =       100.06042719
  Ewald energy   TEWEN  =     -3900.82541517
  -1/2 Hartree   DENC   =     -1212.25922429
  -exchange  EXHF       =         0.00000000
  -V(xc)+E(xc)   XCENC  =      -752.44420466
  PAW double counting   =      3169.33498129    -2151.52194319
  entropy T*S    EENTRO =        -0.00533567
  eigenvalues    EBANDS =       378.96666867
  atomic energy  EATOM  =      4245.03775698
  ---------------------------------------------------
  free energy    TOTEN  =      -123.65628887 eV

  energy without entropy =     -123.65095320  energy(sigma->0) =     -123.65451031


--------------------------------------------------------------------------------------------------------




----------------------------------------- Iteration    1(  15)  ---------------------------------------


    POTLOK:  cpu time    0.16: real time    0.16
    SETDIJ:  cpu time    0.02: real time    0.02
    EDDIAG:  cpu time    0.71: real time    0.71
  RMM-DIIS:  cpu time    3.44: real time    3.46
    ORTHCH:  cpu time    0.04: real time    0.05
       DOS:  cpu time    0.00: real time    0.00
    CHARGE:  cpu time    0.32: real time    0.32
    MIXING:  cpu time    0.00: real time    0.00
    --------------------------------------------
      LOOP:  cpu time    4.69: real time    4.71

 eigenvalue-minimisations  :   750
 total energy-change (2. order) : 0.1829468E+00  (-0.1767096E+00)
 number of electron  119.0000007 magnetization 
 augmentation part    10.9352036 magnetization 

 Broyden mixing:
  rms(total) = 0.18118E+00    rms(broyden)= 0.18115E+00
  rms(prec ) = 0.33154E+00
  weight for this iteration     100.00

 eigenvalues of (default mixing * dielectric matrix)
  average eigenvalue GAMMA=   1.3736
  2.5366  0.7921  0.7921

 Free energy of the ion-electron system (eV)
  ---------------------------------------------------
  alpha Z        PSCENC =       100.06042719
  Ewald energy   TEWEN  =     -3900.82541517
  -1/2 Hartree   DENC   =     -1227.17728287
  -exchange  EXHF       =         0.00000000
  -V(xc)+E(xc)   XCENC  =      -751.22741159
  PAW double counting   =      3259.05460807    -2244.12767604
  entropy T*S    EENTRO =        -0.00778381
  eigenvalues    EBANDS =       395.73943522
  atomic energy  EATOM  =      4245.03775698
  ---------------------------------------------------
  free energy    TOTEN  =      -123.47334204 eV

  energy without entropy =     -123.46555823  energy(sigma->0) =     -123.47074744


--------------------------------------------------------------------------------------------------------




----------------------------------------- Iteration    1(  16)  ---------------------------------------


    POTLOK:  cpu time    0.16: real time    0.16
    SETDIJ:  cpu time    0.02: real time    0.02
    EDDIAG:  cpu time    0.71: real time    0.71
  RMM-DIIS:  cpu time    3.57: real time    3.57
    ORTHCH:  cpu time    0.05: real time    0.05
       DOS:  cpu time    0.00: real time    0.00
    CHARGE:  cpu time    0.32: real time    0.32
    MIXING:  cpu time    0.01: real time    0.00
    --------------------------------------------
      LOOP:  cpu time    4.82: real time    4.82

 eigenvalue-minimisations  :   786
 total energy-change (2. order) : 0.1138092E+00  (-0.9802945E-02)
 number of electron  119.0000007 magnetization 
 augmentation part    11.0345712 magnetization 

 Broyden mixing:
  rms(total) = 0.54190E-01    rms(broyden)= 0.54189E-01
  rms(prec ) = 0.10407E+00
  weight for this iteration     100.00

 eigenvalues of (default mixing * dielectric matrix)
  average eigenvalue GAMMA=   1.2668
  2.5633  0.8553  0.8553  0.7934

 Free energy of the ion-electron system (eV)
  ---------------------------------------------------
  alpha Z        PSCENC =       100.06042719
  Ewald energy   TEWEN  =     -3900.82541517
  -1/2 Hartree   DENC   =     -1220.12067559
  -exchange  EXHF       =         0.00000000
  -V(xc)+E(xc)   XCENC  =      -750.81145580
  PAW double counting   =      3274.37537468    -2260.90011367
  entropy T*S    EENTRO =        -0.00664494
  eigenvalues    EBANDS =       389.83121345
  atomic energy  EATOM  =      4245.03775698
  ---------------------------------------------------
  free energy    TOTEN  =      -123.35953287 eV

  energy without entropy =     -123.35288794  energy(sigma->0) =     -123.35731790


--------------------------------------------------------------------------------------------------------




----------------------------------------- Iteration    1(  17)  ---------------------------------------


    POTLOK:  cpu time    0.16: real time    0.16
    SETDIJ:  cpu time    0.02: real time    0.02
    EDDIAG:  cpu time    0.72: real time    0.72
  RMM-DIIS:  cpu time    3.70: real time    3.70
    ORTHCH:  cpu time    0.05: real time    0.05
       DOS:  cpu time    0.00: real time    0.00
    CHARGE:  cpu time    0.31: real time    0.31
    MIXING:  cpu time    0.00: real time    0.00
    --------------------------------------------
      LOOP:  cpu time    4.96: real time    4.96

 eigenvalue-minimisations  :   811
 total energy-change (2. order) : 0.1066230E-01  (-0.3943614E-02)
 number of electron  119.0000007 magnetization 
 augmentation part    11.0892336 magnetization 

 Broyden mixing:
  rms(total) = 0.11279E-01    rms(broyden)= 0.11270E-01
  rms(prec ) = 0.21737E-01
  weight for this iteration     100.00

 eigenvalues of (default mixing * dielectric matrix)
  average eigenvalue GAMMA=   1.3171
  2.5925  1.5567  0.8360  0.8360  0.7643

 Free energy of the ion-electron system (eV)
  ---------------------------------------------------
  alpha Z        PSCENC =       100.06042719
  Ewald energy   TEWEN  =     -3900.82541517
  -1/2 Hartree   DENC   =     -1217.66861647
  -exchange  EXHF       =         0.00000000
  -V(xc)+E(xc)   XCENC  =      -750.81070446
  PAW double counting   =      3270.69660078    -2257.18424927
  entropy T*S    EENTRO =        -0.00636997
  eigenvalues    EBANDS =       387.35169982
  atomic energy  EATOM  =      4245.03775698
  ---------------------------------------------------
  free energy    TOTEN  =      -123.34887057 eV

  energy without entropy =     -123.34250061  energy(sigma->0) =     -123.34674725


--------------------------------------------------------------------------------------------------------




----------------------------------------- Iteration    1(  18)  ---------------------------------------


    POTLOK:  cpu time    0.16: real time    0.16
    SETDIJ:  cpu time    0.02: real time    0.02
    EDDIAG:  cpu time    0.71: real time    0.71
  RMM-DIIS:  cpu time    3.76: real time    3.76
    ORTHCH:  cpu time    0.05: real time    0.05
       DOS:  cpu time    0.00: real time    0.00
    CHARGE:  cpu time    0.32: real time    0.32
    MIXING:  cpu time    0.00: real time    0.00
    --------------------------------------------
      LOOP:  cpu time    5.02: real time    5.03

 eigenvalue-minimisations  :   835
 total energy-change (2. order) :-0.1874831E-03  (-0.1073915E-02)
 number of electron  119.0000007 magnetization 
 augmentation part    11.1144393 magnetization 

 Broyden mixing:
  rms(total) = 0.10545E-01    rms(broyden)= 0.10542E-01
  rms(prec ) = 0.19408E-01
  weight for this iteration     100.00

 eigenvalues of (default mixing * dielectric matrix)
  average eigenvalue GAMMA=   1.4141
  2.5715  2.4838  0.8732  0.8732  0.8414  0.8414

 Free energy of the ion-electron system (eV)
  ---------------------------------------------------
  alpha Z        PSCENC =       100.06042719
  Ewald energy   TEWEN  =     -3900.82541517
  -1/2 Hartree   DENC   =     -1216.74632653
  -exchange  EXHF       =         0.00000000
  -V(xc)+E(xc)   XCENC  =      -750.80691614
  PAW double counting   =      3268.24987651    -2254.62375217
  entropy T*S    EENTRO =        -0.00624169
  eigenvalues    EBANDS =       386.31153298
  atomic energy  EATOM  =      4245.03775698
  ---------------------------------------------------
  free energy    TOTEN  =      -123.34905806 eV

  energy without entropy =     -123.34281636  energy(sigma->0) =     -123.34697749


--------------------------------------------------------------------------------------------------------




----------------------------------------- Iteration    1(  19)  ---------------------------------------


    POTLOK:  cpu time    0.16: real time    0.16
    SETDIJ:  cpu time    0.02: real time    0.02
    EDDIAG:  cpu time    0.71: real time    0.71
  RMM-DIIS:  cpu time    3.53: real time    3.53
    ORTHCH:  cpu time    0.05: real time    0.05
       DOS:  cpu time    0.00: real time    0.00
    CHARGE:  cpu time    0.31: real time    0.31
    MIXING:  cpu time    0.00: real time    0.01
    --------------------------------------------
      LOOP:  cpu time    4.78: real time    4.78

 eigenvalue-minimisations  :   744
 total energy-change (2. order) : 0.3824418E-03  (-0.8607261E-04)
 number of electron  119.0000007 magnetization 
 augmentation part    11.1043806 magnetization 

 Broyden mixing:
  rms(total) = 0.22436E-02    rms(broyden)= 0.22435E-02
  rms(prec ) = 0.33153E-02
  weight for this iteration     100.00

 eigenvalues of (default mixing * dielectric matrix)
  average eigenvalue GAMMA=   1.3964
  2.6710  2.4516  1.3021  0.8737  0.8737  0.8016  0.8016

 Free energy of the ion-electron system (eV)
  ---------------------------------------------------
  alpha Z        PSCENC =       100.06042719
  Ewald energy   TEWEN  =     -3900.82541517
  -1/2 Hartree   DENC   =     -1217.35798100
  -exchange  EXHF       =         0.00000000
  -V(xc)+E(xc)   XCENC  =      -750.78253966
  PAW double counting   =      3269.43093786    -2255.76650423
  entropy T*S    EENTRO =        -0.00633210
  eigenvalues    EBANDS =       386.86097453
  atomic energy  EATOM  =      4245.03775698
  ---------------------------------------------------
  free energy    TOTEN  =      -123.34867561 eV

  energy without entropy =     -123.34234351  energy(sigma->0) =     -123.34656491


--------------------------------------------------------------------------------------------------------




----------------------------------------- Iteration    1(  20)  ---------------------------------------


    POTLOK:  cpu time    0.16: real time    0.16
    SETDIJ:  cpu time    0.02: real time    0.02
    EDDIAG:  cpu time    0.71: real time    0.71
  RMM-DIIS:  cpu time    2.47: real time    2.47
    ORTHCH:  cpu time    0.05: real time    0.05
       DOS:  cpu time    0.00: real time    0.00
    --------------------------------------------
      LOOP:  cpu time    3.40: real time    3.40

 eigenvalue-minimisations  :   477
 total energy-change (2. order) :-0.5329010E-05  (-0.6123508E-05)
 number of electron  119.0000007 magnetization 
 augmentation part    11.1043806 magnetization 

 Free energy of the ion-electron system (eV)
  ---------------------------------------------------
  alpha Z        PSCENC =       100.06042719
  Ewald energy   TEWEN  =     -3900.82541517
  -1/2 Hartree   DENC   =     -1217.45576279
  -exchange  EXHF       =         0.00000000
  -V(xc)+E(xc)   XCENC  =      -750.77166861
  PAW double counting   =      3269.36927045    -2255.67165114
  entropy T*S    EENTRO =        -0.00633720
  eigenvalues    EBANDS =       386.91469935
  atomic energy  EATOM  =      4245.03775698
  ---------------------------------------------------
  free energy    TOTEN  =      -123.34868094 eV

  energy without entropy =     -123.34234375  energy(sigma->0) =     -123.34656854


--------------------------------------------------------------------------------------------------------




 average (electrostatic) potential at core
  the test charge radii are     1.0406  1.2059  1.2098  1.1249
  (the norm of the test charge is              1.0000)
       1 -72.9168       2 -72.9624       3 -72.9237       4 -72.8000       5 -72.8350
       6 -72.8351       7 -72.8605       8 -72.7730       9 -72.7831      10 -72.8172
      11 -72.8699      12 -72.6681      13 -72.8836      14 -72.9391      15 -72.7882
      16 -72.7898      17 -72.8193      18 -72.8724      19 -72.9094      20 -72.6964
      21 -72.9222      22 -72.7003      23 -72.8791      24 -72.8579      25 -72.9055
      26 -72.7882      27 -72.7988      28 -72.7974      29 -73.0580      30 -49.4192
      31 -44.6611      32 -38.0128
 
 
 
 E-fermi :   7.8453     XC(G=0): -10.4272     alpha+bet :-14.4403
   add alpha+bet to get absolut eigen values

 k-point   1 :       0.2500    0.2500    0.2500
  band No.  band energies     occupation 
      1      -2.7937      2.00000
      2      -1.7070      2.00000
      3      -1.6792      2.00000
      4      -1.5796      2.00000
      5      -0.6229      2.00000
      6      -0.5940      2.00000
      7      -0.4249      2.00000
      8       0.4086      2.00000
      9       0.4294      2.00000
     10       0.4621      2.00000
     11       0.6294      2.00000
     12       1.1620      2.00000
     13       1.1989      2.00000
     14       1.3097      2.00000
     15       1.3899      2.00000
     16       1.5112      2.00000
     17       1.5439      2.00000
     18       1.8674      2.00000
     19       1.9470      2.00000
     20       2.0626      2.00000
     21       2.1222      2.00000
     22       2.2296      2.00000
     23       2.2674      2.00000
     24       2.3736      2.00000
     25       2.4776      2.00000
     26       2.5716      2.00000
     27       2.6563      2.00000
     28       2.9325      2.00000
     29       3.1104      2.00000
     30       3.1566      2.00000
     31       3.3777      2.00000
     32       3.4590      2.00000
     33       3.5822      2.00000
     34       3.8005      2.00000
     35       3.9427      2.00000
     36       4.0333      2.00000
     37       4.1775      2.00000
     38       4.3475      2.00000
     39       4.4279      2.00000
     40       4.5970      2.00000
     41       4.7260      2.00000
     42       5.0467      2.00000
     43       5.0950      2.00000
     44       5.2015      2.00000
     45       5.3198      2.00000
     46       5.3818      2.00000
     47       5.4919      2.00000
     48       5.5617      2.00000
     49       5.7605      2.00000
     50       5.8663      2.00000
     51       6.3006      2.00000
     52       6.5593      2.00000
     53       6.8638      2.00000
     54       7.1249      2.00000
     55       7.1699      2.00002
     56       7.3101      2.00102
     57       7.3880      2.00570
     58       7.5781      2.06767
     59       7.6350      2.05935
     60       7.8684      0.80608
     61       8.3081     -0.00510
     62       8.3957     -0.00070
     63       8.5482     -0.00001
     64       8.6317      0.00000
     65       8.6877      0.00000
     66       8.7476      0.00000
     67       8.8593      0.00000
     68       8.9161      0.00000
     69       8.9726      0.00000
     70       9.4796      0.00000
     71       9.5343      0.00000
     72       9.7168      0.00000
     73       9.8115      0.00000
     74      10.0475      0.00000
     75      10.0712      0.00000
     76      10.3084      0.00000
     77      10.4565      0.00000
     78      10.4693      0.00000
     79      10.6680      0.00000
     80      10.8716      0.00000
     81      10.8929      0.00000
     82      11.1032      0.00000
     83      11.2525      0.00000
     84      11.5364      0.00000

 k-point   2 :      -0.2500    0.2500    0.2500
  band No.  band energies     occupation 
      1      -2.7912      2.00000
      2      -1.7241      2.00000
      3      -1.6896      2.00000
      4      -1.5612      2.00000
      5      -0.6293      2.00000
      6      -0.5939      2.00000
      7      -0.4409      2.00000
      8       0.4227      2.00000
      9       0.4521      2.00000
     10       0.5116      2.00000
     11       0.6460      2.00000
     12       1.2712      2.00000
     13       1.3000      2.00000
     14       1.3287      2.00000
     15       1.3475      2.00000
     16       1.4606      2.00000
     17       1.6257      2.00000
     18       1.6690      2.00000
     19       1.8325      2.00000
     20       2.0197      2.00000
     21       2.0812      2.00000
     22       2.1939      2.00000
     23       2.2174      2.00000
     24       2.3226      2.00000
     25       2.3635      2.00000
     26       2.5912      2.00000
     27       2.7877      2.00000
     28       2.9233      2.00000
     29       3.0895      2.00000
     30       3.1820      2.00000
     31       3.4000      2.00000
     32       3.5026      2.00000
     33       3.5106      2.00000
     34       3.9022      2.00000
     35       3.9869      2.00000
     36       4.1129      2.00000
     37       4.2510      2.00000
     38       4.3424      2.00000
     39       4.5215      2.00000
     40       4.6311      2.00000
     41       4.7469      2.00000
     42       5.0448      2.00000
     43       5.0982      2.00000
     44       5.2204      2.00000
     45       5.2813      2.00000
     46       5.3623      2.00000
     47       5.4584      2.00000
     48       5.5957      2.00000
     49       5.7229      2.00000
     50       5.8409      2.00000
     51       6.4182      2.00000
     52       6.4648      2.00000
     53       6.6740      2.00000
     54       7.2214      2.00009
     55       7.2788      2.00046
     56       7.3457      2.00234
     57       7.4049      2.00789
     58       7.4879      2.02989
     59       7.5516      2.05805
     60       7.8435      1.01531
     61       8.3295     -0.00327
     62       8.3690     -0.00134
     63       8.5780      0.00000
     64       8.6184      0.00000
     65       8.6305      0.00000
     66       8.6769      0.00000
     67       8.7923      0.00000
     68       8.8084      0.00000
     69       8.8348      0.00000
     70       9.6257      0.00000
     71       9.6730      0.00000
     72       9.7691      0.00000
     73       9.9008      0.00000
     74       9.9411      0.00000
     75       9.9646      0.00000
     76      10.2610      0.00000
     77      10.4427      0.00000
     78      10.4606      0.00000
     79      10.6888      0.00000
     80      10.7412      0.00000
     81      10.7682      0.00000
     82      11.1177      0.00000
     83      11.2462      0.00000
     84      11.5541      0.00000

 k-point   3 :       0.2500   -0.2500    0.2500
  band No.  band energies     occupation 
      1      -2.7930      2.00000
      2      -1.7228      2.00000
      3      -1.6839      2.00000
      4      -1.5598      2.00000
      5      -0.6262      2.00000
      6      -0.6179      2.00000
      7      -0.3803      2.00000
      8       0.4066      2.00000
      9       0.4148      2.00000
     10       0.4801      2.00000
     11       0.6085      2.00000
     12       1.1677      2.00000
     13       1.2287      2.00000
     14       1.3003      2.00000
     15       1.3610      2.00000
     16       1.4746      2.00000
     17       1.5822      2.00000
     18       1.8830      2.00000
     19       1.9542      2.00000
     20       2.0551      2.00000
     21       2.1221      2.00000
     22       2.2021      2.00000
     23       2.2824      2.00000
     24       2.3607      2.00000
     25       2.4635      2.00000
     26       2.5903      2.00000
     27       2.6151      2.00000
     28       2.9221      2.00000
     29       3.0673      2.00000
     30       3.1797      2.00000
     31       3.4382      2.00000
     32       3.4932      2.00000
     33       3.5622      2.00000
     34       3.7667      2.00000
     35       3.9818      2.00000
     36       4.0770      2.00000
     37       4.1917      2.00000
     38       4.2986      2.00000
     39       4.4230      2.00000
     40       4.6130      2.00000
     41       4.8084      2.00000
     42       5.0259      2.00000
     43       5.0887      2.00000
     44       5.2503      2.00000
     45       5.2733      2.00000
     46       5.4063      2.00000
     47       5.4413      2.00000
     48       5.5687      2.00000
     49       5.7388      2.00000
     50       5.8529      2.00000
     51       6.2862      2.00000
     52       6.5280      2.00000
     53       6.8466      2.00000
     54       7.1192      2.00000
     55       7.1642      2.00002
     56       7.3608      2.00325
     57       7.3825      2.00511
     58       7.5458      2.05552
     59       7.6549      2.03880
     60       7.8486      0.97209
     61       8.3188     -0.00410
     62       8.3616     -0.00160
     63       8.5298     -0.00001
     64       8.6233      0.00000
     65       8.6759      0.00000
     66       8.7242      0.00000
     67       8.8579      0.00000
     68       8.9309      0.00000
     69       9.0676      0.00000
     70       9.4862      0.00000
     71       9.5315      0.00000
     72       9.6981      0.00000
     73       9.8496      0.00000
     74      10.0143      0.00000
     75      10.0550      0.00000
     76      10.3525      0.00000
     77      10.4664      0.00000
     78      10.4787      0.00000
     79      10.7006      0.00000
     80      10.8383      0.00000
     81      10.9404      0.00000
     82      11.1048      0.00000
     83      11.2682      0.00000
     84      11.5238      0.00000

 k-point   4 :      -0.2500   -0.2500    0.2500
  band No.  band energies     occupation 
      1      -2.7939      2.00000
      2      -1.7043      2.00000
      3      -1.6764      2.00000
      4      -1.5869      2.00000
      5      -0.6194      2.00000
      6      -0.5922      2.00000
      7      -0.4237      2.00000
      8       0.4033      2.00000
      9       0.4181      2.00000
     10       0.4926      2.00000
     11       0.6070      2.00000
     12       1.1640      2.00000
     13       1.2306      2.00000
     14       1.3469      2.00000
     15       1.3832      2.00000
     16       1.4672      2.00000
     17       1.6335      2.00000
     18       1.7339      2.00000
     19       1.8824      2.00000
     20       2.0812      2.00000
     21       2.1097      2.00000
     22       2.1608      2.00000
     23       2.2211      2.00000
     24       2.3883      2.00000
     25       2.4788      2.00000
     26       2.6825      2.00000
     27       2.8423      2.00000
     28       2.9021      2.00000
     29       3.0363      2.00000
     30       3.1594      2.00000
     31       3.4106      2.00000
     32       3.4600      2.00000
     33       3.6003      2.00000
     34       3.8700      2.00000
     35       3.9636      2.00000
     36       4.0464      2.00000
     37       4.1719      2.00000
     38       4.3541      2.00000
     39       4.3880      2.00000
     40       4.4472      2.00000
     41       4.6715      2.00000
     42       5.0290      2.00000
     43       5.1178      2.00000
     44       5.2346      2.00000
     45       5.2651      2.00000
     46       5.4199      2.00000
     47       5.5077      2.00000
     48       5.6259      2.00000
     49       5.7459      2.00000
     50       5.8075      2.00000
     51       6.3299      2.00000
     52       6.5397      2.00000
     53       6.9214      2.00000
     54       7.1455      2.00001
     55       7.1581      2.00001
     56       7.2927      2.00066
     57       7.3636      2.00345
     58       7.5774      2.06747
     59       7.6328      2.06089
     60       7.8739      0.76071
     61       8.3150     -0.00443
     62       8.3710     -0.00128
     63       8.5298     -0.00001
     64       8.6369      0.00000
     65       8.6886      0.00000
     66       8.7576      0.00000
     67       8.8950      0.00000
     68       8.9520      0.00000
     69       8.9976      0.00000
     70       9.4589      0.00000
     71       9.5206      0.00000
     72       9.6561      0.00000
     73       9.7994      0.00000
     74      10.0629      0.00000
     75      10.0929      0.00000
     76      10.3437      0.00000
     77      10.4518      0.00000
     78      10.4700      0.00000
     79      10.6565      0.00000
     80      10.8915      0.00000
     81      10.9370      0.00000
     82      11.0716      0.00000
     83      11.4163      0.00000
     84      11.5677      0.00000


--------------------------------------------------------------------------------------------------------


 soft charge-density along one line, spin component           1
         0         1         2         3         4         5         6         7         8         9
 total charge-density along one line
 
 pseudopotential strength for first ion, spin component:           1
  8.453  -0.006   0.000   0.000   0.000   0.000   0.000   0.000
 -0.006   0.000   0.000   0.000   0.000   0.000   0.000   0.000
  0.000   0.000   1.987   0.000   0.000  -0.026   0.000   0.000
  0.000   0.000   0.000   1.987   0.000   0.000  -0.026   0.000
  0.000   0.000   0.000   0.000   1.987   0.000   0.000  -0.026
  0.000   0.000  -0.026   0.000   0.000  -0.012   0.000   0.000
  0.000   0.000   0.000  -0.026   0.000   0.000  -0.012   0.000
  0.000   0.000   0.000   0.000  -0.026   0.000   0.000  -0.012
 total augmentation occupancy for first ion, spin component:           1
  1.297  -0.507   0.019   0.007  -0.025   0.006  -0.004  -0.001
 -0.507   0.492   0.042   0.002  -0.040  -0.013   0.000   0.011
  0.019   0.042   0.731   0.007  -0.005  -0.183  -0.002   0.004
  0.007   0.002   0.007   0.718   0.006  -0.002  -0.179  -0.001
 -0.025  -0.040  -0.005   0.006   0.746   0.004  -0.001  -0.183
  0.006  -0.013  -0.183  -0.002   0.004   0.051   0.000  -0.001
 -0.004   0.000  -0.002  -0.179  -0.001   0.000   0.050   0.000
 -0.001   0.011   0.004  -0.001  -0.183  -0.001   0.000   0.050


------------------------ aborting loop because EDIFF is reached ----------------------------------------




--------------------------------------------------------------------------------------------------------



  FREE ENERGIE OF THE ION-ELECTRON SYSTEM (eV)
  ---------------------------------------------------
  free  energy   TOTEN  =      -123.348681 eV

  energy  without entropy=     -123.342344  energy(sigma->0) =     -123.346569
 
    CHARGE:  cpu time    0.31: real time    0.31
    FORLOC:  cpu time    0.04: real time    0.04
    FORNL :  cpu time    1.18: real time    1.18
    STRESS:  cpu time    2.98: real time    2.98
    FORCOR:  cpu time    0.19: real time    0.19
    FORHAR:  cpu time    0.08: real time    0.08
    MIXING:  cpu time    0.00: real time    0.01

  FORCE on cell =-STRESS in cart. coord.  units (eV):
  Direction    XX          YY          ZZ          XY          YZ          ZX
  --------------------------------------------------------------------------------------
  Alpha Z   100.06043   100.06043   100.06043
  Ewald   -1292.75712 -1306.79853 -1301.28395    87.97112   -83.96724    96.76215
  Hartree   411.43755   399.52938   406.45917    78.54421   -76.26453    84.65329
  E(xc)    -400.62497  -400.62751  -400.60131    -0.12480     0.09679    -0.04686
  Local    -186.66838  -160.48799  -173.27846  -167.81942   161.43376  -182.30464
  n-local   406.89692   406.86831   406.79779     0.80694    -0.56958     0.36456
  augment    94.81625    94.83720    94.81805     0.30738    -0.31797     0.20250
  Kinetic   864.32005   864.60012   863.28823     1.07043    -1.13096     0.67440
  Fock        0.00000     0.00000     0.00000     0.00000     0.00000     0.00000
  -------------------------------------------------------------------------------------
  Total      -2.51925    -2.01859    -3.74006     0.75586    -0.71973     0.30540
  in kB      -7.63157    -6.11492   -11.32977     2.28971    -2.18027     0.92516
  external pressure =       -8.36 kB  Pullay stress =        0.00 kB


 VOLUME and BASIS-vectors are now :
 -----------------------------------------------------------------------------
  energy-cutoff  :      300.00
  volume of cell :      528.89
      direct lattice vectors                 reciprocal lattice vectors
     8.087040000  0.000000000  0.000000000     0.123654638  0.000000000  0.000000000
     0.000000000  8.087040000  0.000000000     0.000000000  0.123654638  0.000000000
     0.000000000  0.000000000  8.087040000     0.000000000  0.000000000  0.123654638

  length of vectors
     8.087040000  8.087040000  8.087040000     0.123654638  0.123654638  0.123654638


 FORCES acting on ions
    electron-ion (+dipol)            ewald-force                    non-local-force                 convergence-correction
 -----------------------------------------------------------------------------------------------
   0.466E+02 -.252E+02 -.228E+02   -.471E+02 0.253E+02 0.231E+02   0.447E+00 -.828E-01 -.317E+00   -.116E-02 0.178E-02 -.867E-03
   0.231E+02 -.240E+02 -.479E+02   -.235E+02 0.240E+02 0.486E+02   0.368E+00 0.459E-01 -.642E+00   0.990E-03 0.193E-02 0.948E-03
   0.241E+02 -.445E+02 -.228E+02   -.248E+02 0.453E+02 0.232E+02   0.671E+00 -.789E+00 -.453E+00   0.996E-03 -.132E-02 -.835E-03
   0.928E+01 -.785E+01 -.107E+02   -.968E+01 0.840E+01 0.110E+02   0.445E+00 -.626E+00 -.296E+00   -.685E-03 0.238E-03 0.921E-03
   -.238E+02 -.396E+01 -.301E+02   0.244E+02 0.403E+01 0.310E+02   -.620E+00 -.623E-01 -.940E+00   -.838E-03 0.779E-03 -.653E-03
   -.251E+02 -.293E+02 -.337E+01   0.256E+02 0.302E+02 0.347E+01   -.476E+00 -.892E+00 -.123E+00   -.836E-03 -.108E-02 0.616E-04
   -.878E+01 -.288E+02 -.308E+02   0.918E+01 0.296E+02 0.315E+02   -.381E+00 -.793E+00 -.686E+00   0.550E-03 -.917E-03 -.349E-03
   0.320E+02 0.279E+02 -.255E+01   -.325E+02 -.279E+02 0.267E+01   0.628E+00 0.139E+00 -.121E+00   -.156E-02 -.179E-02 -.788E-04
   0.253E+01 0.268E+02 -.327E+02   -.254E+01 -.270E+02 0.331E+02   -.408E-01 0.169E+00 -.546E+00   -.191E-03 -.189E-02 0.176E-02
   0.319E+02 0.744E+01 -.334E+02   -.322E+02 -.780E+01 0.337E+02   0.324E+00 0.300E+00 -.272E+00   -.173E-02 -.187E-03 0.185E-02
   -.301E+02 0.212E+02 -.207E+01   0.305E+02 -.215E+02 0.226E+01   -.430E+00 0.261E+00 -.174E+00   0.153E-02 -.172E-02 -.211E-03
   -.313E+01 0.441E+01 -.124E+02   0.340E+01 -.461E+01 0.125E+02   -.337E+00 0.243E+00 -.588E-02   0.279E-03 -.857E-03 0.905E-03
   -.202E+02 0.286E+02 -.235E+01   0.207E+02 -.295E+02 0.269E+01   -.492E+00 0.885E+00 -.357E+00   -.791E-03 0.105E-02 -.199E-03
   -.291E+02 0.281E+02 -.470E+02   0.294E+02 -.287E+02 0.475E+02   -.294E+00 0.560E+00 -.539E+00   0.169E-02 0.956E-03 0.803E-03
   0.284E+02 -.473E+01 0.235E+02   -.292E+02 0.490E+01 -.238E+02   0.756E+00 -.185E+00 0.354E+00   0.517E-03 0.758E-03 0.655E-03
   0.416E+01 -.278E+02 0.232E+02   -.426E+01 0.284E+02 -.235E+02   0.976E-01 -.666E+00 0.267E+00   -.245E-03 -.743E-03 0.635E-03
   0.284E+02 -.277E+02 0.993E+01   -.289E+02 0.283E+02 -.103E+02   0.514E+00 -.615E+00 0.421E+00   0.243E-03 -.527E-03 -.690E-03
   -.278E+02 -.291E+01 0.207E+02   0.286E+02 0.336E+01 -.211E+02   -.738E+00 -.435E+00 0.363E+00   -.395E-03 0.503E-03 0.541E-03
   -.207E+02 -.275E+01 0.289E+02   0.213E+02 0.308E+01 -.299E+02   -.625E+00 -.296E+00 0.960E+00   -.705E-03 0.470E-03 0.643E-03
   -.419E+01 -.108E+02 0.395E+01   0.437E+01 0.110E+02 -.410E+01   -.214E+00 -.167E+00 0.144E+00   0.348E-03 0.537E-03 -.210E-03
   -.269E+02 -.449E+02 0.287E+02   0.275E+02 0.458E+02 -.296E+02   -.529E+00 -.922E+00 0.845E+00   -.224E-03 -.130E-02 0.390E-03
   0.114E+02 0.488E+01 0.346E+01   -.116E+02 -.506E+01 -.369E+01   0.121E+00 0.226E+00 0.236E+00   -.721E-03 -.855E-03 -.772E-04
   0.194E+01 0.226E+02 0.310E+02   -.205E+01 -.229E+02 -.314E+02   0.424E-01 0.290E+00 0.469E+00   -.503E-04 -.175E-02 -.168E-02
   0.245E+01 0.283E+02 0.213E+02   -.283E+01 -.290E+02 -.217E+02   0.376E+00 0.692E+00 0.302E+00   -.176E-04 0.617E-03 0.697E-03
   0.476E+02 0.277E+02 0.308E+02   -.480E+02 -.281E+02 -.311E+02   0.444E+00 0.367E+00 0.367E+00   -.102E-02 0.546E-03 -.173E-02
   -.109E+02 0.283E+01 0.150E+01   0.112E+02 -.322E+01 -.198E+01   -.214E+00 0.402E+00 0.521E+00   0.685E-03 -.367E-03 0.285E-03
   -.133E+01 0.275E+01 0.117E+02   0.184E+01 -.316E+01 -.119E+02   -.590E+00 0.427E+00 0.120E+00   -.625E-04 -.391E-03 -.842E-03
   -.215E+01 0.106E+02 0.210E+01   0.248E+01 -.108E+02 -.247E+01   -.350E+00 0.200E+00 0.374E+00   -.153E-03 -.414E-03 0.285E-03
   -.457E+02 0.485E+02 0.439E+02   0.461E+02 -.490E+02 -.445E+02   -.512E+00 0.612E+00 0.710E+00   0.105E-02 0.143E-02 -.790E-03
   0.513E+02 0.114E+03 -.570E+02   -.517E+02 -.114E+03 0.572E+02   0.382E+00 0.337E+00 -.162E+00   0.621E-02 0.723E-02 -.546E-02
   -.135E+03 -.576E+02 -.705E+02   0.135E+03 0.578E+02 0.702E+02   -.150E-01 -.195E+00 0.209E+00   0.205E-02 0.504E-02 -.287E-02
   0.703E+02 -.626E+02 0.143E+03   -.704E+02 0.629E+02 -.143E+03   0.466E-01 -.204E+00 0.150E+00   0.219E-02 0.906E-02 -.299E-02
 -----------------------------------------------------------------------------------------------
   0.119E+01 0.758E+00 -.117E+01   -.284E-13 0.711E-14 0.853E-13   -.120E+01 -.774E+00 0.118E+01   0.794E-02 0.168E-01 -.915E-02
 
 
 POSITION                                       TOTAL-FORCE (eV/Angst)
 -----------------------------------------------------------------------------------
      0.04805      8.01932      8.08194        -0.012534      0.016533     -0.016708
      2.04456      8.01185      1.95717        -0.044043      0.038252      0.011417
      2.02367      1.98522      0.00240         0.039232      0.034109     -0.057634
      0.00545      2.02960      2.01075         0.049246     -0.072499     -0.007243
      6.09527      0.00442      2.02790        -0.003791      0.007281      0.027029
      6.07853      2.04913      8.07852        -0.031348     -0.036526     -0.014793
      4.06388      2.05162      2.02120         0.025227      0.009622      0.041938
      8.05613      4.03410      0.00755         0.159762      0.094675      0.002161
      2.01928      4.03238      2.03451        -0.047601      0.052573     -0.075254
      8.07396      6.04158      2.02470         0.019111     -0.058839      0.008693
      4.00032      4.07403      0.00491        -0.002861     -0.024734      0.017973
      6.07045      4.04782      1.99215        -0.064277      0.039864      0.085116
      6.03559      6.05637      0.01173         0.061414      0.011439     -0.015822
      3.99501      6.07641      1.97032         0.024580     -0.053405     -0.029181
      0.00716      0.00684      4.02374        -0.006373     -0.012400     -0.016479
      2.03590      2.03449      4.02906        -0.006132     -0.008303      0.002280
      0.00597      2.04028      6.04819         0.001010     -0.018494      0.011422
      4.06427      0.01457      4.02761         0.022387      0.017563     -0.022001
      6.08580      0.01262      6.04820         0.008027      0.034032     -0.012044
      6.08517      2.02808      4.03009        -0.036146     -0.000683     -0.006600
      4.05574      2.06198      6.04831         0.013926     -0.071107      0.011338
      0.02259      4.04406      4.04003        -0.010716      0.045109      0.006705
      2.02088      4.06466      6.10033        -0.061314     -0.013367      0.014157
      2.01426      6.04957      4.05783        -0.003510      0.000511     -0.061936
      0.02322      6.06601      6.10250         0.043124     -0.043273      0.000314
      4.05834      4.06041      4.01356         0.013977      0.005525      0.047716
      6.09243      4.05371      6.05681        -0.085850      0.015744     -0.006544
      6.07709      6.06540      4.02468        -0.019694      0.002901      0.010941
      3.96918      6.12364      6.14671        -0.094467      0.046217      0.126849
      1.86397      5.89749      0.11746         0.022591     -0.109097     -0.032562
      4.12224      0.07452      0.04576         0.069697      0.003700     -0.007424
      2.00428      0.00640      6.03194        -0.042655      0.047079     -0.043828
 -----------------------------------------------------------------------------------
    total drift:                                0.000570      0.001651     -0.000913


--------------------------------------------------------------------------------------------------------


    POTLOK:  cpu time    0.17: real time    0.17


--------------------------------------------------------------------------------------------------------


  FORCES: max atom, RMS     0.185719    0.075378
  FORCE total and by dimension    0.426405    0.159762
     LOOP+:  cpu time   79.94: real time   80.04
    4ORBIT:  cpu time    0.00: real time    0.00

 total amount of memory used by VASP on root node  76806. kBytes
========================================================================

   base      :    30000. kBytes
   nonl-proj :    17571. kBytes
   fftplans  :     2983. kBytes
   grid      :    22831. kBytes
   one-center:      497. kBytes
   wavefun   :     2924. kBytes
 
  
  
 General timing and accounting informations for this job:
 ========================================================
  
                  Total CPU time used (sec):       81.163
                            User time (sec):       81.053
                          System time (sec):        0.110
                         Elapsed time (sec):       81.395
  
                   Maximum memory used (kb):           0.
                   Average memory used (kb):           0.
  
                          Minor page faults:        26806
                          Major page faults:            0
                 Voluntary context switches:         1236
