   4   4   0   0
  0.1706785E+02  0.4087078E-09  0.4087078E-09  0.4087078E-09  0.1000000E-16
  1.000000000000000E-004
  CAR 
 unknown system                          
     13.18583800     -3.62356414  301      6.91925402      1.00000000
     -3.624  0.0000E+00  0.0000E+00
     -3.568  0.0000E+00  0.0000E+00
     -3.512  0.0000E+00  0.0000E+00
     -3.455  0.0000E+00  0.0000E+00
     -3.399  0.0000E+00  0.0000E+00
     -3.343  0.0000E+00  0.0000E+00
     -3.287  0.0000E+00  0.0000E+00
     -3.231 -0.6956E-26 -0.3898E-27
     -3.175 -0.5542E-24 -0.3144E-25
     -3.119 -0.3808E-22 -0.2165E-23
     -3.063 -0.2232E-20 -0.1272E-21
     -3.007 -0.1116E-18 -0.6382E-20
     -2.951 -0.4762E-17 -0.2732E-18
     -2.895 -0.1732E-15 -0.9976E-17
     -2.839 -0.5368E-14 -0.3108E-15
     -2.783 -0.1379E-12 -0.8035E-14
     -2.727 -0.3089E-11 -0.1811E-12
     -2.671 -0.5895E-10 -0.3484E-11
     -2.615 -0.9572E-09 -0.5712E-10
     -2.559 -0.1321E-07 -0.7971E-09
     -2.503 -0.1547E-06 -0.9465E-08
     -2.447 -0.1536E-05 -0.9554E-07
     -2.391 -0.1291E-04 -0.8191E-06
     -2.335 -0.9170E-04 -0.5957E-05
     -2.279 -0.5485E-03 -0.3669E-04
     -2.223 -0.2753E-02 -0.1909E-03
     -2.167 -0.1152E-01 -0.8365E-03
     -2.111 -0.3988E-01 -0.3071E-02
     -2.055 -0.1124E+00 -0.9368E-02
     -1.999 -0.2506E+00 -0.2341E-01
     -1.943 -0.4133E+00 -0.4657E-01
     -1.887 -0.3949E+00 -0.6870E-01
     -1.831  0.2127E+00 -0.5677E-01
     -1.775  0.1814E+01  0.4486E-01
     -1.718  0.4344E+01  0.2883E+00
     -1.662  0.6948E+01  0.6776E+00
     -1.606  0.8331E+01  0.1144E+01
     -1.550  0.7696E+01  0.1576E+01
     -1.494  0.5417E+01  0.1879E+01
     -1.438  0.2716E+01  0.2031E+01
     -1.382  0.7046E+00  0.2071E+01
     -1.326 -0.2553E+00  0.2057E+01
     -1.270 -0.4463E+00  0.2031E+01
     -1.214 -0.3175E+00  0.2014E+01
     -1.158 -0.1582E+00  0.2005E+01
     -1.102 -0.6119E-01  0.2001E+01
     -1.046 -0.1911E-01  0.2000E+01
     -0.990 -0.4908E-02  0.2000E+01
     -0.934 -0.1049E-02  0.2000E+01
     -0.878 -0.1876E-03  0.2000E+01
     -0.822 -0.2823E-04  0.2000E+01
     -0.766 -0.3584E-05  0.2000E+01
     -0.710 -0.3850E-06  0.2000E+01
     -0.654 -0.3504E-07  0.2000E+01
     -0.598 -0.2706E-08  0.2000E+01
     -0.542 -0.1776E-09  0.2000E+01
     -0.486 -0.9899E-11  0.2000E+01
     -0.430 -0.4676E-12  0.2000E+01
     -0.374 -0.2378E-13  0.2000E+01
     -0.318  0.0000E+00  0.2000E+01
     -0.262  0.0000E+00  0.2000E+01
     -0.206  0.0000E+00  0.2000E+01
     -0.150  0.0000E+00  0.2000E+01
     -0.094  0.0000E+00  0.2000E+01
     -0.038  0.0000E+00  0.2000E+01
      0.018  0.0000E+00  0.2000E+01
      0.075  0.0000E+00  0.2000E+01
      0.131  0.0000E+00  0.2000E+01
      0.187  0.0000E+00  0.2000E+01
      0.243  0.0000E+00  0.2000E+01
      0.299  0.0000E+00  0.2000E+01
      0.355  0.0000E+00  0.2000E+01
      0.411  0.0000E+00  0.2000E+01
      0.467  0.0000E+00  0.2000E+01
      0.523  0.0000E+00  0.2000E+01
      0.579  0.0000E+00  0.2000E+01
      0.635  0.0000E+00  0.2000E+01
      0.691  0.0000E+00  0.2000E+01
      0.747  0.0000E+00  0.2000E+01
      0.803  0.0000E+00  0.2000E+01
      0.859  0.0000E+00  0.2000E+01
      0.915  0.0000E+00  0.2000E+01
      0.971  0.0000E+00  0.2000E+01
      1.027 -0.1601E-27  0.2000E+01
      1.083 -0.3546E-25  0.2000E+01
      1.139 -0.2782E-23  0.2000E+01
      1.195 -0.1874E-21  0.2000E+01
      1.251 -0.1077E-19  0.2000E+01
      1.307 -0.5284E-18  0.2000E+01
      1.363 -0.2210E-16  0.2000E+01
      1.419 -0.7882E-15  0.2000E+01
      1.475 -0.2396E-13  0.2000E+01
      1.531 -0.6010E-12  0.2000E+01
      1.587 -0.1325E-10  0.2000E+01
      1.643 -0.2481E-09  0.2000E+01
      1.699 -0.3950E-08  0.2000E+01
      1.755 -0.5343E-07  0.2000E+01
      1.811 -0.6136E-06  0.2000E+01
      1.868 -0.5973E-05  0.2000E+01
      1.924 -0.4921E-04  0.2000E+01
      1.980 -0.3424E-03  0.2000E+01
      2.036 -0.2006E-02  0.2000E+01
      2.092 -0.9858E-02  0.1999E+01
      2.148 -0.4037E-01  0.1997E+01
      2.204 -0.1365E+00  0.1989E+01
      2.260 -0.3749E+00  0.1968E+01
      2.316 -0.8107E+00  0.1923E+01
      2.372 -0.1279E+01  0.1851E+01
      2.428 -0.1090E+01  0.1790E+01
      2.484  0.1030E+01  0.1848E+01
      2.540  0.6207E+01  0.2196E+01
      2.596  0.1400E+02  0.2980E+01
      2.652  0.2158E+02  0.4189E+01
      2.708  0.2509E+02  0.5595E+01
      2.764  0.2249E+02  0.6855E+01
      2.820  0.1530E+02  0.7712E+01
      2.876  0.7303E+01  0.8121E+01
      2.932  0.1626E+01  0.8212E+01
      2.988 -0.9216E+00  0.8161E+01
      3.044 -0.1320E+01  0.8087E+01
      3.100 -0.8921E+00  0.8037E+01
      3.156 -0.4304E+00  0.8013E+01
      3.212 -0.1623E+00  0.8004E+01
      3.268 -0.4952E-01  0.8001E+01
      3.324 -0.1245E-01  0.8000E+01
      3.380 -0.2607E-02  0.8000E+01
      3.436 -0.4573E-03  0.8000E+01
      3.492 -0.6751E-04  0.8000E+01
      3.548 -0.8412E-05  0.8000E+01
      3.604 -0.8869E-06  0.8000E+01
      3.661 -0.7926E-07  0.8000E+01
      3.717 -0.6011E-08  0.8000E+01
      3.773 -0.3873E-09  0.8000E+01
      3.829 -0.2123E-10  0.8000E+01
      3.885 -0.9907E-12  0.8000E+01
      3.941 -0.3963E-13  0.8000E+01
      3.997  0.0000E+00  0.8000E+01
      4.053  0.0000E+00  0.8000E+01
      4.109  0.0000E+00  0.8000E+01
      4.165  0.0000E+00  0.8000E+01
      4.221  0.0000E+00  0.8000E+01
      4.277  0.0000E+00  0.8000E+01
      4.333  0.0000E+00  0.8000E+01
      4.389  0.0000E+00  0.8000E+01
      4.445  0.0000E+00  0.8000E+01
      4.501  0.0000E+00  0.8000E+01
      4.557  0.0000E+00  0.8000E+01
      4.613  0.0000E+00  0.8000E+01
      4.669  0.0000E+00  0.8000E+01
      4.725  0.0000E+00  0.8000E+01
      4.781  0.0000E+00  0.8000E+01
      4.837  0.0000E+00  0.8000E+01
      4.893  0.0000E+00  0.8000E+01
      4.949  0.0000E+00  0.8000E+01
      5.005  0.0000E+00  0.8000E+01
      5.061  0.0000E+00  0.8000E+01
      5.117  0.0000E+00  0.8000E+01
      5.173  0.0000E+00  0.8000E+01
      5.229 -0.7324E-27  0.8000E+01
      5.285 -0.6562E-25  0.8000E+01
      5.341 -0.5066E-23  0.8000E+01
      5.397 -0.3337E-21  0.8000E+01
      5.454 -0.1876E-19  0.8000E+01
      5.510 -0.8995E-18  0.8000E+01
      5.566 -0.3678E-16  0.8000E+01
      5.622 -0.1283E-14  0.8000E+01
      5.678 -0.3813E-13  0.8000E+01
      5.734 -0.9360E-12  0.8000E+01
      5.790 -0.2014E-10  0.8000E+01
      5.846 -0.3686E-09  0.8000E+01
      5.902 -0.5735E-08  0.8000E+01
      5.958 -0.7583E-07  0.8000E+01
      6.014 -0.8509E-06  0.8000E+01
      6.070 -0.8093E-05  0.8000E+01
      6.126 -0.6513E-04  0.8000E+01
      6.182 -0.4425E-03  0.8000E+01
      6.238 -0.2530E-02  0.8000E+01
      6.294 -0.1212E-01  0.7999E+01
      6.350 -0.4837E-01  0.7996E+01
      6.406 -0.1591E+00  0.7988E+01
      6.462 -0.4236E+00  0.7964E+01
      6.518 -0.8824E+00  0.7914E+01
      6.574 -0.1316E+01  0.7841E+01
      6.630 -0.9435E+00  0.7788E+01
      6.686  0.1552E+01  0.7875E+01
      6.742  0.7170E+01  0.8276E+01
      6.798  0.1515E+02  0.9125E+01
      6.854  0.2238E+02  0.1038E+02
      6.910  0.2509E+02  0.1179E+02
      6.966  0.2169E+02  0.1300E+02
      7.022  0.1415E+02  0.1379E+02
      7.078  0.6335E+01  0.1415E+02
      7.134  0.1098E+01  0.1421E+02
      7.190 -0.1072E+01  0.1415E+02
      7.247 -0.1285E+01  0.1408E+02
      7.303 -0.8204E+00  0.1403E+02
      7.359 -0.3813E+00  0.1401E+02
      7.415 -0.1394E+00  0.1400E+02
      7.471 -0.4140E-01  0.1400E+02
      7.527 -0.1015E-01  0.1400E+02
      7.583 -0.2073E-02  0.1400E+02
      7.639 -0.3550E-03  0.1400E+02
      7.695 -0.5120E-04  0.1400E+02
      7.751 -0.6235E-05  0.1400E+02
      7.807 -0.6426E-06  0.1400E+02
      7.863 -0.5615E-07  0.1400E+02
      7.919 -0.4165E-08  0.1400E+02
      7.975 -0.2625E-09  0.1400E+02
      8.031 -0.1407E-10  0.1400E+02
      8.087 -0.6420E-12  0.1400E+02
      8.143 -0.2378E-13  0.1400E+02
      8.199  0.0000E+00  0.1400E+02
      8.255  0.0000E+00  0.1400E+02
      8.311  0.0000E+00  0.1400E+02
      8.367  0.0000E+00  0.1400E+02
      8.423  0.0000E+00  0.1400E+02
      8.479  0.0000E+00  0.1400E+02
      8.535  0.0000E+00  0.1400E+02
      8.591  0.0000E+00  0.1400E+02
      8.647  0.0000E+00  0.1400E+02
      8.703  0.0000E+00  0.1400E+02
      8.759  0.0000E+00  0.1400E+02
      8.815  0.0000E+00  0.1400E+02
      8.871  0.0000E+00  0.1400E+02
      8.927  0.0000E+00  0.1400E+02
      8.983  0.0000E+00  0.1400E+02
      9.040  0.0000E+00  0.1400E+02
      9.096  0.0000E+00  0.1400E+02
      9.152  0.0000E+00  0.1400E+02
      9.208  0.0000E+00  0.1400E+02
      9.264  0.0000E+00  0.1400E+02
      9.320  0.0000E+00  0.1400E+02
      9.376 -0.6921E-26  0.1400E+02
      9.432 -0.5515E-24  0.1400E+02
      9.488 -0.3790E-22  0.1400E+02
      9.544 -0.2222E-20  0.1400E+02
      9.600 -0.1112E-18  0.1400E+02
      9.656 -0.4742E-17  0.1400E+02
      9.712 -0.1725E-15  0.1400E+02
      9.768 -0.5348E-14  0.1400E+02
      9.824 -0.1374E-12  0.1400E+02
      9.880 -0.3078E-11  0.1400E+02
      9.936 -0.5877E-10  0.1400E+02
      9.992 -0.9543E-09  0.1400E+02
     10.048 -0.1317E-07  0.1400E+02
     10.104 -0.1543E-06  0.1400E+02
     10.160 -0.1533E-05  0.1400E+02
     10.216 -0.1289E-04  0.1400E+02
     10.272 -0.9158E-04  0.1400E+02
     10.328 -0.5483E-03  0.1400E+02
     10.384 -0.2755E-02  0.1400E+02
     10.440 -0.1156E-01  0.1400E+02
     10.496 -0.4021E-01  0.1400E+02
     10.552 -0.1144E+00  0.1399E+02
     10.608 -0.2605E+00  0.1398E+02
     10.664 -0.4523E+00  0.1395E+02
     10.720 -0.5199E+00  0.1392E+02
     10.776 -0.1096E+00  0.1392E+02
     10.833  0.1170E+01  0.1398E+02
     10.889  0.3447E+01  0.1417E+02
     10.945  0.6454E+01  0.1454E+02
     11.001  0.9793E+01  0.1508E+02
     11.057  0.1322E+02  0.1583E+02
     11.113  0.1635E+02  0.1674E+02
     11.169  0.1817E+02  0.1776E+02
     11.225  0.1735E+02  0.1873E+02
     11.281  0.1356E+02  0.1949E+02
     11.337  0.8143E+01  0.1995E+02
     11.393  0.3234E+01  0.2013E+02
     11.449  0.2299E+00  0.2014E+02
     11.505 -0.8591E+00  0.2009E+02
     11.561 -0.8412E+00  0.2005E+02
     11.617 -0.5001E+00  0.2002E+02
     11.673 -0.2221E+00  0.2001E+02
     11.729 -0.7834E-01  0.2000E+02
     11.785 -0.2253E-01  0.2000E+02
     11.841 -0.5362E-02  0.2000E+02
     11.897 -0.1065E-02  0.2000E+02
     11.953 -0.1775E-03  0.2000E+02
     12.009 -0.2492E-04  0.2000E+02
     12.065 -0.2955E-05  0.2000E+02
     12.121 -0.2967E-06  0.2000E+02
     12.177 -0.2526E-07  0.2000E+02
     12.233 -0.1826E-08  0.2000E+02
     12.289 -0.1121E-09  0.2000E+02
     12.345 -0.5865E-11  0.2000E+02
     12.401 -0.2536E-12  0.2000E+02
     12.457 -0.1585E-13  0.2000E+02
     12.513  0.0000E+00  0.2000E+02
     12.569  0.0000E+00  0.2000E+02
     12.626  0.0000E+00  0.2000E+02
     12.682  0.0000E+00  0.2000E+02
     12.738  0.0000E+00  0.2000E+02
     12.794  0.0000E+00  0.2000E+02
     12.850  0.0000E+00  0.2000E+02
     12.906  0.0000E+00  0.2000E+02
     12.962  0.0000E+00  0.2000E+02
     13.018  0.0000E+00  0.2000E+02
     13.074  0.0000E+00  0.2000E+02
     13.130  0.0000E+00  0.2000E+02
     13.186  0.0000E+00  0.2000E+02
