<?xml version="1.0" encoding="ISO-8859-1"?>
<modeling>
 <generator>
  <i name="program" type="string">vasp </i>
  <i name="version" type="string">5.2.2  </i>
  <i name="subversion" type="string">15Apr09 complex  parallel </i>
  <i name="platform" type="string">LinuxIFC </i>
  <i name="date" type="string">2013 08 21 </i>
  <i name="time" type="string">16:13:16 </i>
 </generator>
 <incar>
  <i type="string" name="PREC">accurate</i>
  <i type="int" name="IBRION">     1</i>
  <i type="int" name="NSW">   191</i>
  <i type="int" name="ISIF">     2</i>
  <i name="ENCUT">    360.65550000</i>
  <i name="POTIM">      0.50000000</i>
  <i type="int" name="ISMEAR">     1</i>
  <i name="SIGMA">      0.20000000</i>
  <i type="logical" name="LWAVE"> F  </i>
  <i type="logical" name="LCHARG"> F  </i>
  <i type="logical" name="LPEAD"> F  </i>
  <i type="logical" name="LCALCPOL"> F  </i>
  <i type="logical" name="LCALCEPS"> F  </i>
  <v name="EFIELD_PEAD">      0.00000000      0.00000000      0.00000000</v>
  <i type="logical" name="LEFG"> F  </i>
 </incar>
 <kpoints>
  <generation param="Gamma">
   <v type="int" name="divisions">       1        1        1 </v>
   <v name="usershift">      0.00000000       0.00000000       0.00000000 </v>
   <v name="genvec1">      1.00000000       0.00000000       0.00000000 </v>
   <v name="genvec2">      0.00000000       1.00000000       0.00000000 </v>
   <v name="genvec3">      0.00000000       0.00000000       1.00000000 </v>
   <v name="shift">      0.00000000       0.00000000       0.00000000 </v>
  </generation>
  <varray name="kpointlist" >
   <v>       0.00000000       0.00000000       0.00000000 </v>
  </varray>
  <varray name="weights" >
   <v>       1.00000000 </v>
  </varray>
 </kpoints>
 <parameters>
  <separator name="general" >
   <i type="string" name="SYSTEM">unknown system</i>
   <i type="logical" name="LCOMPAT"> F  </i>
  </separator>
  <separator name="electronic" >
   <i type="string" name="PREC">accura</i>
   <i name="ENMAX">    360.65550000</i>
   <i name="ENAUG">    291.05200000</i>
   <i name="EDIFF">      0.00010000</i>
   <i type="int" name="IALGO">    38</i>
   <i type="int" name="IWAVPR">    11</i>
   <i type="int" name="NBANDS">     8</i>
   <i name="NELECT">      9.00000000</i>
   <separator name="electronic smearing" >
    <i type="int" name="ISMEAR">     1</i>
    <i name="SIGMA">      0.20000000</i>
   </separator>
   <separator name="electronic projectors" >
    <i type="logical" name="LREAL"> F  </i>
    <v name="ROPT">      0.00000000</v>
    <i type="int" name="LMAXPAW">  -100</i>
    <i type="int" name="LMAXMIX">     2</i>
   </separator>
   <separator name="electronic startup" >
    <i type="int" name="ISTART">     0</i>
    <i type="int" name="ICHARG">     2</i>
    <i type="int" name="INIWAV">     1</i>
   </separator>
   <separator name="electronic spin" >
    <i type="int" name="ISPIN">     1</i>
    <i type="logical" name="LNONCOLLINEAR"> F  </i>
    <v name="MAGMOM">      1.00000000      1.00000000      1.00000000</v>
    <i name="NUPDOWN">     -1.00000000</i>
    <i type="logical" name="LSORBIT"> F  </i>
    <v name="SAXIS">      0.00000000      0.00000000      1.00000000</v>
    <i type="logical" name="LSPIRAL"> F  </i>
    <v name="QSPIRAL">      0.00000000      0.00000000      0.00000000</v>
    <i type="logical" name="LZEROZ"> F  </i>
   </separator>
   <separator name="electronic exchange-correlation" >
    <i type="logical" name="LASPH"> F  </i>
    <i type="logical" name="LMETAGGA"> F  </i>
   </separator>
   <separator name="electronic convergence" >
    <i type="int" name="NELM">    60</i>
    <i type="int" name="NELMDL">    -5</i>
    <i type="int" name="NELMIN">     2</i>
    <i name="ENINI">    360.65550000</i>
    <separator name="electronic convergence detail" >
     <i type="logical" name="LDIAG"> T  </i>
     <i name="WEIMIN">      0.00100000</i>
     <i name="EBREAK">      0.00000313</i>
     <i name="DEPER">      0.30000000</i>
     <i type="int" name="NRMM">     4</i>
     <i name="TIME">      0.40000000</i>
    </separator>
   </separator>
   <separator name="electronic mixer" >
    <i name="AMIX">      0.40000000</i>
    <i name="BMIX">      1.00000000</i>
    <i name="AMIN">      0.10000000</i>
    <i name="AMIX_MAG">      1.60000000</i>
    <i name="BMIX_MAG">      1.00000000</i>
    <separator name="electronic mixer details" >
     <i type="int" name="IMIX">     4</i>
     <i type="int" name="MAXMIX">   -45</i>
     <i name="WC">    100.00000000</i>
     <i type="int" name="INIMIX">     1</i>
     <i type="int" name="MIXPRE">     1</i>
     <i type="int" name="MREMOVE">     5</i>
    </separator>
   </separator>
   <separator name="electronic dipolcorrection" >
    <i type="logical" name="LDIPOL"> F  </i>
    <i type="logical" name="LMONO"> F  </i>
    <i type="int" name="IDIPOL">     0</i>
    <i name="EPSILON">      1.00000000</i>
    <v name="DIPOL">   -100.00000000   -100.00000000   -100.00000000</v>
    <i name="EFIELD">      0.00000000</i>
   </separator>
  </separator>
  <separator name="grids" >
   <i type="int" name="NGX">    24</i>
   <i type="int" name="NGY">    24</i>
   <i type="int" name="NGZ">    24</i>
   <i type="int" name="NGXF">    48</i>
   <i type="int" name="NGYF">    48</i>
   <i type="int" name="NGZF">    48</i>
   <i type="logical" name="ADDGRID"> F  </i>
  </separator>
  <separator name="ionic" >
   <i type="int" name="NSW">   191</i>
   <i type="int" name="IBRION">     1</i>
   <i type="int" name="ISIF">     2</i>
   <i name="PSTRESS">      0.00000000</i>
   <i name="EDIFFG">      0.00100000</i>
   <i type="int" name="NFREE">     0</i>
   <i name="POTIM">      0.50000000</i>
   <i name="SMASS">     -3.00000000</i>
  </separator>
  <separator name="ionic md" >
   <i name="TEBEG">      0.00010000</i>
   <i name="TEEND">      0.00010000</i>
   <i type="int" name="NBLOCK">     1</i>
   <i type="int" name="KBLOCK">   191</i>
   <i type="int" name="NPACO">   256</i>
   <i name="APACO">     16.00000000</i>
  </separator>
  <separator name="symmetry" >
   <i type="int" name="ISYM">     2</i>
   <i name="SYMPREC">      0.00001000</i>
  </separator>
  <separator name="dos" >
   <i type="logical" name="LORBIT"> F  </i>
   <v name="RWIGS">     -1.00000000</v>
   <i type="int" name="NEDOS">   301</i>
   <i name="EMIN">     10.00000000</i>
   <i name="EMAX">    -10.00000000</i>
   <i name="EFERMI">      0.00000000</i>
  </separator>
  <separator name="writing" >
   <i type="int" name="NWRITE">     2</i>
   <i type="logical" name="LWAVE"> F  </i>
   <i type="logical" name="LCHARG"> F  </i>
   <i type="logical" name="LPARD"> F  </i>
   <i type="logical" name="LVTOT"> F  </i>
   <i type="logical" name="LELF"> F  </i>
   <i type="logical" name="LOPTICS"> F  </i>
   <v name="STM">      0.00000000      0.00000000      0.00000000      0.00000000      0.00000000</v>
  </separator>
  <separator name="performance" >
   <i type="int" name="NPAR">     1</i>
   <i type="int" name="NSIM">     4</i>
   <i type="int" name="NBLK">    32</i>
   <i type="logical" name="LPLANE"> T  </i>
   <i type="logical" name="LSCALAPACK"> F  </i>
   <i type="logical" name="LSCAAWARE"> F  </i>
   <i type="logical" name="LSCALU"> F  </i>
   <i type="logical" name="LASYNC"> F  </i>
  </separator>
  <separator name="miscellaneous" >
   <i type="int" name="IDIOT">     3</i>
   <i type="logical" name="LMUSIC"> F  </i>
   <v name="POMASS">     26.98200000</v>
   <i type="logical" name="LCORR"> T  </i>
  </separator>
  <i type="logical" name="LREAL_COMPAT"> F  </i>
  <i type="logical" name="GGA_COMPAT"> T  </i>
  <i type="logical" name="LBERRY"> F  </i>
  <i type="int" name="ICORELEVEL">     0</i>
  <i type="logical" name="LDAU"> F  </i>
  <i type="int" name="I_CONSTRAINED_M">     0</i>
  <separator name="electronic exchange-correlation" >
   <i type="string" name="GGA">--</i>
   <i type="int" name="VOSKOWN">     0</i>
   <i type="logical" name="LHFCALC"> F  </i>
   <i type="logical" name="LHFONE"> F  </i>
   <i type="logical" name="LRHFCALC"> F  </i>
   <i type="logical" name="LTHOMAS"> F  </i>
   <i type="logical" name="LMODELHF"> F  </i>
   <i name="ENCUTFOCK">      0.00000000</i>
   <i name="ENCUT4O">     -1.00000000</i>
   <i type="int" name="EXXOEP">     0</i>
   <i type="int" name="FOURORBIT">     0</i>
   <i name="AEXX">      0.00000000</i>
   <i name="HFALPHA">      0.00000000</i>
   <i name="ALDAX">      1.00000000</i>
   <i name="AGGAX">      1.00000000</i>
   <i name="ALDAC">      1.00000000</i>
   <i name="AGGAC">      1.00000000</i>
   <i type="int" name="NKREDX">     1</i>
   <i type="int" name="NKREDY">     1</i>
   <i type="int" name="NKREDZ">     1</i>
   <i type="logical" name="SHIFTRED"> F  </i>
   <i type="logical" name="ODDONLY"> F  </i>
   <i type="logical" name="EVENONLY"> F  </i>
   <i type="int" name="LMAXFOCK">     0</i>
   <i type="int" name="NMAXFOCKAE">     0</i>
   <i name="HFSCREEN">      0.00000000</i>
   <i name="HFSCREENC">      0.00000000</i>
  </separator>
  <separator name="model GW" >
   <i type="int" name="MODEL_GW">     0</i>
   <i name="MODEL_EPS0">      8.57500000</i>
   <i name="MODEL_ALPHA">      1.00000000</i>
  </separator>
  <separator name="linear response parameters" >
   <i type="logical" name="LEPSILON"> F  </i>
   <i type="logical" name="LRPA"> F  </i>
   <i type="logical" name="LNABLA"> F  </i>
   <i type="logical" name="LVEL"> F  </i>
   <i type="int" name="KINTER">     0</i>
   <i name="CSHIFT">      0.10000000</i>
   <i name="OMEGAMAX">     -1.00000000</i>
  </separator>
  <separator name="orbital magnetization" >
   <i type="logical" name="ORBITALMAG"> F  </i>
   <i type="logical" name="LMAGBLOCH"> F  </i>
   <i type="logical" name="LCHIMAG"> F  </i>
   <i type="logical" name="LGAUGE"> T  </i>
   <i type="int" name="MAGATOM">     0</i>
   <v name="MAGDIPOL">      0.00000000      0.00000000      0.00000000</v>
   <v name="AVECCONST">      0.00000000      0.00000000      0.00000000</v>
  </separator>
  <separator name="response functions" >
   <i type="logical" name="LRPA"> T  </i>
   <i type="logical" name="LTCTE"> F  </i>
   <i type="logical" name="LTETE"> F  </i>
   <i type="logical" name="L2ORDER"> F  </i>
   <i type="logical" name="LGWLF"> F  </i>
   <i name="ENCUTGW">    240.43700000</i>
   <i name="ENCUTGWSOFT">     -2.00000000</i>
   <i name="ENCUTLF">     -1.00000000</i>
   <i type="int" name="LMAXMP2">    -1</i>
   <i name="SCISSOR">      0.00000000</i>
   <i type="int" name="NOMEGA">     0</i>
   <i type="int" name="NOMEGAR">     0</i>
   <i type="int" name="NBANDSGW">    -1</i>
   <i type="int" name="NBANDSLF">    -1</i>
   <i type="int" name="NELM">     1</i>
   <i type="int" name="DIM">     3</i>
   <i type="int" name="ANTIRES">     0</i>
   <i type="logical" name="LUSEW"> F  </i>
   <i name="OMEGAMAX">    -30.00000000</i>
   <i name="OMEGATL">   -200.00000000</i>
   <i type="int" name="OMEGAGRID">     0</i>
   <i name="CSHIFT">     -0.10000000</i>
   <i type="logical" name="SELFENERGY"> F  </i>
   <i type="logical" name="LSPECTRAL"> F  </i>
   <i type="logical" name="ODDONLYGW"> F  </i>
   <i type="logical" name="EVENONLYGW"> F  </i>
   <i type="int" name="NKREDLFX">     1</i>
   <i type="int" name="NKREDLFY">     1</i>
   <i type="int" name="NKREDLFZ">     1</i>
   <i type="int" name="MAXMEM">  1024</i>
   <i type="int" name="TELESCOPE">     0</i>
  </separator>
 </parameters>
 <atominfo>
  <atoms>       3 </atoms>
  <types>       1 </types>
  <array name="atoms" >
   <dimension dim="1">ion</dimension>
   <field type="string">element</field>
   <field type="int">atomtype</field>
   <set>
    <rc><c>Al</c><c>   1</c></rc>
    <rc><c>Al</c><c>   1</c></rc>
    <rc><c>Al</c><c>   1</c></rc>
   </set>
  </array>
  <array name="atomtypes" >
   <dimension dim="1">type</dimension>
   <field type="int">atomspertype</field>
   <field type="string">element</field>
   <field>mass</field>
   <field>valence</field>
   <field type="string">pseudopotential</field>
   <set>
    <rc><c>   3</c><c>Al</c><c>     26.98200000</c><c>      3.00000000</c><c> PAW_GGA Al 05Jan2001                   </c></rc>
   </set>
  </array>
 </atominfo>
 <structure name="initialpos" >
  <crystal>
   <varray name="basis" >
    <v>       3.50000000       0.00000000       0.00000000 </v>
    <v>       0.00000000       3.50000000       0.00000000 </v>
    <v>       0.00000000       0.00000000       3.50000000 </v>
   </varray>
   <i name="volume">     42.87500000 </i>
   <varray name="rec_basis" >
    <v>       0.28571429       0.00000000       0.00000000 </v>
    <v>       0.00000000       0.28571429       0.00000000 </v>
    <v>       0.00000000       0.00000000       0.28571429 </v>
   </varray>
  </crystal>
  <varray name="positions" >
   <v>       0.25000000       0.25000000       0.00000000 </v>
   <v>       0.00000000       0.50000000       0.50000000 </v>
   <v>       0.50000000       0.00000000       0.50000000 </v>
  </varray>
 </structure>
 <calculation>
  <scstep>
   <time name="dav">    0.36    0.11</time>
   <time name="total">    1.06    0.63</time>
   <energy>
    <i name="alphaZ">     -0.53451638 </i>
    <i name="ewald">   -218.45845743 </i>
    <i name="hartreedc">     -2.84173880 </i>
    <i name="XCdc">    -78.34889983 </i>
    <i name="pawpsdc">    106.97730018 </i>
    <i name="pawaedc">    -10.81747568 </i>
    <i name="eentropy">     -0.05641872 </i>
    <i name="bandstr">     61.50121318 </i>
    <i name="atom">    161.07115403 </i>
    <i name="e_fr_energy">     18.49216055 </i>
    <i name="e_wo_entrp">     18.54857927 </i>
    <i name="e_0_energy">     18.51096679 </i>
   </energy>
  </scstep>
  <scstep>
   <time name="dav">    0.36    0.11</time>
   <time name="total">    0.56    0.18</time>
   <energy>
    <i name="e_fr_energy">      4.86751597 </i>
    <i name="e_wo_entrp">      4.90157527 </i>
    <i name="e_0_energy">      4.87886907 </i>
   </energy>
  </scstep>
  <scstep>
   <time name="dav">    0.53    0.13</time>
   <time name="total">    0.54    0.14</time>
   <energy>
    <i name="e_fr_energy">      4.57510482 </i>
    <i name="e_wo_entrp">      4.63791698 </i>
    <i name="e_0_energy">      4.59604220 </i>
   </energy>
  </scstep>
  <scstep>
   <time name="dav">    0.30    0.07</time>
   <time name="total">    0.31    0.08</time>
   <energy>
    <i name="e_fr_energy">      4.57479750 </i>
    <i name="e_wo_entrp">      4.63764466 </i>
    <i name="e_0_energy">      4.59574656 </i>
   </energy>
  </scstep>
  <scstep>
   <time name="dav">    0.38    0.10</time>
   <time name="total">    0.53    0.14</time>
   <energy>
    <i name="e_fr_energy">      4.57479741 </i>
    <i name="e_wo_entrp">      4.63764458 </i>
    <i name="e_0_energy">      4.59574646 </i>
   </energy>
  </scstep>
  <scstep>
   <time name="dav">    0.20    0.06</time>
   <time name="total">    0.67    0.38</time>
   <energy>
    <i name="e_fr_energy">      5.21626358 </i>
    <i name="e_wo_entrp">      5.24450545 </i>
    <i name="e_0_energy">      5.22567754 </i>
   </energy>
  </scstep>
  <scstep>
   <time name="dav">    0.19    0.06</time>
   <time name="total">    0.67    0.37</time>
   <energy>
    <i name="e_fr_energy">      5.30710380 </i>
    <i name="e_wo_entrp">      5.34292712 </i>
    <i name="e_0_energy">      5.31904490 </i>
   </energy>
  </scstep>
  <scstep>
   <time name="dav">    0.19    0.06</time>
   <time name="total">    0.70    0.38</time>
   <energy>
    <i name="e_fr_energy">      5.29114764 </i>
    <i name="e_wo_entrp">      5.32248819 </i>
    <i name="e_0_energy">      5.30159449 </i>
   </energy>
  </scstep>
  <scstep>
   <time name="dav">    0.19    0.06</time>
   <time name="total">    0.74    0.36</time>
   <energy>
    <i name="e_fr_energy">      5.28418827 </i>
    <i name="e_wo_entrp">      5.31488895 </i>
    <i name="e_0_energy">      5.29442183 </i>
   </energy>
  </scstep>
  <scstep>
   <time name="dav">    0.19    0.06</time>
   <time name="total">    0.77    0.37</time>
   <energy>
    <i name="e_fr_energy">      5.28386727 </i>
    <i name="e_wo_entrp">      5.31457974 </i>
    <i name="e_0_energy">      5.29410476 </i>
   </energy>
  </scstep>
  <scstep>
   <time name="dav">    0.12    0.04</time>
   <time name="total">    0.55    0.35</time>
   <energy>
    <i name="alphaZ">     -0.53451638 </i>
    <i name="ewald">   -218.45845743 </i>
    <i name="hartreedc">     -6.66647878 </i>
    <i name="XCdc">    -77.39157098 </i>
    <i name="pawpsdc">    118.29611815 </i>
    <i name="pawaedc">    -22.76832642 </i>
    <i name="eentropy">     -0.03077011 </i>
    <i name="bandstr">     51.76671652 </i>
    <i name="atom">    161.07115403 </i>
    <i name="e_fr_energy">      5.28386860 </i>
    <i name="e_wo_entrp">      5.31463871 </i>
    <i name="e_0_energy">      5.29412530 </i>
   </energy>
  </scstep>
  <structure>
   <crystal>
    <varray name="basis" >
     <v>       3.50000000       0.00000000       0.00000000 </v>
     <v>       0.00000000       3.50000000       0.00000000 </v>
     <v>       0.00000000       0.00000000       3.50000000 </v>
    </varray>
    <i name="volume">     42.87500000 </i>
    <varray name="rec_basis" >
     <v>       0.28571429       0.00000000       0.00000000 </v>
     <v>       0.00000000       0.28571429       0.00000000 </v>
     <v>       0.00000000       0.00000000       0.28571429 </v>
    </varray>
   </crystal>
   <varray name="positions" >
    <v>       0.25000000       0.25000000       0.00000000 </v>
    <v>       0.00000000       0.50000000       0.50000000 </v>
    <v>       0.50000000       0.00000000       0.50000000 </v>
   </varray>
  </structure>
  <varray name="forces" >
   <v>       0.00000000       0.00000000       0.00000000 </v>
   <v>      -3.15942499       3.15942499       0.00000000 </v>
   <v>       3.15942499      -3.15942499       0.00000000 </v>
  </varray>
  <varray name="stress" >
   <v>     905.84393153    -185.35065894       0.00000000 </v>
   <v>    -185.35065894     905.84393153       0.00000000 </v>
   <v>       0.00000000       0.00000000    1007.40885079 </v>
  </varray>
  <energy>
   <i name="e_fr_energy">      5.28386860 </i>
   <i name="e_wo_entrp">      5.29412530 </i>
   <i name="e_0_energy">     -0.03077011 </i>
  </energy>
  <time name="totalsc">    8.65    4.43</time>
 </calculation>
 <calculation>
  <scstep>
   <time name="dav">    0.19    0.06</time>
   <time name="total">    0.76    0.36</time>
   <energy>
    <i name="alphaZ">     -0.53451638 </i>
    <i name="ewald">   -222.31462882 </i>
    <i name="hartreedc">     -4.91930632 </i>
    <i name="XCdc">    -77.48752689 </i>
    <i name="pawpsdc">    118.27000512 </i>
    <i name="pawaedc">    -22.74098270 </i>
    <i name="eentropy">     -0.02404562 </i>
    <i name="bandstr">     53.32325371 </i>
    <i name="atom">    161.07115403 </i>
    <i name="e_fr_energy">      4.64340612 </i>
    <i name="e_wo_entrp">      4.66745175 </i>
    <i name="e_0_energy">      4.65142133 </i>
   </energy>
  </scstep>
  <scstep>
   <time name="dav">    0.19    0.06</time>
   <time name="total">    0.67    0.37</time>
   <energy>
    <i name="e_fr_energy">      4.92158798 </i>
    <i name="e_wo_entrp">      4.96864673 </i>
    <i name="e_0_energy">      4.93727423 </i>
   </energy>
  </scstep>
  <scstep>
   <time name="dav">    0.20    0.06</time>
   <time name="total">    0.67    0.38</time>
   <energy>
    <i name="e_fr_energy">      4.93888653 </i>
    <i name="e_wo_entrp">      4.98879057 </i>
    <i name="e_0_energy">      4.95552121 </i>
   </energy>
  </scstep>
  <scstep>
   <time name="dav">    0.19    0.06</time>
   <time name="total">    0.71    0.41</time>
   <energy>
    <i name="e_fr_energy">      4.93775112 </i>
    <i name="e_wo_entrp">      4.97845488 </i>
    <i name="e_0_energy">      4.95131904 </i>
   </energy>
  </scstep>
  <scstep>
   <time name="dav">    0.19    0.06</time>
   <time name="total">    0.73    0.36</time>
   <energy>
    <i name="e_fr_energy">      4.93818064 </i>
    <i name="e_wo_entrp">      4.98437945 </i>
    <i name="e_0_energy">      4.95358024 </i>
   </energy>
  </scstep>
  <scstep>
   <time name="dav">    0.19    0.06</time>
   <time name="total">    0.77    0.36</time>
   <energy>
    <i name="e_fr_energy">      4.93805554 </i>
    <i name="e_wo_entrp">      4.98337307 </i>
    <i name="e_0_energy">      4.95316139 </i>
   </energy>
  </scstep>
  <scstep>
   <time name="dav">    0.11    0.04</time>
   <time name="total">    0.55    0.31</time>
   <energy>
    <i name="alphaZ">     -0.53451638 </i>
    <i name="ewald">   -222.31462882 </i>
    <i name="hartreedc">     -4.66153436 </i>
    <i name="XCdc">    -77.53474302 </i>
    <i name="pawpsdc">    118.50013412 </i>
    <i name="pawaedc">    -22.96519950 </i>
    <i name="eentropy">     -0.04504792 </i>
    <i name="bandstr">     53.42243803 </i>
    <i name="atom">    161.07115403 </i>
    <i name="e_fr_energy">      4.93805618 </i>
    <i name="e_wo_entrp">      4.98310410 </i>
    <i name="e_0_energy">      4.95307216 </i>
   </energy>
  </scstep>
  <structure>
   <crystal>
    <varray name="basis" >
     <v>       3.50000000       0.00000000       0.00000000 </v>
     <v>       0.00000000       3.50000000       0.00000000 </v>
     <v>       0.00000000       0.00000000       3.50000000 </v>
    </varray>
    <i name="volume">     42.87500000 </i>
    <varray name="rec_basis" >
     <v>       0.28571429       0.00000000       0.00000000 </v>
     <v>       0.00000000       0.28571429       0.00000000 </v>
     <v>       0.00000000       0.00000000       0.28571429 </v>
    </varray>
   </crystal>
   <varray name="positions" >
    <v>       0.25000000       0.25000000       0.00000000 </v>
    <v>      -0.04354830       0.54354830       0.50000000 </v>
    <v>       0.54354830      -0.04354830       0.50000000 </v>
   </varray>
  </structure>
  <varray name="forces" >
   <v>       0.00000000       0.00000000       0.00000000 </v>
   <v>       2.86122585      -2.86122585       0.00000000 </v>
   <v>      -2.86122585       2.86122585       0.00000000 </v>
  </varray>
  <varray name="stress" >
   <v>    1056.90607878    -332.03429606       0.00000000 </v>
   <v>    -332.03429606    1056.90607878       0.00000000 </v>
   <v>       0.00000000       0.00000000     727.04811342 </v>
  </varray>
  <energy>
   <i name="e_fr_energy">      4.93805618 </i>
   <i name="e_wo_entrp">      4.95307216 </i>
   <i name="e_0_energy">     -0.04504792 </i>
  </energy>
  <time name="totalsc">    6.33    3.47</time>
 </calculation>
 <calculation>
  <scstep>
   <time name="dav">    0.19    0.06</time>
   <time name="total">    0.76    0.36</time>
   <energy>
    <i name="alphaZ">     -0.53451638 </i>
    <i name="ewald">   -221.26970746 </i>
    <i name="hartreedc">     -5.12732723 </i>
    <i name="XCdc">    -77.48499226 </i>
    <i name="pawpsdc">    118.50268139 </i>
    <i name="pawaedc">    -22.96777374 </i>
    <i name="eentropy">     -0.04205677 </i>
    <i name="bandstr">     52.45193112 </i>
    <i name="atom">    161.07115403 </i>
    <i name="e_fr_energy">      4.59939270 </i>
    <i name="e_wo_entrp">      4.64144947 </i>
    <i name="e_0_energy">      4.61341162 </i>
   </energy>
  </scstep>
  <scstep>
   <time name="dav">    0.20    0.06</time>
   <time name="total">    0.67    0.37</time>
   <energy>
    <i name="e_fr_energy">      4.65652996 </i>
    <i name="e_wo_entrp">      4.68882742 </i>
    <i name="e_0_energy">      4.66729578 </i>
   </energy>
  </scstep>
  <scstep>
   <time name="dav">    0.20    0.06</time>
   <time name="total">    0.67    0.41</time>
   <energy>
    <i name="e_fr_energy">      4.65831624 </i>
    <i name="e_wo_entrp">      4.69221308 </i>
    <i name="e_0_energy">      4.66961518 </i>
   </energy>
  </scstep>
  <scstep>
   <time name="dav">    0.19    0.06</time>
   <time name="total">    0.71    0.37</time>
   <energy>
    <i name="e_fr_energy">      4.65808624 </i>
    <i name="e_wo_entrp">      4.69314896 </i>
    <i name="e_0_energy">      4.66977381 </i>
   </energy>
  </scstep>
  <scstep>
   <time name="dav">    0.19    0.06</time>
   <time name="total">    0.59    0.33</time>
   <energy>
    <i name="alphaZ">     -0.53451638 </i>
    <i name="ewald">   -221.26970746 </i>
    <i name="hartreedc">     -5.29325897 </i>
    <i name="XCdc">    -77.47883468 </i>
    <i name="pawpsdc">    117.83245805 </i>
    <i name="pawaedc">    -22.27652462 </i>
    <i name="eentropy">     -0.03499980 </i>
    <i name="bandstr">     52.64223856 </i>
    <i name="atom">    161.07115403 </i>
    <i name="e_fr_energy">      4.65800873 </i>
    <i name="e_wo_entrp">      4.69300853 </i>
    <i name="e_0_energy">      4.66967533 </i>
   </energy>
  </scstep>
  <structure>
   <crystal>
    <varray name="basis" >
     <v>       3.50000000       0.00000000       0.00000000 </v>
     <v>       0.00000000       3.50000000       0.00000000 </v>
     <v>       0.00000000       0.00000000       3.50000000 </v>
    </varray>
    <i name="volume">     42.87500000 </i>
    <varray name="rec_basis" >
     <v>       0.28571429       0.00000000       0.00000000 </v>
     <v>       0.00000000       0.28571429       0.00000000 </v>
     <v>       0.00000000       0.00000000       0.28571429 </v>
    </varray>
   </crystal>
   <varray name="positions" >
    <v>       0.25000000       0.25000000       0.00000000 </v>
    <v>      -0.02285261       0.52285261       0.50000000 </v>
    <v>       0.52285261      -0.02285261       0.50000000 </v>
   </varray>
  </structure>
  <varray name="forces" >
   <v>       0.00000000       0.00000000       0.00000000 </v>
   <v>      -0.63824441       0.63824441       0.00000000 </v>
   <v>       0.63824441      -0.63824441       0.00000000 </v>
  </varray>
  <varray name="stress" >
   <v>     947.19618041    -218.81167718       0.00000000 </v>
   <v>    -218.81167718     947.19618041       0.00000000 </v>
   <v>       0.00000000       0.00000000     843.56258740 </v>
  </varray>
  <energy>
   <i name="e_fr_energy">      4.65800873 </i>
   <i name="e_wo_entrp">      4.66967533 </i>
   <i name="e_0_energy">     -0.03499980 </i>
  </energy>
  <time name="totalsc">    4.91    2.74</time>
 </calculation>
 <calculation>
  <scstep>
   <time name="dav">    0.19    0.06</time>
   <time name="total">    0.76    0.36</time>
   <energy>
    <i name="alphaZ">     -0.53451638 </i>
    <i name="ewald">   -221.57357774 </i>
    <i name="hartreedc">     -5.17093557 </i>
    <i name="XCdc">    -77.48681040 </i>
    <i name="pawpsdc">    117.84054327 </i>
    <i name="pawaedc">    -22.28486319 </i>
    <i name="eentropy">     -0.03477179 </i>
    <i name="bandstr">     52.80934659 </i>
    <i name="atom">    161.07115403 </i>
    <i name="e_fr_energy">      4.63556882 </i>
    <i name="e_wo_entrp">      4.67034061 </i>
    <i name="e_0_energy">      4.64715942 </i>
   </energy>
  </scstep>
  <scstep>
   <time name="dav">    0.20    0.06</time>
   <time name="total">    0.67    0.37</time>
   <energy>
    <i name="e_fr_energy">      4.63783801 </i>
    <i name="e_wo_entrp">      4.67491346 </i>
    <i name="e_0_energy">      4.65019649 </i>
   </energy>
  </scstep>
  <scstep>
   <time name="dav">    0.19    0.06</time>
   <time name="total">    0.53    0.33</time>
   <energy>
    <i name="alphaZ">     -0.53451638 </i>
    <i name="ewald">   -221.57357774 </i>
    <i name="hartreedc">     -5.13441993 </i>
    <i name="XCdc">    -77.48990145 </i>
    <i name="pawpsdc">    117.89928599 </i>
    <i name="pawaedc">    -22.34501033 </i>
    <i name="eentropy">     -0.03676603 </i>
    <i name="bandstr">     52.78166573 </i>
    <i name="atom">    161.07115403 </i>
    <i name="e_fr_energy">      4.63791389 </i>
    <i name="e_wo_entrp">      4.67467993 </i>
    <i name="e_0_energy">      4.65016924 </i>
   </energy>
  </scstep>
  <structure>
   <crystal>
    <varray name="basis" >
     <v>       3.50000000       0.00000000       0.00000000 </v>
     <v>       0.00000000       3.50000000       0.00000000 </v>
     <v>       0.00000000       0.00000000       3.50000000 </v>
    </varray>
    <i name="volume">     42.87500000 </i>
    <varray name="rec_basis" >
     <v>       0.28571429       0.00000000       0.00000000 </v>
     <v>       0.00000000       0.28571429       0.00000000 </v>
     <v>       0.00000000       0.00000000       0.28571429 </v>
    </varray>
   </crystal>
   <varray name="positions" >
    <v>       0.25000000       0.25000000       0.00000000 </v>
    <v>      -0.02662715       0.52662715       0.50000000 </v>
    <v>       0.52662715      -0.02662715       0.50000000 </v>
   </varray>
  </structure>
  <varray name="forces" >
   <v>       0.00000000       0.00000000       0.00000000 </v>
   <v>      -0.11579686       0.11579686       0.00000000 </v>
   <v>       0.11579686      -0.11579686       0.00000000 </v>
  </varray>
  <varray name="stress" >
   <v>     961.78125048    -233.13622350       0.00000000 </v>
   <v>    -233.13622350     961.78125048       0.00000000 </v>
   <v>       0.00000000       0.00000000     819.61780104 </v>
  </varray>
  <energy>
   <i name="e_fr_energy">      4.63791389 </i>
   <i name="e_wo_entrp">      4.65016924 </i>
   <i name="e_0_energy">     -0.03676603 </i>
  </energy>
  <time name="totalsc">    3.36    1.98</time>
 </calculation>
 <calculation>
  <scstep>
   <time name="dav">    0.19    0.06</time>
   <time name="total">    0.77    0.36</time>
   <energy>
    <i name="alphaZ">     -0.53451638 </i>
    <i name="ewald">   -221.63440163 </i>
    <i name="hartreedc">     -5.11070515 </i>
    <i name="XCdc">    -77.49184511 </i>
    <i name="pawpsdc">    117.89227533 </i>
    <i name="pawaedc">    -22.33750062 </i>
    <i name="eentropy">     -0.03655915 </i>
    <i name="bandstr">     52.81920632 </i>
    <i name="atom">    161.07115403 </i>
    <i name="e_fr_energy">      4.63710764 </i>
    <i name="e_wo_entrp">      4.67366679 </i>
    <i name="e_0_energy">      4.64929403 </i>
   </energy>
  </scstep>
  <scstep>
   <time name="dav">    0.20    0.06</time>
   <time name="total">    0.67    0.37</time>
   <energy>
    <i name="e_fr_energy">      4.63721586 </i>
    <i name="e_wo_entrp">      4.67433987 </i>
    <i name="e_0_energy">      4.64959053 </i>
   </energy>
  </scstep>
  <scstep>
   <time name="dav">    0.12    0.04</time>
   <time name="total">    0.45    0.31</time>
   <energy>
    <i name="alphaZ">     -0.53451638 </i>
    <i name="ewald">   -221.63440163 </i>
    <i name="hartreedc">     -5.10349909 </i>
    <i name="XCdc">    -77.49250548 </i>
    <i name="pawpsdc">    117.90303184 </i>
    <i name="pawaedc">    -22.34837527 </i>
    <i name="eentropy">     -0.03702334 </i>
    <i name="bandstr">     52.81335251 </i>
    <i name="atom">    161.07115403 </i>
    <i name="e_fr_energy">      4.63721721 </i>
    <i name="e_wo_entrp">      4.67424055 </i>
    <i name="e_0_energy">      4.64955832 </i>
   </energy>
  </scstep>
  <structure>
   <crystal>
    <varray name="basis" >
     <v>       3.50000000       0.00000000       0.00000000 </v>
     <v>       0.00000000       3.50000000       0.00000000 </v>
     <v>       0.00000000       0.00000000       3.50000000 </v>
    </varray>
    <i name="volume">     42.87500000 </i>
    <varray name="rec_basis" >
     <v>       0.28571429       0.00000000       0.00000000 </v>
     <v>       0.00000000       0.28571429       0.00000000 </v>
     <v>       0.00000000       0.00000000       0.28571429 </v>
    </varray>
   </crystal>
   <varray name="positions" >
    <v>       0.25000000       0.25000000       0.00000000 </v>
    <v>      -0.02746376       0.52746376       0.50000000 </v>
    <v>       0.52746376      -0.02746376       0.50000000 </v>
   </varray>
  </structure>
  <varray name="forces" >
   <v>       0.00000000       0.00000000       0.00000000 </v>
   <v>       0.00121075      -0.00121075       0.00000000 </v>
   <v>      -0.00121075       0.00121075       0.00000000 </v>
  </varray>
  <varray name="stress" >
   <v>     964.88328823    -237.11876843       0.00000000 </v>
   <v>    -237.11876843     964.88328823       0.00000000 </v>
   <v>       0.00000000       0.00000000     815.04618030 </v>
  </varray>
  <energy>
   <i name="e_fr_energy">      4.63721721 </i>
   <i name="e_wo_entrp">      4.64955832 </i>
   <i name="e_0_energy">     -0.03702334 </i>
  </energy>
  <time name="totalsc">    3.24    1.96</time>
  <eigenvalues>
   <array>
    <dimension dim="1">band</dimension>
    <dimension dim="2">kpoint</dimension>
    <dimension dim="3">spin</dimension>
    <field>eigene</field>
    <field>occ</field>
    <set>
     <set comment="spin 1">
      <set comment="kpoint 1">
       <r>   -2.6674    1.0000 </r>
       <r>    7.7532    1.0000 </r>
       <r>    8.2015    1.0000 </r>
       <r>    8.6831    1.0210 </r>
       <r>    8.8809    0.4791 </r>
       <r>    9.4673   -0.0001 </r>
       <r>   10.0808    0.0000 </r>
       <r>   16.8285    0.0000 </r>
      </set>
     </set>
    </set>
   </array>
  </eigenvalues>
  <separator name="orbital magnetization" >
   <v name="MAGDIPOLOUT">      0.00000000      0.00000000      0.00000000</v>
  </separator>
 </calculation>
 <structure name="finalpos" >
  <crystal>
   <varray name="basis" >
    <v>       3.50000000       0.00000000       0.00000000 </v>
    <v>       0.00000000       3.50000000       0.00000000 </v>
    <v>       0.00000000       0.00000000       3.50000000 </v>
   </varray>
   <i name="volume">     42.87500000 </i>
   <varray name="rec_basis" >
    <v>       0.28571429       0.00000000       0.00000000 </v>
    <v>       0.00000000       0.28571429       0.00000000 </v>
    <v>       0.00000000       0.00000000       0.28571429 </v>
   </varray>
  </crystal>
  <varray name="positions" >
   <v>       0.25000000       0.25000000       0.00000000 </v>
   <v>      -0.02746376       0.52746376       0.50000000 </v>
   <v>       0.52746376      -0.02746376       0.50000000 </v>
  </varray>
 </structure>
</modeling>
