Disk quotas for user tam (uid 511): none
Processors received = 1
script running on host korczak.msae.wisc.edu
PBS_NODEFILE
korczak.local
 running on    1 nodes
 distr:  one band on    1 nodes,    1 groups
 vasp.5.2.2 15Apr09 complex 
 POSCAR found type information on POSCAR  Al
 POSCAR found :  1 types and   31 ions

 ----------------------------------------------------------------------------- 
|                                                                             |
|  ADVICE TO THIS USER RUNNING 'VASP/VAMP'   (HEAR YOUR MASTER'S VOICE ...):  |
|                                                                             |
|      You have a (more or less) 'large supercell' and for larger cells       |
|      it might be more efficient to use real space projection operators      |
|      So try LREAL= Auto  in the INCAR   file.                               |
|      Mind: If you want to do a very accurate calculations keep the          |
|      reciprocal projection scheme          (i.e. LREAL=.FALSE.)             |
|                                                                             |
 ----------------------------------------------------------------------------- 

 LDA part: xc-table for Pade appr. of Perdew
 POSCAR, INCAR and KPOINTS ok, starting setup
 FFT: planning ...(           4 )
 reading WAVECAR
 entering main loop
       N       E                     dE             d eps       ncg     rms          rms(c)
RMM:   1     0.311688326862E+03    0.31169E+03   -0.17061E+04    62   0.648E+02
RMM:   2    -0.356291379146E+01   -0.31525E+03   -0.31016E+03    62   0.139E+02
RMM:   3    -0.679550684455E+02   -0.64392E+02   -0.68353E+02    62   0.458E+01
RMM:   4    -0.852572450049E+02   -0.17302E+02   -0.16056E+02    62   0.264E+01
RMM:   5    -0.927864620116E+02   -0.75292E+01   -0.60676E+01    62   0.148E+01
RMM:   6    -0.963207201882E+02   -0.35343E+01   -0.29710E+01    62   0.946E+00
RMM:   7    -0.982392320670E+02   -0.19185E+01   -0.16919E+01    62   0.632E+00
RMM:   8    -0.993245038094E+02   -0.10853E+01   -0.99756E+00    62   0.450E+00
RMM:   9    -0.100798031549E+03   -0.14735E+01   -0.14319E+01   160   0.319E+00
RMM:  10    -0.100964559500E+03   -0.16653E+00   -0.12197E+00   141   0.619E-01
RMM:  11    -0.100976674275E+03   -0.12115E-01   -0.70857E-02   116   0.128E-01
RMM:  12    -0.100977415028E+03   -0.74075E-03   -0.62282E-03    96   0.414E-02    0.651E+00
RMM:  13    -0.998848877383E+02    0.10925E+01   -0.39522E+00   127   0.248E+00    0.388E+00
RMM:  14    -0.996233416490E+02    0.26155E+00   -0.29761E-01   128   0.103E+00    0.220E+00
RMM:  15    -0.995103389566E+02    0.11300E+00   -0.11050E-01   127   0.748E-01    0.487E-01
RMM:  16    -0.995031305699E+02    0.72084E-02   -0.16095E-02   130   0.224E-01    0.136E-01
RMM:  17    -0.995025448840E+02    0.58569E-03   -0.47532E-03   131   0.114E-01    0.473E-02
RMM:  18    -0.995025310643E+02    0.13820E-04   -0.11625E-03   116   0.531E-02    0.206E-02
RMM:  19    -0.995025152506E+02    0.15814E-04   -0.13274E-04    82   0.241E-02
   1 F= -.99502515E+02 E0= -.99452178E+02  d E =-.995025E+02
 curvature:   0.00 expect dE= 0.000E+00 dE for cont linesearch  0.000E+00
 trial: gam= 0.00000 g(F)=  0.394E-01 g(S)=  0.000E+00 ort = 0.000E+00 (trialstep = 0.100E+01)
 search vector abs. value=  0.394E-01
 bond charge predicted
       N       E                     dE             d eps       ncg     rms          rms(c)
RMM:   1    -0.995474978688E+02   -0.44967E-01   -0.31739E-01   124   0.148E+00    0.257E-01
RMM:   2    -0.995419372218E+02    0.55606E-02   -0.16129E-02   124   0.261E-01    0.711E-02
RMM:   3    -0.995416550970E+02    0.28212E-03   -0.15340E-03   116   0.753E-02    0.315E-02
RMM:   4    -0.995416427367E+02    0.12360E-04   -0.11569E-04    79   0.245E-02
   2 F= -.99541643E+02 E0= -.99502772E+02  d E =-.391275E-01
 ZBRENT: can't locate minimum, use default step
 trial-energy change:   -0.039127  1 .order   -0.038974   -0.039424   -0.038524
 step:   4.0000(harm= 43.8077)  dis= 0.03555  next Energy=  -100.366059 (dE=-0.864E+00)
 bond charge predicted
       N       E                     dE             d eps       ncg     rms          rms(c)
RMM:   1    -0.996690022737E+02   -0.12735E+00   -0.28482E+00   124   0.441E+00    0.489E-01
RMM:   2    -0.996473725015E+02    0.21630E-01   -0.10597E-01   132   0.668E-01    0.238E-01
RMM:   3    -0.996445908499E+02    0.27817E-02   -0.61594E-02   127   0.367E-01    0.129E-01
RMM:   4    -0.996423283700E+02    0.22625E-02   -0.68474E-03   123   0.128E-01    0.519E-02
RMM:   5    -0.996424413703E+02   -0.11300E-03   -0.16572E-03   114   0.485E-02    0.364E-02
RMM:   6    -0.996423544569E+02    0.86913E-04   -0.54441E-04   100   0.329E-02
   3 F= -.99642354E+02 E0= -.99630824E+02  d E =-.139839E+00
 curvature:  -2.96 expect dE=-0.500E-01 dE for cont linesearch -0.500E-01
 trial: gam=-0.22624 g(F)=  0.169E-01 g(S)=  0.000E+00 ort = 0.258E-01 (trialstep = 0.160E+01)
 search vector abs. value=  0.722E-02
 bond charge predicted
       N       E                     dE             d eps       ncg     rms          rms(c)
RMM:   1    -0.996590156835E+02   -0.16574E-01   -0.14834E-01   124   0.101E+00    0.901E-02
RMM:   2    -0.996584570368E+02    0.55865E-03   -0.52538E-03   130   0.145E-01    0.472E-02
RMM:   3    -0.996584063738E+02    0.50663E-04   -0.33752E-03   121   0.832E-02    0.321E-02
RMM:   4    -0.996582515543E+02    0.15482E-03   -0.54884E-04   102   0.346E-02    0.101E-02
RMM:   5    -0.996582551497E+02   -0.35954E-05   -0.37561E-05    63   0.125E-02
   4 F= -.99658255E+02 E0= -.99649954E+02  d E =-.159007E-01
 ZBRENT: can't locate minimum, use default step
 trial-energy change:   -0.015901  1 .order   -0.015827   -0.017654   -0.014001
 step:   6.4000(harm=  7.7322)  dis= 0.02432  next Energy=   -99.685011 (dE=-0.427E-01)
 bond charge predicted
       N       E                     dE             d eps       ncg     rms          rms(c)
RMM:   1    -0.996845444355E+02   -0.26293E-01   -0.13266E+00   124   0.302E+00    0.228E-01
RMM:   2    -0.996828926202E+02    0.16518E-02   -0.49121E-02   131   0.427E-01    0.139E-01
RMM:   3    -0.996814984396E+02    0.13942E-02   -0.19024E-02   127   0.212E-01    0.614E-02
RMM:   4    -0.996811974896E+02    0.30095E-03   -0.38791E-03   121   0.868E-02    0.446E-02
RMM:   5    -0.996810589042E+02    0.13859E-03   -0.75856E-04   114   0.449E-02    0.126E-02
RMM:   6    -0.996810650632E+02   -0.61590E-05   -0.29854E-05    57   0.125E-02
   5 F= -.99681065E+02 E0= -.99673076E+02  d E =-.387106E-01
 curvature:  -2.41 expect dE=-0.167E-01 dE for cont linesearch -0.402E-04
 trial: gam= 0.37828 g(F)=  0.694E-02 g(S)=  0.000E+00 ort = 0.347E-03 (trialstep = 0.224E+01)
 search vector abs. value=  0.824E-02
 reached required accuracy - stopping structural energy minimisation
