  31  31   0   0
  0.1706119E+02  0.8087054E-09  0.8087054E-09  0.8087054E-09  0.5000000E-15
  1.000000000000000E-004
  CAR 
 unknown system                          
     11.20216272     -5.39997745  301      7.87143069      1.00000000
     -5.400  0.0000E+00  0.0000E+00
     -5.345  0.0000E+00  0.0000E+00
     -5.289  0.0000E+00  0.0000E+00
     -5.234  0.0000E+00  0.0000E+00
     -5.179  0.0000E+00  0.0000E+00
     -5.123  0.0000E+00  0.0000E+00
     -5.068  0.0000E+00  0.0000E+00
     -5.013 -0.2506E-28 -0.1387E-29
     -4.957 -0.1918E-26 -0.1075E-27
     -4.902 -0.1271E-24 -0.7143E-26
     -4.847 -0.7218E-23 -0.4066E-24
     -4.791 -0.3510E-21 -0.1983E-22
     -4.736 -0.1461E-19 -0.8286E-21
     -4.681 -0.5209E-18 -0.2966E-19
     -4.625 -0.1589E-16 -0.9090E-18
     -4.570 -0.4041E-15 -0.2327E-16
     -4.515 -0.8960E-14 -0.5191E-15
     -4.459 -0.1703E-12 -0.9946E-14
     -4.404 -0.2766E-11 -0.1630E-12
     -4.349 -0.3832E-10 -0.2283E-11
     -4.293 -0.4526E-09 -0.2733E-10
     -4.238 -0.4552E-08 -0.2792E-09
     -4.182 -0.3893E-07 -0.2433E-08
     -4.127 -0.2825E-06 -0.1807E-07
     -4.072 -0.1736E-05 -0.1141E-06
     -4.016 -0.9000E-05 -0.6122E-06
     -3.961 -0.3917E-04 -0.2780E-05
     -3.906 -0.1420E-03 -0.1064E-04
     -3.850 -0.4239E-03 -0.3410E-04
     -3.795 -0.1019E-02 -0.9050E-04
     -3.740 -0.1883E-02 -0.1947E-03
     -3.684 -0.2334E-02 -0.3239E-03
     -3.629 -0.6531E-03 -0.3600E-03
     -3.574  0.5442E-02 -0.5885E-04
     -3.518  0.1687E-01  0.8749E-03
     -3.463  0.3097E-01  0.2589E-02
     -3.408  0.4163E-01  0.4893E-02
     -3.352  0.4313E-01  0.7280E-02
     -3.297  0.3460E-01  0.9194E-02
     -3.242  0.2077E-01  0.1034E-01
     -3.186  0.8139E-02  0.1079E-01
     -3.131  0.5213E-03  0.1082E-01
     -3.076 -0.2177E-02  0.1070E-01
     -3.020 -0.2104E-02  0.1059E-01
     -2.965 -0.1247E-02  0.1052E-01
     -2.910 -0.5546E-03  0.1049E-01
     -2.854 -0.1968E-03  0.1048E-01
     -2.799 -0.5723E-04  0.1047E-01
     -2.744 -0.1383E-04  0.1047E-01
     -2.688 -0.2800E-05  0.1047E-01
     -2.633 -0.4776E-06  0.1047E-01
     -2.578 -0.6892E-07  0.1047E-01
     -2.522 -0.8436E-08  0.1047E-01
     -2.467 -0.8775E-09  0.1047E-01
     -2.412 -0.7774E-10  0.1047E-01
     -2.356 -0.6471E-11  0.1047E-01
     -2.301 -0.9927E-11  0.1047E-01
     -2.246 -0.1284E-09  0.1047E-01
     -2.190 -0.1472E-08  0.1047E-01
     -2.135 -0.1438E-07  0.1047E-01
     -2.080 -0.1196E-06  0.1047E-01
     -2.024 -0.8456E-06  0.1047E-01
     -1.969 -0.5072E-05  0.1047E-01
     -1.914 -0.2574E-04  0.1047E-01
     -1.858 -0.1102E-03  0.1046E-01
     -1.803 -0.3957E-03  0.1044E-01
     -1.748 -0.1182E-02  0.1038E-01
     -1.692 -0.2892E-02  0.1022E-01
     -1.637 -0.5618E-02  0.9905E-02
     -1.581 -0.7989E-02  0.9463E-02
     -1.526 -0.5804E-02  0.9142E-02
     -1.471  0.7920E-02  0.9580E-02
     -1.415  0.3958E-01  0.1177E-01
     -1.360  0.8883E-01  0.1669E-01
     -1.305  0.1440E+00  0.2465E-01
     -1.249  0.1846E+00  0.3487E-01
     -1.194  0.1922E+00  0.4550E-01
     -1.139  0.1624E+00  0.5449E-01
     -1.083  0.1085E+00  0.6050E-01
     -1.028  0.5266E-01  0.6341E-01
     -0.973  0.1233E-01  0.6409E-01
     -0.917 -0.7149E-02  0.6370E-01
     -0.862 -0.9657E-02  0.6316E-01
     -0.807 -0.1188E-02  0.6310E-01
     -0.751  0.1354E-01  0.6385E-01
     -0.696  0.2974E-01  0.6549E-01
     -0.641  0.4126E-01  0.6778E-01
     -0.585  0.4292E-01  0.7015E-01
     -0.530  0.3433E-01  0.7205E-01
     -0.475  0.2050E-01  0.7318E-01
     -0.419  0.7945E-02  0.7362E-01
     -0.364  0.4309E-03  0.7365E-01
     -0.309 -0.2194E-02  0.7353E-01
     -0.253 -0.2091E-02  0.7341E-01
     -0.198 -0.1231E-02  0.7334E-01
     -0.143 -0.5450E-03  0.7331E-01
     -0.087 -0.1927E-03  0.7330E-01
     -0.032 -0.5583E-04  0.7330E-01
      0.023 -0.1347E-04  0.7330E-01
      0.079 -0.2940E-05  0.7330E-01
      0.134 -0.2033E-05  0.7330E-01
      0.189 -0.9294E-05  0.7330E-01
      0.245 -0.4582E-04  0.7330E-01
      0.300 -0.1916E-03  0.7328E-01
      0.355 -0.6716E-03  0.7325E-01
      0.411 -0.1955E-02  0.7314E-01
      0.466 -0.4653E-02  0.7288E-01
      0.521 -0.8762E-02  0.7240E-01
      0.577 -0.1195E-01  0.7174E-01
      0.632 -0.7696E-02  0.7131E-01
      0.687  0.1424E-01  0.7210E-01
      0.743  0.6284E-01  0.7558E-01
      0.798  0.1373E+00  0.8317E-01
      0.853  0.2209E+00  0.9540E-01
      0.909  0.2840E+00  0.1111E+00
      0.964  0.2982E+00  0.1276E+00
      1.020  0.2553E+00  0.1417E+00
      1.075  0.1756E+00  0.1515E+00
      1.130  0.9907E-01  0.1570E+00
      1.186  0.6001E-01  0.1603E+00
      1.241  0.6644E-01  0.1639E+00
      1.296  0.9727E-01  0.1693E+00
      1.352  0.1199E+00  0.1760E+00
      1.407  0.1136E+00  0.1823E+00
      1.462  0.8112E-01  0.1867E+00
      1.518  0.4099E-01  0.1890E+00
      1.573  0.1059E-01  0.1896E+00
      1.628 -0.4220E-02  0.1894E+00
      1.684 -0.7555E-02  0.1889E+00
      1.739 -0.6258E-02  0.1886E+00
      1.794 -0.4625E-02  0.1883E+00
      1.850 -0.3253E-02  0.1882E+00
      1.905 -0.1392E-03  0.1882E+00
      1.960  0.7327E-02  0.1886E+00
      2.016  0.1974E-01  0.1897E+00
      2.071  0.3371E-01  0.1915E+00
      2.126  0.4283E-01  0.1939E+00
      2.182  0.4209E-01  0.1962E+00
      2.237  0.3192E-01  0.1980E+00
      2.292  0.1784E-01  0.1990E+00
      2.348  0.6084E-02  0.1993E+00
      2.403 -0.4008E-03  0.1993E+00
      2.458 -0.2357E-02  0.1992E+00
      2.514 -0.2103E-02  0.1990E+00
      2.569 -0.1545E-02  0.1990E+00
      2.624 -0.1565E-02  0.1989E+00
      2.680 -0.2184E-02  0.1987E+00
      2.735 -0.2609E-02  0.1986E+00
      2.790 -0.1228E-02  0.1985E+00
      2.846  0.3606E-02  0.1987E+00
      2.901  0.1179E-01  0.1994E+00
      2.956  0.2073E-01  0.2005E+00
      3.012  0.2865E-01  0.2021E+00
      3.067  0.4081E-01  0.2044E+00
      3.122  0.7029E-01  0.2083E+00
      3.178  0.1264E+00  0.2153E+00
      3.233  0.1978E+00  0.2262E+00
      3.288  0.2513E+00  0.2401E+00
      3.344  0.2536E+00  0.2541E+00
      3.399  0.1999E+00  0.2652E+00
      3.454  0.1180E+00  0.2717E+00
      3.510  0.4488E-01  0.2742E+00
      3.565  0.1655E-02  0.2743E+00
      3.621 -0.1314E-01  0.2736E+00
      3.676 -0.1228E-01  0.2729E+00
      3.731 -0.7226E-02  0.2725E+00
      3.787 -0.3348E-02  0.2723E+00
      3.842 -0.1636E-02  0.2722E+00
      3.897 -0.1509E-02  0.2721E+00
      3.953 -0.2128E-02  0.2720E+00
      4.008 -0.2253E-02  0.2719E+00
      4.063  0.1719E-03  0.2719E+00
      4.119  0.7385E-02  0.2723E+00
      4.174  0.1972E-01  0.2734E+00
      4.229  0.3366E-01  0.2753E+00
      4.285  0.4276E-01  0.2776E+00
      4.340  0.4189E-01  0.2800E+00
      4.395  0.3123E-01  0.2817E+00
      4.451  0.1590E-01  0.2826E+00
      4.506  0.1873E-02  0.2827E+00
      4.561 -0.7059E-02  0.2823E+00
      4.617 -0.8162E-02  0.2818E+00
      4.672  0.2700E-02  0.2820E+00
      4.727  0.2959E-01  0.2836E+00
      4.783  0.7003E-01  0.2875E+00
      4.838  0.1104E+00  0.2936E+00
      4.893  0.1310E+00  0.3009E+00
      4.949  0.1205E+00  0.3075E+00
      5.004  0.8499E-01  0.3122E+00
      5.059  0.4303E-01  0.3146E+00
      5.115  0.1157E-01  0.3152E+00
      5.170 -0.3745E-02  0.3150E+00
      5.225 -0.7036E-02  0.3146E+00
      5.281 -0.5148E-02  0.3144E+00
      5.336 -0.2634E-02  0.3142E+00
      5.391 -0.1049E-02  0.3142E+00
      5.447 -0.3405E-03  0.3141E+00
      5.502 -0.1030E-03  0.3141E+00
      5.557 -0.7890E-04  0.3141E+00
      5.613 -0.2256E-03  0.3141E+00
      5.668 -0.6906E-03  0.3141E+00
      5.723 -0.1738E-02  0.3140E+00
      5.779 -0.3410E-02  0.3138E+00
      5.834 -0.4693E-02  0.3135E+00
      5.889 -0.2589E-02  0.3134E+00
      5.945  0.7423E-02  0.3138E+00
      6.000  0.2806E-01  0.3154E+00
      6.055  0.5551E-01  0.3184E+00
      6.111  0.7844E-01  0.3228E+00
      6.166  0.8461E-01  0.3275E+00
      6.222  0.7071E-01  0.3314E+00
      6.277  0.4578E-01  0.3339E+00
      6.332  0.2419E-01  0.3352E+00
      6.388  0.1584E-01  0.3361E+00
      6.443  0.2406E-01  0.3374E+00
      6.498  0.5117E-01  0.3403E+00
      6.554  0.1005E+00  0.3458E+00
      6.609  0.1674E+00  0.3551E+00
      6.664  0.2298E+00  0.3678E+00
      6.720  0.2561E+00  0.3820E+00
      6.775  0.2313E+00  0.3948E+00
      6.830  0.1740E+00  0.4044E+00
      6.886  0.1230E+00  0.4112E+00
      6.941  0.1034E+00  0.4170E+00
      6.996  0.1080E+00  0.4229E+00
      7.052  0.1105E+00  0.4290E+00
      7.107  0.9490E-01  0.4343E+00
      7.162  0.7015E-01  0.4382E+00
      7.218  0.5874E-01  0.4414E+00
      7.273  0.7295E-01  0.4455E+00
      7.328  0.1027E+00  0.4512E+00
      7.384  0.1252E+00  0.4581E+00
      7.439  0.1247E+00  0.4650E+00
      7.494  0.1035E+00  0.4707E+00
      7.550  0.7490E-01  0.4748E+00
      7.605  0.4942E-01  0.4776E+00
      7.660  0.2997E-01  0.4792E+00
      7.716  0.1822E-01  0.4803E+00
      7.771  0.1992E-01  0.4814E+00
      7.826  0.4073E-01  0.4836E+00
      7.882  0.7707E-01  0.4879E+00
      7.937  0.1140E+00  0.4942E+00
      7.992  0.1355E+00  0.5017E+00
      8.048  0.1367E+00  0.5092E+00
      8.103  0.1252E+00  0.5162E+00
      8.158  0.1100E+00  0.5223E+00
      8.214  0.9218E-01  0.5274E+00
      8.269  0.6820E-01  0.5311E+00
      8.324  0.3814E-01  0.5332E+00
      8.380  0.7993E-02  0.5337E+00
      8.435 -0.1403E-01  0.5329E+00
      8.490 -0.1908E-01  0.5319E+00
      8.546  0.4340E-02  0.5321E+00
      8.601  0.6741E-01  0.5358E+00
      8.657  0.1683E+00  0.5451E+00
      8.712  0.2797E+00  0.5606E+00
      8.767  0.3551E+00  0.5803E+00
      8.823  0.3565E+00  0.6000E+00
      8.878  0.2838E+00  0.6157E+00
      8.933  0.1761E+00  0.6255E+00
      8.989  0.8473E-01  0.6301E+00
      9.044  0.4045E-01  0.6324E+00
      9.099  0.4085E-01  0.6346E+00
      9.155  0.6094E-01  0.6380E+00
      9.210  0.7407E-01  0.6421E+00
      9.265  0.6777E-01  0.6459E+00
      9.321  0.4628E-01  0.6484E+00
      9.376  0.2199E-01  0.6496E+00
      9.431  0.4747E-02  0.6499E+00
      9.487 -0.3017E-02  0.6497E+00
      9.542 -0.4257E-02  0.6495E+00
      9.597 -0.2932E-02  0.6493E+00
      9.653 -0.1459E-02  0.6493E+00
      9.708 -0.5725E-03  0.6492E+00
      9.763 -0.1833E-03  0.6492E+00
      9.819 -0.4871E-04  0.6492E+00
      9.874 -0.1085E-04  0.6492E+00
      9.929 -0.2039E-05  0.6492E+00
      9.985 -0.3246E-06  0.6492E+00
     10.040 -0.4387E-07  0.6492E+00
     10.095 -0.5047E-08  0.6492E+00
     10.151 -0.4947E-09  0.6492E+00
     10.206 -0.4138E-10  0.6492E+00
     10.261 -0.2955E-11  0.6492E+00
     10.317 -0.1803E-12  0.6492E+00
     10.372 -0.9495E-14  0.6492E+00
     10.427 -0.4201E-15  0.6492E+00
     10.483  0.0000E+00  0.6492E+00
     10.538  0.0000E+00  0.6492E+00
     10.593  0.0000E+00  0.6492E+00
     10.649  0.0000E+00  0.6492E+00
     10.704  0.0000E+00  0.6492E+00
     10.759  0.0000E+00  0.6492E+00
     10.815  0.0000E+00  0.6492E+00
     10.870  0.0000E+00  0.6492E+00
     10.925  0.0000E+00  0.6492E+00
     10.981  0.0000E+00  0.6492E+00
     11.036  0.0000E+00  0.6492E+00
     11.091  0.0000E+00  0.6492E+00
     11.147  0.0000E+00  0.6492E+00
     11.202  0.0000E+00  0.6492E+00
