   31   31  191    1
  0.1706119E+02  0.8087054E-09  0.8087054E-09  0.8087054E-09  0.5000000E-15
  1.000000000000000E-004
  CAR 
 unknown system                          
   93    1   62
 
  0.0000000E+00  0.0000000E+00  0.0000000E+00  0.1000000E+01
   1       -3.399977
   2       -1.308162
   3       -1.308162
   4       -1.196738
   5       -1.196738
   6       -1.196738
   7       -0.633986
   8        0.843550
   9        0.843550
  10        0.843550
  11        0.959169
  12        0.959170
  13        0.970454
  14        0.970454
  15        0.970454
  16        1.331634
  17        1.331634
  18        1.331634
  19        2.122516
  20        3.013935
  21        3.281442
  22        3.281442
  23        3.281442
  24        3.303592
  25        3.303592
  26        3.303592
  27        4.280944
  28        4.875042
  29        4.875042
  30        4.875042
  31        6.129850
  32        6.129851
  33        6.470475
  34        6.685000
  35        6.685000
  36        6.685000
  37        6.711788
  38        6.711788
  39        6.711789
  40        7.015322
  41        7.015323
  42        7.015323
  43        7.364848
  44        7.364848
  45        7.364848
  46        7.592922
  47        7.957095
  48        7.957095
  49        7.957095
  50        8.182331
  51        8.182331
  52        8.704558
  53        8.712774
  54        8.762041
  55        8.762051
  56        8.762548
  57        8.766223
  58        8.794635
  59        8.828585
  60        8.828702
  61        9.148893
  62        9.202163
