<?xml version="1.0" encoding="ISO-8859-1"?>
<modeling>
 <generator>
  <i name="program" type="string">vasp </i>
  <i name="version" type="string">5.2.2  </i>
  <i name="subversion" type="string">15Apr09 complex  parallel </i>
  <i name="platform" type="string">LinuxIFC </i>
  <i name="date" type="string">2014 04 24 </i>
  <i name="time" type="string">09:35:20 </i>
 </generator>
 <incar>
  <i type="string" name="PREC">accurate</i>
  <i type="int" name="IALGO">    48</i>
  <i type="int" name="IBRION">     2</i>
  <i name="EDIFFG">      0.05000000</i>
  <i type="int" name="NSW">   191</i>
  <i type="int" name="ISIF">     2</i>
  <i name="ENCUT">    300.00000000</i>
  <i name="NELECT">     93.00000000</i>
  <i type="int" name="ISMEAR">     1</i>
  <i name="SIGMA">      0.20000000</i>
  <i type="logical" name="LWAVE"> F  </i>
  <i type="logical" name="LCHARG"> F  </i>
  <i type="logical" name="LPEAD"> F  </i>
  <i type="logical" name="LCALCPOL"> F  </i>
  <i type="logical" name="LCALCEPS"> F  </i>
  <v name="EFIELD_PEAD">      0.00000000      0.00000000      0.00000000</v>
  <i type="logical" name="LEFG"> F  </i>
 </incar>
 <kpoints>
  <generation param="Gamma">
   <v type="int" name="divisions">       1        1        1 </v>
   <v name="usershift">      0.00000000       0.00000000       0.00000000 </v>
   <v name="genvec1">      1.00000000       0.00000000       0.00000000 </v>
   <v name="genvec2">      0.00000000       1.00000000       0.00000000 </v>
   <v name="genvec3">      0.00000000       0.00000000       1.00000000 </v>
   <v name="shift">      0.00000000       0.00000000       0.00000000 </v>
  </generation>
  <varray name="kpointlist" >
   <v>       0.00000000       0.00000000       0.00000000 </v>
  </varray>
  <varray name="weights" >
   <v>       1.00000000 </v>
  </varray>
 </kpoints>
 <parameters>
  <separator name="general" >
   <i type="string" name="SYSTEM">unknown system</i>
   <i type="logical" name="LCOMPAT"> F  </i>
  </separator>
  <separator name="electronic" >
   <i type="string" name="PREC">accura</i>
   <i name="ENMAX">    300.00000000</i>
   <i name="ENAUG">    291.05200000</i>
   <i name="EDIFF">      0.00010000</i>
   <i type="int" name="IALGO">    48</i>
   <i type="int" name="IWAVPR">    11</i>
   <i type="int" name="NBANDS">    62</i>
   <i name="NELECT">     93.00000000</i>
   <separator name="electronic smearing" >
    <i type="int" name="ISMEAR">     1</i>
    <i name="SIGMA">      0.20000000</i>
   </separator>
   <separator name="electronic projectors" >
    <i type="logical" name="LREAL"> F  </i>
    <v name="ROPT">      0.00000000</v>
    <i type="int" name="LMAXPAW">  -100</i>
    <i type="int" name="LMAXMIX">     2</i>
   </separator>
   <separator name="electronic startup" >
    <i type="int" name="ISTART">     0</i>
    <i type="int" name="ICHARG">     2</i>
    <i type="int" name="INIWAV">     1</i>
   </separator>
   <separator name="electronic spin" >
    <i type="int" name="ISPIN">     1</i>
    <i type="logical" name="LNONCOLLINEAR"> F  </i>
    <v name="MAGMOM">      1.00000000      1.00000000      1.00000000      1.00000000      1.00000000      1.00000000      1.00000000      1.00000000      1.00000000      1.00000000      1.00000000      1.00000000      1.00000000      1.00000000      1.00000000      1.00000000      1.00000000      1.00000000      1.00000000      1.00000000
      1.00000000      1.00000000      1.00000000      1.00000000      1.00000000      1.00000000      1.00000000      1.00000000      1.00000000      1.00000000      1.00000000</v>
    <i name="NUPDOWN">     -1.00000000</i>
    <i type="logical" name="LSORBIT"> F  </i>
    <v name="SAXIS">      0.00000000      0.00000000      1.00000000</v>
    <i type="logical" name="LSPIRAL"> F  </i>
    <v name="QSPIRAL">      0.00000000      0.00000000      0.00000000</v>
    <i type="logical" name="LZEROZ"> F  </i>
   </separator>
   <separator name="electronic exchange-correlation" >
    <i type="logical" name="LASPH"> F  </i>
    <i type="logical" name="LMETAGGA"> F  </i>
   </separator>
   <separator name="electronic convergence" >
    <i type="int" name="NELM">    60</i>
    <i type="int" name="NELMDL">   -12</i>
    <i type="int" name="NELMIN">     2</i>
    <i name="ENINI">    300.00000000</i>
    <separator name="electronic convergence detail" >
     <i type="logical" name="LDIAG"> T  </i>
     <i name="WEIMIN">      0.00100000</i>
     <i name="EBREAK">      0.00000040</i>
     <i name="DEPER">      0.30000000</i>
     <i type="int" name="NRMM">     4</i>
     <i name="TIME">      0.40000000</i>
    </separator>
   </separator>
   <separator name="electronic mixer" >
    <i name="AMIX">      0.40000000</i>
    <i name="BMIX">      1.00000000</i>
    <i name="AMIN">      0.10000000</i>
    <i name="AMIX_MAG">      1.60000000</i>
    <i name="BMIX_MAG">      1.00000000</i>
    <separator name="electronic mixer details" >
     <i type="int" name="IMIX">     4</i>
     <i type="int" name="MAXMIX">   -45</i>
     <i name="WC">    100.00000000</i>
     <i type="int" name="INIMIX">     1</i>
     <i type="int" name="MIXPRE">     1</i>
     <i type="int" name="MREMOVE">     5</i>
    </separator>
   </separator>
   <separator name="electronic dipolcorrection" >
    <i type="logical" name="LDIPOL"> F  </i>
    <i type="logical" name="LMONO"> F  </i>
    <i type="int" name="IDIPOL">     0</i>
    <i name="EPSILON">      1.00000000</i>
    <v name="DIPOL">   -100.00000000   -100.00000000   -100.00000000</v>
    <i name="EFIELD">      0.00000000</i>
   </separator>
  </separator>
  <separator name="grids" >
   <i type="int" name="NGX">    48</i>
   <i type="int" name="NGY">    48</i>
   <i type="int" name="NGZ">    48</i>
   <i type="int" name="NGXF">    96</i>
   <i type="int" name="NGYF">    96</i>
   <i type="int" name="NGZF">    96</i>
   <i type="logical" name="ADDGRID"> F  </i>
  </separator>
  <separator name="ionic" >
   <i type="int" name="NSW">   191</i>
   <i type="int" name="IBRION">     2</i>
   <i type="int" name="ISIF">     2</i>
   <i name="PSTRESS">      0.00000000</i>
   <i name="EDIFFG">      0.05000000</i>
   <i type="int" name="NFREE">     1</i>
   <i name="POTIM">      0.50000000</i>
   <i name="SMASS">     -3.00000000</i>
  </separator>
  <separator name="ionic md" >
   <i name="TEBEG">      0.00010000</i>
   <i name="TEEND">      0.00010000</i>
   <i type="int" name="NBLOCK">     1</i>
   <i type="int" name="KBLOCK">   191</i>
   <i type="int" name="NPACO">   256</i>
   <i name="APACO">     16.00000000</i>
  </separator>
  <separator name="symmetry" >
   <i type="int" name="ISYM">     2</i>
   <i name="SYMPREC">      0.00001000</i>
  </separator>
  <separator name="dos" >
   <i type="logical" name="LORBIT"> F  </i>
   <v name="RWIGS">     -1.00000000</v>
   <i type="int" name="NEDOS">   301</i>
   <i name="EMIN">     10.00000000</i>
   <i name="EMAX">    -10.00000000</i>
   <i name="EFERMI">      0.00000000</i>
  </separator>
  <separator name="writing" >
   <i type="int" name="NWRITE">     2</i>
   <i type="logical" name="LWAVE"> F  </i>
   <i type="logical" name="LCHARG"> F  </i>
   <i type="logical" name="LPARD"> F  </i>
   <i type="logical" name="LVTOT"> F  </i>
   <i type="logical" name="LELF"> F  </i>
   <i type="logical" name="LOPTICS"> F  </i>
   <v name="STM">      0.00000000      0.00000000      0.00000000      0.00000000      0.00000000</v>
  </separator>
  <separator name="performance" >
   <i type="int" name="NPAR">     1</i>
   <i type="int" name="NSIM">     4</i>
   <i type="int" name="NBLK">    32</i>
   <i type="logical" name="LPLANE"> T  </i>
   <i type="logical" name="LSCALAPACK"> F  </i>
   <i type="logical" name="LSCAAWARE"> F  </i>
   <i type="logical" name="LSCALU"> F  </i>
   <i type="logical" name="LASYNC"> F  </i>
  </separator>
  <separator name="miscellaneous" >
   <i type="int" name="IDIOT">     3</i>
   <i type="logical" name="LMUSIC"> F  </i>
   <v name="POMASS">     26.98200000</v>
   <i type="logical" name="LCORR"> T  </i>
  </separator>
  <i type="logical" name="LREAL_COMPAT"> F  </i>
  <i type="logical" name="GGA_COMPAT"> T  </i>
  <i type="logical" name="LBERRY"> F  </i>
  <i type="int" name="ICORELEVEL">     0</i>
  <i type="logical" name="LDAU"> F  </i>
  <i type="int" name="I_CONSTRAINED_M">     0</i>
  <separator name="electronic exchange-correlation" >
   <i type="string" name="GGA">--</i>
   <i type="int" name="VOSKOWN">     0</i>
   <i type="logical" name="LHFCALC"> F  </i>
   <i type="logical" name="LHFONE"> F  </i>
   <i type="logical" name="LRHFCALC"> F  </i>
   <i type="logical" name="LTHOMAS"> F  </i>
   <i type="logical" name="LMODELHF"> F  </i>
   <i name="ENCUTFOCK">      0.00000000</i>
   <i name="ENCUT4O">     -1.00000000</i>
   <i type="int" name="EXXOEP">     0</i>
   <i type="int" name="FOURORBIT">     0</i>
   <i name="AEXX">      0.00000000</i>
   <i name="HFALPHA">      0.00000000</i>
   <i name="ALDAX">      1.00000000</i>
   <i name="AGGAX">      1.00000000</i>
   <i name="ALDAC">      1.00000000</i>
   <i name="AGGAC">      1.00000000</i>
   <i type="int" name="NKREDX">     1</i>
   <i type="int" name="NKREDY">     1</i>
   <i type="int" name="NKREDZ">     1</i>
   <i type="logical" name="SHIFTRED"> F  </i>
   <i type="logical" name="ODDONLY"> F  </i>
   <i type="logical" name="EVENONLY"> F  </i>
   <i type="int" name="LMAXFOCK">     0</i>
   <i type="int" name="NMAXFOCKAE">     0</i>
   <i name="HFSCREEN">      0.00000000</i>
   <i name="HFSCREENC">      0.00000000</i>
  </separator>
  <separator name="model GW" >
   <i type="int" name="MODEL_GW">     0</i>
   <i name="MODEL_EPS0">     10.23671437</i>
   <i name="MODEL_ALPHA">      1.00000000</i>
  </separator>
  <separator name="linear response parameters" >
   <i type="logical" name="LEPSILON"> F  </i>
   <i type="logical" name="LRPA"> F  </i>
   <i type="logical" name="LNABLA"> F  </i>
   <i type="logical" name="LVEL"> F  </i>
   <i type="int" name="KINTER">     0</i>
   <i name="CSHIFT">      0.10000000</i>
   <i name="OMEGAMAX">     -1.00000000</i>
  </separator>
  <separator name="orbital magnetization" >
   <i type="logical" name="ORBITALMAG"> F  </i>
   <i type="logical" name="LMAGBLOCH"> F  </i>
   <i type="logical" name="LCHIMAG"> F  </i>
   <i type="logical" name="LGAUGE"> T  </i>
   <i type="int" name="MAGATOM">     0</i>
   <v name="MAGDIPOL">      0.00000000      0.00000000      0.00000000</v>
   <v name="AVECCONST">      0.00000000      0.00000000      0.00000000</v>
  </separator>
  <separator name="response functions" >
   <i type="logical" name="LRPA"> T  </i>
   <i type="logical" name="LTCTE"> F  </i>
   <i type="logical" name="LTETE"> F  </i>
   <i type="logical" name="L2ORDER"> F  </i>
   <i type="logical" name="LGWLF"> F  </i>
   <i name="ENCUTGW">    200.00000000</i>
   <i name="ENCUTGWSOFT">     -2.00000000</i>
   <i name="ENCUTLF">     -1.00000000</i>
   <i type="int" name="LMAXMP2">    -1</i>
   <i name="SCISSOR">      0.00000000</i>
   <i type="int" name="NOMEGA">     0</i>
   <i type="int" name="NOMEGAR">     0</i>
   <i type="int" name="NBANDSGW">    -1</i>
   <i type="int" name="NBANDSLF">    -1</i>
   <i type="int" name="NELM">     1</i>
   <i type="int" name="DIM">     3</i>
   <i type="int" name="ANTIRES">     0</i>
   <i type="logical" name="LUSEW"> F  </i>
   <i name="OMEGAMAX">    -30.00000000</i>
   <i name="OMEGATL">   -200.00000000</i>
   <i type="int" name="OMEGAGRID">     0</i>
   <i name="CSHIFT">     -0.10000000</i>
   <i type="logical" name="SELFENERGY"> F  </i>
   <i type="logical" name="LSPECTRAL"> F  </i>
   <i type="logical" name="ODDONLYGW"> F  </i>
   <i type="logical" name="EVENONLYGW"> F  </i>
   <i type="int" name="NKREDLFX">     1</i>
   <i type="int" name="NKREDLFY">     1</i>
   <i type="int" name="NKREDLFZ">     1</i>
   <i type="int" name="MAXMEM">  1024</i>
   <i type="int" name="TELESCOPE">     0</i>
  </separator>
 </parameters>
 <atominfo>
  <atoms>      31 </atoms>
  <types>       1 </types>
  <array name="atoms" >
   <dimension dim="1">ion</dimension>
   <field type="string">element</field>
   <field type="int">atomtype</field>
   <set>
    <rc><c>Al</c><c>   1</c></rc>
    <rc><c>Al</c><c>   1</c></rc>
    <rc><c>Al</c><c>   1</c></rc>
    <rc><c>Al</c><c>   1</c></rc>
    <rc><c>Al</c><c>   1</c></rc>
    <rc><c>Al</c><c>   1</c></rc>
    <rc><c>Al</c><c>   1</c></rc>
    <rc><c>Al</c><c>   1</c></rc>
    <rc><c>Al</c><c>   1</c></rc>
    <rc><c>Al</c><c>   1</c></rc>
    <rc><c>Al</c><c>   1</c></rc>
    <rc><c>Al</c><c>   1</c></rc>
    <rc><c>Al</c><c>   1</c></rc>
    <rc><c>Al</c><c>   1</c></rc>
    <rc><c>Al</c><c>   1</c></rc>
    <rc><c>Al</c><c>   1</c></rc>
    <rc><c>Al</c><c>   1</c></rc>
    <rc><c>Al</c><c>   1</c></rc>
    <rc><c>Al</c><c>   1</c></rc>
    <rc><c>Al</c><c>   1</c></rc>
    <rc><c>Al</c><c>   1</c></rc>
    <rc><c>Al</c><c>   1</c></rc>
    <rc><c>Al</c><c>   1</c></rc>
    <rc><c>Al</c><c>   1</c></rc>
    <rc><c>Al</c><c>   1</c></rc>
    <rc><c>Al</c><c>   1</c></rc>
    <rc><c>Al</c><c>   1</c></rc>
    <rc><c>Al</c><c>   1</c></rc>
    <rc><c>Al</c><c>   1</c></rc>
    <rc><c>Al</c><c>   1</c></rc>
    <rc><c>Al</c><c>   1</c></rc>
   </set>
  </array>
  <array name="atomtypes" >
   <dimension dim="1">type</dimension>
   <field type="int">atomspertype</field>
   <field type="string">element</field>
   <field>mass</field>
   <field>valence</field>
   <field type="string">pseudopotential</field>
   <set>
    <rc><c>  31</c><c>Al</c><c>     26.98200000</c><c>      3.00000000</c><c> PAW_PBE Al 04Jan2001                   </c></rc>
   </set>
  </array>
 </atominfo>
 <structure name="initialpos" >
  <crystal>
   <varray name="basis" >
    <v>       8.08705400       0.00000000       0.00000000 </v>
    <v>       0.00000000       8.08705400       0.00000000 </v>
    <v>       0.00000000       0.00000000       8.08705400 </v>
   </varray>
   <i name="volume">    528.89690930 </i>
   <varray name="rec_basis" >
    <v>       0.12365442       0.00000000       0.00000000 </v>
    <v>       0.00000000       0.12365442       0.00000000 </v>
    <v>       0.00000000       0.00000000       0.12365442 </v>
   </varray>
  </crystal>
  <varray name="positions" >
   <v>       0.00000000       0.00000000       0.00000000 </v>
   <v>       0.25000000       0.00000000       0.25000000 </v>
   <v>       0.25000000       0.25000000       0.00000000 </v>
   <v>       0.00000000       0.25000000       0.25000000 </v>
   <v>       0.50000000       0.00000000       0.00000000 </v>
   <v>       0.75000000       0.00000000       0.25000000 </v>
   <v>       0.75000000       0.25000000       0.00000000 </v>
   <v>       0.50000000       0.25000000       0.25000000 </v>
   <v>       0.00000000       0.50000000       0.00000000 </v>
   <v>       0.25000000       0.75000000       0.00000000 </v>
   <v>       0.00000000       0.75000000       0.25000000 </v>
   <v>       0.50000000       0.50000000       0.00000000 </v>
   <v>       0.75000000       0.50000000       0.25000000 </v>
   <v>       0.75000000       0.75000000       0.00000000 </v>
   <v>       0.50000000       0.75000000       0.25000000 </v>
   <v>       0.00000000       0.00000000       0.50000000 </v>
   <v>       0.25000000       0.00000000       0.75000000 </v>
   <v>       0.25000000       0.25000000       0.50000000 </v>
   <v>       0.00000000       0.25000000       0.75000000 </v>
   <v>       0.50000000       0.00000000       0.50000000 </v>
   <v>       0.75000000       0.00000000       0.75000000 </v>
   <v>       0.75000000       0.25000000       0.50000000 </v>
   <v>       0.50000000       0.25000000       0.75000000 </v>
   <v>       0.00000000       0.50000000       0.50000000 </v>
   <v>       0.25000000       0.50000000       0.75000000 </v>
   <v>       0.25000000       0.75000000       0.50000000 </v>
   <v>       0.00000000       0.75000000       0.75000000 </v>
   <v>       0.50000000       0.50000000       0.50000000 </v>
   <v>       0.75000000       0.50000000       0.75000000 </v>
   <v>       0.75000000       0.75000000       0.50000000 </v>
   <v>       0.50000000       0.75000000       0.75000000 </v>
  </varray>
 </structure>
 <calculation>
  <scstep>
   <time name="diag">    2.43    1.65</time>
   <time name="diis">   11.16    3.54</time>
   <time name="orth">    0.16    0.04</time>
   <time name="total">   15.87    7.24</time>
   <energy>
    <i name="alphaZ">     -6.10292531 </i>
    <i name="ewald">  -2226.95885788 </i>
    <i name="hartreedc">    -20.94823152 </i>
    <i name="XCdc">   -814.77444406 </i>
    <i name="pawpsdc">   1102.18190231 </i>
    <i name="pawaedc">   -111.56847430 </i>
    <i name="eentropy">     -0.07508232 </i>
    <i name="bandstr">    730.26809586 </i>
    <i name="atom">   1659.66634407 </i>
    <i name="e_fr_energy">    311.68832686 </i>
    <i name="e_wo_entrp">    311.76340918 </i>
    <i name="e_0_energy">    311.71335430 </i>
   </energy>
  </scstep>
  <scstep>
   <time name="diag">    2.22    1.55</time>
   <time name="diis">   11.18    3.51</time>
   <time name="orth">    0.17    0.04</time>
   <time name="total">   13.57    5.10</time>
   <energy>
    <i name="e_fr_energy">     -3.56291379 </i>
    <i name="e_wo_entrp">     -3.51195998 </i>
    <i name="e_0_energy">     -3.54592919 </i>
   </energy>
  </scstep>
  <scstep>
   <time name="diag">    2.14    1.53</time>
   <time name="diis">   11.25    3.52</time>
   <time name="orth">    0.16    0.04</time>
   <time name="total">   13.56    5.09</time>
   <energy>
    <i name="e_fr_energy">    -67.95506845 </i>
    <i name="e_wo_entrp">    -67.88622706 </i>
    <i name="e_0_energy">    -67.93212132 </i>
   </energy>
  </scstep>
  <scstep>
   <time name="diag">    2.12    1.53</time>
   <time name="diis">   11.25    3.51</time>
   <time name="orth">    0.16    0.04</time>
   <time name="total">   13.54    5.08</time>
   <energy>
    <i name="e_fr_energy">    -85.25724500 </i>
    <i name="e_wo_entrp">    -85.15494014 </i>
    <i name="e_0_energy">    -85.22314338 </i>
   </energy>
  </scstep>
  <scstep>
   <time name="diag">    2.12    1.52</time>
   <time name="diis">   11.26    3.52</time>
   <time name="orth">    0.16    0.04</time>
   <time name="total">   13.55    5.08</time>
   <energy>
    <i name="e_fr_energy">    -92.78646201 </i>
    <i name="e_wo_entrp">    -92.76279344 </i>
    <i name="e_0_energy">    -92.77857249 </i>
   </energy>
  </scstep>
  <scstep>
   <time name="diag">    2.31    1.59</time>
   <time name="diis">   11.43    3.53</time>
   <time name="orth">    0.16    0.04</time>
   <time name="total">   13.91    5.16</time>
   <energy>
    <i name="e_fr_energy">    -96.32072019 </i>
    <i name="e_wo_entrp">    -96.28839043 </i>
    <i name="e_0_energy">    -96.30994360 </i>
   </energy>
  </scstep>
  <scstep>
   <time name="diag">    2.31    1.58</time>
   <time name="diis">   11.59    3.60</time>
   <time name="orth">    0.16    0.04</time>
   <time name="total">   14.06    5.23</time>
   <energy>
    <i name="e_fr_energy">    -98.23923207 </i>
    <i name="e_wo_entrp">    -98.21322657 </i>
    <i name="e_0_energy">    -98.23056357 </i>
   </energy>
  </scstep>
  <scstep>
   <time name="diag">    2.31    1.59</time>
   <time name="diis">   11.43    3.53</time>
   <time name="orth">    0.16    0.04</time>
   <time name="total">   13.90    5.16</time>
   <energy>
    <i name="e_fr_energy">    -99.32450381 </i>
    <i name="e_wo_entrp">    -99.30418657 </i>
    <i name="e_0_energy">    -99.31773139 </i>
   </energy>
  </scstep>
  <scstep>
   <time name="diag">    2.30    1.58</time>
   <time name="diis">   28.40    7.94</time>
   <time name="orth">    0.16    0.04</time>
   <time name="total">   30.88    9.57</time>
   <energy>
    <i name="e_fr_energy">   -100.79803155 </i>
    <i name="e_wo_entrp">   -100.76945534 </i>
    <i name="e_0_energy">   -100.78850615 </i>
   </energy>
  </scstep>
  <scstep>
   <time name="diag">    2.12    1.52</time>
   <time name="diis">   31.68    9.46</time>
   <time name="orth">    0.17    0.04</time>
   <time name="total">   33.97   11.02</time>
   <energy>
    <i name="e_fr_energy">   -100.96455950 </i>
    <i name="e_wo_entrp">   -100.93186691 </i>
    <i name="e_0_energy">   -100.95366197 </i>
   </energy>
  </scstep>
  <scstep>
   <time name="diag">    2.28    1.56</time>
   <time name="diis">   22.19    6.58</time>
   <time name="orth">    0.17    0.04</time>
   <time name="total">   24.64    8.18</time>
   <energy>
    <i name="e_fr_energy">   -100.97667428 </i>
    <i name="e_wo_entrp">   -100.94426841 </i>
    <i name="e_0_energy">   -100.96587232 </i>
   </energy>
  </scstep>
  <scstep>
   <time name="diag">    2.19    1.56</time>
   <time name="diis">   20.33    6.11</time>
   <time name="orth">    0.16    0.04</time>
   <time name="total">   23.81    8.73</time>
   <energy>
    <i name="e_fr_energy">   -100.97741503 </i>
    <i name="e_wo_entrp">   -100.94491169 </i>
    <i name="e_0_energy">   -100.96658058 </i>
   </energy>
  </scstep>
  <scstep>
   <time name="diag">    2.41    1.64</time>
   <time name="diis">   22.87    6.82</time>
   <time name="orth">    0.17    0.04</time>
   <time name="total">   28.71   11.66</time>
   <energy>
    <i name="e_fr_energy">    -99.88488774 </i>
    <i name="e_wo_entrp">    -99.75293857 </i>
    <i name="e_0_energy">    -99.84090468 </i>
   </energy>
  </scstep>
  <scstep>
   <time name="diag">    2.41    1.64</time>
   <time name="diis">   22.92    6.86</time>
   <time name="orth">    0.17    0.04</time>
   <time name="total">   28.69   11.64</time>
   <energy>
    <i name="e_fr_energy">    -99.62334165 </i>
    <i name="e_wo_entrp">    -99.46207335 </i>
    <i name="e_0_energy">    -99.56958555 </i>
   </energy>
  </scstep>
  <scstep>
   <time name="diag">    2.41    1.65</time>
   <time name="diis">   23.40    6.94</time>
   <time name="orth">    0.17    0.04</time>
   <time name="total">   29.24   11.76</time>
   <energy>
    <i name="e_fr_energy">    -99.51033896 </i>
    <i name="e_wo_entrp">    -99.36825978 </i>
    <i name="e_0_energy">    -99.46297923 </i>
   </energy>
  </scstep>
  <scstep>
   <time name="diag">    2.40    1.64</time>
   <time name="diis">   28.39    8.62</time>
   <time name="orth">    0.16    0.04</time>
   <time name="total">   34.30   13.47</time>
   <energy>
    <i name="e_fr_energy">    -99.50313057 </i>
    <i name="e_wo_entrp">    -99.34962155 </i>
    <i name="e_0_energy">    -99.45196090 </i>
   </energy>
  </scstep>
  <scstep>
   <time name="diag">    2.39    1.63</time>
   <time name="diis">   24.06    7.12</time>
   <time name="orth">    0.17    0.04</time>
   <time name="total">   29.96   11.94</time>
   <energy>
    <i name="e_fr_energy">    -99.50254488 </i>
    <i name="e_wo_entrp">    -99.35150009 </i>
    <i name="e_0_energy">    -99.45219662 </i>
   </energy>
  </scstep>
  <scstep>
   <time name="diag">    2.40    1.64</time>
   <time name="diis">   21.11    6.29</time>
   <time name="orth">    0.17    0.04</time>
   <time name="total">   27.01   11.09</time>
   <energy>
    <i name="e_fr_energy">    -99.50253106 </i>
    <i name="e_wo_entrp">    -99.35268620 </i>
    <i name="e_0_energy">    -99.45258278 </i>
   </energy>
  </scstep>
  <scstep>
   <time name="diag">    2.47    1.70</time>
   <time name="diis">   15.50    4.80</time>
   <time name="orth">    0.16    0.04</time>
   <time name="total">   20.42    8.71</time>
   <energy>
    <i name="alphaZ">     -6.10292531 </i>
    <i name="ewald">  -2226.95885788 </i>
    <i name="hartreedc">    -24.95369935 </i>
    <i name="XCdc">   -810.88355511 </i>
    <i name="pawpsdc">   1099.98129922 </i>
    <i name="pawaedc">   -109.53460046 </i>
    <i name="eentropy">     -0.15101103 </i>
    <i name="bandstr">    319.43449059 </i>
    <i name="atom">   1659.66634407 </i>
    <i name="e_fr_energy">    -99.50251525 </i>
    <i name="e_wo_entrp">    -99.35150422 </i>
    <i name="e_0_energy">    -99.45217824 </i>
   </energy>
  </scstep>
  <structure>
   <crystal>
    <varray name="basis" >
     <v>       8.08705400       0.00000000       0.00000000 </v>
     <v>       0.00000000       8.08705400       0.00000000 </v>
     <v>       0.00000000       0.00000000       8.08705400 </v>
    </varray>
    <i name="volume">    528.89690930 </i>
    <varray name="rec_basis" >
     <v>       0.12365442       0.00000000       0.00000000 </v>
     <v>       0.00000000       0.12365442       0.00000000 </v>
     <v>       0.00000000       0.00000000       0.12365442 </v>
    </varray>
   </crystal>
   <varray name="positions" >
    <v>       0.00000000       0.00000000       0.00000000 </v>
    <v>       0.25000000       0.00000000       0.25000000 </v>
    <v>       0.25000000       0.25000000       0.00000000 </v>
    <v>       0.00000000       0.25000000       0.25000000 </v>
    <v>       0.50000000       0.00000000       0.00000000 </v>
    <v>       0.75000000       0.00000000       0.25000000 </v>
    <v>       0.75000000       0.25000000       0.00000000 </v>
    <v>       0.50000000       0.25000000       0.25000000 </v>
    <v>       0.00000000       0.50000000       0.00000000 </v>
    <v>       0.25000000       0.75000000       0.00000000 </v>
    <v>       0.00000000       0.75000000       0.25000000 </v>
    <v>       0.50000000       0.50000000       0.00000000 </v>
    <v>       0.75000000       0.50000000       0.25000000 </v>
    <v>       0.75000000       0.75000000       0.00000000 </v>
    <v>       0.50000000       0.75000000       0.25000000 </v>
    <v>       0.00000000       0.00000000       0.50000000 </v>
    <v>       0.25000000       0.00000000       0.75000000 </v>
    <v>       0.25000000       0.25000000       0.50000000 </v>
    <v>       0.00000000       0.25000000       0.75000000 </v>
    <v>       0.50000000       0.00000000       0.50000000 </v>
    <v>       0.75000000       0.00000000       0.75000000 </v>
    <v>       0.75000000       0.25000000       0.50000000 </v>
    <v>       0.50000000       0.25000000       0.75000000 </v>
    <v>       0.00000000       0.50000000       0.50000000 </v>
    <v>       0.25000000       0.50000000       0.75000000 </v>
    <v>       0.25000000       0.75000000       0.50000000 </v>
    <v>       0.00000000       0.75000000       0.75000000 </v>
    <v>       0.50000000       0.50000000       0.50000000 </v>
    <v>       0.75000000       0.50000000       0.75000000 </v>
    <v>       0.75000000       0.75000000       0.50000000 </v>
    <v>       0.50000000       0.75000000       0.75000000 </v>
   </varray>
  </structure>
  <varray name="forces" >
   <v>       0.01056012       0.00000000       0.01056012 </v>
   <v>       0.00000000       0.00000000       0.00000000 </v>
   <v>       0.00000000      -0.18422504      -0.18422504 </v>
   <v>      -0.18422504      -0.18422504       0.00000000 </v>
   <v>      -0.01056012       0.00000000       0.01056012 </v>
   <v>       0.00000000       0.00000000       0.00000000 </v>
   <v>       0.00000000       0.01056012       0.01056012 </v>
   <v>       0.18422504      -0.18422504       0.00000000 </v>
   <v>      -0.18422504       0.00000000      -0.18422504 </v>
   <v>       0.00000000       0.18422504      -0.18422504 </v>
   <v>      -0.18422504       0.18422504       0.00000000 </v>
   <v>       0.18422504       0.00000000      -0.18422504 </v>
   <v>       0.00000000       0.00000000       0.00000000 </v>
   <v>       0.00000000      -0.01056012       0.01056012 </v>
   <v>       0.18422504       0.18422504       0.00000000 </v>
   <v>       0.01056012       0.00000000      -0.01056012 </v>
   <v>       0.00000000       0.00000000       0.00000000 </v>
   <v>       0.00000000      -0.18422504       0.18422504 </v>
   <v>       0.01056012       0.01056012       0.00000000 </v>
   <v>      -0.01056012       0.00000000      -0.01056012 </v>
   <v>       0.00000000       0.00000000       0.00000000 </v>
   <v>       0.00000000       0.01056012      -0.01056012 </v>
   <v>      -0.01056012       0.01056012       0.00000000 </v>
   <v>      -0.18422504       0.00000000       0.18422504 </v>
   <v>       0.00000000       0.00000000       0.00000000 </v>
   <v>       0.00000000       0.18422504       0.18422504 </v>
   <v>       0.01056012      -0.01056012       0.00000000 </v>
   <v>       0.18422504       0.00000000       0.18422504 </v>
   <v>       0.00000000       0.00000000       0.00000000 </v>
   <v>       0.00000000      -0.01056012      -0.01056012 </v>
   <v>      -0.01056012      -0.01056012       0.00000000 </v>
  </varray>
  <varray name="stress" >
   <v>     -25.71563910       0.00000000       0.00000000 </v>
   <v>       0.00000000     -25.71563910       0.00000000 </v>
   <v>       0.00000000       0.00000000     -25.71563910 </v>
  </varray>
  <energy>
   <i name="e_fr_energy">    -99.50251525 </i>
   <i name="e_wo_entrp">    -99.45217824 </i>
   <i name="e_0_energy">     -0.15101103 </i>
  </energy>
  <time name="totalsc">  458.15  179.07</time>
 </calculation>
 <calculation>
  <scstep>
   <time name="diag">    2.40    1.63</time>
   <time name="diis">   22.39    6.70</time>
   <time name="orth">    0.17    0.04</time>
   <time name="total">   28.49   11.65</time>
   <energy>
    <i name="alphaZ">     -6.10292531 </i>
    <i name="ewald">  -2224.92743530 </i>
    <i name="hartreedc">    -26.63562132 </i>
    <i name="XCdc">   -810.84494540 </i>
    <i name="pawpsdc">   1099.97485525 </i>
    <i name="pawaedc">   -109.52797930 </i>
    <i name="eentropy">     -0.09303638 </i>
    <i name="bandstr">    318.94324582 </i>
    <i name="atom">   1659.66634407 </i>
    <i name="e_fr_energy">    -99.54749787 </i>
    <i name="e_wo_entrp">    -99.45446149 </i>
    <i name="e_0_energy">    -99.51648574 </i>
   </energy>
  </scstep>
  <scstep>
   <time name="diag">    2.40    1.63</time>
   <time name="diis">   21.60    6.26</time>
   <time name="orth">    0.16    0.04</time>
   <time name="total">   27.30   10.97</time>
   <energy>
    <i name="e_fr_energy">    -99.54193722 </i>
    <i name="e_wo_entrp">    -99.42693317 </i>
    <i name="e_0_energy">    -99.50360254 </i>
   </energy>
  </scstep>
  <scstep>
   <time name="diag">    2.42    1.65</time>
   <time name="diis">   20.29    5.84</time>
   <time name="orth">    0.16    0.04</time>
   <time name="total">   26.04   10.59</time>
   <energy>
    <i name="e_fr_energy">    -99.54165510 </i>
    <i name="e_wo_entrp">    -99.42600322 </i>
    <i name="e_0_energy">    -99.50310447 </i>
   </energy>
  </scstep>
  <scstep>
   <time name="diag">    2.42    1.65</time>
   <time name="diis">   14.62    4.27</time>
   <time name="orth">    0.16    0.04</time>
   <time name="total">   19.21    7.94</time>
   <energy>
    <i name="alphaZ">     -6.10292531 </i>
    <i name="ewald">  -2224.92743530 </i>
    <i name="hartreedc">    -26.82258161 </i>
    <i name="XCdc">   -810.84185488 </i>
    <i name="pawpsdc">   1099.99990319 </i>
    <i name="pawaedc">   -109.55530670 </i>
    <i name="eentropy">     -0.11661092 </i>
    <i name="bandstr">    319.15882473 </i>
    <i name="atom">   1659.66634407 </i>
    <i name="e_fr_energy">    -99.54164274 </i>
    <i name="e_wo_entrp">    -99.42503181 </i>
    <i name="e_0_energy">    -99.50277243 </i>
   </energy>
  </scstep>
  <structure>
   <crystal>
    <varray name="basis" >
     <v>       8.08705400       0.00000000       0.00000000 </v>
     <v>       0.00000000       8.08705400       0.00000000 </v>
     <v>       0.00000000       0.00000000       8.08705400 </v>
    </varray>
    <i name="volume">    528.89690930 </i>
    <varray name="rec_basis" >
     <v>       0.12365442       0.00000000       0.00000000 </v>
     <v>       0.00000000       0.12365442       0.00000000 </v>
     <v>       0.00000000       0.00000000       0.12365442 </v>
    </varray>
   </crystal>
   <varray name="positions" >
    <v>       0.00006300       0.00000000       0.00006300 </v>
    <v>       0.25000000       0.00000000       0.25000000 </v>
    <v>       0.25000000       0.24890102      -0.00109898 </v>
    <v>      -0.00109898       0.24890102       0.25000000 </v>
    <v>       0.49993700       0.00000000       0.00006300 </v>
    <v>       0.75000000       0.00000000       0.25000000 </v>
    <v>       0.75000000       0.25006300       0.00006300 </v>
    <v>       0.50109898       0.24890102       0.25000000 </v>
    <v>      -0.00109898       0.50000000      -0.00109898 </v>
    <v>       0.25000000       0.75109898      -0.00109898 </v>
    <v>      -0.00109898       0.75109898       0.25000000 </v>
    <v>       0.50109898       0.50000000      -0.00109898 </v>
    <v>       0.75000000       0.50000000       0.25000000 </v>
    <v>       0.75000000       0.74993700       0.00006300 </v>
    <v>       0.50109898       0.75109898       0.25000000 </v>
    <v>       0.00006300       0.00000000       0.49993700 </v>
    <v>       0.25000000       0.00000000       0.75000000 </v>
    <v>       0.25000000       0.24890102       0.50109898 </v>
    <v>       0.00006300       0.25006300       0.75000000 </v>
    <v>       0.49993700       0.00000000       0.49993700 </v>
    <v>       0.75000000       0.00000000       0.75000000 </v>
    <v>       0.75000000       0.25006300       0.49993700 </v>
    <v>       0.49993700       0.25006300       0.75000000 </v>
    <v>      -0.00109898       0.50000000       0.50109898 </v>
    <v>       0.25000000       0.50000000       0.75000000 </v>
    <v>       0.25000000       0.75109898       0.50109898 </v>
    <v>       0.00006300       0.74993700       0.75000000 </v>
    <v>       0.50109898       0.50000000       0.50109898 </v>
    <v>       0.75000000       0.50000000       0.75000000 </v>
    <v>       0.75000000       0.74993700       0.49993700 </v>
    <v>       0.49993700       0.74993700       0.75000000 </v>
   </varray>
  </structure>
  <varray name="forces" >
   <v>       0.02347529       0.00000000       0.02347529 </v>
   <v>       0.00000000       0.00000000       0.00000000 </v>
   <v>       0.00000000      -0.17926559      -0.17926559 </v>
   <v>      -0.17926559      -0.17926559       0.00000000 </v>
   <v>      -0.02347529       0.00000000       0.02347529 </v>
   <v>       0.00000000       0.00000000       0.00000000 </v>
   <v>       0.00000000       0.02347529       0.02347529 </v>
   <v>       0.17926559      -0.17926559       0.00000000 </v>
   <v>      -0.17926559       0.00000000      -0.17926559 </v>
   <v>       0.00000000       0.17926559      -0.17926559 </v>
   <v>      -0.17926559       0.17926559       0.00000000 </v>
   <v>       0.17926559       0.00000000      -0.17926559 </v>
   <v>       0.00000000       0.00000000       0.00000000 </v>
   <v>       0.00000000      -0.02347529       0.02347529 </v>
   <v>       0.17926559       0.17926559       0.00000000 </v>
   <v>       0.02347529       0.00000000      -0.02347529 </v>
   <v>       0.00000000       0.00000000       0.00000000 </v>
   <v>       0.00000000      -0.17926559       0.17926559 </v>
   <v>       0.02347529       0.02347529       0.00000000 </v>
   <v>      -0.02347529       0.00000000      -0.02347529 </v>
   <v>       0.00000000       0.00000000       0.00000000 </v>
   <v>       0.00000000       0.02347529      -0.02347529 </v>
   <v>      -0.02347529       0.02347529       0.00000000 </v>
   <v>      -0.17926559       0.00000000       0.17926559 </v>
   <v>       0.00000000       0.00000000       0.00000000 </v>
   <v>       0.00000000       0.17926559       0.17926559 </v>
   <v>       0.02347529      -0.02347529       0.00000000 </v>
   <v>       0.17926559       0.00000000       0.17926559 </v>
   <v>       0.00000000       0.00000000       0.00000000 </v>
   <v>       0.00000000      -0.02347529      -0.02347529 </v>
   <v>      -0.02347529      -0.02347529       0.00000000 </v>
  </varray>
  <varray name="stress" >
   <v>     -25.50739051       0.00000000       0.00000000 </v>
   <v>       0.00000000     -25.50739051       0.00000000 </v>
   <v>       0.00000000       0.00000000     -25.50739051 </v>
  </varray>
  <energy>
   <i name="e_fr_energy">    -99.54164274 </i>
   <i name="e_wo_entrp">    -99.50277243 </i>
   <i name="e_0_energy">     -0.11661092 </i>
  </energy>
  <time name="totalsc">  135.51   59.01</time>
 </calculation>
 <calculation>
  <scstep>
   <time name="diag">    2.42    1.65</time>
   <time name="diis">   21.30    6.24</time>
   <time name="orth">    0.16    0.04</time>
   <time name="total">   27.24   11.02</time>
   <energy>
    <i name="alphaZ">     -6.10292531 </i>
    <i name="ewald">  -2218.10326896 </i>
    <i name="hartreedc">    -32.36935402 </i>
    <i name="XCdc">   -810.71496691 </i>
    <i name="pawpsdc">   1100.00501885 </i>
    <i name="pawaedc">   -109.56085142 </i>
    <i name="eentropy">     -0.01666504 </i>
    <i name="bandstr">    317.52766646 </i>
    <i name="atom">   1659.66634407 </i>
    <i name="e_fr_energy">    -99.66900227 </i>
    <i name="e_wo_entrp">    -99.65233723 </i>
    <i name="e_0_energy">    -99.66344726 </i>
   </energy>
  </scstep>
  <scstep>
   <time name="diag">    2.43    1.66</time>
   <time name="diis">   23.15    6.62</time>
   <time name="orth">    0.16    0.04</time>
   <time name="total">   29.00   11.48</time>
   <energy>
    <i name="e_fr_energy">    -99.64737250 </i>
    <i name="e_wo_entrp">    -99.62208683 </i>
    <i name="e_0_energy">    -99.63894395 </i>
   </energy>
  </scstep>
  <scstep>
   <time name="diag">    2.48    1.71</time>
   <time name="diis">   22.19    6.41</time>
   <time name="orth">    0.16    0.04</time>
   <time name="total">   28.00   11.21</time>
   <energy>
    <i name="e_fr_energy">    -99.64459085 </i>
    <i name="e_wo_entrp">    -99.60623572 </i>
    <i name="e_0_energy">    -99.63180581 </i>
   </energy>
  </scstep>
  <scstep>
   <time name="diag">    2.42    1.65</time>
   <time name="diis">   21.69    6.29</time>
   <time name="orth">    0.17    0.04</time>
   <time name="total">   27.53   11.06</time>
   <energy>
    <i name="e_fr_energy">    -99.64232837 </i>
    <i name="e_wo_entrp">    -99.60786341 </i>
    <i name="e_0_energy">    -99.63084005 </i>
   </energy>
  </scstep>
  <scstep>
   <time name="diag">    2.42    1.65</time>
   <time name="diis">   20.00    5.77</time>
   <time name="orth">    0.16    0.04</time>
   <time name="total">   25.83   10.52</time>
   <energy>
    <i name="e_fr_energy">    -99.64244137 </i>
    <i name="e_wo_entrp">    -99.60871634 </i>
    <i name="e_0_energy">    -99.63119969 </i>
   </energy>
  </scstep>
  <scstep>
   <time name="diag">    2.42    1.65</time>
   <time name="diis">   18.20    5.21</time>
   <time name="orth">    0.17    0.04</time>
   <time name="total">   22.84    8.87</time>
   <energy>
    <i name="alphaZ">     -6.10292531 </i>
    <i name="ewald">  -2218.10326896 </i>
    <i name="hartreedc">    -32.95210886 </i>
    <i name="XCdc">   -810.70363911 </i>
    <i name="pawpsdc">   1100.24232238 </i>
    <i name="pawaedc">   -109.81081805 </i>
    <i name="eentropy">     -0.03459192 </i>
    <i name="bandstr">    318.15633130 </i>
    <i name="atom">   1659.66634407 </i>
    <i name="e_fr_energy">    -99.64235446 </i>
    <i name="e_wo_entrp">    -99.60776254 </i>
    <i name="e_0_energy">    -99.63082382 </i>
   </energy>
  </scstep>
  <structure>
   <crystal>
    <varray name="basis" >
     <v>       8.08705400       0.00000000       0.00000000 </v>
     <v>       0.00000000       8.08705400       0.00000000 </v>
     <v>       0.00000000       0.00000000       8.08705400 </v>
    </varray>
    <i name="volume">    528.89690930 </i>
    <varray name="rec_basis" >
     <v>       0.12365442       0.00000000       0.00000000 </v>
     <v>       0.00000000       0.12365442       0.00000000 </v>
     <v>       0.00000000       0.00000000       0.12365442 </v>
    </varray>
   </crystal>
   <varray name="positions" >
    <v>       0.00025198       0.00000000       0.00025198 </v>
    <v>       0.25000000       0.00000000       0.25000000 </v>
    <v>       0.25000000       0.24560408      -0.00439592 </v>
    <v>      -0.00439592       0.24560408       0.25000000 </v>
    <v>       0.49974802       0.00000000       0.00025198 </v>
    <v>       0.75000000       0.00000000       0.25000000 </v>
    <v>       0.75000000       0.25025198       0.00025198 </v>
    <v>       0.50439592       0.24560408       0.25000000 </v>
    <v>      -0.00439592       0.50000000      -0.00439592 </v>
    <v>       0.25000000       0.75439592      -0.00439592 </v>
    <v>      -0.00439592       0.75439592       0.25000000 </v>
    <v>       0.50439592       0.50000000      -0.00439592 </v>
    <v>       0.75000000       0.50000000       0.25000000 </v>
    <v>       0.75000000       0.74974802       0.00025198 </v>
    <v>       0.50439592       0.75439592       0.25000000 </v>
    <v>       0.00025198       0.00000000       0.49974802 </v>
    <v>       0.25000000       0.00000000       0.75000000 </v>
    <v>       0.25000000       0.24560408       0.50439592 </v>
    <v>       0.00025198       0.25025198       0.75000000 </v>
    <v>       0.49974802       0.00000000       0.49974802 </v>
    <v>       0.75000000       0.00000000       0.75000000 </v>
    <v>       0.75000000       0.25025198       0.49974802 </v>
    <v>       0.49974802       0.25025198       0.75000000 </v>
    <v>      -0.00439592       0.50000000       0.50439592 </v>
    <v>       0.25000000       0.50000000       0.75000000 </v>
    <v>       0.25000000       0.75439592       0.50439592 </v>
    <v>       0.00025198       0.74974802       0.75000000 </v>
    <v>       0.50439592       0.50000000       0.50439592 </v>
    <v>       0.75000000       0.50000000       0.75000000 </v>
    <v>       0.75000000       0.74974802       0.49974802 </v>
    <v>       0.49974802       0.74974802       0.75000000 </v>
   </varray>
  </structure>
  <varray name="forces" >
   <v>       0.00757000       0.00000000       0.00757000 </v>
   <v>       0.00000000       0.00000000       0.00000000 </v>
   <v>       0.00000000      -0.12046208      -0.12046208 </v>
   <v>      -0.12046208      -0.12046208       0.00000000 </v>
   <v>      -0.00757000       0.00000000       0.00757000 </v>
   <v>       0.00000000       0.00000000       0.00000000 </v>
   <v>       0.00000000       0.00757000       0.00757000 </v>
   <v>       0.12046208      -0.12046208       0.00000000 </v>
   <v>      -0.12046208       0.00000000      -0.12046208 </v>
   <v>       0.00000000       0.12046208      -0.12046208 </v>
   <v>      -0.12046208       0.12046208       0.00000000 </v>
   <v>       0.12046208       0.00000000      -0.12046208 </v>
   <v>       0.00000000       0.00000000       0.00000000 </v>
   <v>       0.00000000      -0.00757000       0.00757000 </v>
   <v>       0.12046208       0.12046208       0.00000000 </v>
   <v>       0.00757000       0.00000000      -0.00757000 </v>
   <v>       0.00000000       0.00000000       0.00000000 </v>
   <v>       0.00000000      -0.12046208       0.12046208 </v>
   <v>       0.00757000       0.00757000       0.00000000 </v>
   <v>      -0.00757000       0.00000000      -0.00757000 </v>
   <v>       0.00000000       0.00000000       0.00000000 </v>
   <v>       0.00000000       0.00757000      -0.00757000 </v>
   <v>      -0.00757000       0.00757000       0.00000000 </v>
   <v>      -0.12046208       0.00000000       0.12046208 </v>
   <v>       0.00000000       0.00000000       0.00000000 </v>
   <v>       0.00000000       0.12046208       0.12046208 </v>
   <v>       0.00757000      -0.00757000       0.00000000 </v>
   <v>       0.12046208       0.00000000       0.12046208 </v>
   <v>       0.00000000       0.00000000       0.00000000 </v>
   <v>       0.00000000      -0.00757000      -0.00757000 </v>
   <v>      -0.00757000      -0.00757000       0.00000000 </v>
  </varray>
  <varray name="stress" >
   <v>     -24.13699197       0.00000000       0.00000000 </v>
   <v>       0.00000000     -24.13699197       0.00000000 </v>
   <v>       0.00000000       0.00000000     -24.13699197 </v>
  </varray>
  <energy>
   <i name="e_fr_energy">    -99.64235446 </i>
   <i name="e_wo_entrp">    -99.63082382 </i>
   <i name="e_0_energy">     -0.03459192 </i>
  </energy>
  <time name="totalsc">  196.10   82.37</time>
 </calculation>
 <calculation>
  <scstep>
   <time name="diag">    2.10    1.55</time>
   <time name="diis">   21.26    6.25</time>
   <time name="orth">    0.16    0.04</time>
   <time name="total">   26.83   10.88</time>
   <energy>
    <i name="alphaZ">     -6.10292531 </i>
    <i name="ewald">  -2216.39836335 </i>
    <i name="hartreedc">    -34.33218208 </i>
    <i name="XCdc">   -810.67263402 </i>
    <i name="pawpsdc">   1100.25257571 </i>
    <i name="pawaedc">   -109.82147084 </i>
    <i name="eentropy">     -0.02179663 </i>
    <i name="bandstr">    317.77143676 </i>
    <i name="atom">   1659.66634407 </i>
    <i name="e_fr_energy">    -99.65901568 </i>
    <i name="e_wo_entrp">    -99.63721905 </i>
    <i name="e_0_energy">    -99.65175014 </i>
   </energy>
  </scstep>
  <scstep>
   <time name="diag">    2.42    1.65</time>
   <time name="diis">   23.93    7.26</time>
   <time name="orth">    0.17    0.04</time>
   <time name="total">   29.58   11.91</time>
   <energy>
    <i name="e_fr_energy">    -99.65845704 </i>
    <i name="e_wo_entrp">    -99.63481993 </i>
    <i name="e_0_energy">    -99.65057800 </i>
   </energy>
  </scstep>
  <scstep>
   <time name="diag">    2.39    1.63</time>
   <time name="diis">   22.37    6.58</time>
   <time name="orth">    0.17    0.04</time>
   <time name="total">   28.18   11.41</time>
   <energy>
    <i name="e_fr_energy">    -99.65840637 </i>
    <i name="e_wo_entrp">    -99.63291878 </i>
    <i name="e_0_energy">    -99.64991051 </i>
   </energy>
  </scstep>
  <scstep>
   <time name="diag">    2.39    1.64</time>
   <time name="diis">   18.98    5.70</time>
   <time name="orth">    0.16    0.04</time>
   <time name="total">   24.79   10.49</time>
   <energy>
    <i name="e_fr_energy">    -99.65825155 </i>
    <i name="e_wo_entrp">    -99.63330398 </i>
    <i name="e_0_energy">    -99.64993570 </i>
   </energy>
  </scstep>
  <scstep>
   <time name="diag">    2.38    1.63</time>
   <time name="diis">   13.63    4.12</time>
   <time name="orth">    0.17    0.04</time>
   <time name="total">   18.36    7.92</time>
   <energy>
    <i name="alphaZ">     -6.10292531 </i>
    <i name="ewald">  -2216.39836335 </i>
    <i name="hartreedc">    -34.43668996 </i>
    <i name="XCdc">   -810.66987082 </i>
    <i name="pawpsdc">   1100.32341299 </i>
    <i name="pawaedc">   -109.89595997 </i>
    <i name="eentropy">     -0.02490489 </i>
    <i name="bandstr">    317.88070208 </i>
    <i name="atom">   1659.66634407 </i>
    <i name="e_fr_energy">    -99.65825515 </i>
    <i name="e_wo_entrp">    -99.63335026 </i>
    <i name="e_0_energy">    -99.64995352 </i>
   </energy>
  </scstep>
  <structure>
   <crystal>
    <varray name="basis" >
     <v>       8.08705400       0.00000000       0.00000000 </v>
     <v>       0.00000000       8.08705400       0.00000000 </v>
     <v>       0.00000000       0.00000000       8.08705400 </v>
    </varray>
    <i name="volume">    528.89690930 </i>
    <varray name="rec_basis" >
     <v>       0.12365442       0.00000000       0.00000000 </v>
     <v>       0.00000000       0.12365442       0.00000000 </v>
     <v>       0.00000000       0.00000000       0.12365442 </v>
    </varray>
   </crystal>
   <varray name="positions" >
    <v>       0.00030143       0.00000000       0.00030143 </v>
    <v>       0.25000000       0.00000000       0.25000000 </v>
    <v>       0.25000000       0.24485213      -0.00514787 </v>
    <v>      -0.00514787       0.24485213       0.25000000 </v>
    <v>       0.49969857       0.00000000       0.00030143 </v>
    <v>       0.75000000       0.00000000       0.25000000 </v>
    <v>       0.75000000       0.25030143       0.00030143 </v>
    <v>       0.50514787       0.24485213       0.25000000 </v>
    <v>      -0.00514787       0.50000000      -0.00514787 </v>
    <v>       0.25000000       0.75514787      -0.00514787 </v>
    <v>      -0.00514787       0.75514787       0.25000000 </v>
    <v>       0.50514787       0.50000000      -0.00514787 </v>
    <v>       0.75000000       0.50000000       0.25000000 </v>
    <v>       0.75000000       0.74969857       0.00030143 </v>
    <v>       0.50514787       0.75514787       0.25000000 </v>
    <v>       0.00030143       0.00000000       0.49969857 </v>
    <v>       0.25000000       0.00000000       0.75000000 </v>
    <v>       0.25000000       0.24485213       0.50514787 </v>
    <v>       0.00030143       0.25030143       0.75000000 </v>
    <v>       0.49969857       0.00000000       0.49969857 </v>
    <v>       0.75000000       0.00000000       0.75000000 </v>
    <v>       0.75000000       0.25030143       0.49969857 </v>
    <v>       0.49969857       0.25030143       0.75000000 </v>
    <v>      -0.00514787       0.50000000       0.50514787 </v>
    <v>       0.25000000       0.50000000       0.75000000 </v>
    <v>       0.25000000       0.75514787       0.50514787 </v>
    <v>       0.00030143       0.74969857       0.75000000 </v>
    <v>       0.50514787       0.50000000       0.50514787 </v>
    <v>       0.75000000       0.50000000       0.75000000 </v>
    <v>       0.75000000       0.74969857       0.49969857 </v>
    <v>       0.49969857       0.74969857       0.75000000 </v>
   </varray>
  </structure>
  <varray name="forces" >
   <v>      -0.00747942       0.00000000      -0.00747942 </v>
   <v>       0.00000000       0.00000000       0.00000000 </v>
   <v>       0.00000000      -0.09642203      -0.09642203 </v>
   <v>      -0.09642203      -0.09642203       0.00000000 </v>
   <v>       0.00747942       0.00000000      -0.00747942 </v>
   <v>       0.00000000       0.00000000       0.00000000 </v>
   <v>       0.00000000      -0.00747942      -0.00747942 </v>
   <v>       0.09642203      -0.09642203       0.00000000 </v>
   <v>      -0.09642203       0.00000000      -0.09642203 </v>
   <v>       0.00000000       0.09642203      -0.09642203 </v>
   <v>      -0.09642203       0.09642203       0.00000000 </v>
   <v>       0.09642203       0.00000000      -0.09642203 </v>
   <v>       0.00000000       0.00000000       0.00000000 </v>
   <v>       0.00000000       0.00747942      -0.00747942 </v>
   <v>       0.09642203       0.09642203       0.00000000 </v>
   <v>      -0.00747942       0.00000000       0.00747942 </v>
   <v>       0.00000000       0.00000000       0.00000000 </v>
   <v>       0.00000000      -0.09642203       0.09642203 </v>
   <v>      -0.00747942      -0.00747942       0.00000000 </v>
   <v>       0.00747942       0.00000000       0.00747942 </v>
   <v>       0.00000000       0.00000000       0.00000000 </v>
   <v>       0.00000000      -0.00747942       0.00747942 </v>
   <v>       0.00747942      -0.00747942       0.00000000 </v>
   <v>      -0.09642203       0.00000000       0.09642203 </v>
   <v>       0.00000000       0.00000000       0.00000000 </v>
   <v>       0.00000000       0.09642203       0.09642203 </v>
   <v>      -0.00747942       0.00747942       0.00000000 </v>
   <v>       0.09642203       0.00000000       0.09642203 </v>
   <v>       0.00000000       0.00000000       0.00000000 </v>
   <v>       0.00000000       0.00747942       0.00747942 </v>
   <v>       0.00747942       0.00747942       0.00000000 </v>
  </varray>
  <varray name="stress" >
   <v>     -23.64232336       0.00000000       0.00000000 </v>
   <v>       0.00000000     -23.64232336       0.00000000 </v>
   <v>       0.00000000       0.00000000     -23.64232336 </v>
  </varray>
  <energy>
   <i name="e_fr_energy">    -99.65825515 </i>
   <i name="e_wo_entrp">    -99.64995352 </i>
   <i name="e_0_energy">     -0.02490489 </i>
  </energy>
  <time name="totalsc">  160.51   70.11</time>
 </calculation>
 <calculation>
  <scstep>
   <time name="diag">    2.39    1.64</time>
   <time name="diis">   22.25    6.68</time>
   <time name="orth">    0.17    0.04</time>
   <time name="total">   28.25   11.54</time>
   <energy>
    <i name="alphaZ">     -6.10292531 </i>
    <i name="ewald">  -2210.95257472 </i>
    <i name="hartreedc">    -38.81653894 </i>
    <i name="XCdc">   -810.57278140 </i>
    <i name="pawpsdc">   1100.33213303 </i>
    <i name="pawaedc">   -109.90509446 </i>
    <i name="eentropy">     -0.02780832 </i>
    <i name="bandstr">    316.69470161 </i>
    <i name="atom">   1659.66634407 </i>
    <i name="e_fr_energy">    -99.68454444 </i>
    <i name="e_wo_entrp">    -99.65673611 </i>
    <i name="e_0_energy">    -99.67527500 </i>
   </energy>
  </scstep>
  <scstep>
   <time name="diag">    2.39    1.64</time>
   <time name="diis">   23.56    6.99</time>
   <time name="orth">    0.17    0.04</time>
   <time name="total">   29.34   11.80</time>
   <energy>
    <i name="e_fr_energy">    -99.68289262 </i>
    <i name="e_wo_entrp">    -99.65664083 </i>
    <i name="e_0_energy">    -99.67414202 </i>
   </energy>
  </scstep>
  <scstep>
   <time name="diag">    2.39    1.64</time>
   <time name="diis">   23.43    6.92</time>
   <time name="orth">    0.16    0.04</time>
   <time name="total">   29.21   11.72</time>
   <energy>
    <i name="e_fr_energy">    -99.68149844 </i>
    <i name="e_wo_entrp">    -99.65756930 </i>
    <i name="e_0_energy">    -99.67352206 </i>
   </energy>
  </scstep>
  <scstep>
   <time name="diag">    2.37    1.63</time>
   <time name="diis">   22.11    6.53</time>
   <time name="orth">    0.17    0.04</time>
   <time name="total">   27.98   11.39</time>
   <energy>
    <i name="e_fr_energy">    -99.68119749 </i>
    <i name="e_wo_entrp">    -99.65673574 </i>
    <i name="e_0_energy">    -99.67304357 </i>
   </energy>
  </scstep>
  <scstep>
   <time name="diag">    2.38    1.63</time>
   <time name="diis">   20.95    6.21</time>
   <time name="orth">    0.17    0.04</time>
   <time name="total">   26.85   11.05</time>
   <energy>
    <i name="e_fr_energy">    -99.68105890 </i>
    <i name="e_wo_entrp">    -99.65709256 </i>
    <i name="e_0_energy">    -99.67307012 </i>
   </energy>
  </scstep>
  <scstep>
   <time name="diag">    2.30    1.61</time>
   <time name="diis">   13.53    4.08</time>
   <time name="orth">    0.17    0.04</time>
   <time name="total">   18.11    7.76</time>
   <energy>
    <i name="alphaZ">     -6.10292531 </i>
    <i name="ewald">  -2210.95257472 </i>
    <i name="hartreedc">    -39.15803647 </i>
    <i name="XCdc">   -810.56265126 </i>
    <i name="pawpsdc">   1100.61737993 </i>
    <i name="pawaedc">   -110.20486637 </i>
    <i name="eentropy">     -0.02396624 </i>
    <i name="bandstr">    317.04023130 </i>
    <i name="atom">   1659.66634407 </i>
    <i name="e_fr_energy">    -99.68106506 </i>
    <i name="e_wo_entrp">    -99.65709883 </i>
    <i name="e_0_energy">    -99.67307632 </i>
   </energy>
  </scstep>
  <structure>
   <crystal>
    <varray name="basis" >
     <v>       8.08705400       0.00000000       0.00000000 </v>
     <v>       0.00000000       8.08705400       0.00000000 </v>
     <v>       0.00000000       0.00000000       8.08705400 </v>
    </varray>
    <i name="volume">    528.89690930 </i>
    <varray name="rec_basis" >
     <v>       0.12365442       0.00000000       0.00000000 </v>
     <v>       0.00000000       0.12365442       0.00000000 </v>
     <v>       0.00000000       0.00000000       0.12365442 </v>
    </varray>
   </crystal>
   <varray name="positions" >
    <v>       0.00044978       0.00000000       0.00044978 </v>
    <v>       0.25000000       0.00000000       0.25000000 </v>
    <v>       0.25000000       0.24259627      -0.00740373 </v>
    <v>      -0.00740373       0.24259627       0.25000000 </v>
    <v>       0.49955022       0.00000000       0.00044978 </v>
    <v>       0.75000000       0.00000000       0.25000000 </v>
    <v>       0.75000000       0.25044978       0.00044978 </v>
    <v>       0.50740373       0.24259627       0.25000000 </v>
    <v>      -0.00740373       0.50000000      -0.00740373 </v>
    <v>       0.25000000       0.75740373      -0.00740373 </v>
    <v>      -0.00740373       0.75740373       0.25000000 </v>
    <v>       0.50740373       0.50000000      -0.00740373 </v>
    <v>       0.75000000       0.50000000       0.25000000 </v>
    <v>       0.75000000       0.74955022       0.00044978 </v>
    <v>       0.50740373       0.75740373       0.25000000 </v>
    <v>       0.00044978       0.00000000       0.49955022 </v>
    <v>       0.25000000       0.00000000       0.75000000 </v>
    <v>       0.25000000       0.24259627       0.50740373 </v>
    <v>       0.00044978       0.25044978       0.75000000 </v>
    <v>       0.49955022       0.00000000       0.49955022 </v>
    <v>       0.75000000       0.00000000       0.75000000 </v>
    <v>       0.75000000       0.25044978       0.49955022 </v>
    <v>       0.49955022       0.25044978       0.75000000 </v>
    <v>      -0.00740373       0.50000000       0.50740373 </v>
    <v>       0.25000000       0.50000000       0.75000000 </v>
    <v>       0.25000000       0.75740373       0.50740373 </v>
    <v>       0.00044978       0.74955022       0.75000000 </v>
    <v>       0.50740373       0.50000000       0.50740373 </v>
    <v>       0.75000000       0.50000000       0.75000000 </v>
    <v>       0.75000000       0.74955022       0.49955022 </v>
    <v>       0.49955022       0.74955022       0.75000000 </v>
   </varray>
  </structure>
  <varray name="forces" >
   <v>      -0.07692676       0.00000000      -0.07692676 </v>
   <v>       0.00000000       0.00000000       0.00000000 </v>
   <v>       0.00000000      -0.00886291      -0.00886291 </v>
   <v>      -0.00886291      -0.00886291       0.00000000 </v>
   <v>       0.07692676       0.00000000      -0.07692676 </v>
   <v>       0.00000000       0.00000000       0.00000000 </v>
   <v>       0.00000000      -0.07692676      -0.07692676 </v>
   <v>       0.00886291      -0.00886291       0.00000000 </v>
   <v>      -0.00886291       0.00000000      -0.00886291 </v>
   <v>       0.00000000       0.00886291      -0.00886291 </v>
   <v>      -0.00886291       0.00886291       0.00000000 </v>
   <v>       0.00886291       0.00000000      -0.00886291 </v>
   <v>       0.00000000       0.00000000       0.00000000 </v>
   <v>       0.00000000       0.07692676      -0.07692676 </v>
   <v>       0.00886291       0.00886291       0.00000000 </v>
   <v>      -0.07692676       0.00000000       0.07692676 </v>
   <v>       0.00000000       0.00000000       0.00000000 </v>
   <v>       0.00000000      -0.00886291       0.00886291 </v>
   <v>      -0.07692676      -0.07692676       0.00000000 </v>
   <v>       0.07692676       0.00000000       0.07692676 </v>
   <v>       0.00000000       0.00000000       0.00000000 </v>
   <v>       0.00000000      -0.07692676       0.07692676 </v>
   <v>       0.07692676      -0.07692676       0.00000000 </v>
   <v>      -0.00886291       0.00000000       0.00886291 </v>
   <v>       0.00000000       0.00000000       0.00000000 </v>
   <v>       0.00000000       0.00886291       0.00886291 </v>
   <v>      -0.07692676       0.07692676       0.00000000 </v>
   <v>       0.00886291       0.00000000       0.00886291 </v>
   <v>       0.00000000       0.00000000       0.00000000 </v>
   <v>       0.00000000       0.07692676       0.07692676 </v>
   <v>       0.07692676       0.07692676       0.00000000 </v>
  </varray>
  <varray name="stress" >
   <v>     -21.81342199       0.00000000       0.00000000 </v>
   <v>       0.00000000     -21.81342199       0.00000000 </v>
   <v>       0.00000000       0.00000000     -21.81342199 </v>
  </varray>
  <energy>
   <i name="e_fr_energy">    -99.68106506 </i>
   <i name="e_wo_entrp">    -99.67307632 </i>
   <i name="e_0_energy">     -0.02396624 </i>
  </energy>
  <time name="totalsc">  188.68   81.30</time>
  <eigenvalues>
   <array>
    <dimension dim="1">band</dimension>
    <dimension dim="2">kpoint</dimension>
    <dimension dim="3">spin</dimension>
    <field>eigene</field>
    <field>occ</field>
    <set>
     <set comment="spin 1">
      <set comment="kpoint 1">
       <r>   -3.4000    1.0000 </r>
       <r>   -1.3082    1.0000 </r>
       <r>   -1.3082    1.0000 </r>
       <r>   -1.1967    1.0000 </r>
       <r>   -1.1967    1.0000 </r>
       <r>   -1.1967    1.0000 </r>
       <r>   -0.6340    1.0000 </r>
       <r>    0.8435    1.0000 </r>
       <r>    0.8435    1.0000 </r>
       <r>    0.8435    1.0000 </r>
       <r>    0.9592    1.0000 </r>
       <r>    0.9592    1.0000 </r>
       <r>    0.9705    1.0000 </r>
       <r>    0.9705    1.0000 </r>
       <r>    0.9705    1.0000 </r>
       <r>    1.3316    1.0000 </r>
       <r>    1.3316    1.0000 </r>
       <r>    1.3316    1.0000 </r>
       <r>    2.1225    1.0000 </r>
       <r>    3.0139    1.0000 </r>
       <r>    3.2814    1.0000 </r>
       <r>    3.2814    1.0000 </r>
       <r>    3.2814    1.0000 </r>
       <r>    3.3036    1.0000 </r>
       <r>    3.3036    1.0000 </r>
       <r>    3.3036    1.0000 </r>
       <r>    4.2809    1.0000 </r>
       <r>    4.8750    1.0000 </r>
       <r>    4.8750    1.0000 </r>
       <r>    4.8750    1.0000 </r>
       <r>    6.1299    1.0000 </r>
       <r>    6.1299    1.0000 </r>
       <r>    6.4705    1.0000 </r>
       <r>    6.6850    1.0000 </r>
       <r>    6.6850    1.0000 </r>
       <r>    6.6850    1.0000 </r>
       <r>    6.7118    1.0000 </r>
       <r>    6.7118    1.0000 </r>
       <r>    6.7118    1.0000 </r>
       <r>    7.0153    1.0000 </r>
       <r>    7.0153    1.0000 </r>
       <r>    7.0153    1.0000 </r>
       <r>    7.3648    1.0010 </r>
       <r>    7.3648    1.0010 </r>
       <r>    7.3648    1.0010 </r>
       <r>    7.5929    1.0320 </r>
       <r>    7.9571    0.1718 </r>
       <r>    7.9571    0.1718 </r>
       <r>    7.9571    0.1718 </r>
       <r>    8.1823   -0.0252 </r>
       <r>    8.1823   -0.0252 </r>
       <r>    8.7046    0.0000 </r>
       <r>    8.7128    0.0000 </r>
       <r>    8.7620    0.0000 </r>
       <r>    8.7621    0.0000 </r>
       <r>    8.7625    0.0000 </r>
       <r>    8.7662    0.0000 </r>
       <r>    8.7946    0.0000 </r>
       <r>    8.8286    0.0000 </r>
       <r>    8.8287    0.0000 </r>
       <r>    9.1489    0.0000 </r>
       <r>    9.2022    0.0000 </r>
      </set>
     </set>
    </set>
   </array>
  </eigenvalues>
  <separator name="orbital magnetization" >
   <v name="MAGDIPOLOUT">      0.00000000      0.00000000      0.00000000</v>
  </separator>
  <dos>
   <i name="efermi">      7.87143069 </i>
   <total>
    <array>
     <dimension dim="1">gridpoints</dimension>
     <dimension dim="2">spin</dimension>
     <field>energy</field>
     <field>total</field>
     <field>integrated</field>
     <set>
      <set comment="spin 1">
       <r>  -5.4000   0.0000   0.0000 </r>
       <r>  -5.3446   0.0000   0.0000 </r>
       <r>  -5.2893   0.0000   0.0000 </r>
       <r>  -5.2340   0.0000   0.0000 </r>
       <r>  -5.1786   0.0000   0.0000 </r>
       <r>  -5.1233   0.0000   0.0000 </r>
       <r>  -5.0679   0.0000   0.0000 </r>
       <r>  -5.0126   0.0000   0.0000 </r>
       <r>  -4.9573   0.0000   0.0000 </r>
       <r>  -4.9019   0.0000   0.0000 </r>
       <r>  -4.8466   0.0000   0.0000 </r>
       <r>  -4.7912   0.0000   0.0000 </r>
       <r>  -4.7359   0.0000   0.0000 </r>
       <r>  -4.6806   0.0000   0.0000 </r>
       <r>  -4.6252   0.0000   0.0000 </r>
       <r>  -4.5699   0.0000   0.0000 </r>
       <r>  -4.5145   0.0000   0.0000 </r>
       <r>  -4.4592   0.0000   0.0000 </r>
       <r>  -4.4038   0.0000   0.0000 </r>
       <r>  -4.3485   0.0000   0.0000 </r>
       <r>  -4.2932   0.0000   0.0000 </r>
       <r>  -4.2378   0.0000   0.0000 </r>
       <r>  -4.1825   0.0000   0.0000 </r>
       <r>  -4.1271  -0.0001   0.0000 </r>
       <r>  -4.0718  -0.0003   0.0000 </r>
       <r>  -4.0165  -0.0017  -0.0001 </r>
       <r>  -3.9611  -0.0075  -0.0005 </r>
       <r>  -3.9058  -0.0271  -0.0020 </r>
       <r>  -3.8504  -0.0810  -0.0065 </r>
       <r>  -3.7951  -0.1947  -0.0173 </r>
       <r>  -3.7398  -0.3596  -0.0372 </r>
       <r>  -3.6844  -0.4459  -0.0619 </r>
       <r>  -3.6291  -0.1247  -0.0688 </r>
       <r>  -3.5737   1.0395  -0.0112 </r>
       <r>  -3.5184   3.2227   0.1671 </r>
       <r>  -3.4631   5.9150   0.4944 </r>
       <r>  -3.4077   7.9522   0.9345 </r>
       <r>  -3.3524   8.2382   1.3904 </r>
       <r>  -3.2970   6.6079   1.7561 </r>
       <r>  -3.2417   3.9665   1.9756 </r>
       <r>  -3.1864   1.5545   2.0617 </r>
       <r>  -3.1310   0.0996   2.0672 </r>
       <r>  -3.0757  -0.4159   2.0441 </r>
       <r>  -3.0203  -0.4019   2.0219 </r>
       <r>  -2.9650  -0.2381   2.0087 </r>
       <r>  -2.9097  -0.1059   2.0029 </r>
       <r>  -2.8543  -0.0376   2.0008 </r>
       <r>  -2.7990  -0.0109   2.0002 </r>
       <r>  -2.7436  -0.0026   2.0000 </r>
       <r>  -2.6883  -0.0005   2.0000 </r>
       <r>  -2.6330  -0.0001   2.0000 </r>
       <r>  -2.5776   0.0000   2.0000 </r>
       <r>  -2.5223   0.0000   2.0000 </r>
       <r>  -2.4669   0.0000   2.0000 </r>
       <r>  -2.4116   0.0000   2.0000 </r>
       <r>  -2.3563   0.0000   2.0000 </r>
       <r>  -2.3009   0.0000   2.0000 </r>
       <r>  -2.2456   0.0000   2.0000 </r>
       <r>  -2.1902   0.0000   2.0000 </r>
       <r>  -2.1349   0.0000   2.0000 </r>
       <r>  -2.0795   0.0000   2.0000 </r>
       <r>  -2.0242  -0.0002   2.0000 </r>
       <r>  -1.9689  -0.0010   1.9999 </r>
       <r>  -1.9135  -0.0049   1.9997 </r>
       <r>  -1.8582  -0.0210   1.9985 </r>
       <r>  -1.8028  -0.0756   1.9943 </r>
       <r>  -1.7475  -0.2257   1.9818 </r>
       <r>  -1.6922  -0.5523   1.9513 </r>
       <r>  -1.6368  -1.0730   1.8919 </r>
       <r>  -1.5815  -1.5260   1.8074 </r>
       <r>  -1.5261  -1.1085   1.7461 </r>
       <r>  -1.4708   1.5127   1.8298 </r>
       <r>  -1.4155   7.5599   2.2482 </r>
       <r>  -1.3601  16.9658   3.1871 </r>
       <r>  -1.3048  27.4985   4.7088 </r>
       <r>  -1.2494  35.2553   6.6599 </r>
       <r>  -1.1941  36.7081   8.6913 </r>
       <r>  -1.1388  31.0194  10.4080 </r>
       <r>  -1.0834  20.7221  11.5547 </r>
       <r>  -1.0281  10.0574  12.1113 </r>
       <r>  -0.9727   2.3559  12.2417 </r>
       <r>  -0.9174  -1.3655  12.1661 </r>
       <r>  -0.8621  -1.8445  12.0640 </r>
       <r>  -0.8067  -0.2269  12.0515 </r>
       <r>  -0.7514   2.5860  12.1946 </r>
       <r>  -0.6960   5.6805  12.5090 </r>
       <r>  -0.6407   7.8813  12.9451 </r>
       <r>  -0.5854   8.1977  13.3988 </r>
       <r>  -0.5300   6.5579  13.7617 </r>
       <r>  -0.4747   3.9148  13.9783 </r>
       <r>  -0.4193   1.5175  14.0623 </r>
       <r>  -0.3640   0.0823  14.0669 </r>
       <r>  -0.3087  -0.4190  14.0437 </r>
       <r>  -0.2533  -0.3994  14.0216 </r>
       <r>  -0.1980  -0.2351  14.0086 </r>
       <r>  -0.1426  -0.1041  14.0028 </r>
       <r>  -0.0873  -0.0368  14.0008 </r>
       <r>  -0.0320  -0.0107  14.0002 </r>
       <r>   0.0234  -0.0026  14.0000 </r>
       <r>   0.0787  -0.0006  14.0000 </r>
       <r>   0.1341  -0.0004  14.0000 </r>
       <r>   0.1894  -0.0018  13.9999 </r>
       <r>   0.2448  -0.0088  13.9994 </r>
       <r>   0.3001  -0.0366  13.9974 </r>
       <r>   0.3554  -0.1283  13.9903 </r>
       <r>   0.4108  -0.3734  13.9696 </r>
       <r>   0.4661  -0.8888  13.9204 </r>
       <r>   0.5215  -1.6734  13.8278 </r>
       <r>   0.5768  -2.2816  13.7016 </r>
       <r>   0.6321  -1.4699  13.6202 </r>
       <r>   0.6875   2.7198  13.7707 </r>
       <r>   0.7428  12.0024  14.4349 </r>
       <r>   0.7982  26.2269  15.8863 </r>
       <r>   0.8535  42.1947  18.2214 </r>
       <r>   0.9088  54.2417  21.2232 </r>
       <r>   0.9642  56.9652  24.3757 </r>
       <r>   1.0195  48.7559  27.0738 </r>
       <r>   1.0749  33.5476  28.9304 </r>
       <r>   1.1302  18.9217  29.9775 </r>
       <r>   1.1855  11.4624  30.6118 </r>
       <r>   1.2409  12.6901  31.3141 </r>
       <r>   1.2962  18.5785  32.3423 </r>
       <r>   1.3516  22.8954  33.6093 </r>
       <r>   1.4069  21.6936  34.8098 </r>
       <r>   1.4622  15.4947  35.6673 </r>
       <r>   1.5176   7.8293  36.1006 </r>
       <r>   1.5729   2.0220  36.2125 </r>
       <r>   1.6283  -0.8060  36.1679 </r>
       <r>   1.6836  -1.4431  36.0880 </r>
       <r>   1.7389  -1.1953  36.0219 </r>
       <r>   1.7943  -0.8833  35.9730 </r>
       <r>   1.8496  -0.6213  35.9386 </r>
       <r>   1.9050  -0.0266  35.9372 </r>
       <r>   1.9603   1.3994  36.0146 </r>
       <r>   2.0156   3.7709  36.2233 </r>
       <r>   2.0710   6.4378  36.5796 </r>
       <r>   2.1263   8.1799  37.0322 </r>
       <r>   2.1817   8.0391  37.4771 </r>
       <r>   2.2370   6.0971  37.8145 </r>
       <r>   2.2923   3.4081  38.0031 </r>
       <r>   2.3477   1.1620  38.0675 </r>
       <r>   2.4030  -0.0765  38.0632 </r>
       <r>   2.4584  -0.4502  38.0383 </r>
       <r>   2.5137  -0.4017  38.0161 </r>
       <r>   2.5690  -0.2950  37.9998 </r>
       <r>   2.6244  -0.2990  37.9832 </r>
       <r>   2.6797  -0.4172  37.9601 </r>
       <r>   2.7351  -0.4983  37.9325 </r>
       <r>   2.7904  -0.2345  37.9196 </r>
       <r>   2.8458   0.6887  37.9577 </r>
       <r>   2.9011   2.2519  38.0823 </r>
       <r>   2.9564   3.9592  38.3014 </r>
       <r>   3.0118   5.4725  38.6042 </r>
       <r>   3.0671   7.7940  39.0356 </r>
       <r>   3.1225  13.4250  39.7785 </r>
       <r>   3.1778  24.1388  41.1144 </r>
       <r>   3.2331  37.7880  43.2056 </r>
       <r>   3.2885  47.9895  45.8613 </r>
       <r>   3.3438  48.4338  48.5417 </r>
       <r>   3.3992  38.1899  50.6551 </r>
       <r>   3.4545  22.5352  51.9022 </r>
       <r>   3.5098   8.5724  52.3766 </r>
       <r>   3.5652   0.3162  52.3941 </r>
       <r>   3.6205  -2.5092  52.2553 </r>
       <r>   3.6759  -2.3463  52.1254 </r>
       <r>   3.7312  -1.3802  52.0491 </r>
       <r>   3.7865  -0.6396  52.0137 </r>
       <r>   3.8419  -0.3125  51.9964 </r>
       <r>   3.8972  -0.2882  51.9804 </r>
       <r>   3.9526  -0.4065  51.9579 </r>
       <r>   4.0079  -0.4304  51.9341 </r>
       <r>   4.0632   0.0328  51.9359 </r>
       <r>   4.1186   1.4106  52.0140 </r>
       <r>   4.1739   3.7669  52.2224 </r>
       <r>   4.2293   6.4297  52.5783 </r>
       <r>   4.2846   8.1671  53.0302 </r>
       <r>   4.3399   8.0001  53.4730 </r>
       <r>   4.3953   5.9643  53.8030 </r>
       <r>   4.4506   3.0375  53.9711 </r>
       <r>   4.5060   0.3578  53.9909 </r>
       <r>   4.5613  -1.3483  53.9163 </r>
       <r>   4.6166  -1.5589  53.8300 </r>
       <r>   4.6720   0.5157  53.8586 </r>
       <r>   4.7273   5.6511  54.1713 </r>
       <r>   4.7827  13.3766  54.9116 </r>
       <r>   4.8380  21.0777  56.0780 </r>
       <r>   4.8933  25.0223  57.4628 </r>
       <r>   4.9487  23.0194  58.7367 </r>
       <r>   5.0040  16.2323  59.6350 </r>
       <r>   5.0594   8.2188  60.0898 </r>
       <r>   5.1147   2.2093  60.2121 </r>
       <r>   5.1701  -0.7154  60.1725 </r>
       <r>   5.2254  -1.3440  60.0981 </r>
       <r>   5.2807  -0.9832  60.0437 </r>
       <r>   5.3361  -0.5031  60.0159 </r>
       <r>   5.3914  -0.2004  60.0048 </r>
       <r>   5.4468  -0.0650  60.0012 </r>
       <r>   5.5021  -0.0197  60.0001 </r>
       <r>   5.5574  -0.0151  59.9993 </r>
       <r>   5.6128  -0.0431  59.9969 </r>
       <r>   5.6681  -0.1319  59.9896 </r>
       <r>   5.7235  -0.3320  59.9712 </r>
       <r>   5.7788  -0.6513  59.9352 </r>
       <r>   5.8341  -0.8964  59.8856 </r>
       <r>   5.8895  -0.4945  59.8582 </r>
       <r>   5.9448   1.4178  59.9366 </r>
       <r>   6.0002   5.3598  60.2333 </r>
       <r>   6.0555  10.6023  60.8200 </r>
       <r>   6.1108  14.9830  61.6492 </r>
       <r>   6.1662  16.1615  62.5435 </r>
       <r>   6.2215  13.5062  63.2910 </r>
       <r>   6.2769   8.7447  63.7749 </r>
       <r>   6.3322   4.6210  64.0306 </r>
       <r>   6.3875   3.0256  64.1981 </r>
       <r>   6.4429   4.5951  64.4524 </r>
       <r>   6.4982   9.7738  64.9933 </r>
       <r>   6.5536  19.1951  66.0555 </r>
       <r>   6.6089  31.9777  67.8252 </r>
       <r>   6.6642  43.8907  70.2541 </r>
       <r>   6.7196  48.9134  72.9610 </r>
       <r>   6.7749  44.1691  75.4054 </r>
       <r>   6.8303  33.2323  77.2444 </r>
       <r>   6.8856  23.4908  78.5444 </r>
       <r>   6.9409  19.7523  79.6375 </r>
       <r>   6.9963  20.6295  80.7792 </r>
       <r>   7.0516  21.1088  81.9474 </r>
       <r>   7.1070  18.1253  82.9504 </r>
       <r>   7.1623  13.3993  83.6919 </r>
       <r>   7.2176  11.2199  84.3129 </r>
       <r>   7.2730  13.9332  85.0839 </r>
       <r>   7.3283  19.6225  86.1698 </r>
       <r>   7.3837  23.9126  87.4932 </r>
       <r>   7.4390  23.8106  88.8109 </r>
       <r>   7.4944  19.7620  89.9045 </r>
       <r>   7.5497  14.3055  90.6962 </r>
       <r>   7.6050   9.4388  91.2185 </r>
       <r>   7.6604   5.7249  91.5353 </r>
       <r>   7.7157   3.4808  91.7280 </r>
       <r>   7.7711   3.8056  91.9386 </r>
       <r>   7.8264   7.7802  92.3691 </r>
       <r>   7.8817  14.7203  93.1838 </r>
       <r>   7.9371  21.7821  94.3892 </r>
       <r>   7.9924  25.8810  95.8215 </r>
       <r>   8.0478  26.1038  97.2661 </r>
       <r>   8.1031  23.9118  98.5894 </r>
       <r>   8.1584  21.0076  99.7519 </r>
       <r>   8.2138  17.6070 100.7263 </r>
       <r>   8.2691  13.0266 101.4472 </r>
       <r>   8.3245   7.2843 101.8503 </r>
       <r>   8.3798   1.5267 101.9348 </r>
       <r>   8.4351  -2.6804 101.7865 </r>
       <r>   8.4905  -3.6442 101.5848 </r>
       <r>   8.5458   0.8290 101.6307 </r>
       <r>   8.6012  12.8757 102.3432 </r>
       <r>   8.6565  32.1432 104.1220 </r>
       <r>   8.7118  53.4241 107.0786 </r>
       <r>   8.7672  67.8148 110.8315 </r>
       <r>   8.8225  68.0966 114.6000 </r>
       <r>   8.8779  54.2113 117.6000 </r>
       <r>   8.9332  33.6430 119.4619 </r>
       <r>   8.9885  16.1839 120.3575 </r>
       <r>   9.0439   7.7253 120.7850 </r>
       <r>   9.0992   7.8026 121.2168 </r>
       <r>   9.1546  11.6388 121.8609 </r>
       <r>   9.2099  14.1481 122.6439 </r>
       <r>   9.2652  12.9450 123.3602 </r>
       <r>   9.3206   8.8387 123.8494 </r>
       <r>   9.3759   4.1993 124.0818 </r>
       <r>   9.4313   0.9067 124.1319 </r>
       <r>   9.4866  -0.5762 124.1001 </r>
       <r>   9.5419  -0.8130 124.0551 </r>
       <r>   9.5973  -0.5601 124.0241 </r>
       <r>   9.6526  -0.2787 124.0086 </r>
       <r>   9.7080  -0.1093 124.0026 </r>
       <r>   9.7633  -0.0350 124.0007 </r>
       <r>   9.8187  -0.0093 124.0001 </r>
       <r>   9.8740  -0.0021 124.0000 </r>
       <r>   9.9293  -0.0004 124.0000 </r>
       <r>   9.9847  -0.0001 124.0000 </r>
       <r>  10.0400   0.0000 124.0000 </r>
       <r>  10.0954   0.0000 124.0000 </r>
       <r>  10.1507   0.0000 124.0000 </r>
       <r>  10.2060   0.0000 124.0000 </r>
       <r>  10.2614   0.0000 124.0000 </r>
       <r>  10.3167   0.0000 124.0000 </r>
       <r>  10.3721   0.0000 124.0000 </r>
       <r>  10.4274   0.0000 124.0000 </r>
       <r>  10.4827   0.0000 124.0000 </r>
       <r>  10.5381   0.0000 124.0000 </r>
       <r>  10.5934   0.0000 124.0000 </r>
       <r>  10.6488   0.0000 124.0000 </r>
       <r>  10.7041   0.0000 124.0000 </r>
       <r>  10.7594   0.0000 124.0000 </r>
       <r>  10.8148   0.0000 124.0000 </r>
       <r>  10.8701   0.0000 124.0000 </r>
       <r>  10.9255   0.0000 124.0000 </r>
       <r>  10.9808   0.0000 124.0000 </r>
       <r>  11.0361   0.0000 124.0000 </r>
       <r>  11.0915   0.0000 124.0000 </r>
       <r>  11.1468   0.0000 124.0000 </r>
       <r>  11.2022   0.0000 124.0000 </r>
      </set>
     </set>
    </array>
   </total>
  </dos>
 </calculation>
 <structure name="finalpos" >
  <crystal>
   <varray name="basis" >
    <v>       8.08705400       0.00000000       0.00000000 </v>
    <v>       0.00000000       8.08705400       0.00000000 </v>
    <v>       0.00000000       0.00000000       8.08705400 </v>
   </varray>
   <i name="volume">    528.89690930 </i>
   <varray name="rec_basis" >
    <v>       0.12365442       0.00000000       0.00000000 </v>
    <v>       0.00000000       0.12365442       0.00000000 </v>
    <v>       0.00000000       0.00000000       0.12365442 </v>
   </varray>
  </crystal>
  <varray name="positions" >
   <v>       0.00044978       0.00000000       0.00044978 </v>
   <v>       0.25000000       0.00000000       0.25000000 </v>
   <v>       0.25000000       0.24259627      -0.00740373 </v>
   <v>      -0.00740373       0.24259627       0.25000000 </v>
   <v>       0.49955022       0.00000000       0.00044978 </v>
   <v>       0.75000000       0.00000000       0.25000000 </v>
   <v>       0.75000000       0.25044978       0.00044978 </v>
   <v>       0.50740373       0.24259627       0.25000000 </v>
   <v>      -0.00740373       0.50000000      -0.00740373 </v>
   <v>       0.25000000       0.75740373      -0.00740373 </v>
   <v>      -0.00740373       0.75740373       0.25000000 </v>
   <v>       0.50740373       0.50000000      -0.00740373 </v>
   <v>       0.75000000       0.50000000       0.25000000 </v>
   <v>       0.75000000       0.74955022       0.00044978 </v>
   <v>       0.50740373       0.75740373       0.25000000 </v>
   <v>       0.00044978       0.00000000       0.49955022 </v>
   <v>       0.25000000       0.00000000       0.75000000 </v>
   <v>       0.25000000       0.24259627       0.50740373 </v>
   <v>       0.00044978       0.25044978       0.75000000 </v>
   <v>       0.49955022       0.00000000       0.49955022 </v>
   <v>       0.75000000       0.00000000       0.75000000 </v>
   <v>       0.75000000       0.25044978       0.49955022 </v>
   <v>       0.49955022       0.25044978       0.75000000 </v>
   <v>      -0.00740373       0.50000000       0.50740373 </v>
   <v>       0.25000000       0.50000000       0.75000000 </v>
   <v>       0.25000000       0.75740373       0.50740373 </v>
   <v>       0.00044978       0.74955022       0.75000000 </v>
   <v>       0.50740373       0.50000000       0.50740373 </v>
   <v>       0.75000000       0.50000000       0.75000000 </v>
   <v>       0.75000000       0.74955022       0.49955022 </v>
   <v>       0.49955022       0.74955022       0.75000000 </v>
  </varray>
 </structure>
</modeling>
