Processors received = 1
script running on host compute-0-2.local
PBS_NODEFILE
compute-0-2
 running on    1 nodes
 distr:  one band on    1 nodes,    1 groups
 vasp.5.2.2 15Apr09 complex 
 POSCAR found type information on POSCAR  Al
 POSCAR found :  1 types and   31 ions

 ----------------------------------------------------------------------------- 
|                                                                             |
|  ADVICE TO THIS USER RUNNING 'VASP/VAMP'   (HEAR YOUR MASTER'S VOICE ...):  |
|                                                                             |
|      You have a (more or less) 'large supercell' and for larger cells       |
|      it might be more efficient to use real space projection operators      |
|      So try LREAL= Auto  in the INCAR   file.                               |
|      Mind: If you want to do a very accurate calculations keep the          |
|      reciprocal projection scheme          (i.e. LREAL=.FALSE.)             |
|                                                                             |
 ----------------------------------------------------------------------------- 

 LDA part: xc-table for Pade appr. of Perdew
 POSCAR, INCAR and KPOINTS ok, starting setup
 FFT: planning ...(           4 )
 reading WAVECAR
 entering main loop
       N       E                     dE             d eps       ncg     rms          rms(c)
RMM:   1     0.312293913344E+03    0.31229E+03   -0.17052E+04    62   0.648E+02
RMM:   2    -0.225049363196E+01   -0.31454E+03   -0.30973E+03    62   0.139E+02
RMM:   3    -0.679087644224E+02   -0.65658E+02   -0.69533E+02    62   0.458E+01
RMM:   4    -0.853426835794E+02   -0.17434E+02   -0.16613E+02    62   0.265E+01
RMM:   5    -0.926630557426E+02   -0.73204E+01   -0.60285E+01    62   0.146E+01
RMM:   6    -0.961272516320E+02   -0.34642E+01   -0.29019E+01    62   0.929E+00
RMM:   7    -0.980686148218E+02   -0.19414E+01   -0.16766E+01    62   0.616E+00
RMM:   8    -0.991942549725E+02   -0.11256E+01   -0.10253E+01    62   0.434E+00
RMM:   9    -0.100778739562E+03   -0.15845E+01   -0.15377E+01   157   0.308E+00
RMM:  10    -0.100960723678E+03   -0.18198E+00   -0.14169E+00   140   0.624E-01
RMM:  11    -0.100976617781E+03   -0.15894E-01   -0.71953E-02   116   0.137E-01
RMM:  12    -0.100977403622E+03   -0.78584E-03   -0.65688E-03    94   0.409E-02    0.651E+00
RMM:  13    -0.998857329293E+02    0.10917E+01   -0.38275E+00   127   0.246E+00    0.388E+00
RMM:  14    -0.996240644869E+02    0.26167E+00   -0.27103E-01   126   0.102E+00    0.221E+00
RMM:  15    -0.995112907280E+02    0.11277E+00   -0.13212E-01   128   0.762E-01    0.504E-01
RMM:  16    -0.995031659344E+02    0.81248E-02   -0.14560E-02   129   0.226E-01    0.140E-01
RMM:  17    -0.995025463655E+02    0.61957E-03   -0.53910E-03   132   0.117E-01    0.482E-02
RMM:  18    -0.995025308597E+02    0.15506E-04   -0.12728E-03   118   0.552E-02    0.213E-02
RMM:  19    -0.995025146476E+02    0.16212E-04   -0.15811E-04    85   0.246E-02
   1 F= -.99502515E+02 E0= -.99452172E+02  d E =-.995025E+02
 curvature:   0.00 expect dE= 0.000E+00 dE for cont linesearch  0.000E+00
 trial: gam= 0.00000 g(F)=  0.394E-01 g(S)=  0.000E+00 ort = 0.000E+00 (trialstep = 0.100E+01)
 search vector abs. value=  0.394E-01
 bond charge predicted
       N       E                     dE             d eps       ncg     rms          rms(c)
RMM:   1    -0.995475176035E+02   -0.44987E-01   -0.31431E-01   124   0.148E+00    0.256E-01
RMM:   2    -0.995419161758E+02    0.56014E-02   -0.15427E-02   124   0.259E-01    0.701E-02
RMM:   3    -0.995416599070E+02    0.25627E-03   -0.14498E-03   114   0.743E-02    0.306E-02
RMM:   4    -0.995416496675E+02    0.10240E-04   -0.11937E-04    80   0.244E-02
   2 F= -.99541650E+02 E0= -.99502778E+02  d E =-.391350E-01
 ZBRENT: can't locate minimum, use default step
 trial-energy change:   -0.039135  1 .order   -0.038988   -0.039437   -0.038538
 step:   4.0000(harm= 43.8694)  dis= 0.03556  next Energy=  -100.367560 (dE=-0.865E+00)
 bond charge predicted
       N       E                     dE             d eps       ncg     rms          rms(c)
RMM:   1    -0.996687645380E+02   -0.12710E+00   -0.28403E+00   124   0.441E+00    0.486E-01
RMM:   2    -0.996473879140E+02    0.21377E-01   -0.10317E-01   131   0.665E-01    0.237E-01
RMM:   3    -0.996447664586E+02    0.26215E-02   -0.64401E-02   127   0.375E-01    0.133E-01
RMM:   4    -0.996423254538E+02    0.24410E-02   -0.70771E-03   122   0.131E-01    0.522E-02
RMM:   5    -0.996424667348E+02   -0.14128E-03   -0.23508E-03   116   0.531E-02    0.370E-02
RMM:   6    -0.996423691051E+02    0.97630E-04   -0.52010E-04    99   0.325E-02
   3 F= -.99642369E+02 E0= -.99630875E+02  d E =-.139854E+00
 curvature:  -2.96 expect dE=-0.503E-01 dE for cont linesearch -0.503E-01
 ZBRENT: increasing intervall
 opt :  10.0000  next Energy=   -99.721785 (dE=-0.219E+00)
 bond charge predicted
       N       E                     dE             d eps       ncg     rms          rms(c)
RMM:   1    -0.996525959073E+02   -0.10129E-01   -0.11216E+01   124   0.874E+00    0.650E-01
RMM:   2    -0.996439381934E+02    0.86577E-02   -0.44169E-01   131   0.126E+00    0.409E-01
RMM:   3    -0.996307858885E+02    0.13152E-01   -0.14426E-01   127   0.601E-01    0.160E-01
RMM:   4    -0.996290302204E+02    0.17557E-02   -0.20311E-02   127   0.217E-01    0.117E-01
RMM:   5    -0.996284249229E+02    0.60530E-03   -0.63755E-03   123   0.126E-01    0.333E-02
RMM:   6    -0.996283934731E+02    0.31450E-04   -0.26583E-04    88   0.299E-02
   4 F= -.99628393E+02 E0= -.99610751E+02  d E =-.125879E+00
 curvature:  -4.67 expect dE=-0.345E+00 dE for cont linesearch -0.133E+00
 ZBRENT: bracketing found
 ZBRENT: interpolating
 opt :   6.6158  next Energy=   -99.676227 (dE=-0.174E+00)
 bond charge predicted
       N       E                     dE             d eps       ncg     rms          rms(c)
RMM:   1    -0.996895276247E+02   -0.61103E-01   -0.36219E+00   124   0.499E+00    0.368E-01
RMM:   2    -0.996862012470E+02    0.33264E-02   -0.14217E-01   132   0.694E-01    0.235E-01
RMM:   3    -0.996823649256E+02    0.38363E-02   -0.48256E-02   127   0.330E-01    0.103E-01
RMM:   4    -0.996816251811E+02    0.73974E-03   -0.95865E-03   126   0.135E-01    0.779E-02
RMM:   5    -0.996812434767E+02    0.38170E-03   -0.23079E-03   117   0.740E-02    0.212E-02
RMM:   6    -0.996812567771E+02   -0.13300E-04   -0.17413E-04    79   0.188E-02
   5 F= -.99681257E+02 E0= -.99673606E+02  d E =-.178742E+00
 curvature:  -1.19 expect dE=-0.746E-02 dE for cont linesearch -0.207E-03
 trial: gam= 0.09257 g(F)=  0.627E-02 g(S)=  0.000E+00 ort = 0.262E-02 (trialstep = 0.212E+01)
 search vector abs. value=  0.709E-02
 reached required accuracy - stopping structural energy minimisation
