  31  31   0   0
  0.1706119E+02  0.8087054E-09  0.8087054E-09  0.8087054E-09  0.5000000E-15
  1.000000000000000E-004
  CAR 
 unknown system                          
     11.20554556     -5.39946734  301      7.87146602      1.00000000
     -5.399  0.0000E+00  0.0000E+00
     -5.344  0.0000E+00  0.0000E+00
     -5.289  0.0000E+00  0.0000E+00
     -5.233  0.0000E+00  0.0000E+00
     -5.178  0.0000E+00  0.0000E+00
     -5.123  0.0000E+00  0.0000E+00
     -5.067  0.0000E+00  0.0000E+00
     -5.012 -0.2519E-28 -0.1394E-29
     -4.957 -0.1929E-26 -0.1081E-27
     -4.901 -0.1279E-24 -0.7189E-26
     -4.846 -0.7267E-23 -0.4094E-24
     -4.791 -0.3535E-21 -0.1998E-22
     -4.735 -0.1472E-19 -0.8349E-21
     -4.680 -0.5249E-18 -0.2989E-19
     -4.625 -0.1602E-16 -0.9163E-18
     -4.569 -0.4075E-15 -0.2347E-16
     -4.514 -0.9037E-14 -0.5236E-15
     -4.459 -0.1718E-12 -0.1003E-13
     -4.403 -0.2789E-11 -0.1644E-12
     -4.348 -0.3863E-10 -0.2303E-11
     -4.292 -0.4563E-09 -0.2756E-10
     -4.237 -0.4588E-08 -0.2815E-09
     -4.182 -0.3923E-07 -0.2453E-08
     -4.126 -0.2847E-06 -0.1821E-07
     -4.071 -0.1748E-05 -0.1150E-06
     -4.016 -0.9060E-05 -0.6165E-06
     -3.960 -0.3941E-04 -0.2798E-05
     -3.905 -0.1428E-03 -0.1070E-04
     -3.850 -0.4259E-03 -0.3428E-04
     -3.794 -0.1023E-02 -0.9090E-04
     -3.739 -0.1887E-02 -0.1954E-03
     -3.684 -0.2333E-02 -0.3245E-03
     -3.628 -0.6337E-03 -0.3596E-03
     -3.573  0.5492E-02 -0.5557E-04
     -3.518  0.1695E-01  0.8827E-03
     -3.462  0.3105E-01  0.2601E-02
     -3.407  0.4168E-01  0.4908E-02
     -3.352  0.4311E-01  0.7294E-02
     -3.296  0.3452E-01  0.9204E-02
     -3.241  0.2067E-01  0.1035E-01
     -3.185  0.8068E-02  0.1080E-01
     -3.130  0.4872E-03  0.1082E-01
     -3.075 -0.2184E-02  0.1070E-01
     -3.019 -0.2099E-02  0.1059E-01
     -2.964 -0.1240E-02  0.1052E-01
     -2.909 -0.5506E-03  0.1049E-01
     -2.853 -0.1951E-03  0.1048E-01
     -2.798 -0.5662E-04  0.1047E-01
     -2.743 -0.1366E-04  0.1047E-01
     -2.687 -0.2760E-05  0.1047E-01
     -2.632 -0.4701E-06  0.1047E-01
     -2.577 -0.6772E-07  0.1047E-01
     -2.521 -0.8274E-08  0.1047E-01
     -2.466 -0.8591E-09  0.1047E-01
     -2.411 -0.7596E-10  0.1047E-01
     -2.355 -0.6289E-11  0.1047E-01
     -2.300 -0.9374E-11  0.1047E-01
     -2.245 -0.1216E-09  0.1047E-01
     -2.189 -0.1400E-08  0.1047E-01
     -2.134 -0.1373E-07  0.1047E-01
     -2.078 -0.1147E-06  0.1047E-01
     -2.023 -0.8142E-06  0.1047E-01
     -1.968 -0.4904E-05  0.1047E-01
     -1.912 -0.2500E-04  0.1047E-01
     -1.857 -0.1075E-03  0.1046E-01
     -1.802 -0.3879E-03  0.1044E-01
     -1.746 -0.1165E-02  0.1038E-01
     -1.691 -0.2866E-02  0.1022E-01
     -1.636 -0.5605E-02  0.9909E-02
     -1.580 -0.8048E-02  0.9463E-02
     -1.525 -0.6008E-02  0.9131E-02
     -1.470  0.7561E-02  0.9549E-02
     -1.414  0.3922E-01  0.1172E-01
     -1.359  0.8874E-01  0.1663E-01
     -1.304  0.1444E+00  0.2462E-01
     -1.248  0.1853E+00  0.3488E-01
     -1.193  0.1929E+00  0.4556E-01
     -1.138  0.1626E+00  0.5456E-01
     -1.082  0.1082E+00  0.6055E-01
     -1.027  0.5213E-01  0.6343E-01
     -0.971  0.1187E-01  0.6409E-01
     -0.916 -0.7320E-02  0.6369E-01
     -0.861 -0.9373E-02  0.6317E-01
     -0.805 -0.3659E-03  0.6315E-01
     -0.750  0.1477E-01  0.6396E-01
     -0.695  0.3092E-01  0.6568E-01
     -0.639  0.4181E-01  0.6799E-01
     -0.584  0.4252E-01  0.7034E-01
     -0.529  0.3323E-01  0.7218E-01
     -0.473  0.1926E-01  0.7325E-01
     -0.418  0.7058E-02  0.7364E-01
     -0.363  0.2746E-04  0.7364E-01
     -0.307 -0.2260E-02  0.7352E-01
     -0.252 -0.2024E-02  0.7340E-01
     -0.197 -0.1157E-02  0.7334E-01
     -0.141 -0.5011E-03  0.7331E-01
     -0.086 -0.1739E-03  0.7330E-01
     -0.031 -0.4953E-04  0.7330E-01
      0.025 -0.1176E-04  0.7330E-01
      0.080 -0.2543E-05  0.7330E-01
      0.136 -0.1874E-05  0.7330E-01
      0.191 -0.8821E-05  0.7330E-01
      0.246 -0.4380E-04  0.7330E-01
      0.302 -0.1844E-03  0.7329E-01
      0.357 -0.6510E-03  0.7325E-01
      0.412 -0.1910E-02  0.7314E-01
      0.468 -0.4587E-02  0.7289E-01
      0.523 -0.8729E-02  0.7241E-01
      0.578 -0.1209E-01  0.7174E-01
      0.634 -0.8215E-02  0.7128E-01
      0.689  0.1331E-01  0.7202E-01
      0.744  0.6183E-01  0.7544E-01
      0.800  0.1369E+00  0.8302E-01
      0.855  0.2216E+00  0.9528E-01
      0.910  0.2855E+00  0.1111E+00
      0.966  0.2997E+00  0.1277E+00
      1.021  0.2560E+00  0.1418E+00
      1.076  0.1758E+00  0.1516E+00
      1.132  0.9960E-01  0.1571E+00
      1.187  0.6181E-01  0.1605E+00
      1.243  0.6919E-01  0.1643E+00
      1.298  0.9952E-01  0.1698E+00
      1.353  0.1202E+00  0.1765E+00
      1.409  0.1116E+00  0.1827E+00
      1.464  0.7797E-01  0.1870E+00
      1.519  0.3816E-01  0.1891E+00
      1.575  0.8918E-02  0.1896E+00
      1.630 -0.4789E-02  0.1893E+00
      1.685 -0.7544E-02  0.1889E+00
      1.741 -0.6118E-02  0.1886E+00
      1.796 -0.4525E-02  0.1883E+00
      1.851 -0.3112E-02  0.1882E+00
      1.907  0.2541E-03  0.1882E+00
      1.962  0.8126E-02  0.1886E+00
      2.017  0.2084E-01  0.1898E+00
      2.073  0.3467E-01  0.1917E+00
      2.128  0.4316E-01  0.1941E+00
      2.183  0.4159E-01  0.1964E+00
      2.239  0.3087E-01  0.1981E+00
      2.294  0.1677E-01  0.1990E+00
      2.350  0.5375E-02  0.1993E+00
      2.405 -0.6906E-03  0.1993E+00
      2.460 -0.2383E-02  0.1991E+00
      2.516 -0.2042E-02  0.1990E+00
      2.571 -0.1496E-02  0.1989E+00
      2.626 -0.1555E-02  0.1989E+00
      2.682 -0.2196E-02  0.1987E+00
      2.737 -0.2600E-02  0.1986E+00
      2.792 -0.1138E-02  0.1985E+00
      2.848  0.3813E-02  0.1987E+00
      2.903  0.1207E-01  0.1994E+00
      2.958  0.2099E-01  0.2006E+00
      3.014  0.2890E-01  0.2022E+00
      3.069  0.4131E-01  0.2045E+00
      3.124  0.7145E-01  0.2084E+00
      3.180  0.1282E+00  0.2155E+00
      3.235  0.1997E+00  0.2266E+00
      3.290  0.2521E+00  0.2405E+00
      3.346  0.2527E+00  0.2545E+00
      3.401  0.1978E+00  0.2655E+00
      3.457  0.1156E+00  0.2719E+00
      3.512  0.4319E-01  0.2742E+00
      3.567  0.8867E-03  0.2743E+00
      3.623 -0.1326E-01  0.2736E+00
      3.678 -0.1215E-01  0.2729E+00
      3.733 -0.7086E-02  0.2725E+00
      3.789 -0.3276E-02  0.2723E+00
      3.844 -0.1630E-02  0.2722E+00
      3.899 -0.1549E-02  0.2721E+00
      3.955 -0.2171E-02  0.2720E+00
      4.010 -0.2202E-02  0.2719E+00
      4.065  0.4675E-03  0.2719E+00
      4.121  0.8031E-02  0.2724E+00
      4.176  0.2062E-01  0.2735E+00
      4.231  0.3446E-01  0.2754E+00
      4.287  0.4303E-01  0.2778E+00
      4.342  0.4147E-01  0.2801E+00
      4.397  0.3033E-01  0.2818E+00
      4.453  0.1495E-01  0.2826E+00
      4.508  0.1178E-02  0.2827E+00
      4.564 -0.7366E-02  0.2823E+00
      4.619 -0.7993E-02  0.2818E+00
      4.674  0.3493E-02  0.2820E+00
      4.730  0.3106E-01  0.2837E+00
      4.785  0.7185E-01  0.2877E+00
      4.840  0.1117E+00  0.2939E+00
      4.896  0.1312E+00  0.3012E+00
      4.951  0.1194E+00  0.3078E+00
      5.006  0.8320E-01  0.3124E+00
      5.062  0.4140E-01  0.3147E+00
      5.117  0.1059E-01  0.3152E+00
      5.172 -0.4081E-02  0.3150E+00
      5.228 -0.7018E-02  0.3146E+00
      5.283 -0.5032E-02  0.3144E+00
      5.338 -0.2543E-02  0.3142E+00
      5.394 -0.1003E-02  0.3142E+00
      5.449 -0.3230E-03  0.3141E+00
      5.504 -0.9845E-04  0.3141E+00
      5.560 -0.8084E-04  0.3141E+00
      5.615 -0.2361E-03  0.3141E+00
      5.671 -0.7187E-03  0.3141E+00
      5.726 -0.1794E-02  0.3140E+00
      5.781 -0.3480E-02  0.3138E+00
      5.837 -0.4701E-02  0.3135E+00
      5.892 -0.2374E-02  0.3134E+00
      5.947  0.8034E-02  0.3138E+00
      6.003  0.2907E-01  0.3154E+00
      6.058  0.5659E-01  0.3186E+00
      6.113  0.7906E-01  0.3230E+00
      6.169  0.8443E-01  0.3276E+00
      6.224  0.6995E-01  0.3315E+00
      6.279  0.4508E-01  0.3340E+00
      6.335  0.2409E-01  0.3353E+00
      6.390  0.1634E-01  0.3362E+00
      6.445  0.2467E-01  0.3376E+00
      6.501  0.5137E-01  0.3404E+00
      6.556  0.1002E+00  0.3460E+00
      6.611  0.1667E+00  0.3552E+00
      6.667  0.2290E+00  0.3679E+00
      6.722  0.2556E+00  0.3820E+00
      6.778  0.2314E+00  0.3949E+00
      6.833  0.1754E+00  0.4046E+00
      6.888  0.1257E+00  0.4115E+00
      6.944  0.1065E+00  0.4174E+00
      6.999  0.1097E+00  0.4235E+00
      7.054  0.1099E+00  0.4296E+00
      7.110  0.9261E-01  0.4347E+00
      7.165  0.6834E-01  0.4385E+00
      7.220  0.5919E-01  0.4418E+00
      7.276  0.7548E-01  0.4459E+00
      7.331  0.1053E+00  0.4518E+00
      7.386  0.1254E+00  0.4587E+00
      7.442  0.1218E+00  0.4654E+00
      7.497  0.9884E-01  0.4709E+00
      7.552  0.7068E-01  0.4748E+00
      7.608  0.4705E-01  0.4774E+00
      7.663  0.2966E-01  0.4791E+00
      7.718  0.1940E-01  0.4801E+00
      7.774  0.2197E-01  0.4814E+00
      7.829  0.4319E-01  0.4838E+00
      7.885  0.7945E-01  0.4881E+00
      7.940  0.1158E+00  0.4946E+00
      7.995  0.1366E+00  0.5021E+00
      8.051  0.1373E+00  0.5097E+00
      8.106  0.1256E+00  0.5167E+00
      8.161  0.1099E+00  0.5228E+00
      8.217  0.9095E-01  0.5278E+00
      8.272  0.6573E-01  0.5314E+00
      8.327  0.3496E-01  0.5334E+00
      8.383  0.4845E-02  0.5336E+00
      8.438 -0.1665E-01  0.5327E+00
      8.493 -0.2042E-01  0.5316E+00
      8.549  0.6149E-02  0.5319E+00
      8.604  0.7551E-01  0.5361E+00
      8.659  0.1859E+00  0.5464E+00
      8.715  0.3079E+00  0.5634E+00
      8.770  0.3915E+00  0.5851E+00
      8.825  0.3955E+00  0.6070E+00
      8.881  0.3181E+00  0.6246E+00
      8.936  0.1984E+00  0.6356E+00
      8.992  0.8929E-01  0.6405E+00
      9.047  0.2446E-01  0.6419E+00
      9.102  0.6515E-02  0.6422E+00
      9.158  0.1633E-01  0.6431E+00
      9.213  0.3077E-01  0.6448E+00
      9.268  0.3552E-01  0.6468E+00
      9.324  0.2860E-01  0.6484E+00
      9.379  0.1615E-01  0.6493E+00
      9.434  0.5275E-02  0.6496E+00
      9.490 -0.6835E-03  0.6495E+00
      9.545 -0.2343E-02  0.6494E+00
      9.600 -0.1889E-02  0.6493E+00
      9.656 -0.1023E-02  0.6492E+00
      9.711 -0.4260E-03  0.6492E+00
      9.766 -0.1428E-03  0.6492E+00
      9.822 -0.3941E-04  0.6492E+00
      9.877 -0.9060E-05  0.6492E+00
      9.932 -0.1748E-05  0.6492E+00
      9.988 -0.2847E-06  0.6492E+00
     10.043 -0.3923E-07  0.6492E+00
     10.099 -0.4588E-08  0.6492E+00
     10.154 -0.4563E-09  0.6492E+00
     10.209 -0.3863E-10  0.6492E+00
     10.265 -0.2789E-11  0.6492E+00
     10.320 -0.1718E-12  0.6492E+00
     10.375 -0.9031E-14  0.6492E+00
     10.431 -0.4201E-15  0.6492E+00
     10.486  0.0000E+00  0.6492E+00
     10.541  0.0000E+00  0.6492E+00
     10.597  0.0000E+00  0.6492E+00
     10.652  0.0000E+00  0.6492E+00
     10.707  0.0000E+00  0.6492E+00
     10.763  0.0000E+00  0.6492E+00
     10.818  0.0000E+00  0.6492E+00
     10.873  0.0000E+00  0.6492E+00
     10.929  0.0000E+00  0.6492E+00
     10.984  0.0000E+00  0.6492E+00
     11.039  0.0000E+00  0.6492E+00
     11.095  0.0000E+00  0.6492E+00
     11.150  0.0000E+00  0.6492E+00
     11.206  0.0000E+00  0.6492E+00
