   31   31  191    1
  0.1706119E+02  0.8087054E-09  0.8087054E-09  0.8087054E-09  0.5000000E-15
  1.000000000000000E-004
  CAR 
 unknown system                          
   93    1   62
 
  0.0000000E+00  0.0000000E+00  0.0000000E+00  0.1000000E+01
   1       -3.399467
   2       -1.305900
   3       -1.305900
   4       -1.196274
   5       -1.196274
   6       -1.196274
   7       -0.637498
   8        0.846786
   9        0.846786
  10        0.846786
  11        0.960531
  12        0.960531
  13        0.970771
  14        0.970771
  15        0.970771
  16        1.329180
  17        1.329180
  18        1.329180
  19        2.120020
  20        3.014236
  21        3.281785
  22        3.281785
  23        3.281785
  24        3.304147
  25        3.304147
  26        3.304147
  27        4.279587
  28        4.875018
  29        4.875018
  30        4.875018
  31        6.130123
  32        6.130123
  33        6.469195
  34        6.687033
  35        6.687033
  36        6.687033
  37        6.714350
  38        6.714350
  39        6.714351
  40        7.013444
  41        7.013444
  42        7.013444
  43        7.362523
  44        7.362523
  45        7.362523
  46        7.598859
  47        7.957104
  48        7.957104
  49        7.957104
  50        8.180024
  51        8.180024
  52        8.707570
  53        8.708026
  54        8.762242
  55        8.762269
  56        8.762437
  57        8.766925
  58        8.767285
  59        8.829783
  60        8.829891
  61        8.836273
  62        9.205546
