<?xml version="1.0" encoding="ISO-8859-1"?>
<modeling>
 <generator>
  <i name="program" type="string">vasp </i>
  <i name="version" type="string">5.2.2  </i>
  <i name="subversion" type="string">15Apr09 complex  parallel </i>
  <i name="platform" type="string">LinuxIFC </i>
  <i name="date" type="string">2014 04 24 </i>
  <i name="time" type="string">09:36:37 </i>
 </generator>
 <incar>
  <i type="string" name="PREC">accurate</i>
  <i type="int" name="IALGO">    48</i>
  <i type="int" name="IBRION">     2</i>
  <i name="EDIFFG">      0.05000000</i>
  <i type="int" name="NSW">   191</i>
  <i type="int" name="ISIF">     2</i>
  <i name="ENCUT">    300.00000000</i>
  <i name="NELECT">     93.00000000</i>
  <i type="int" name="ISMEAR">     1</i>
  <i name="SIGMA">      0.20000000</i>
  <i type="logical" name="LWAVE"> F  </i>
  <i type="logical" name="LCHARG"> F  </i>
  <i type="logical" name="LPEAD"> F  </i>
  <i type="logical" name="LCALCPOL"> F  </i>
  <i type="logical" name="LCALCEPS"> F  </i>
  <v name="EFIELD_PEAD">      0.00000000      0.00000000      0.00000000</v>
  <i type="logical" name="LEFG"> F  </i>
 </incar>
 <kpoints>
  <generation param="Gamma">
   <v type="int" name="divisions">       1        1        1 </v>
   <v name="usershift">      0.00000000       0.00000000       0.00000000 </v>
   <v name="genvec1">      1.00000000       0.00000000       0.00000000 </v>
   <v name="genvec2">      0.00000000       1.00000000       0.00000000 </v>
   <v name="genvec3">      0.00000000       0.00000000       1.00000000 </v>
   <v name="shift">      0.00000000       0.00000000       0.00000000 </v>
  </generation>
  <varray name="kpointlist" >
   <v>       0.00000000       0.00000000       0.00000000 </v>
  </varray>
  <varray name="weights" >
   <v>       1.00000000 </v>
  </varray>
 </kpoints>
 <parameters>
  <separator name="general" >
   <i type="string" name="SYSTEM">unknown system</i>
   <i type="logical" name="LCOMPAT"> F  </i>
  </separator>
  <separator name="electronic" >
   <i type="string" name="PREC">accura</i>
   <i name="ENMAX">    300.00000000</i>
   <i name="ENAUG">    291.05200000</i>
   <i name="EDIFF">      0.00010000</i>
   <i type="int" name="IALGO">    48</i>
   <i type="int" name="IWAVPR">    11</i>
   <i type="int" name="NBANDS">    62</i>
   <i name="NELECT">     93.00000000</i>
   <separator name="electronic smearing" >
    <i type="int" name="ISMEAR">     1</i>
    <i name="SIGMA">      0.20000000</i>
   </separator>
   <separator name="electronic projectors" >
    <i type="logical" name="LREAL"> F  </i>
    <v name="ROPT">      0.00000000</v>
    <i type="int" name="LMAXPAW">  -100</i>
    <i type="int" name="LMAXMIX">     2</i>
   </separator>
   <separator name="electronic startup" >
    <i type="int" name="ISTART">     0</i>
    <i type="int" name="ICHARG">     2</i>
    <i type="int" name="INIWAV">     1</i>
   </separator>
   <separator name="electronic spin" >
    <i type="int" name="ISPIN">     1</i>
    <i type="logical" name="LNONCOLLINEAR"> F  </i>
    <v name="MAGMOM">      1.00000000      1.00000000      1.00000000      1.00000000      1.00000000      1.00000000      1.00000000      1.00000000      1.00000000      1.00000000      1.00000000      1.00000000      1.00000000      1.00000000      1.00000000      1.00000000      1.00000000      1.00000000      1.00000000      1.00000000
      1.00000000      1.00000000      1.00000000      1.00000000      1.00000000      1.00000000      1.00000000      1.00000000      1.00000000      1.00000000      1.00000000</v>
    <i name="NUPDOWN">     -1.00000000</i>
    <i type="logical" name="LSORBIT"> F  </i>
    <v name="SAXIS">      0.00000000      0.00000000      1.00000000</v>
    <i type="logical" name="LSPIRAL"> F  </i>
    <v name="QSPIRAL">      0.00000000      0.00000000      0.00000000</v>
    <i type="logical" name="LZEROZ"> F  </i>
   </separator>
   <separator name="electronic exchange-correlation" >
    <i type="logical" name="LASPH"> F  </i>
    <i type="logical" name="LMETAGGA"> F  </i>
   </separator>
   <separator name="electronic convergence" >
    <i type="int" name="NELM">    60</i>
    <i type="int" name="NELMDL">   -12</i>
    <i type="int" name="NELMIN">     2</i>
    <i name="ENINI">    300.00000000</i>
    <separator name="electronic convergence detail" >
     <i type="logical" name="LDIAG"> T  </i>
     <i name="WEIMIN">      0.00100000</i>
     <i name="EBREAK">      0.00000040</i>
     <i name="DEPER">      0.30000000</i>
     <i type="int" name="NRMM">     4</i>
     <i name="TIME">      0.40000000</i>
    </separator>
   </separator>
   <separator name="electronic mixer" >
    <i name="AMIX">      0.40000000</i>
    <i name="BMIX">      1.00000000</i>
    <i name="AMIN">      0.10000000</i>
    <i name="AMIX_MAG">      1.60000000</i>
    <i name="BMIX_MAG">      1.00000000</i>
    <separator name="electronic mixer details" >
     <i type="int" name="IMIX">     4</i>
     <i type="int" name="MAXMIX">   -45</i>
     <i name="WC">    100.00000000</i>
     <i type="int" name="INIMIX">     1</i>
     <i type="int" name="MIXPRE">     1</i>
     <i type="int" name="MREMOVE">     5</i>
    </separator>
   </separator>
   <separator name="electronic dipolcorrection" >
    <i type="logical" name="LDIPOL"> F  </i>
    <i type="logical" name="LMONO"> F  </i>
    <i type="int" name="IDIPOL">     0</i>
    <i name="EPSILON">      1.00000000</i>
    <v name="DIPOL">   -100.00000000   -100.00000000   -100.00000000</v>
    <i name="EFIELD">      0.00000000</i>
   </separator>
  </separator>
  <separator name="grids" >
   <i type="int" name="NGX">    48</i>
   <i type="int" name="NGY">    48</i>
   <i type="int" name="NGZ">    48</i>
   <i type="int" name="NGXF">    96</i>
   <i type="int" name="NGYF">    96</i>
   <i type="int" name="NGZF">    96</i>
   <i type="logical" name="ADDGRID"> F  </i>
  </separator>
  <separator name="ionic" >
   <i type="int" name="NSW">   191</i>
   <i type="int" name="IBRION">     2</i>
   <i type="int" name="ISIF">     2</i>
   <i name="PSTRESS">      0.00000000</i>
   <i name="EDIFFG">      0.05000000</i>
   <i type="int" name="NFREE">     1</i>
   <i name="POTIM">      0.50000000</i>
   <i name="SMASS">     -3.00000000</i>
  </separator>
  <separator name="ionic md" >
   <i name="TEBEG">      0.00010000</i>
   <i name="TEEND">      0.00010000</i>
   <i type="int" name="NBLOCK">     1</i>
   <i type="int" name="KBLOCK">   191</i>
   <i type="int" name="NPACO">   256</i>
   <i name="APACO">     16.00000000</i>
  </separator>
  <separator name="symmetry" >
   <i type="int" name="ISYM">     2</i>
   <i name="SYMPREC">      0.00001000</i>
  </separator>
  <separator name="dos" >
   <i type="logical" name="LORBIT"> F  </i>
   <v name="RWIGS">     -1.00000000</v>
   <i type="int" name="NEDOS">   301</i>
   <i name="EMIN">     10.00000000</i>
   <i name="EMAX">    -10.00000000</i>
   <i name="EFERMI">      0.00000000</i>
  </separator>
  <separator name="writing" >
   <i type="int" name="NWRITE">     2</i>
   <i type="logical" name="LWAVE"> F  </i>
   <i type="logical" name="LCHARG"> F  </i>
   <i type="logical" name="LPARD"> F  </i>
   <i type="logical" name="LVTOT"> F  </i>
   <i type="logical" name="LELF"> F  </i>
   <i type="logical" name="LOPTICS"> F  </i>
   <v name="STM">      0.00000000      0.00000000      0.00000000      0.00000000      0.00000000</v>
  </separator>
  <separator name="performance" >
   <i type="int" name="NPAR">     1</i>
   <i type="int" name="NSIM">     4</i>
   <i type="int" name="NBLK">    32</i>
   <i type="logical" name="LPLANE"> T  </i>
   <i type="logical" name="LSCALAPACK"> F  </i>
   <i type="logical" name="LSCAAWARE"> F  </i>
   <i type="logical" name="LSCALU"> F  </i>
   <i type="logical" name="LASYNC"> F  </i>
  </separator>
  <separator name="miscellaneous" >
   <i type="int" name="IDIOT">     3</i>
   <i type="logical" name="LMUSIC"> F  </i>
   <v name="POMASS">     26.98200000</v>
   <i type="logical" name="LCORR"> T  </i>
  </separator>
  <i type="logical" name="LREAL_COMPAT"> F  </i>
  <i type="logical" name="GGA_COMPAT"> T  </i>
  <i type="logical" name="LBERRY"> F  </i>
  <i type="int" name="ICORELEVEL">     0</i>
  <i type="logical" name="LDAU"> F  </i>
  <i type="int" name="I_CONSTRAINED_M">     0</i>
  <separator name="electronic exchange-correlation" >
   <i type="string" name="GGA">--</i>
   <i type="int" name="VOSKOWN">     0</i>
   <i type="logical" name="LHFCALC"> F  </i>
   <i type="logical" name="LHFONE"> F  </i>
   <i type="logical" name="LRHFCALC"> F  </i>
   <i type="logical" name="LTHOMAS"> F  </i>
   <i type="logical" name="LMODELHF"> F  </i>
   <i name="ENCUTFOCK">      0.00000000</i>
   <i name="ENCUT4O">     -1.00000000</i>
   <i type="int" name="EXXOEP">     0</i>
   <i type="int" name="FOURORBIT">     0</i>
   <i name="AEXX">      0.00000000</i>
   <i name="HFALPHA">      0.00000000</i>
   <i name="ALDAX">      1.00000000</i>
   <i name="AGGAX">      1.00000000</i>
   <i name="ALDAC">      1.00000000</i>
   <i name="AGGAC">      1.00000000</i>
   <i type="int" name="NKREDX">     1</i>
   <i type="int" name="NKREDY">     1</i>
   <i type="int" name="NKREDZ">     1</i>
   <i type="logical" name="SHIFTRED"> F  </i>
   <i type="logical" name="ODDONLY"> F  </i>
   <i type="logical" name="EVENONLY"> F  </i>
   <i type="int" name="LMAXFOCK">     0</i>
   <i type="int" name="NMAXFOCKAE">     0</i>
   <i name="HFSCREEN">      0.00000000</i>
   <i name="HFSCREENC">      0.00000000</i>
  </separator>
  <separator name="model GW" >
   <i type="int" name="MODEL_GW">     0</i>
   <i name="MODEL_EPS0">     10.23671437</i>
   <i name="MODEL_ALPHA">      1.00000000</i>
  </separator>
  <separator name="linear response parameters" >
   <i type="logical" name="LEPSILON"> F  </i>
   <i type="logical" name="LRPA"> F  </i>
   <i type="logical" name="LNABLA"> F  </i>
   <i type="logical" name="LVEL"> F  </i>
   <i type="int" name="KINTER">     0</i>
   <i name="CSHIFT">      0.10000000</i>
   <i name="OMEGAMAX">     -1.00000000</i>
  </separator>
  <separator name="orbital magnetization" >
   <i type="logical" name="ORBITALMAG"> F  </i>
   <i type="logical" name="LMAGBLOCH"> F  </i>
   <i type="logical" name="LCHIMAG"> F  </i>
   <i type="logical" name="LGAUGE"> T  </i>
   <i type="int" name="MAGATOM">     0</i>
   <v name="MAGDIPOL">      0.00000000      0.00000000      0.00000000</v>
   <v name="AVECCONST">      0.00000000      0.00000000      0.00000000</v>
  </separator>
  <separator name="response functions" >
   <i type="logical" name="LRPA"> T  </i>
   <i type="logical" name="LTCTE"> F  </i>
   <i type="logical" name="LTETE"> F  </i>
   <i type="logical" name="L2ORDER"> F  </i>
   <i type="logical" name="LGWLF"> F  </i>
   <i name="ENCUTGW">    200.00000000</i>
   <i name="ENCUTGWSOFT">     -2.00000000</i>
   <i name="ENCUTLF">     -1.00000000</i>
   <i type="int" name="LMAXMP2">    -1</i>
   <i name="SCISSOR">      0.00000000</i>
   <i type="int" name="NOMEGA">     0</i>
   <i type="int" name="NOMEGAR">     0</i>
   <i type="int" name="NBANDSGW">    -1</i>
   <i type="int" name="NBANDSLF">    -1</i>
   <i type="int" name="NELM">     1</i>
   <i type="int" name="DIM">     3</i>
   <i type="int" name="ANTIRES">     0</i>
   <i type="logical" name="LUSEW"> F  </i>
   <i name="OMEGAMAX">    -30.00000000</i>
   <i name="OMEGATL">   -200.00000000</i>
   <i type="int" name="OMEGAGRID">     0</i>
   <i name="CSHIFT">     -0.10000000</i>
   <i type="logical" name="SELFENERGY"> F  </i>
   <i type="logical" name="LSPECTRAL"> F  </i>
   <i type="logical" name="ODDONLYGW"> F  </i>
   <i type="logical" name="EVENONLYGW"> F  </i>
   <i type="int" name="NKREDLFX">     1</i>
   <i type="int" name="NKREDLFY">     1</i>
   <i type="int" name="NKREDLFZ">     1</i>
   <i type="int" name="MAXMEM">  1024</i>
   <i type="int" name="TELESCOPE">     0</i>
  </separator>
 </parameters>
 <atominfo>
  <atoms>      31 </atoms>
  <types>       1 </types>
  <array name="atoms" >
   <dimension dim="1">ion</dimension>
   <field type="string">element</field>
   <field type="int">atomtype</field>
   <set>
    <rc><c>Al</c><c>   1</c></rc>
    <rc><c>Al</c><c>   1</c></rc>
    <rc><c>Al</c><c>   1</c></rc>
    <rc><c>Al</c><c>   1</c></rc>
    <rc><c>Al</c><c>   1</c></rc>
    <rc><c>Al</c><c>   1</c></rc>
    <rc><c>Al</c><c>   1</c></rc>
    <rc><c>Al</c><c>   1</c></rc>
    <rc><c>Al</c><c>   1</c></rc>
    <rc><c>Al</c><c>   1</c></rc>
    <rc><c>Al</c><c>   1</c></rc>
    <rc><c>Al</c><c>   1</c></rc>
    <rc><c>Al</c><c>   1</c></rc>
    <rc><c>Al</c><c>   1</c></rc>
    <rc><c>Al</c><c>   1</c></rc>
    <rc><c>Al</c><c>   1</c></rc>
    <rc><c>Al</c><c>   1</c></rc>
    <rc><c>Al</c><c>   1</c></rc>
    <rc><c>Al</c><c>   1</c></rc>
    <rc><c>Al</c><c>   1</c></rc>
    <rc><c>Al</c><c>   1</c></rc>
    <rc><c>Al</c><c>   1</c></rc>
    <rc><c>Al</c><c>   1</c></rc>
    <rc><c>Al</c><c>   1</c></rc>
    <rc><c>Al</c><c>   1</c></rc>
    <rc><c>Al</c><c>   1</c></rc>
    <rc><c>Al</c><c>   1</c></rc>
    <rc><c>Al</c><c>   1</c></rc>
    <rc><c>Al</c><c>   1</c></rc>
    <rc><c>Al</c><c>   1</c></rc>
    <rc><c>Al</c><c>   1</c></rc>
   </set>
  </array>
  <array name="atomtypes" >
   <dimension dim="1">type</dimension>
   <field type="int">atomspertype</field>
   <field type="string">element</field>
   <field>mass</field>
   <field>valence</field>
   <field type="string">pseudopotential</field>
   <set>
    <rc><c>  31</c><c>Al</c><c>     26.98200000</c><c>      3.00000000</c><c> PAW_PBE Al 04Jan2001                   </c></rc>
   </set>
  </array>
 </atominfo>
 <structure name="initialpos" >
  <crystal>
   <varray name="basis" >
    <v>       8.08705400       0.00000000       0.00000000 </v>
    <v>       0.00000000       8.08705400       0.00000000 </v>
    <v>       0.00000000       0.00000000       8.08705400 </v>
   </varray>
   <i name="volume">    528.89690930 </i>
   <varray name="rec_basis" >
    <v>       0.12365442       0.00000000       0.00000000 </v>
    <v>       0.00000000       0.12365442       0.00000000 </v>
    <v>       0.00000000       0.00000000       0.12365442 </v>
   </varray>
  </crystal>
  <varray name="positions" >
   <v>       0.00000000       0.00000000       0.00000000 </v>
   <v>       0.25000000       0.00000000       0.25000000 </v>
   <v>       0.25000000       0.25000000       0.00000000 </v>
   <v>       0.00000000       0.25000000       0.25000000 </v>
   <v>       0.50000000       0.00000000       0.00000000 </v>
   <v>       0.75000000       0.00000000       0.25000000 </v>
   <v>       0.75000000       0.25000000       0.00000000 </v>
   <v>       0.50000000       0.25000000       0.25000000 </v>
   <v>       0.00000000       0.50000000       0.00000000 </v>
   <v>       0.25000000       0.50000000       0.25000000 </v>
   <v>       0.25000000       0.75000000       0.00000000 </v>
   <v>       0.00000000       0.75000000       0.25000000 </v>
   <v>       0.50000000       0.50000000       0.00000000 </v>
   <v>       0.75000000       0.50000000       0.25000000 </v>
   <v>       0.75000000       0.75000000       0.00000000 </v>
   <v>       0.50000000       0.75000000       0.25000000 </v>
   <v>       0.00000000       0.00000000       0.50000000 </v>
   <v>       0.25000000       0.00000000       0.75000000 </v>
   <v>       0.25000000       0.25000000       0.50000000 </v>
   <v>       0.00000000       0.25000000       0.75000000 </v>
   <v>       0.50000000       0.00000000       0.50000000 </v>
   <v>       0.75000000       0.00000000       0.75000000 </v>
   <v>       0.75000000       0.25000000       0.50000000 </v>
   <v>       0.50000000       0.25000000       0.75000000 </v>
   <v>       0.00000000       0.50000000       0.50000000 </v>
   <v>       0.25000000       0.50000000       0.75000000 </v>
   <v>       0.25000000       0.75000000       0.50000000 </v>
   <v>       0.00000000       0.75000000       0.75000000 </v>
   <v>       0.75000000       0.50000000       0.75000000 </v>
   <v>       0.75000000       0.75000000       0.50000000 </v>
   <v>       0.50000000       0.75000000       0.75000000 </v>
  </varray>
 </structure>
 <calculation>
  <scstep>
   <time name="diag">    2.85    2.12</time>
   <time name="diis">   11.49    3.66</time>
   <time name="orth">    0.16    0.04</time>
   <time name="total">   16.37    7.69</time>
   <energy>
    <i name="alphaZ">     -6.10292531 </i>
    <i name="ewald">  -2226.95885788 </i>
    <i name="hartreedc">    -20.94823152 </i>
    <i name="XCdc">   -814.77444406 </i>
    <i name="pawpsdc">   1102.18190231 </i>
    <i name="pawaedc">   -111.56847430 </i>
    <i name="eentropy">     -0.09454422 </i>
    <i name="bandstr">    730.89314425 </i>
    <i name="atom">   1659.66634407 </i>
    <i name="e_fr_energy">    312.29391334 </i>
    <i name="e_wo_entrp">    312.38845756 </i>
    <i name="e_0_energy">    312.32542808 </i>
   </energy>
  </scstep>
  <scstep>
   <time name="diag">    2.17    1.46</time>
   <time name="diis">   11.49    3.58</time>
   <time name="orth">    0.16    0.04</time>
   <time name="total">   13.84    5.08</time>
   <energy>
    <i name="e_fr_energy">     -2.25049363 </i>
    <i name="e_wo_entrp">     -2.19637158 </i>
    <i name="e_0_energy">     -2.23245295 </i>
   </energy>
  </scstep>
  <scstep>
   <time name="diag">    2.11    1.46</time>
   <time name="diis">   11.60    3.60</time>
   <time name="orth">    0.16    0.04</time>
   <time name="total">   13.89    5.10</time>
   <energy>
    <i name="e_fr_energy">    -67.90876442 </i>
    <i name="e_wo_entrp">    -67.97751024 </i>
    <i name="e_0_energy">    -67.93167970 </i>
   </energy>
  </scstep>
  <scstep>
   <time name="diag">    2.10    1.45</time>
   <time name="diis">   11.12    3.53</time>
   <time name="orth">    0.17    0.04</time>
   <time name="total">   13.40    5.03</time>
   <energy>
    <i name="e_fr_energy">    -85.34268358 </i>
    <i name="e_wo_entrp">    -85.34086417 </i>
    <i name="e_0_energy">    -85.34207711 </i>
   </energy>
  </scstep>
  <scstep>
   <time name="diag">    2.20    1.47</time>
   <time name="diis">   11.27    3.55</time>
   <time name="orth">    0.16    0.04</time>
   <time name="total">   13.70    5.08</time>
   <energy>
    <i name="e_fr_energy">    -92.66305574 </i>
    <i name="e_wo_entrp">    -92.61228290 </i>
    <i name="e_0_energy">    -92.64613146 </i>
   </energy>
  </scstep>
  <scstep>
   <time name="diag">    2.17    1.46</time>
   <time name="diis">   11.43    3.57</time>
   <time name="orth">    0.17    0.04</time>
   <time name="total">   13.78    5.08</time>
   <energy>
    <i name="e_fr_energy">    -96.12725163 </i>
    <i name="e_wo_entrp">    -96.13032852 </i>
    <i name="e_0_energy">    -96.12827726 </i>
   </energy>
  </scstep>
  <scstep>
   <time name="diag">    2.18    1.46</time>
   <time name="diis">   11.58    3.59</time>
   <time name="orth">    0.16    0.04</time>
   <time name="total">   13.93    5.09</time>
   <energy>
    <i name="e_fr_energy">    -98.06861482 </i>
    <i name="e_wo_entrp">    -98.08518470 </i>
    <i name="e_0_energy">    -98.07413811 </i>
   </energy>
  </scstep>
  <scstep>
   <time name="diag">    2.10    1.45</time>
   <time name="diis">   11.70    3.61</time>
   <time name="orth">    0.17    0.04</time>
   <time name="total">   13.98    5.10</time>
   <energy>
    <i name="e_fr_energy">    -99.19425497 </i>
    <i name="e_wo_entrp">    -99.18945518 </i>
    <i name="e_0_energy">    -99.19265504 </i>
   </energy>
  </scstep>
  <scstep>
   <time name="diag">    2.02    1.43</time>
   <time name="diis">   27.92    7.82</time>
   <time name="orth">    0.16    0.04</time>
   <time name="total">   30.12    9.29</time>
   <energy>
    <i name="e_fr_energy">   -100.77873956 </i>
    <i name="e_wo_entrp">   -100.76855127 </i>
    <i name="e_0_energy">   -100.77534346 </i>
   </energy>
  </scstep>
  <scstep>
   <time name="diag">    2.17    1.46</time>
   <time name="diis">   25.57    7.20</time>
   <time name="orth">    0.16    0.04</time>
   <time name="total">   27.91    8.70</time>
   <energy>
    <i name="e_fr_energy">   -100.96072368 </i>
    <i name="e_wo_entrp">   -100.93048137 </i>
    <i name="e_0_energy">   -100.95064291 </i>
   </energy>
  </scstep>
  <scstep>
   <time name="diag">    2.13    1.62</time>
   <time name="diis">   20.73    6.14</time>
   <time name="orth">    0.16    0.04</time>
   <time name="total">   23.12    7.84</time>
   <energy>
    <i name="e_fr_energy">   -100.97661778 </i>
    <i name="e_wo_entrp">   -100.94430959 </i>
    <i name="e_0_energy">   -100.96584838 </i>
   </energy>
  </scstep>
  <scstep>
   <time name="diag">    2.40    1.68</time>
   <time name="diis">   17.83    5.30</time>
   <time name="orth">    0.16    0.04</time>
   <time name="total">   21.61    8.13</time>
   <energy>
    <i name="e_fr_energy">   -100.97740362 </i>
    <i name="e_wo_entrp">   -100.94492392 </i>
    <i name="e_0_energy">   -100.96657706 </i>
   </energy>
  </scstep>
  <scstep>
   <time name="diag">    2.76    2.04</time>
   <time name="diis">   22.13    6.62</time>
   <time name="orth">    0.17    0.04</time>
   <time name="total">   28.55   12.09</time>
   <energy>
    <i name="e_fr_energy">    -99.88573293 </i>
    <i name="e_wo_entrp">    -99.75387359 </i>
    <i name="e_0_energy">    -99.84177982 </i>
   </energy>
  </scstep>
  <scstep>
   <time name="diag">    2.80    2.10</time>
   <time name="diis">   21.87    6.57</time>
   <time name="orth">    0.16    0.04</time>
   <time name="total">   28.41   12.18</time>
   <energy>
    <i name="e_fr_energy">    -99.62406449 </i>
    <i name="e_wo_entrp">    -99.46195545 </i>
    <i name="e_0_energy">    -99.57002814 </i>
   </energy>
  </scstep>
  <scstep>
   <time name="diag">    2.84    2.11</time>
   <time name="diis">   22.37    6.69</time>
   <time name="orth">    0.16    0.04</time>
   <time name="total">   29.10   12.42</time>
   <energy>
    <i name="e_fr_energy">    -99.51129073 </i>
    <i name="e_wo_entrp">    -99.36986630 </i>
    <i name="e_0_energy">    -99.46414925 </i>
   </energy>
  </scstep>
  <scstep>
   <time name="diag">    2.56    1.80</time>
   <time name="diis">   22.27    6.70</time>
   <time name="orth">    0.16    0.04</time>
   <time name="total">   28.42   11.78</time>
   <energy>
    <i name="e_fr_energy">    -99.50316593 </i>
    <i name="e_wo_entrp">    -99.34981440 </i>
    <i name="e_0_energy">    -99.45204875 </i>
   </energy>
  </scstep>
  <scstep>
   <time name="diag">    2.55    1.79</time>
   <time name="diis">   23.30    6.89</time>
   <time name="orth">    0.17    0.04</time>
   <time name="total">   29.58   12.02</time>
   <energy>
    <i name="e_fr_energy">    -99.50254637 </i>
    <i name="e_wo_entrp">    -99.35127728 </i>
    <i name="e_0_energy">    -99.45212334 </i>
   </energy>
  </scstep>
  <scstep>
   <time name="diag">    2.56    1.80</time>
   <time name="diis">   21.24    6.26</time>
   <time name="orth">    0.16    0.04</time>
   <time name="total">   27.50   11.41</time>
   <energy>
    <i name="e_fr_energy">    -99.50253086 </i>
    <i name="e_wo_entrp">    -99.35277830 </i>
    <i name="e_0_energy">    -99.45261334 </i>
   </energy>
  </scstep>
  <scstep>
   <time name="diag">    2.55    1.79</time>
   <time name="diis">   15.67    4.75</time>
   <time name="orth">    0.16    0.04</time>
   <time name="total">   20.69    8.76</time>
   <energy>
    <i name="alphaZ">     -6.10292531 </i>
    <i name="ewald">  -2226.95885788 </i>
    <i name="hartreedc">    -24.95395511 </i>
    <i name="XCdc">   -810.88370479 </i>
    <i name="pawpsdc">   1099.97973386 </i>
    <i name="pawaedc">   -109.53287078 </i>
    <i name="eentropy">     -0.15102657 </i>
    <i name="bandstr">    319.43474785 </i>
    <i name="atom">   1659.66634407 </i>
    <i name="e_fr_energy">    -99.50251465 </i>
    <i name="e_wo_entrp">    -99.35148808 </i>
    <i name="e_0_energy">    -99.45217246 </i>
   </energy>
  </scstep>
  <structure>
   <crystal>
    <varray name="basis" >
     <v>       8.08705400       0.00000000       0.00000000 </v>
     <v>       0.00000000       8.08705400       0.00000000 </v>
     <v>       0.00000000       0.00000000       8.08705400 </v>
    </varray>
    <i name="volume">    528.89690930 </i>
    <varray name="rec_basis" >
     <v>       0.12365442       0.00000000       0.00000000 </v>
     <v>       0.00000000       0.12365442       0.00000000 </v>
     <v>       0.00000000       0.00000000       0.12365442 </v>
    </varray>
   </crystal>
   <varray name="positions" >
    <v>       0.00000000       0.00000000       0.00000000 </v>
    <v>       0.25000000       0.00000000       0.25000000 </v>
    <v>       0.25000000       0.25000000       0.00000000 </v>
    <v>       0.00000000       0.25000000       0.25000000 </v>
    <v>       0.50000000       0.00000000       0.00000000 </v>
    <v>       0.75000000       0.00000000       0.25000000 </v>
    <v>       0.75000000       0.25000000       0.00000000 </v>
    <v>       0.50000000       0.25000000       0.25000000 </v>
    <v>       0.00000000       0.50000000       0.00000000 </v>
    <v>       0.25000000       0.50000000       0.25000000 </v>
    <v>       0.25000000       0.75000000       0.00000000 </v>
    <v>       0.00000000       0.75000000       0.25000000 </v>
    <v>       0.50000000       0.50000000       0.00000000 </v>
    <v>       0.75000000       0.50000000       0.25000000 </v>
    <v>       0.75000000       0.75000000       0.00000000 </v>
    <v>       0.50000000       0.75000000       0.25000000 </v>
    <v>       0.00000000       0.00000000       0.50000000 </v>
    <v>       0.25000000       0.00000000       0.75000000 </v>
    <v>       0.25000000       0.25000000       0.50000000 </v>
    <v>       0.00000000       0.25000000       0.75000000 </v>
    <v>       0.50000000       0.00000000       0.50000000 </v>
    <v>       0.75000000       0.00000000       0.75000000 </v>
    <v>       0.75000000       0.25000000       0.50000000 </v>
    <v>       0.50000000       0.25000000       0.75000000 </v>
    <v>       0.00000000       0.50000000       0.50000000 </v>
    <v>       0.25000000       0.50000000       0.75000000 </v>
    <v>       0.25000000       0.75000000       0.50000000 </v>
    <v>       0.00000000       0.75000000       0.75000000 </v>
    <v>       0.75000000       0.50000000       0.75000000 </v>
    <v>       0.75000000       0.75000000       0.50000000 </v>
    <v>       0.50000000       0.75000000       0.75000000 </v>
   </varray>
  </structure>
  <varray name="forces" >
   <v>       0.00000000       0.00000000       0.00000000 </v>
   <v>       0.01054827       0.00000000       0.01054827 </v>
   <v>       0.01054827       0.01054827       0.00000000 </v>
   <v>       0.00000000       0.01054827       0.01054827 </v>
   <v>       0.00000000       0.00000000       0.00000000 </v>
   <v>      -0.01054827       0.00000000       0.01054827 </v>
   <v>      -0.01054827       0.01054827       0.00000000 </v>
   <v>       0.00000000      -0.18425603      -0.18425603 </v>
   <v>       0.00000000       0.00000000       0.00000000 </v>
   <v>      -0.18425603       0.00000000      -0.18425603 </v>
   <v>       0.01054827      -0.01054827       0.00000000 </v>
   <v>       0.00000000      -0.01054827       0.01054827 </v>
   <v>       0.00000000       0.00000000       0.00000000 </v>
   <v>       0.18425603       0.00000000      -0.18425603 </v>
   <v>      -0.01054827      -0.01054827       0.00000000 </v>
   <v>       0.00000000       0.18425603      -0.18425603 </v>
   <v>       0.00000000       0.00000000       0.00000000 </v>
   <v>       0.01054827       0.00000000      -0.01054827 </v>
   <v>      -0.18425603      -0.18425603       0.00000000 </v>
   <v>       0.00000000       0.01054827      -0.01054827 </v>
   <v>       0.00000000       0.00000000       0.00000000 </v>
   <v>      -0.01054827       0.00000000      -0.01054827 </v>
   <v>       0.18425603      -0.18425603       0.00000000 </v>
   <v>       0.00000000      -0.18425603       0.18425603 </v>
   <v>       0.00000000       0.00000000       0.00000000 </v>
   <v>      -0.18425603       0.00000000       0.18425603 </v>
   <v>      -0.18425603       0.18425603       0.00000000 </v>
   <v>       0.00000000      -0.01054827      -0.01054827 </v>
   <v>       0.18425603       0.00000000       0.18425603 </v>
   <v>       0.18425603       0.18425603       0.00000000 </v>
   <v>       0.00000000       0.18425603       0.18425603 </v>
  </varray>
  <varray name="stress" >
   <v>     -25.71700023       0.00000000       0.00000000 </v>
   <v>       0.00000000     -25.71700023       0.00000000 </v>
   <v>       0.00000000       0.00000000     -25.71700023 </v>
  </varray>
  <energy>
   <i name="e_fr_energy">    -99.50251465 </i>
   <i name="e_wo_entrp">    -99.45217246 </i>
   <i name="e_0_energy">     -0.15102657 </i>
  </energy>
  <time name="totalsc">  441.49  176.18</time>
 </calculation>
 <calculation>
  <scstep>
   <time name="diag">    2.56    1.80</time>
   <time name="diis">   21.40    6.46</time>
   <time name="orth">    0.16    0.04</time>
   <time name="total">   27.75   11.71</time>
   <energy>
    <i name="alphaZ">     -6.10292531 </i>
    <i name="ewald">  -2224.92704965 </i>
    <i name="hartreedc">    -26.63553039 </i>
    <i name="XCdc">   -810.84505615 </i>
    <i name="pawpsdc">   1099.97492606 </i>
    <i name="pawaedc">   -109.52802422 </i>
    <i name="eentropy">     -0.09304898 </i>
    <i name="bandstr">    318.94284695 </i>
    <i name="atom">   1659.66634407 </i>
    <i name="e_fr_energy">    -99.54751760 </i>
    <i name="e_wo_entrp">    -99.45446863 </i>
    <i name="e_0_energy">    -99.51650128 </i>
   </energy>
  </scstep>
  <scstep>
   <time name="diag">    2.76    2.07</time>
   <time name="diis">   21.50    6.47</time>
   <time name="orth">    0.17    0.04</time>
   <time name="total">   28.01   12.20</time>
   <energy>
    <i name="e_fr_energy">    -99.54191618 </i>
    <i name="e_wo_entrp">    -99.42706638 </i>
    <i name="e_0_energy">    -99.50363291 </i>
   </energy>
  </scstep>
  <scstep>
   <time name="diag">    2.82    2.10</time>
   <time name="diis">   19.77    5.97</time>
   <time name="orth">    0.16    0.04</time>
   <time name="total">   26.49   11.74</time>
   <energy>
    <i name="e_fr_energy">    -99.54165991 </i>
    <i name="e_wo_entrp">    -99.42594226 </i>
    <i name="e_0_energy">    -99.50308736 </i>
   </energy>
  </scstep>
  <scstep>
   <time name="diag">    2.78    2.07</time>
   <time name="diis">   14.29    4.44</time>
   <time name="orth">    0.16    0.04</time>
   <time name="total">   19.57    8.85</time>
   <energy>
    <i name="alphaZ">     -6.10292531 </i>
    <i name="ewald">  -2224.92704965 </i>
    <i name="hartreedc">    -26.82329004 </i>
    <i name="XCdc">   -810.84185774 </i>
    <i name="pawpsdc">   1099.99943968 </i>
    <i name="pawaedc">   -109.55481035 </i>
    <i name="eentropy">     -0.11661399 </i>
    <i name="bandstr">    319.15911366 </i>
    <i name="atom">   1659.66634407 </i>
    <i name="e_fr_energy">    -99.54164967 </i>
    <i name="e_wo_entrp">    -99.42503568 </i>
    <i name="e_0_energy">    -99.50277834 </i>
   </energy>
  </scstep>
  <structure>
   <crystal>
    <varray name="basis" >
     <v>       8.08705400       0.00000000       0.00000000 </v>
     <v>       0.00000000       8.08705400       0.00000000 </v>
     <v>       0.00000000       0.00000000       8.08705400 </v>
    </varray>
    <i name="volume">    528.89690930 </i>
    <varray name="rec_basis" >
     <v>       0.12365442       0.00000000       0.00000000 </v>
     <v>       0.00000000       0.12365442       0.00000000 </v>
     <v>       0.00000000       0.00000000       0.12365442 </v>
    </varray>
   </crystal>
   <varray name="positions" >
    <v>       0.00000000       0.00000000       0.00000000 </v>
    <v>       0.25006292       0.00000000       0.25006292 </v>
    <v>       0.25006292       0.25006292       0.00000000 </v>
    <v>       0.00000000       0.25006292       0.25006292 </v>
    <v>       0.50000000       0.00000000       0.00000000 </v>
    <v>       0.74993708       0.00000000       0.25006292 </v>
    <v>       0.74993708       0.25006292       0.00000000 </v>
    <v>       0.50000000       0.24890084       0.24890084 </v>
    <v>       0.00000000       0.50000000       0.00000000 </v>
    <v>       0.24890084       0.50000000       0.24890084 </v>
    <v>       0.25006292       0.74993708       0.00000000 </v>
    <v>       0.00000000       0.74993708       0.25006292 </v>
    <v>       0.50000000       0.50000000       0.00000000 </v>
    <v>       0.75109916       0.50000000       0.24890084 </v>
    <v>       0.74993708       0.74993708       0.00000000 </v>
    <v>       0.50000000       0.75109916       0.24890084 </v>
    <v>       0.00000000       0.00000000       0.50000000 </v>
    <v>       0.25006292       0.00000000       0.74993708 </v>
    <v>       0.24890084       0.24890084       0.50000000 </v>
    <v>       0.00000000       0.25006292       0.74993708 </v>
    <v>       0.50000000       0.00000000       0.50000000 </v>
    <v>       0.74993708       0.00000000       0.74993708 </v>
    <v>       0.75109916       0.24890084       0.50000000 </v>
    <v>       0.50000000       0.24890084       0.75109916 </v>
    <v>       0.00000000       0.50000000       0.50000000 </v>
    <v>       0.24890084       0.50000000       0.75109916 </v>
    <v>       0.24890084       0.75109916       0.50000000 </v>
    <v>       0.00000000       0.74993708       0.74993708 </v>
    <v>       0.75109916       0.50000000       0.75109916 </v>
    <v>       0.75109916       0.75109916       0.50000000 </v>
    <v>       0.50000000       0.75109916       0.75109916 </v>
   </varray>
  </structure>
  <varray name="forces" >
   <v>       0.00000000       0.00000000       0.00000000 </v>
   <v>       0.02338874       0.00000000       0.02338874 </v>
   <v>       0.02338874       0.02338874       0.00000000 </v>
   <v>       0.00000000       0.02338874       0.02338874 </v>
   <v>       0.00000000       0.00000000       0.00000000 </v>
   <v>      -0.02338874       0.00000000       0.02338874 </v>
   <v>      -0.02338874       0.02338874       0.00000000 </v>
   <v>       0.00000000      -0.17930708      -0.17930708 </v>
   <v>       0.00000000       0.00000000       0.00000000 </v>
   <v>      -0.17930708       0.00000000      -0.17930708 </v>
   <v>       0.02338874      -0.02338874       0.00000000 </v>
   <v>       0.00000000      -0.02338874       0.02338874 </v>
   <v>       0.00000000       0.00000000       0.00000000 </v>
   <v>       0.17930708       0.00000000      -0.17930708 </v>
   <v>      -0.02338874      -0.02338874       0.00000000 </v>
   <v>       0.00000000       0.17930708      -0.17930708 </v>
   <v>       0.00000000       0.00000000       0.00000000 </v>
   <v>       0.02338874       0.00000000      -0.02338874 </v>
   <v>      -0.17930708      -0.17930708       0.00000000 </v>
   <v>       0.00000000       0.02338874      -0.02338874 </v>
   <v>       0.00000000       0.00000000       0.00000000 </v>
   <v>      -0.02338874       0.00000000      -0.02338874 </v>
   <v>       0.17930708      -0.17930708       0.00000000 </v>
   <v>       0.00000000      -0.17930708       0.17930708 </v>
   <v>       0.00000000       0.00000000       0.00000000 </v>
   <v>      -0.17930708       0.00000000       0.17930708 </v>
   <v>      -0.17930708       0.17930708       0.00000000 </v>
   <v>       0.00000000      -0.02338874      -0.02338874 </v>
   <v>       0.17930708       0.00000000       0.17930708 </v>
   <v>       0.17930708       0.17930708       0.00000000 </v>
   <v>       0.00000000       0.17930708       0.17930708 </v>
  </varray>
  <varray name="stress" >
   <v>     -25.50845210       0.00000000       0.00000000 </v>
   <v>       0.00000000     -25.50845210       0.00000000 </v>
   <v>       0.00000000       0.00000000     -25.50845210 </v>
  </varray>
  <energy>
   <i name="e_fr_energy">    -99.54164967 </i>
   <i name="e_wo_entrp">    -99.50277834 </i>
   <i name="e_0_energy">     -0.11661399 </i>
  </energy>
  <time name="totalsc">  135.39   62.96</time>
 </calculation>
 <calculation>
  <scstep>
   <time name="diag">    2.56    1.80</time>
   <time name="diis">   21.84    6.54</time>
   <time name="orth">    0.16    0.04</time>
   <time name="total">   28.02   11.62</time>
   <energy>
    <i name="alphaZ">     -6.10292531 </i>
    <i name="ewald">  -2218.10147964 </i>
    <i name="hartreedc">    -32.37102671 </i>
    <i name="XCdc">   -810.71493832 </i>
    <i name="pawpsdc">   1100.00482571 </i>
    <i name="pawaedc">   -109.56065105 </i>
    <i name="eentropy">     -0.01665910 </i>
    <i name="bandstr">    317.52774581 </i>
    <i name="atom">   1659.66634407 </i>
    <i name="e_fr_energy">    -99.66876454 </i>
    <i name="e_wo_entrp">    -99.65210544 </i>
    <i name="e_0_energy">    -99.66321151 </i>
   </energy>
  </scstep>
  <scstep>
   <time name="diag">    2.71    2.00</time>
   <time name="diis">   22.88    6.79</time>
   <time name="orth">    0.16    0.04</time>
   <time name="total">   29.24   12.21</time>
   <energy>
    <i name="e_fr_energy">    -99.64738791 </i>
    <i name="e_wo_entrp">    -99.62231169 </i>
    <i name="e_0_energy">    -99.63902917 </i>
   </energy>
  </scstep>
  <scstep>
   <time name="diag">    2.79    2.04</time>
   <time name="diis">   22.10    6.61</time>
   <time name="orth">    0.16    0.04</time>
   <time name="total">   28.56   12.10</time>
   <energy>
    <i name="e_fr_energy">    -99.64476646 </i>
    <i name="e_wo_entrp">    -99.60573941 </i>
    <i name="e_0_energy">    -99.63175744 </i>
   </energy>
  </scstep>
  <scstep>
   <time name="diag">    2.85    2.11</time>
   <time name="diis">   21.23    6.36</time>
   <time name="orth">    0.17    0.04</time>
   <time name="total">   27.84   11.97</time>
   <energy>
    <i name="e_fr_energy">    -99.64232545 </i>
    <i name="e_wo_entrp">    -99.60769839 </i>
    <i name="e_0_energy">    -99.63078310 </i>
   </energy>
  </scstep>
  <scstep>
   <time name="diag">    2.56    1.80</time>
   <time name="diis">   20.11    6.08</time>
   <time name="orth">    0.16    0.04</time>
   <time name="total">   26.35   11.22</time>
   <energy>
    <i name="e_fr_energy">    -99.64246673 </i>
    <i name="e_wo_entrp">    -99.60875845 </i>
    <i name="e_0_energy">    -99.63123064 </i>
   </energy>
  </scstep>
  <scstep>
   <time name="diag">    2.56    1.80</time>
   <time name="diis">   17.75    5.35</time>
   <time name="orth">    0.16    0.04</time>
   <time name="total">   22.79    9.38</time>
   <energy>
    <i name="alphaZ">     -6.10292531 </i>
    <i name="ewald">  -2218.10147964 </i>
    <i name="hartreedc">    -32.95099336 </i>
    <i name="XCdc">   -810.70369229 </i>
    <i name="pawpsdc">   1100.24151421 </i>
    <i name="pawaedc">   -109.80997555 </i>
    <i name="eentropy">     -0.03448210 </i>
    <i name="bandstr">    318.15332086 </i>
    <i name="atom">   1659.66634407 </i>
    <i name="e_fr_energy">    -99.64236911 </i>
    <i name="e_wo_entrp">    -99.60788701 </i>
    <i name="e_0_energy">    -99.63087507 </i>
   </energy>
  </scstep>
  <structure>
   <crystal>
    <varray name="basis" >
     <v>       8.08705400       0.00000000       0.00000000 </v>
     <v>       0.00000000       8.08705400       0.00000000 </v>
     <v>       0.00000000       0.00000000       8.08705400 </v>
    </varray>
    <i name="volume">    528.89690930 </i>
    <varray name="rec_basis" >
     <v>       0.12365442       0.00000000       0.00000000 </v>
     <v>       0.00000000       0.12365442       0.00000000 </v>
     <v>       0.00000000       0.00000000       0.12365442 </v>
    </varray>
   </crystal>
   <varray name="positions" >
    <v>       0.00000000       0.00000000       0.00000000 </v>
    <v>       0.25025170       0.00000000       0.25025170 </v>
    <v>       0.25025170       0.25025170       0.00000000 </v>
    <v>       0.00000000       0.25025170       0.25025170 </v>
    <v>       0.50000000       0.00000000       0.00000000 </v>
    <v>       0.74974830       0.00000000       0.25025170 </v>
    <v>       0.74974830       0.25025170       0.00000000 </v>
    <v>       0.50000000       0.24560334       0.24560334 </v>
    <v>       0.00000000       0.50000000       0.00000000 </v>
    <v>       0.24560334       0.50000000       0.24560334 </v>
    <v>       0.25025170       0.74974830       0.00000000 </v>
    <v>       0.00000000       0.74974830       0.25025170 </v>
    <v>       0.50000000       0.50000000       0.00000000 </v>
    <v>       0.75439666       0.50000000       0.24560334 </v>
    <v>       0.74974830       0.74974830       0.00000000 </v>
    <v>       0.50000000       0.75439666       0.24560334 </v>
    <v>       0.00000000       0.00000000       0.50000000 </v>
    <v>       0.25025170       0.00000000       0.74974830 </v>
    <v>       0.24560334       0.24560334       0.50000000 </v>
    <v>       0.00000000       0.25025170       0.74974830 </v>
    <v>       0.50000000       0.00000000       0.50000000 </v>
    <v>       0.74974830       0.00000000       0.74974830 </v>
    <v>       0.75439666       0.24560334       0.50000000 </v>
    <v>       0.50000000       0.24560334       0.75439666 </v>
    <v>       0.00000000       0.50000000       0.50000000 </v>
    <v>       0.24560334       0.50000000       0.75439666 </v>
    <v>       0.24560334       0.75439666       0.50000000 </v>
    <v>       0.00000000       0.74974830       0.74974830 </v>
    <v>       0.75439666       0.50000000       0.75439666 </v>
    <v>       0.75439666       0.75439666       0.50000000 </v>
    <v>       0.50000000       0.75439666       0.75439666 </v>
   </varray>
  </structure>
  <varray name="forces" >
   <v>       0.00000000       0.00000000       0.00000000 </v>
   <v>       0.00753451       0.00000000       0.00753451 </v>
   <v>       0.00753451       0.00753451       0.00000000 </v>
   <v>       0.00000000       0.00753451       0.00753451 </v>
   <v>       0.00000000       0.00000000       0.00000000 </v>
   <v>      -0.00753451       0.00000000       0.00753451 </v>
   <v>      -0.00753451       0.00753451       0.00000000 </v>
   <v>       0.00000000      -0.12091328      -0.12091328 </v>
   <v>       0.00000000       0.00000000       0.00000000 </v>
   <v>      -0.12091328       0.00000000      -0.12091328 </v>
   <v>       0.00753451      -0.00753451       0.00000000 </v>
   <v>       0.00000000      -0.00753451       0.00753451 </v>
   <v>       0.00000000       0.00000000       0.00000000 </v>
   <v>       0.12091328       0.00000000      -0.12091328 </v>
   <v>      -0.00753451      -0.00753451       0.00000000 </v>
   <v>       0.00000000       0.12091328      -0.12091328 </v>
   <v>       0.00000000       0.00000000       0.00000000 </v>
   <v>       0.00753451       0.00000000      -0.00753451 </v>
   <v>      -0.12091328      -0.12091328       0.00000000 </v>
   <v>       0.00000000       0.00753451      -0.00753451 </v>
   <v>       0.00000000       0.00000000       0.00000000 </v>
   <v>      -0.00753451       0.00000000      -0.00753451 </v>
   <v>       0.12091328      -0.12091328       0.00000000 </v>
   <v>       0.00000000      -0.12091328       0.12091328 </v>
   <v>       0.00000000       0.00000000       0.00000000 </v>
   <v>      -0.12091328       0.00000000       0.12091328 </v>
   <v>      -0.12091328       0.12091328       0.00000000 </v>
   <v>       0.00000000      -0.00753451      -0.00753451 </v>
   <v>       0.12091328       0.00000000       0.12091328 </v>
   <v>       0.12091328       0.12091328       0.00000000 </v>
   <v>       0.00000000       0.12091328       0.12091328 </v>
  </varray>
  <varray name="stress" >
   <v>     -24.13449251       0.00000000       0.00000000 </v>
   <v>       0.00000000     -24.13449251       0.00000000 </v>
   <v>       0.00000000       0.00000000     -24.13449251 </v>
  </varray>
  <energy>
   <i name="e_fr_energy">    -99.64236911 </i>
   <i name="e_wo_entrp">    -99.63087507 </i>
   <i name="e_0_energy">     -0.03448210 </i>
  </energy>
  <time name="totalsc">  196.65   87.02</time>
 </calculation>
 <calculation>
  <scstep>
   <time name="diag">    2.55    1.79</time>
   <time name="diis">   21.85    6.53</time>
   <time name="orth">    0.17    0.04</time>
   <time name="total">   28.05   11.62</time>
   <energy>
    <i name="alphaZ">     -6.10292531 </i>
    <i name="ewald">  -2201.26041830 </i>
    <i name="hartreedc">    -46.30005529 </i>
    <i name="XCdc">   -810.40650968 </i>
    <i name="pawpsdc">   1100.25312875 </i>
    <i name="pawaedc">   -109.82205412 </i>
    <i name="eentropy">     -0.05839025 </i>
    <i name="bandstr">    314.37828422 </i>
    <i name="atom">   1659.66634407 </i>
    <i name="e_fr_energy">    -99.65259591 </i>
    <i name="e_wo_entrp">    -99.59420566 </i>
    <i name="e_0_energy">    -99.63313249 </i>
   </energy>
  </scstep>
  <scstep>
   <time name="diag">    2.78    2.06</time>
   <time name="diis">   22.82    6.79</time>
   <time name="orth">    0.16    0.04</time>
   <time name="total">   29.25   12.28</time>
   <energy>
    <i name="e_fr_energy">    -99.64393819 </i>
    <i name="e_wo_entrp">    -99.58764235 </i>
    <i name="e_0_energy">    -99.62517291 </i>
   </energy>
  </scstep>
  <scstep>
   <time name="diag">    2.80    2.05</time>
   <time name="diis">   22.11    6.61</time>
   <time name="orth">    0.16    0.04</time>
   <time name="total">   28.58   12.10</time>
   <energy>
    <i name="e_fr_energy">    -99.63078589 </i>
    <i name="e_wo_entrp">    -99.57819969 </i>
    <i name="e_0_energy">    -99.61325716 </i>
   </energy>
  </scstep>
  <scstep>
   <time name="diag">    2.84    2.11</time>
   <time name="diis">   22.16    6.62</time>
   <time name="orth">    0.16    0.04</time>
   <time name="total">   28.79   12.25</time>
   <energy>
    <i name="e_fr_energy">    -99.62903022 </i>
    <i name="e_wo_entrp">    -99.57523879 </i>
    <i name="e_0_energy">    -99.61109974 </i>
   </energy>
  </scstep>
  <scstep>
   <time name="diag">    2.56    1.79</time>
   <time name="diis">   21.42    6.39</time>
   <time name="orth">    0.17    0.04</time>
   <time name="total">   27.64   11.51</time>
   <energy>
    <i name="e_fr_energy">    -99.62842492 </i>
    <i name="e_wo_entrp">    -99.57563666 </i>
    <i name="e_0_energy">    -99.61082883 </i>
   </energy>
  </scstep>
  <scstep>
   <time name="diag">    2.56    1.80</time>
   <time name="diis">   15.99    4.88</time>
   <time name="orth">    0.16    0.04</time>
   <time name="total">   20.94    8.88</time>
   <energy>
    <i name="alphaZ">     -6.10292531 </i>
    <i name="ewald">  -2201.26041830 </i>
    <i name="hartreedc">    -47.44138578 </i>
    <i name="XCdc">   -810.37319106 </i>
    <i name="pawpsdc">   1101.21227678 </i>
    <i name="pawaedc">   -110.83015357 </i>
    <i name="eentropy">     -0.05292806 </i>
    <i name="bandstr">    315.55398776 </i>
    <i name="atom">   1659.66634407 </i>
    <i name="e_fr_energy">    -99.62839347 </i>
    <i name="e_wo_entrp">    -99.57546541 </i>
    <i name="e_0_energy">    -99.61075079 </i>
   </energy>
  </scstep>
  <structure>
   <crystal>
    <varray name="basis" >
     <v>       8.08705400       0.00000000       0.00000000 </v>
     <v>       0.00000000       8.08705400       0.00000000 </v>
     <v>       0.00000000       0.00000000       8.08705400 </v>
    </varray>
    <i name="volume">    528.89690930 </i>
    <varray name="rec_basis" >
     <v>       0.12365442       0.00000000       0.00000000 </v>
     <v>       0.00000000       0.12365442       0.00000000 </v>
     <v>       0.00000000       0.00000000       0.12365442 </v>
    </varray>
   </crystal>
   <varray name="positions" >
    <v>       0.00000000       0.00000000       0.00000000 </v>
    <v>       0.25062925       0.00000000       0.25062925 </v>
    <v>       0.25062925       0.25062925       0.00000000 </v>
    <v>       0.00000000       0.25062925       0.25062925 </v>
    <v>       0.50000000       0.00000000       0.00000000 </v>
    <v>       0.74937075       0.00000000       0.25062925 </v>
    <v>       0.74937075       0.25062925       0.00000000 </v>
    <v>       0.50000000       0.23900836       0.23900836 </v>
    <v>       0.00000000       0.50000000       0.00000000 </v>
    <v>       0.23900836       0.50000000       0.23900836 </v>
    <v>       0.25062925       0.74937075       0.00000000 </v>
    <v>       0.00000000       0.74937075       0.25062925 </v>
    <v>       0.50000000       0.50000000       0.00000000 </v>
    <v>       0.76099164       0.50000000       0.23900836 </v>
    <v>       0.74937075       0.74937075       0.00000000 </v>
    <v>       0.50000000       0.76099164       0.23900836 </v>
    <v>       0.00000000       0.00000000       0.50000000 </v>
    <v>       0.25062925       0.00000000       0.74937075 </v>
    <v>       0.23900836       0.23900836       0.50000000 </v>
    <v>       0.00000000       0.25062925       0.74937075 </v>
    <v>       0.50000000       0.00000000       0.50000000 </v>
    <v>       0.74937075       0.00000000       0.74937075 </v>
    <v>       0.76099164       0.23900836       0.50000000 </v>
    <v>       0.50000000       0.23900836       0.76099164 </v>
    <v>       0.00000000       0.50000000       0.50000000 </v>
    <v>       0.23900836       0.50000000       0.76099164 </v>
    <v>       0.23900836       0.76099164       0.50000000 </v>
    <v>       0.00000000       0.74937075       0.74937075 </v>
    <v>       0.76099164       0.50000000       0.76099164 </v>
    <v>       0.76099164       0.76099164       0.50000000 </v>
    <v>       0.50000000       0.76099164       0.76099164 </v>
   </varray>
  </structure>
  <varray name="forces" >
   <v>       0.00000000       0.00000000       0.00000000 </v>
   <v>      -0.20678718       0.00000000      -0.20678718 </v>
   <v>      -0.20678718      -0.20678718       0.00000000 </v>
   <v>       0.00000000      -0.20678718      -0.20678718 </v>
   <v>       0.00000000       0.00000000       0.00000000 </v>
   <v>       0.20678718       0.00000000      -0.20678718 </v>
   <v>       0.20678718      -0.20678718       0.00000000 </v>
   <v>       0.00000000       0.14514918       0.14514918 </v>
   <v>       0.00000000       0.00000000       0.00000000 </v>
   <v>       0.14514918       0.00000000       0.14514918 </v>
   <v>      -0.20678718       0.20678718       0.00000000 </v>
   <v>       0.00000000       0.20678718      -0.20678718 </v>
   <v>       0.00000000       0.00000000       0.00000000 </v>
   <v>      -0.14514918       0.00000000       0.14514918 </v>
   <v>       0.20678718       0.20678718       0.00000000 </v>
   <v>       0.00000000      -0.14514918       0.14514918 </v>
   <v>       0.00000000       0.00000000       0.00000000 </v>
   <v>      -0.20678718       0.00000000       0.20678718 </v>
   <v>       0.14514918       0.14514918       0.00000000 </v>
   <v>       0.00000000      -0.20678718       0.20678718 </v>
   <v>       0.00000000       0.00000000       0.00000000 </v>
   <v>       0.20678718       0.00000000       0.20678718 </v>
   <v>      -0.14514918       0.14514918       0.00000000 </v>
   <v>       0.00000000       0.14514918      -0.14514918 </v>
   <v>       0.00000000       0.00000000       0.00000000 </v>
   <v>       0.14514918       0.00000000      -0.14514918 </v>
   <v>       0.14514918      -0.14514918       0.00000000 </v>
   <v>       0.00000000       0.20678718       0.20678718 </v>
   <v>      -0.14514918       0.00000000      -0.14514918 </v>
   <v>      -0.14514918      -0.14514918       0.00000000 </v>
   <v>       0.00000000      -0.14514918      -0.14514918 </v>
  </varray>
  <varray name="stress" >
   <v>     -17.87874562       0.00000000       0.00000000 </v>
   <v>       0.00000000     -17.87874562       0.00000000 </v>
   <v>       0.00000000       0.00000000     -17.87874562 </v>
  </varray>
  <energy>
   <i name="e_fr_energy">    -99.62839347 </i>
   <i name="e_wo_entrp">    -99.61075079 </i>
   <i name="e_0_energy">     -0.05292806 </i>
  </energy>
  <time name="totalsc">  197.06   87.14</time>
 </calculation>
 <calculation>
  <scstep>
   <time name="diag">    2.57    1.80</time>
   <time name="diis">   21.84    6.53</time>
   <time name="orth">    0.16    0.04</time>
   <time name="total">   28.05   11.63</time>
   <energy>
    <i name="alphaZ">     -6.10292531 </i>
    <i name="ewald">  -2211.27375650 </i>
    <i name="hartreedc">    -39.38143540 </i>
    <i name="XCdc">   -810.54105965 </i>
    <i name="pawpsdc">   1101.23927528 </i>
    <i name="pawaedc">   -110.85814360 </i>
    <i name="eentropy">     -0.02041333 </i>
    <i name="bandstr">    317.58258683 </i>
    <i name="atom">   1659.66634407 </i>
    <i name="e_fr_energy">    -99.68952762 </i>
    <i name="e_wo_entrp">    -99.66911429 </i>
    <i name="e_0_energy">    -99.68272318 </i>
   </energy>
  </scstep>
  <scstep>
   <time name="diag">    2.72    2.00</time>
   <time name="diis">   22.98    6.81</time>
   <time name="orth">    0.16    0.04</time>
   <time name="total">   29.39   12.28</time>
   <energy>
    <i name="e_fr_energy">    -99.68620125 </i>
    <i name="e_wo_entrp">    -99.66521898 </i>
    <i name="e_0_energy">    -99.67920716 </i>
   </energy>
  </scstep>
  <scstep>
   <time name="diag">    2.78    2.03</time>
   <time name="diis">   22.08    6.61</time>
   <time name="orth">    0.16    0.04</time>
   <time name="total">   28.50   12.06</time>
   <energy>
    <i name="e_fr_energy">    -99.68236493 </i>
    <i name="e_wo_entrp">    -99.65948173 </i>
    <i name="e_0_energy">    -99.67473719 </i>
   </energy>
  </scstep>
  <scstep>
   <time name="diag">    2.84    2.10</time>
   <time name="diis">   21.99    6.54</time>
   <time name="orth">    0.16    0.04</time>
   <time name="total">   28.62   12.17</time>
   <energy>
    <i name="e_fr_energy">    -99.68162518 </i>
    <i name="e_wo_entrp">    -99.65929027 </i>
    <i name="e_0_energy">    -99.67418021 </i>
   </energy>
  </scstep>
  <scstep>
   <time name="diag">    2.56    1.80</time>
   <time name="diis">   20.24    6.10</time>
   <time name="orth">    0.17    0.04</time>
   <time name="total">   26.51   11.27</time>
   <energy>
    <i name="e_fr_energy">    -99.68124348 </i>
    <i name="e_wo_entrp">    -99.65827152 </i>
    <i name="e_0_energy">    -99.67358616 </i>
   </energy>
  </scstep>
  <scstep>
   <time name="diag">    2.56    1.80</time>
   <time name="diis">   13.90    4.37</time>
   <time name="orth">    0.16    0.04</time>
   <time name="total">   18.95    8.39</time>
   <energy>
    <i name="alphaZ">     -6.10292531 </i>
    <i name="ewald">  -2211.27375650 </i>
    <i name="hartreedc">    -38.86046783 </i>
    <i name="XCdc">   -810.56888861 </i>
    <i name="pawpsdc">   1100.60984321 </i>
    <i name="pawaedc">   -110.19706085 </i>
    <i name="eentropy">     -0.02295174 </i>
    <i name="bandstr">    317.06860677 </i>
    <i name="atom">   1659.66634407 </i>
    <i name="e_fr_energy">    -99.68125678 </i>
    <i name="e_wo_entrp">    -99.65830503 </i>
    <i name="e_0_energy">    -99.67360620 </i>
   </energy>
  </scstep>
  <structure>
   <crystal>
    <varray name="basis" >
     <v>       8.08705400       0.00000000       0.00000000 </v>
     <v>       0.00000000       8.08705400       0.00000000 </v>
     <v>       0.00000000       0.00000000       8.08705400 </v>
    </varray>
    <i name="volume">    528.89690930 </i>
    <varray name="rec_basis" >
     <v>       0.12365442       0.00000000       0.00000000 </v>
     <v>       0.00000000       0.12365442       0.00000000 </v>
     <v>       0.00000000       0.00000000       0.12365442 </v>
    </varray>
   </crystal>
   <varray name="positions" >
    <v>       0.00000000       0.00000000       0.00000000 </v>
    <v>       0.25041630       0.00000000       0.25041630 </v>
    <v>       0.25041630       0.25041630       0.00000000 </v>
    <v>       0.00000000       0.25041630       0.25041630 </v>
    <v>       0.50000000       0.00000000       0.00000000 </v>
    <v>       0.74958370       0.00000000       0.25041630 </v>
    <v>       0.74958370       0.25041630       0.00000000 </v>
    <v>       0.50000000       0.24272812       0.24272812 </v>
    <v>       0.00000000       0.50000000       0.00000000 </v>
    <v>       0.24272812       0.50000000       0.24272812 </v>
    <v>       0.25041630       0.74958370       0.00000000 </v>
    <v>       0.00000000       0.74958370       0.25041630 </v>
    <v>       0.50000000       0.50000000       0.00000000 </v>
    <v>       0.75727188       0.50000000       0.24272812 </v>
    <v>       0.74958370       0.74958370       0.00000000 </v>
    <v>       0.50000000       0.75727188       0.24272812 </v>
    <v>       0.00000000       0.00000000       0.50000000 </v>
    <v>       0.25041630       0.00000000       0.74958370 </v>
    <v>       0.24272812       0.24272812       0.50000000 </v>
    <v>       0.00000000       0.25041630       0.74958370 </v>
    <v>       0.50000000       0.00000000       0.50000000 </v>
    <v>       0.74958370       0.00000000       0.74958370 </v>
    <v>       0.75727188       0.24272812       0.50000000 </v>
    <v>       0.50000000       0.24272812       0.75727188 </v>
    <v>       0.00000000       0.50000000       0.50000000 </v>
    <v>       0.24272812       0.50000000       0.75727188 </v>
    <v>       0.24272812       0.75727188       0.50000000 </v>
    <v>       0.00000000       0.74958370       0.74958370 </v>
    <v>       0.75727188       0.50000000       0.75727188 </v>
    <v>       0.75727188       0.75727188       0.50000000 </v>
    <v>       0.50000000       0.75727188       0.75727188 </v>
   </varray>
  </structure>
  <varray name="forces" >
   <v>       0.00000000       0.00000000       0.00000000 </v>
   <v>      -0.07173625       0.00000000      -0.07173625 </v>
   <v>      -0.07173625      -0.07173625       0.00000000 </v>
   <v>       0.00000000      -0.07173625      -0.07173625 </v>
   <v>       0.00000000       0.00000000       0.00000000 </v>
   <v>       0.07173625       0.00000000      -0.07173625 </v>
   <v>       0.07173625      -0.07173625       0.00000000 </v>
   <v>       0.00000000      -0.01637968      -0.01637968 </v>
   <v>       0.00000000       0.00000000       0.00000000 </v>
   <v>      -0.01637968       0.00000000      -0.01637968 </v>
   <v>      -0.07173625       0.07173625       0.00000000 </v>
   <v>       0.00000000       0.07173625      -0.07173625 </v>
   <v>       0.00000000       0.00000000       0.00000000 </v>
   <v>       0.01637968       0.00000000      -0.01637968 </v>
   <v>       0.07173625       0.07173625       0.00000000 </v>
   <v>       0.00000000       0.01637968      -0.01637968 </v>
   <v>       0.00000000       0.00000000       0.00000000 </v>
   <v>      -0.07173625       0.00000000       0.07173625 </v>
   <v>      -0.01637968      -0.01637968       0.00000000 </v>
   <v>       0.00000000      -0.07173625       0.07173625 </v>
   <v>       0.00000000       0.00000000       0.00000000 </v>
   <v>       0.07173625       0.00000000       0.07173625 </v>
   <v>       0.01637968      -0.01637968       0.00000000 </v>
   <v>       0.00000000      -0.01637968       0.01637968 </v>
   <v>       0.00000000       0.00000000       0.00000000 </v>
   <v>      -0.01637968       0.00000000       0.01637968 </v>
   <v>      -0.01637968       0.01637968       0.00000000 </v>
   <v>       0.00000000       0.07173625       0.07173625 </v>
   <v>       0.01637968       0.00000000       0.01637968 </v>
   <v>       0.01637968       0.01637968       0.00000000 </v>
   <v>       0.00000000       0.01637968       0.01637968 </v>
  </varray>
  <varray name="stress" >
   <v>     -21.90852008       0.00000000       0.00000000 </v>
   <v>       0.00000000     -21.90852008       0.00000000 </v>
   <v>       0.00000000       0.00000000     -21.90852008 </v>
  </varray>
  <energy>
   <i name="e_fr_energy">    -99.68125678 </i>
   <i name="e_wo_entrp">    -99.67360620 </i>
   <i name="e_0_energy">     -0.02295174 </i>
  </energy>
  <time name="totalsc">  189.12   84.08</time>
  <eigenvalues>
   <array>
    <dimension dim="1">band</dimension>
    <dimension dim="2">kpoint</dimension>
    <dimension dim="3">spin</dimension>
    <field>eigene</field>
    <field>occ</field>
    <set>
     <set comment="spin 1">
      <set comment="kpoint 1">
       <r>   -3.3995    1.0000 </r>
       <r>   -1.3059    1.0000 </r>
       <r>   -1.3059    1.0000 </r>
       <r>   -1.1963    1.0000 </r>
       <r>   -1.1963    1.0000 </r>
       <r>   -1.1963    1.0000 </r>
       <r>   -0.6375    1.0000 </r>
       <r>    0.8468    1.0000 </r>
       <r>    0.8468    1.0000 </r>
       <r>    0.8468    1.0000 </r>
       <r>    0.9605    1.0000 </r>
       <r>    0.9605    1.0000 </r>
       <r>    0.9708    1.0000 </r>
       <r>    0.9708    1.0000 </r>
       <r>    0.9708    1.0000 </r>
       <r>    1.3292    1.0000 </r>
       <r>    1.3292    1.0000 </r>
       <r>    1.3292    1.0000 </r>
       <r>    2.1200    1.0000 </r>
       <r>    3.0142    1.0000 </r>
       <r>    3.2818    1.0000 </r>
       <r>    3.2818    1.0000 </r>
       <r>    3.2818    1.0000 </r>
       <r>    3.3041    1.0000 </r>
       <r>    3.3041    1.0000 </r>
       <r>    3.3041    1.0000 </r>
       <r>    4.2796    1.0000 </r>
       <r>    4.8750    1.0000 </r>
       <r>    4.8750    1.0000 </r>
       <r>    4.8750    1.0000 </r>
       <r>    6.1301    1.0000 </r>
       <r>    6.1301    1.0000 </r>
       <r>    6.4692    1.0000 </r>
       <r>    6.6870    1.0000 </r>
       <r>    6.6870    1.0000 </r>
       <r>    6.6870    1.0000 </r>
       <r>    6.7144    1.0000 </r>
       <r>    6.7144    1.0000 </r>
       <r>    6.7144    1.0000 </r>
       <r>    7.0134    1.0000 </r>
       <r>    7.0134    1.0000 </r>
       <r>    7.0134    1.0000 </r>
       <r>    7.3625    1.0009 </r>
       <r>    7.3625    1.0009 </r>
       <r>    7.3625    1.0009 </r>
       <r>    7.5989    1.0330 </r>
       <r>    7.9571    0.1718 </r>
       <r>    7.9571    0.1718 </r>
       <r>    7.9571    0.1718 </r>
       <r>    8.1800   -0.0257 </r>
       <r>    8.1800   -0.0257 </r>
       <r>    8.7076    0.0000 </r>
       <r>    8.7080    0.0000 </r>
       <r>    8.7622    0.0000 </r>
       <r>    8.7623    0.0000 </r>
       <r>    8.7624    0.0000 </r>
       <r>    8.7669    0.0000 </r>
       <r>    8.7673    0.0000 </r>
       <r>    8.8298    0.0000 </r>
       <r>    8.8299    0.0000 </r>
       <r>    8.8363    0.0000 </r>
       <r>    9.2055    0.0000 </r>
      </set>
     </set>
    </set>
   </array>
  </eigenvalues>
  <separator name="orbital magnetization" >
   <v name="MAGDIPOLOUT">      0.00000000      0.00000000      0.00000000</v>
  </separator>
  <dos>
   <i name="efermi">      7.87146602 </i>
   <total>
    <array>
     <dimension dim="1">gridpoints</dimension>
     <dimension dim="2">spin</dimension>
     <field>energy</field>
     <field>total</field>
     <field>integrated</field>
     <set>
      <set comment="spin 1">
       <r>  -5.3995   0.0000   0.0000 </r>
       <r>  -5.3441   0.0000   0.0000 </r>
       <r>  -5.2888   0.0000   0.0000 </r>
       <r>  -5.2334   0.0000   0.0000 </r>
       <r>  -5.1781   0.0000   0.0000 </r>
       <r>  -5.1227   0.0000   0.0000 </r>
       <r>  -5.0674   0.0000   0.0000 </r>
       <r>  -5.0120   0.0000   0.0000 </r>
       <r>  -4.9567   0.0000   0.0000 </r>
       <r>  -4.9013   0.0000   0.0000 </r>
       <r>  -4.8460   0.0000   0.0000 </r>
       <r>  -4.7906   0.0000   0.0000 </r>
       <r>  -4.7353   0.0000   0.0000 </r>
       <r>  -4.6799   0.0000   0.0000 </r>
       <r>  -4.6246   0.0000   0.0000 </r>
       <r>  -4.5692   0.0000   0.0000 </r>
       <r>  -4.5139   0.0000   0.0000 </r>
       <r>  -4.4585   0.0000   0.0000 </r>
       <r>  -4.4032   0.0000   0.0000 </r>
       <r>  -4.3478   0.0000   0.0000 </r>
       <r>  -4.2925   0.0000   0.0000 </r>
       <r>  -4.2371   0.0000   0.0000 </r>
       <r>  -4.1818   0.0000   0.0000 </r>
       <r>  -4.1264  -0.0001   0.0000 </r>
       <r>  -4.0711  -0.0003   0.0000 </r>
       <r>  -4.0157  -0.0017  -0.0001 </r>
       <r>  -3.9604  -0.0075  -0.0005 </r>
       <r>  -3.9050  -0.0273  -0.0020 </r>
       <r>  -3.8497  -0.0814  -0.0065 </r>
       <r>  -3.7943  -0.1954  -0.0174 </r>
       <r>  -3.7390  -0.3605  -0.0373 </r>
       <r>  -3.6836  -0.4456  -0.0620 </r>
       <r>  -3.6283  -0.1210  -0.0687 </r>
       <r>  -3.5729   1.0490  -0.0106 </r>
       <r>  -3.5176   3.2377   0.1686 </r>
       <r>  -3.4622   5.9304   0.4968 </r>
       <r>  -3.4069   7.9601   0.9374 </r>
       <r>  -3.3515   8.2334   1.3932 </r>
       <r>  -3.2962   6.5927   1.7581 </r>
       <r>  -3.2408   3.9484   1.9766 </r>
       <r>  -3.1855   1.5410   2.0619 </r>
       <r>  -3.1301   0.0931   2.0671 </r>
       <r>  -3.0748  -0.4171   2.0440 </r>
       <r>  -3.0194  -0.4009   2.0218 </r>
       <r>  -2.9641  -0.2369   2.0087 </r>
       <r>  -2.9087  -0.1052   2.0028 </r>
       <r>  -2.8534  -0.0373   2.0008 </r>
       <r>  -2.7980  -0.0108   2.0002 </r>
       <r>  -2.7427  -0.0026   2.0000 </r>
       <r>  -2.6873  -0.0005   2.0000 </r>
       <r>  -2.6320  -0.0001   2.0000 </r>
       <r>  -2.5766   0.0000   2.0000 </r>
       <r>  -2.5213   0.0000   2.0000 </r>
       <r>  -2.4659   0.0000   2.0000 </r>
       <r>  -2.4106   0.0000   2.0000 </r>
       <r>  -2.3552   0.0000   2.0000 </r>
       <r>  -2.2999   0.0000   2.0000 </r>
       <r>  -2.2445   0.0000   2.0000 </r>
       <r>  -2.1892   0.0000   2.0000 </r>
       <r>  -2.1338   0.0000   2.0000 </r>
       <r>  -2.0785   0.0000   2.0000 </r>
       <r>  -2.0231  -0.0002   2.0000 </r>
       <r>  -1.9678  -0.0009   1.9999 </r>
       <r>  -1.9124  -0.0048   1.9997 </r>
       <r>  -1.8571  -0.0205   1.9985 </r>
       <r>  -1.8017  -0.0741   1.9944 </r>
       <r>  -1.7464  -0.2225   1.9821 </r>
       <r>  -1.6910  -0.5474   1.9518 </r>
       <r>  -1.6357  -1.0706   1.8926 </r>
       <r>  -1.5803  -1.5371   1.8075 </r>
       <r>  -1.5250  -1.1475   1.7440 </r>
       <r>  -1.4696   1.4441   1.8239 </r>
       <r>  -1.4143   7.4902   2.2385 </r>
       <r>  -1.3589  16.9489   3.1766 </r>
       <r>  -1.3036  27.5726   4.7028 </r>
       <r>  -1.2482  35.3972   6.6620 </r>
       <r>  -1.1929  36.8391   8.7010 </r>
       <r>  -1.1375  31.0658  10.4205 </r>
       <r>  -1.0822  20.6721  11.5647 </r>
       <r>  -1.0268   9.9576  12.1159 </r>
       <r>  -0.9715   2.2671  12.2414 </r>
       <r>  -0.9161  -1.3981  12.1640 </r>
       <r>  -0.8608  -1.7902  12.0649 </r>
       <r>  -0.8054  -0.0699  12.0610 </r>
       <r>  -0.7501   2.8204  12.2172 </r>
       <r>  -0.6947   5.9060  12.5441 </r>
       <r>  -0.6394   7.9853  12.9860 </r>
       <r>  -0.5840   8.1218  13.4356 </r>
       <r>  -0.5287   6.3464  13.7869 </r>
       <r>  -0.4733   3.6780  13.9904 </r>
       <r>  -0.4180   1.3480  14.0650 </r>
       <r>  -0.3626   0.0052  14.0653 </r>
       <r>  -0.3073  -0.4316  14.0414 </r>
       <r>  -0.2519  -0.3866  14.0200 </r>
       <r>  -0.1966  -0.2209  14.0078 </r>
       <r>  -0.1412  -0.0957  14.0025 </r>
       <r>  -0.0859  -0.0332  14.0007 </r>
       <r>  -0.0305  -0.0095  14.0002 </r>
       <r>   0.0248  -0.0022  14.0000 </r>
       <r>   0.0802  -0.0005  14.0000 </r>
       <r>   0.1355  -0.0004  14.0000 </r>
       <r>   0.1909  -0.0017  13.9999 </r>
       <r>   0.2462  -0.0084  13.9994 </r>
       <r>   0.3016  -0.0352  13.9975 </r>
       <r>   0.3569  -0.1243  13.9906 </r>
       <r>   0.4123  -0.3648  13.9704 </r>
       <r>   0.4676  -0.8760  13.9219 </r>
       <r>   0.5230  -1.6671  13.8296 </r>
       <r>   0.5783  -2.3097  13.7018 </r>
       <r>   0.6337  -1.5691  13.6149 </r>
       <r>   0.6890   2.5418  13.7556 </r>
       <r>   0.7444  11.8101  14.4093 </r>
       <r>   0.7997  26.1475  15.8566 </r>
       <r>   0.8551  42.3224  18.1991 </r>
       <r>   0.9104  54.5327  21.2175 </r>
       <r>   0.9658  57.2499  24.3863 </r>
       <r>   1.0211  48.8925  27.0925 </r>
       <r>   1.0765  33.5709  28.9507 </r>
       <r>   1.1318  19.0241  30.0036 </r>
       <r>   1.1872  11.8050  30.6570 </r>
       <r>   1.2425  13.2147  31.3885 </r>
       <r>   1.2979  19.0088  32.4406 </r>
       <r>   1.3532  22.9491  33.7108 </r>
       <r>   1.4086  21.3160  34.8907 </r>
       <r>   1.4639  14.8928  35.7150 </r>
       <r>   1.5193   7.2885  36.1184 </r>
       <r>   1.5746   1.7034  36.2127 </r>
       <r>   1.6300  -0.9147  36.1621 </r>
       <r>   1.6853  -1.4409  36.0823 </r>
       <r>   1.7407  -1.1685  36.0177 </r>
       <r>   1.7960  -0.8644  35.9698 </r>
       <r>   1.8514  -0.5943  35.9369 </r>
       <r>   1.9067   0.0485  35.9396 </r>
       <r>   1.9621   1.5521  36.0255 </r>
       <r>   2.0174   3.9805  36.2458 </r>
       <r>   2.0728   6.6226  36.6124 </r>
       <r>   2.1281   8.2430  37.0686 </r>
       <r>   2.1835   7.9433  37.5083 </r>
       <r>   2.2388   5.8968  37.8347 </r>
       <r>   2.2942   3.2040  38.0120 </r>
       <r>   2.3495   1.0266  38.0689 </r>
       <r>   2.4049  -0.1319  38.0616 </r>
       <r>   2.4602  -0.4551  38.0364 </r>
       <r>   2.5156  -0.3900  38.0148 </r>
       <r>   2.5709  -0.2858  37.9990 </r>
       <r>   2.6263  -0.2970  37.9825 </r>
       <r>   2.6816  -0.4195  37.9593 </r>
       <r>   2.7370  -0.4965  37.9318 </r>
       <r>   2.7923  -0.2173  37.9198 </r>
       <r>   2.8477   0.7283  37.9601 </r>
       <r>   2.9030   2.3059  38.0877 </r>
       <r>   2.9584   4.0091  38.3096 </r>
       <r>   3.0137   5.5201  38.6152 </r>
       <r>   3.0691   7.8911  39.0519 </r>
       <r>   3.1244  13.6475  39.8073 </r>
       <r>   3.1798  24.4950  41.1631 </r>
       <r>   3.2351  38.1492  43.2747 </r>
       <r>   3.2905  48.1494  45.9398 </r>
       <r>   3.3458  48.2728  48.6117 </r>
       <r>   3.4012  37.7814  50.7029 </r>
       <r>   3.4565  22.0824  51.9251 </r>
       <r>   3.5119   8.2489  52.3817 </r>
       <r>   3.5672   0.1694  52.3911 </r>
       <r>   3.6226  -2.5327  52.2509 </r>
       <r>   3.6779  -2.3214  52.1224 </r>
       <r>   3.7333  -1.3533  52.0475 </r>
       <r>   3.7886  -0.6256  52.0129 </r>
       <r>   3.8440  -0.3114  51.9956 </r>
       <r>   3.8993  -0.2958  51.9793 </r>
       <r>   3.9547  -0.4147  51.9563 </r>
       <r>   4.0100  -0.4206  51.9330 </r>
       <r>   4.0654   0.0893  51.9380 </r>
       <r>   4.1207   1.5339  52.0229 </r>
       <r>   4.1761   3.9384  52.2409 </r>
       <r>   4.2314   6.5820  52.6052 </r>
       <r>   4.2868   8.2195  53.0601 </r>
       <r>   4.3421   7.9202  53.4985 </r>
       <r>   4.3975   5.7936  53.8192 </r>
       <r>   4.4528   2.8553  53.9772 </r>
       <r>   4.5082   0.2250  53.9897 </r>
       <r>   4.5635  -1.4068  53.9118 </r>
       <r>   4.6189  -1.5267  53.8273 </r>
       <r>   4.6742   0.6673  53.8643 </r>
       <r>   4.7296   5.9325  54.1926 </r>
       <r>   4.7849  13.7229  54.9522 </r>
       <r>   4.8403  21.3416  56.1334 </r>
       <r>   4.8956  25.0619  57.5206 </r>
       <r>   4.9510  22.8109  58.7832 </r>
       <r>   5.0063  15.8921  59.6628 </r>
       <r>   5.0617   7.9083  60.1006 </r>
       <r>   5.1170   2.0234  60.2125 </r>
       <r>   5.1724  -0.7795  60.1694 </r>
       <r>   5.2277  -1.3403  60.0952 </r>
       <r>   5.2831  -0.9612  60.0420 </r>
       <r>   5.3384  -0.4858  60.0151 </r>
       <r>   5.3938  -0.1916  60.0045 </r>
       <r>   5.4491  -0.0617  60.0011 </r>
       <r>   5.5045  -0.0188  60.0001 </r>
       <r>   5.5598  -0.0154  59.9992 </r>
       <r>   5.6152  -0.0451  59.9967 </r>
       <r>   5.6705  -0.1373  59.9891 </r>
       <r>   5.7259  -0.3426  59.9702 </r>
       <r>   5.7812  -0.6647  59.9334 </r>
       <r>   5.8366  -0.8980  59.8837 </r>
       <r>   5.8919  -0.4535  59.8586 </r>
       <r>   5.9473   1.5346  59.9435 </r>
       <r>   6.0026   5.5525  60.2508 </r>
       <r>   6.0580  10.8084  60.8491 </r>
       <r>   6.1133  15.1005  61.6849 </r>
       <r>   6.1687  16.1268  62.5775 </r>
       <r>   6.2240  13.3601  63.3170 </r>
       <r>   6.2794   8.6101  63.7936 </r>
       <r>   6.3347   4.6018  64.0483 </r>
       <r>   6.3901   3.1212  64.2210 </r>
       <r>   6.4454   4.7111  64.4818 </r>
       <r>   6.5008   9.8125  65.0249 </r>
       <r>   6.5561  19.1295  66.0837 </r>
       <r>   6.6115  31.8463  67.8464 </r>
       <r>   6.6668  43.7480  70.2679 </r>
       <r>   6.7222  48.8160  72.9699 </r>
       <r>   6.7775  44.2049  75.4166 </r>
       <r>   6.8329  33.5060  77.2712 </r>
       <r>   6.8882  24.0147  78.6004 </r>
       <r>   6.9436  20.3397  79.7262 </r>
       <r>   6.9989  20.9615  80.8864 </r>
       <r>   7.0543  20.9871  82.0480 </r>
       <r>   7.1096  17.6883  83.0271 </r>
       <r>   7.1650  13.0534  83.7496 </r>
       <r>   7.2203  11.3053  84.3753 </r>
       <r>   7.2757  14.4171  85.1733 </r>
       <r>   7.3310  20.1047  86.2861 </r>
       <r>   7.3864  23.9475  87.6116 </r>
       <r>   7.4417  23.2613  88.8991 </r>
       <r>   7.4971  18.8793  89.9441 </r>
       <r>   7.5524  13.4994  90.6913 </r>
       <r>   7.6078   8.9871  91.1887 </r>
       <r>   7.6631   5.6657  91.5023 </r>
       <r>   7.7185   3.7062  91.7075 </r>
       <r>   7.7738   4.1972  91.9398 </r>
       <r>   7.8292   8.2495  92.3964 </r>
       <r>   7.8845  15.1747  93.2363 </r>
       <r>   7.9399  22.1270  94.4610 </r>
       <r>   7.9952  26.0856  95.9049 </r>
       <r>   8.0506  26.2219  97.3563 </r>
       <r>   8.1059  23.9888  98.6840 </r>
       <r>   8.1613  20.9849  99.8456 </r>
       <r>   8.2166  17.3719 100.8071 </r>
       <r>   8.2720  12.5535 101.5019 </r>
       <r>   8.3273   6.6779 101.8716 </r>
       <r>   8.3827   0.9253 101.9228 </r>
       <r>   8.4380  -3.1797 101.7468 </r>
       <r>   8.4934  -3.8993 101.5309 </r>
       <r>   8.5487   1.1744 101.5959 </r>
       <r>   8.6041  14.4232 102.3943 </r>
       <r>   8.6594  35.5012 104.3593 </r>
       <r>   8.7148  58.8089 107.6143 </r>
       <r>   8.7701  74.7728 111.7530 </r>
       <r>   8.8255  75.5489 115.9347 </r>
       <r>   8.8808  60.7581 119.2976 </r>
       <r>   8.9362  37.9027 121.3955 </r>
       <r>   8.9915  17.0539 122.3395 </r>
       <r>   9.0469   4.6726 122.5981 </r>
       <r>   9.1022   1.2444 122.6670 </r>
       <r>   9.1576   3.1188 122.8396 </r>
       <r>   9.2129   5.8770 123.1649 </r>
       <r>   9.2683   6.7842 123.5404 </r>
       <r>   9.3236   5.4632 123.8428 </r>
       <r>   9.3790   3.0852 124.0136 </r>
       <r>   9.4343   1.0075 124.0693 </r>
       <r>   9.4897  -0.1306 124.0621 </r>
       <r>   9.5450  -0.4475 124.0373 </r>
       <r>   9.6004  -0.3608 124.0174 </r>
       <r>   9.6557  -0.1954 124.0065 </r>
       <r>   9.7111  -0.0814 124.0020 </r>
       <r>   9.7664  -0.0273 124.0005 </r>
       <r>   9.8218  -0.0075 124.0001 </r>
       <r>   9.8771  -0.0017 124.0000 </r>
       <r>   9.9325  -0.0003 124.0000 </r>
       <r>   9.9878  -0.0001 124.0000 </r>
       <r>  10.0432   0.0000 124.0000 </r>
       <r>  10.0985   0.0000 124.0000 </r>
       <r>  10.1539   0.0000 124.0000 </r>
       <r>  10.2092   0.0000 124.0000 </r>
       <r>  10.2646   0.0000 124.0000 </r>
       <r>  10.3199   0.0000 124.0000 </r>
       <r>  10.3753   0.0000 124.0000 </r>
       <r>  10.4306   0.0000 124.0000 </r>
       <r>  10.4860   0.0000 124.0000 </r>
       <r>  10.5413   0.0000 124.0000 </r>
       <r>  10.5967   0.0000 124.0000 </r>
       <r>  10.6520   0.0000 124.0000 </r>
       <r>  10.7074   0.0000 124.0000 </r>
       <r>  10.7627   0.0000 124.0000 </r>
       <r>  10.8181   0.0000 124.0000 </r>
       <r>  10.8734   0.0000 124.0000 </r>
       <r>  10.9288   0.0000 124.0000 </r>
       <r>  10.9841   0.0000 124.0000 </r>
       <r>  11.0395   0.0000 124.0000 </r>
       <r>  11.0948   0.0000 124.0000 </r>
       <r>  11.1502   0.0000 124.0000 </r>
       <r>  11.2055   0.0000 124.0000 </r>
      </set>
     </set>
    </array>
   </total>
  </dos>
 </calculation>
 <structure name="finalpos" >
  <crystal>
   <varray name="basis" >
    <v>       8.08705400       0.00000000       0.00000000 </v>
    <v>       0.00000000       8.08705400       0.00000000 </v>
    <v>       0.00000000       0.00000000       8.08705400 </v>
   </varray>
   <i name="volume">    528.89690930 </i>
   <varray name="rec_basis" >
    <v>       0.12365442       0.00000000       0.00000000 </v>
    <v>       0.00000000       0.12365442       0.00000000 </v>
    <v>       0.00000000       0.00000000       0.12365442 </v>
   </varray>
  </crystal>
  <varray name="positions" >
   <v>       0.00000000       0.00000000       0.00000000 </v>
   <v>       0.25041630       0.00000000       0.25041630 </v>
   <v>       0.25041630       0.25041630       0.00000000 </v>
   <v>       0.00000000       0.25041630       0.25041630 </v>
   <v>       0.50000000       0.00000000       0.00000000 </v>
   <v>       0.74958370       0.00000000       0.25041630 </v>
   <v>       0.74958370       0.25041630       0.00000000 </v>
   <v>       0.50000000       0.24272812       0.24272812 </v>
   <v>       0.00000000       0.50000000       0.00000000 </v>
   <v>       0.24272812       0.50000000       0.24272812 </v>
   <v>       0.25041630       0.74958370       0.00000000 </v>
   <v>       0.00000000       0.74958370       0.25041630 </v>
   <v>       0.50000000       0.50000000       0.00000000 </v>
   <v>       0.75727188       0.50000000       0.24272812 </v>
   <v>       0.74958370       0.74958370       0.00000000 </v>
   <v>       0.50000000       0.75727188       0.24272812 </v>
   <v>       0.00000000       0.00000000       0.50000000 </v>
   <v>       0.25041630       0.00000000       0.74958370 </v>
   <v>       0.24272812       0.24272812       0.50000000 </v>
   <v>       0.00000000       0.25041630       0.74958370 </v>
   <v>       0.50000000       0.00000000       0.50000000 </v>
   <v>       0.74958370       0.00000000       0.74958370 </v>
   <v>       0.75727188       0.24272812       0.50000000 </v>
   <v>       0.50000000       0.24272812       0.75727188 </v>
   <v>       0.00000000       0.50000000       0.50000000 </v>
   <v>       0.24272812       0.50000000       0.75727188 </v>
   <v>       0.24272812       0.75727188       0.50000000 </v>
   <v>       0.00000000       0.74958370       0.74958370 </v>
   <v>       0.75727188       0.50000000       0.75727188 </v>
   <v>       0.75727188       0.75727188       0.50000000 </v>
   <v>       0.50000000       0.75727188       0.75727188 </v>
  </varray>
 </structure>
</modeling>
