   32   32  191    1
  0.1593307E+02  0.7988830E-09  0.7988830E-09  0.7988830E-09  0.5000000E-15
  1.000000000000000E-004
  CAR 
 unknown system                          
   96    1   96
 
  0.2500000E+00  0.2500000E+00  0.2500000E+00  0.1000000E+01
   1       -2.713228
   2       -1.589153
   3       -1.589153
   4       -1.589153
   5       -0.473663
   6       -0.473663
   7       -0.473663
   8        0.631857
   9        0.631857
  10        0.631857
  11        0.633279
  12        1.730023
  13        1.730023
  14        1.730023
  15        1.730023
  16        1.730023
  17        1.730023
  18        2.818710
  19        2.818710
  20        2.818710
  21        3.862433
  22        3.862433
  23        3.862433
  24        3.897162
  25        3.897162
  26        3.897162
  27        4.928720
  28        4.928720
  29        4.928720
  30        4.928720
  31        4.928720
  32        4.928720
  33        4.991440
  34        4.991440
  35        4.991440
  36        6.013303
  37        6.013303
  38        6.013303
  39        7.060289
  40        7.060289
  41        7.060289
  42        7.060289
  43        7.060289
  44        7.060289
  45        7.122588
  46        8.123940
  47        8.123940
  48        8.123940
  49        8.123940
  50        8.123940
  51        8.123940
  52        8.360736
  53        8.360736
  54        8.360736
  55        9.445309
  56        9.445309
  57        9.445309
  58        9.445309
  59        9.445309
  60        9.445309
  61       10.200914
  62       10.200914
  63       10.200914
  64       10.223676
  65       10.223676
  66       10.223676
  67       10.520874
  68       10.520874
  69       10.520874
  70       11.213197
  71       11.213197
  72       11.213197
  73       11.608971
  74       11.608971
  75       11.608971
  76       11.608971
  77       11.608971
  78       11.608971
  79       12.565922
  80       12.565922
  81       12.565922
  82       12.565922
  83       12.565922
  84       12.565922
  85       13.291116
  86       13.291117
  87       13.291117
  88       13.573391
  89       13.573394
  90       13.573400
  91       13.936495
  92       13.936497
  93       13.936526
  94       14.609213
  95       14.624338
  96       14.637085
