  33  33   0   0
  0.1602710E+02  0.8087040E-09  0.8087040E-09  0.8087040E-09  0.5000000E-15
  1.000000000000000E-004
  CAR 
 unknown system                          
     17.48415009     -5.13673042  301      8.42848523      1.00000000
     -5.137  0.0000E+00  0.0000E+00
     -5.061  0.0000E+00  0.0000E+00
     -4.986  0.0000E+00  0.0000E+00
     -4.911  0.0000E+00  0.0000E+00
     -4.835  0.0000E+00  0.0000E+00
     -4.760 -0.8000E-29 -0.6033E-30
     -4.684 -0.2999E-26 -0.2267E-27
     -4.609 -0.8455E-24 -0.6398E-25
     -4.534 -0.1789E-21 -0.1355E-22
     -4.458 -0.2838E-19 -0.2153E-20
     -4.383 -0.3376E-17 -0.2567E-18
     -4.307 -0.2932E-15 -0.2236E-16
     -4.232 -0.1942E-13 -0.1486E-14
     -4.156 -0.9644E-12 -0.7420E-13
     -4.081 -0.3573E-10 -0.2769E-11
     -4.006 -0.9859E-09 -0.7711E-10
     -3.930 -0.2020E-07 -0.1600E-08
     -3.855 -0.3060E-06 -0.2467E-07
     -3.779 -0.3408E-05 -0.2817E-06
     -3.704 -0.2765E-04 -0.2366E-05
     -3.629 -0.1608E-03 -0.1449E-04
     -3.553 -0.6500E-03 -0.6350E-04
     -3.478 -0.1699E-02 -0.1916E-03
     -3.402 -0.2183E-02 -0.3562E-03
     -3.327  0.2036E-02 -0.2027E-03
     -3.252  0.1542E-01  0.9601E-03
     -3.176  0.3397E-01  0.3522E-02
     -3.101  0.4344E-01  0.6797E-02
     -3.025  0.3477E-01  0.9419E-02
     -2.950  0.1629E-01  0.1065E-01
     -2.875  0.2456E-02  0.1083E-01
     -2.799 -0.2132E-02  0.1067E-01
     -2.724 -0.1756E-02  0.1054E-01
     -2.648 -0.6884E-03  0.1049E-01
     -2.573 -0.1735E-03  0.1047E-01
     -2.498 -0.3034E-04  0.1047E-01
     -2.422 -0.3799E-05  0.1047E-01
     -2.347 -0.3463E-06  0.1047E-01
     -2.271 -0.2319E-07  0.1047E-01
     -2.196 -0.1151E-08  0.1047E-01
     -2.121 -0.1309E-09  0.1047E-01
     -2.045 -0.2403E-08  0.1047E-01
     -1.970 -0.4828E-07  0.1047E-01
     -1.894 -0.7178E-06  0.1047E-01
     -1.819 -0.7840E-05  0.1047E-01
     -1.744 -0.6233E-04  0.1047E-01
     -1.668 -0.3547E-03  0.1044E-01
     -1.593 -0.1400E-02  0.1033E-01
     -1.517 -0.3546E-02  0.1007E-01
     -1.442 -0.4254E-02  0.9745E-02
     -1.367  0.5008E-02  0.1012E-01
     -1.291  0.3230E-01  0.1256E-01
     -1.216  0.6730E-01  0.1763E-01
     -1.140  0.8117E-01  0.2375E-01
     -1.065  0.6328E-01  0.2853E-01
     -0.990  0.4535E-01  0.3194E-01
     -0.914  0.6308E-01  0.3670E-01
     -0.839  0.1034E+00  0.4450E-01
     -0.763  0.1186E+00  0.5344E-01
     -0.688  0.9068E-01  0.6028E-01
     -0.613  0.5254E-01  0.6424E-01
     -0.537  0.3698E-01  0.6703E-01
     -0.462  0.3753E-01  0.6986E-01
     -0.386  0.3168E-01  0.7225E-01
     -0.311  0.1611E-01  0.7346E-01
     -0.236  0.2809E-02  0.7367E-01
     -0.160 -0.2096E-02  0.7351E-01
     -0.085 -0.1863E-02  0.7337E-01
     -0.009 -0.7609E-03  0.7332E-01
      0.066 -0.1982E-03  0.7330E-01
      0.141 -0.3648E-04  0.7330E-01
      0.217 -0.1320E-04  0.7330E-01
      0.292 -0.6795E-04  0.7329E-01
      0.368 -0.3789E-03  0.7326E-01
      0.443 -0.1473E-02  0.7315E-01
      0.518 -0.3664E-02  0.7288E-01
      0.594 -0.4266E-02  0.7256E-01
      0.669  0.5335E-02  0.7296E-01
      0.745  0.3295E-01  0.7544E-01
      0.820  0.6887E-01  0.8063E-01
      0.896  0.8730E-01  0.8722E-01
      0.971  0.7711E-01  0.9303E-01
      1.046  0.5498E-01  0.9718E-01
      1.122  0.4086E-01  0.1003E+00
      1.197  0.4584E-01  0.1037E+00
      1.273  0.7942E-01  0.1097E+00
      1.348  0.1349E+00  0.1199E+00
      1.423  0.1761E+00  0.1332E+00
      1.499  0.1729E+00  0.1462E+00
      1.574  0.1442E+00  0.1571E+00
      1.650  0.1329E+00  0.1671E+00
      1.725  0.1423E+00  0.1778E+00
      1.800  0.1365E+00  0.1881E+00
      1.876  0.9787E-01  0.1955E+00
      1.951  0.4708E-01  0.1990E+00
      2.027  0.1090E-01  0.1999E+00
      2.102 -0.3596E-02  0.1996E+00
      2.177 -0.4842E-02  0.1992E+00
      2.253 -0.2495E-02  0.1990E+00
      2.328 -0.8185E-03  0.1990E+00
      2.404 -0.1875E-03  0.1990E+00
      2.479 -0.3254E-04  0.1990E+00
      2.554 -0.1869E-04  0.1990E+00
      2.630 -0.9709E-04  0.1989E+00
      2.705 -0.4399E-03  0.1989E+00
      2.781 -0.1333E-02  0.1988E+00
      2.856 -0.2281E-02  0.1986E+00
      2.931 -0.1264E-03  0.1986E+00
      3.007  0.1020E-01  0.1994E+00
      3.082  0.2795E-01  0.2015E+00
      3.158  0.4032E-01  0.2045E+00
      3.233  0.3363E-01  0.2071E+00
      3.308  0.1358E-01  0.2081E+00
      3.384  0.6592E-02  0.2086E+00
      3.459  0.3750E-01  0.2114E+00
      3.535  0.1037E+00  0.2192E+00
      3.610  0.1720E+00  0.2322E+00
      3.685  0.2071E+00  0.2478E+00
      3.761  0.1970E+00  0.2627E+00
      3.836  0.1509E+00  0.2741E+00
      3.912  0.8892E-01  0.2808E+00
      3.987  0.3491E-01  0.2834E+00
      4.062  0.3953E-02  0.2837E+00
      4.138 -0.5590E-02  0.2833E+00
      4.213 -0.4684E-02  0.2829E+00
      4.289 -0.2056E-02  0.2828E+00
      4.364 -0.6021E-03  0.2827E+00
      4.439 -0.1267E-03  0.2827E+00
      4.515 -0.3544E-04  0.2827E+00
      4.590 -0.1176E-03  0.2827E+00
      4.666 -0.5809E-03  0.2827E+00
      4.741 -0.2048E-02  0.2825E+00
      4.816 -0.4666E-02  0.2822E+00
      4.892 -0.4744E-02  0.2818E+00
      4.967  0.8402E-02  0.2824E+00
      5.043  0.4491E-01  0.2858E+00
      5.118  0.9448E-01  0.2929E+00
      5.193  0.1224E+00  0.3022E+00
      5.269  0.1037E+00  0.3100E+00
      5.344  0.5484E-01  0.3141E+00
      5.420  0.1304E-01  0.3151E+00
      5.495 -0.4321E-02  0.3148E+00
      5.570 -0.5372E-02  0.3144E+00
      5.646 -0.2580E-02  0.3142E+00
      5.721 -0.1170E-02  0.3141E+00
      5.797 -0.1509E-02  0.3140E+00
      5.872 -0.2335E-02  0.3138E+00
      5.948 -0.1678E-03  0.3138E+00
      6.023  0.9789E-02  0.3145E+00
      6.098  0.2620E-01  0.3165E+00
      6.174  0.3767E-01  0.3194E+00
      6.249  0.3768E-01  0.3222E+00
      6.325  0.4002E-01  0.3252E+00
      6.400  0.6021E-01  0.3298E+00
      6.475  0.8660E-01  0.3363E+00
      6.551  0.9382E-01  0.3434E+00
      6.626  0.7974E-01  0.3494E+00
      6.702  0.6714E-01  0.3544E+00
      6.777  0.7313E-01  0.3599E+00
      6.852  0.8889E-01  0.3667E+00
      6.928  0.9260E-01  0.3736E+00
      7.003  0.7999E-01  0.3797E+00
      7.079  0.7066E-01  0.3850E+00
      7.154  0.8355E-01  0.3913E+00
      7.229  0.1164E+00  0.4001E+00
      7.305  0.1503E+00  0.4114E+00
      7.380  0.1697E+00  0.4242E+00
      7.456  0.1762E+00  0.4375E+00
      7.531  0.1815E+00  0.4512E+00
      7.606  0.1856E+00  0.4652E+00
      7.682  0.1703E+00  0.4780E+00
      7.757  0.1233E+00  0.4873E+00
      7.833  0.6058E-01  0.4919E+00
      7.908  0.1400E-01  0.4929E+00
      7.983  0.1754E-02  0.4931E+00
      8.059  0.1734E-01  0.4944E+00
      8.134  0.4069E-01  0.4974E+00
      8.210  0.5494E-01  0.5016E+00
      8.285  0.5574E-01  0.5058E+00
      8.360  0.5034E-01  0.5096E+00
      8.436  0.5208E-01  0.5135E+00
      8.511  0.6929E-01  0.5187E+00
      8.587  0.9597E-01  0.5260E+00
      8.662  0.1233E+00  0.5353E+00
      8.737  0.1506E+00  0.5466E+00
      8.813  0.1742E+00  0.5598E+00
      8.888  0.1802E+00  0.5733E+00
      8.964  0.1594E+00  0.5854E+00
      9.039  0.1274E+00  0.5950E+00
      9.114  0.1197E+00  0.6040E+00
      9.190  0.1485E+00  0.6152E+00
      9.265  0.1815E+00  0.6289E+00
      9.341  0.1875E+00  0.6430E+00
      9.416  0.1738E+00  0.6561E+00
      9.491  0.1573E+00  0.6680E+00
      9.567  0.1403E+00  0.6786E+00
      9.642  0.1304E+00  0.6884E+00
      9.718  0.1361E+00  0.6986E+00
      9.793  0.1380E+00  0.7091E+00
      9.868  0.1087E+00  0.7173E+00
      9.944  0.5947E-01  0.7217E+00
     10.019  0.3296E-01  0.7242E+00
     10.095  0.4849E-01  0.7279E+00
     10.170  0.7682E-01  0.7337E+00
     10.245  0.7711E-01  0.7395E+00
     10.321  0.4459E-01  0.7429E+00
     10.396  0.6795E-02  0.7434E+00
     10.472 -0.1200E-01  0.7425E+00
     10.547  0.1025E-02  0.7425E+00
     10.622  0.5625E-01  0.7468E+00
     10.698  0.1442E+00  0.7577E+00
     10.773  0.2157E+00  0.7739E+00
     10.849  0.2157E+00  0.7902E+00
     10.924  0.1451E+00  0.8011E+00
     10.999  0.6584E-01  0.8061E+00
     11.075  0.4083E-01  0.8092E+00
     11.150  0.7584E-01  0.8149E+00
     11.226  0.1180E+00  0.8238E+00
     11.301  0.1139E+00  0.8324E+00
     11.377  0.6597E-01  0.8373E+00
     11.452  0.1684E-01  0.8386E+00
     11.527 -0.6209E-02  0.8381E+00
     11.603 -0.5545E-02  0.8377E+00
     11.678  0.9297E-02  0.8384E+00
     11.754  0.2991E-01  0.8407E+00
     11.829  0.4284E-01  0.8439E+00
     11.904  0.3750E-01  0.8467E+00
     11.980  0.1965E-01  0.8482E+00
     12.055  0.4249E-02  0.8485E+00
     12.131 -0.1835E-02  0.8484E+00
     12.206 -0.1957E-02  0.8483E+00
     12.281 -0.8468E-03  0.8482E+00
     12.357 -0.2295E-03  0.8482E+00
     12.432 -0.4276E-04  0.8482E+00
     12.508 -0.5689E-05  0.8482E+00
     12.583 -0.6951E-06  0.8482E+00
     12.658 -0.1965E-05  0.8482E+00
     12.734 -0.1867E-04  0.8482E+00
     12.809 -0.1326E-03  0.8482E+00
     12.885 -0.6777E-03  0.8481E+00
     12.960 -0.2409E-02  0.8479E+00
     13.035 -0.5445E-02  0.8475E+00
     13.111 -0.5220E-02  0.8471E+00
     13.186  0.1052E-01  0.8479E+00
     13.262  0.5092E-01  0.8518E+00
     13.337  0.1008E+00  0.8594E+00
     13.412  0.1270E+00  0.8689E+00
     13.488  0.1197E+00  0.8780E+00
     13.563  0.1046E+00  0.8858E+00
     13.639  0.1032E+00  0.8936E+00
     13.714  0.1156E+00  0.9023E+00
     13.789  0.1353E+00  0.9125E+00
     13.865  0.1486E+00  0.9237E+00
     13.940  0.1336E+00  0.9338E+00
     14.016  0.8734E-01  0.9404E+00
     14.091  0.3560E-01  0.9431E+00
     14.166  0.3714E-02  0.9434E+00
     14.242 -0.5765E-02  0.9429E+00
     14.317 -0.4499E-02  0.9426E+00
     14.393 -0.1843E-02  0.9425E+00
     14.468 -0.5033E-03  0.9424E+00
     14.543 -0.1013E-03  0.9424E+00
     14.619 -0.4915E-04  0.9424E+00
     14.694 -0.2341E-03  0.9424E+00
     14.770 -0.1103E-02  0.9423E+00
     14.845 -0.3648E-02  0.9420E+00
     14.920 -0.7652E-02  0.9415E+00
     14.996 -0.6295E-02  0.9410E+00
     15.071  0.1717E-01  0.9423E+00
     15.147  0.7573E-01  0.9480E+00
     15.222  0.1516E+00  0.9594E+00
     15.297  0.1976E+00  0.9743E+00
     15.373  0.1835E+00  0.9881E+00
     15.448  0.1281E+00  0.9978E+00
     15.524  0.7037E-01  0.1003E+01
     15.599  0.2995E-01  0.1005E+01
     15.674  0.7092E-02  0.1006E+01
     15.750 -0.2393E-02  0.1006E+01
     15.825 -0.3613E-02  0.1005E+01
     15.901 -0.2016E-02  0.1005E+01
     15.976 -0.7002E-03  0.1005E+01
     16.051 -0.1666E-03  0.1005E+01
     16.127 -0.2814E-04  0.1005E+01
     16.202 -0.3439E-05  0.1005E+01
     16.278 -0.3074E-06  0.1005E+01
     16.353 -0.2025E-07  0.1005E+01
     16.429 -0.9872E-09  0.1005E+01
     16.504 -0.3576E-10  0.1005E+01
     16.579 -0.9647E-12  0.1005E+01
     16.655 -0.1940E-13  0.1005E+01
     16.730 -0.3084E-15  0.1005E+01
     16.806  0.0000E+00  0.1005E+01
     16.881  0.0000E+00  0.1005E+01
     16.956  0.0000E+00  0.1005E+01
     17.032  0.0000E+00  0.1005E+01
     17.107  0.0000E+00  0.1005E+01
     17.183  0.0000E+00  0.1005E+01
     17.258  0.0000E+00  0.1005E+01
     17.333  0.0000E+00  0.1005E+01
     17.409  0.0000E+00  0.1005E+01
     17.484  0.0000E+00  0.1005E+01
