 vasp.5.2.2 15Apr09 complex 
 executed on             LinuxIFC date 2016.12.16  16:00:00
 running on   32 nodes
 distr:  one band on    1 nodes,   32 groups


--------------------------------------------------------------------------------------------------------


 INCAR:
 POTCAR:   PAW_PBE Al 04Jan2001                   
 POTCAR:   PAW_PBE Mg 05Jan2001                   
 POTCAR:   PAW_PBE Al 04Jan2001                   
   VRHFIN =Al: s2p1                                                             
   LEXCH  = PE                                                                  
   EATOM  =    53.5387 eV,    3.9350 Ry                                         
                                                                                
   TITEL  = PAW_PBE Al 04Jan2001                                                
   LULTRA =        F    use ultrasoft PP ?                                      
   IUNSCR =        1    unscreen: 0-lin 1-nonlin 2-no                           
   RPACOR =    1.500    partial core radius                                     
   POMASS =   26.982; ZVAL   =    3.000    mass and valenz                      
   RCORE  =    1.900    outmost cutoff radius                                   
   RWIGS  =    2.650; RWIGS  =    1.402    wigner-seitz radius (au A)           
   ENMAX  =  240.300; ENMIN  =  180.225 eV                                      
   ICORE  =        2    local potential                                         
   LCOR   =        T    correct aug charges                                     
   LPAW   =        T    paw PP                                                  
   EAUG   =  291.052                                                            
   DEXC   =    -.041                                                            
   RMAX   =    2.974    core radius for proj-oper                               
   RAUG   =    1.300    factor for augmentation sphere                          
   RDEP   =    1.966    radius for radial grids                                 
   QCUT   =   -4.203; QGAM   =    8.405    optimization parameters              
                                                                                
   Description                                                                  
     l     E      TYP  RCUT    TYP  RCUT                                        
     0   .000     23  1.900                                                     
     0   .000     23  1.900                                                     
     1   .000     23  1.900                                                     
     1  1.000     23  1.900                                                     
     2   .000      7  1.900                                                     
  local pseudopotential read in
  partial core-charges read in
  atomic valenz-charges read in
  non local Contribution for L=           0  read in
    real space projection operators read in
  non local Contribution for L=           0  read in
    real space projection operators read in
  non local Contribution for L=           1  read in
    real space projection operators read in
  non local Contribution for L=           1  read in
    real space projection operators read in
    PAW grid and wavefunctions read in
 
   number of l-projection  operators is LMAX  =           4
   number of lm-projection operators is LMMAX =           8
 
 POTCAR:   PAW_PBE Mg 05Jan2001                   
   VRHFIN =Mg: s2p0                                                             
   LEXCH  = PE                                                                  
   EATOM  =    23.0029 eV,    1.6907 Ry                                         
                                                                                
   TITEL  = PAW_PBE Mg 05Jan2001                                                
   LULTRA =        F    use ultrasoft PP ?                                      
   IUNSCR =        1    unscreen: 0-lin 1-nonlin 2-no                           
   RPACOR =    2.000    partial core radius                                     
   POMASS =   24.305; ZVAL   =    2.000    mass and valenz                      
   RCORE  =    2.000    outmost cutoff radius                                   
   RWIGS  =    2.880; RWIGS  =    1.524    wigner-seitz radius (au A)           
   ENMAX  =  210.012; ENMIN  =  157.509 eV                                      
   ICORE  =        2    local potential                                         
   LCOR   =        T    correct aug charges                                     
   LPAW   =        T    paw PP                                                  
   EAUG   =  274.554                                                            
   DEXC   =    -.136                                                            
   RMAX   =    3.182    core radius for proj-oper                               
   RAUG   =    1.300    factor for augmentation sphere                          
   RDEP   =    2.025    radius for radial grids                                 
   QCUT   =   -3.929; QGAM   =    7.858    optimization parameters              
                                                                                
   Description                                                                  
     l     E      TYP  RCUT    TYP  RCUT                                        
     0   .000     23  2.000                                                     
     0  2.000     23  2.000                                                     
     1   .000     23  2.000                                                     
     1  2.000     23  2.000                                                     
     2   .000     23  2.000                                                     
  local pseudopotential read in
  partial core-charges read in
  atomic valenz-charges read in
  non local Contribution for L=           0  read in
    real space projection operators read in
  non local Contribution for L=           0  read in
    real space projection operators read in
  non local Contribution for L=           1  read in
    real space projection operators read in
  non local Contribution for L=           1  read in
    real space projection operators read in
    PAW grid and wavefunctions read in
 
   number of l-projection  operators is LMAX  =           4
   number of lm-projection operators is LMMAX =           8
 

 ----------------------------------------------------------------------------- 
|                                                                             |
|  ADVICE TO THIS USER RUNNING 'VASP/VAMP'   (HEAR YOUR MASTER'S VOICE ...):  |
|                                                                             |
|      You have a (more or less) 'large supercell' and for larger cells       |
|      it might be more efficient to use real space projection operators      |
|      So try LREAL= Auto  in the INCAR   file.                               |
|      Mind: If you want to do a very accurate calculations keep the          |
|      reciprocal projection scheme          (i.e. LREAL=.FALSE.)             |
|                                                                             |
 ----------------------------------------------------------------------------- 

 PAW_PBE Al 04Jan2001                   :
 energy of atom  1       EATOM=  -53.5387
 kinetic energy error for atom=    0.0011 (will be added to EATOM!!)
 PAW_PBE Mg 05Jan2001                   :
 energy of atom  2       EATOM=  -23.0029
 kinetic energy error for atom=    0.0002 (will be added to EATOM!!)
 
 
 POSCAR: Mg1 Al32                                
  positions in direct lattice
  velocities in cartesian coordinates
 exchange correlation table for  LEXCH =        8
   RHO(1)=    0.500       N(1)  =     2000
   RHO(2)=  100.500       N(2)  =     4000

 VTST: version 2.03d, (02/18/09)

 CHAIN: initializing optimizer
 
 OPT: Using VASP Conjugate-Gradient optimizer
 CHAIN: Read ICHAIN            0
 


--------------------------------------------------------------------------------------------------------


 ion  position               nearest neighbor table
   1  0.000  0.000  0.000-   2 2.86   3 2.86   4 2.86   6 2.86   7 2.86  11 2.86  12 2.86  15 2.86
                            18 2.86  20 2.86  22 2.86  28 2.86
   2  0.250  0.000  0.250-   1 2.86   3 2.86   4 2.86   5 2.86   8 2.86  11 2.86  12 2.86  16 2.86
                            17 2.86  19 2.86  21 2.86  27 2.86
   3  0.250  0.250  0.000-   1 2.86   2 2.86   4 2.86   5 2.86   8 2.86   9 2.86  10 2.86  13 2.86
                            18 2.86  20 2.86  24 2.86  26 2.86
   4  0.000  0.250  0.250-   1 2.86   2 2.86   3 2.86   6 2.86   7 2.86   9 2.86  10 2.86  14 2.86
                            17 2.86  19 2.86  23 2.86  25 2.86
   5  0.500  0.000  0.000-   2 2.86   3 2.86   6 2.86   7 2.86   8 2.86  11 2.86  15 2.86  16 2.86
                            18 2.86  22 2.86  24 2.86  32 2.86
   6  0.750  0.000  0.250-   1 2.86   4 2.86   5 2.86   7 2.86   8 2.86  12 2.86  15 2.86  16 2.86
                            17 2.86  21 2.86  23 2.86  31 2.86
   7  0.750  0.250  0.000-   1 2.86   4 2.86   5 2.86   6 2.86   8 2.86   9 2.86  13 2.86  14 2.86
                            20 2.86  22 2.86  24 2.86  30 2.86
   8  0.500  0.250  0.250-   2 2.86   3 2.86   5 2.86   6 2.86   7 2.86  10 2.86  13 2.86  14 2.86
                            19 2.86  21 2.86  23 2.86  29 2.86
   9  0.000  0.500  0.000-   3 2.86   4 2.86   7 2.86  10 2.86  11 2.86  12 2.86  14 2.86  15 2.86
                            20 2.86  26 2.86  28 2.86  30 2.86
  10  0.250  0.500  0.250-   3 2.86   4 2.86   8 2.86   9 2.86  11 2.86  12 2.86  13 2.86  16 2.86
                            19 2.86  25 2.86  27 2.86  29 2.86
  11  0.250  0.750  0.000-   1 2.86   2 2.86   5 2.86   9 2.86  10 2.86  12 2.86  13 2.86  16 2.86
                            18 2.86  26 2.86  28 2.86  32 2.86
  12  0.000  0.750  0.250-   1 2.86   2 2.86   6 2.86   9 2.86  10 2.86  11 2.86  14 2.86  15 2.86
                            17 2.86  25 2.86  27 2.86  31 2.86
  13  0.500  0.500  0.000-   3 2.86   7 2.86   8 2.86  10 2.86  11 2.86  14 2.86  15 2.86  16 2.86
                            24 2.86  26 2.86  30 2.86  32 2.86  33 3.30
  14  0.750  0.500  0.250-   4 2.86   7 2.86   8 2.86   9 2.86  12 2.86  13 2.86  15 2.86  16 2.86
                            23 2.86  25 2.86  29 2.86  31 2.86
  15  0.750  0.750  0.000-   1 2.86   5 2.86   6 2.86   9 2.86  12 2.86  13 2.86  14 2.86  16 2.86
                            22 2.86  28 2.86  30 2.86  32 2.86  33 2.94
  16  0.500  0.750  0.250-   2 2.86   5 2.86   6 2.86  10 2.86  11 2.86  13 2.86  14 2.86  15 2.86
                            21 2.86  27 2.86  29 2.86  31 2.86
  17  0.000  0.000  0.500-   2 2.86   4 2.86   6 2.86  12 2.86  18 2.86  19 2.86  20 2.86  22 2.86
                            23 2.86  27 2.86  28 2.86  31 2.86
  18  0.250  0.000  0.750-   1 2.86   3 2.86   5 2.86  11 2.86  17 2.86  19 2.86  20 2.86  21 2.86
                            24 2.86  27 2.86  28 2.86  32 2.86
  19  0.250  0.250  0.500-   2 2.86   4 2.86   8 2.86  10 2.86  17 2.86  18 2.86  20 2.86  21 2.86
                            24 2.86  25 2.86  26 2.86  29 2.86
  20  0.000  0.250  0.750-   1 2.86   3 2.86   7 2.86   9 2.86  17 2.86  18 2.86  19 2.86  22 2.86
                            23 2.86  25 2.86  26 2.86  30 2.86
  21  0.500  0.000  0.500-   2 2.86   6 2.86   8 2.86  16 2.86  18 2.86  19 2.86  22 2.86  23 2.86
                            24 2.86  27 2.86  31 2.86  32 2.86  33 3.30
  22  0.750  0.000  0.750-   1 2.86   5 2.86   7 2.86  15 2.86  17 2.86  20 2.86  21 2.86  23 2.86
                            24 2.86  28 2.86  31 2.86  32 2.86  33 2.94
  23  0.750  0.250  0.500-   4 2.86   6 2.86   8 2.86  14 2.86  17 2.86  20 2.86  21 2.86  22 2.86
                            24 2.86  25 2.86  29 2.86  30 2.86
  24  0.500  0.250  0.750-   3 2.86   5 2.86   7 2.86  13 2.86  18 2.86  19 2.86  21 2.86  22 2.86
                            23 2.86  26 2.86  29 2.86  30 2.86
  25  0.000  0.500  0.500-   4 2.86  10 2.86  12 2.86  14 2.86  19 2.86  20 2.86  23 2.86  26 2.86
                            27 2.86  28 2.86  30 2.86  31 2.86  33 3.30
  26  0.250  0.500  0.750-   3 2.86   9 2.86  11 2.86  13 2.86  19 2.86  20 2.86  24 2.86  25 2.86
                            27 2.86  28 2.86  29 2.86  32 2.86
  27  0.250  0.750  0.500-   2 2.86  10 2.86  12 2.86  16 2.86  17 2.86  18 2.86  21 2.86  25 2.86
                            26 2.86  28 2.86  29 2.86  32 2.86
  28  0.000  0.750  0.750-   1 2.86   9 2.86  11 2.86  15 2.86  17 2.86  18 2.86  22 2.86  25 2.86
                            26 2.86  27 2.86  30 2.86  31 2.86  33 2.94
  29  0.500  0.500  0.500-  33 2.24  10 2.86  14 2.86  16 2.86  19 2.86  23 2.86  24 2.86  26 2.86
                            27 2.86  30 2.86  31 2.86  32 2.86   8 2.86
  30  0.750  0.500  0.750-  33 1.65   9 2.86  13 2.86  15 2.86  20 2.86  23 2.86  24 2.86  25 2.86
                            28 2.86  29 2.86  31 2.86  32 2.86   7 2.86
  31  0.750  0.750  0.500-  33 1.65  12 2.86  14 2.86  16 2.86  17 2.86  21 2.86  22 2.86  25 2.86
                            28 2.86  29 2.86  30 2.86  32 2.86   6 2.86
  32  0.500  0.750  0.750-  33 1.65  11 2.86  13 2.86  15 2.86  18 2.86  21 2.86  22 2.86  26 2.86
                            27 2.86  29 2.86  30 2.86  31 2.86   5 2.86
  33  0.660  0.660  0.660-  30 1.65  31 1.65  32 1.65  29 2.24  22 2.94  28 2.94  15 2.94  25 3.30
                            21 3.30  13 3.30
 

 ----------------------------------------------------------------------------- 
|                                                                             |
|           W    W    AA    RRRRR   N    N  II  N    N   GGGG   !!!           |
|           W    W   A  A   R    R  NN   N  II  NN   N  G    G  !!!           |
|           W    W  A    A  R    R  N N  N  II  N N  N  G       !!!           |
|           W WW W  AAAAAA  RRRRR   N  N N  II  N  N N  G  GGG   !            |
|           WW  WW  A    A  R   R   N   NN  II  N   NN  G    G                |
|           W    W  A    A  R    R  N    N  II  N    N   GGGG   !!!           |
|                                                                             |
|      The distance between some ions is very small                           |
|      please check the nearest neigbor list in the OUTCAR file               |
|          I HOPE YOU KNOW, WHAT YOU ARE  DOING                               |
|                                                                             |
 ----------------------------------------------------------------------------- 

  LATTYP: Found a simple cubic cell.
 ALAT       =     8.0870400000
  
  Lattice vectors:
  
 A1 = (   8.0870400000,   0.0000000000,   0.0000000000)
 A2 = (   0.0000000000,   8.0870400000,   0.0000000000)
 A3 = (   0.0000000000,   0.0000000000,   8.0870400000)
 Subroutine PRICEL returns:
 Original cell was already a primitive cell.
 

Analysis of symmetry for initial positions (statically):

 Routine SETGRP: Setting up the symmetry group for a 
 simple cubic supercell.


 Subroutine GETGRP returns: Found  6 space group operations
 (whereof  6 operations were pure point group operations)
 out of a pool of 48 trial point group operations.


The static configuration has the point symmetry C_3v.

Analysis of symmetry for dynamics (positions and initial velocities):

 Subroutine DYNSYM returns: Found  6 space group operations
 (whereof  6 operations were pure point group operations)
 out of a pool of  6 trial space group operations
 (whereof  6 operations were pure point group operations)
 and found also     1 'primitive' translations


The dynamic configuration has the point symmetry C_3v.
 
 
 KPOINTS: Automatic kpoint scheme                 

Automatic generation of k-mesh.
 
 Subroutine IBZKPT returns following result:
 ===========================================
 
 Found      1 irreducible k-points:
 
 Following reciprocal coordinates:
            Coordinates               Weight
  0.000000  0.000000  0.000000      1.000000
 
 Following cartesian coordinates:
            Coordinates               Weight
  0.000000  0.000000  0.000000      1.000000
 


--------------------------------------------------------------------------------------------------------




 Dimension of arrays:
   k-points           NKPTS =      1   k-points in BZ     NKDIM =      1   number of bands    NBANDS=     96
   number of dos      NEDOS =    301   number of ions     NIONS =     33
   non local maximal  LDIM  =      4   non local SUM 2l+1 LMDIM =      8
   total plane-waves  NPLWV = 110592
   max r-space proj   IRMAX =      1   max aug-charges    IRDMAX=   9081
   dimension x,y,z NGX =    48 NGY =   48 NGZ =   48
   dimension x,y,z NGXF=    96 NGYF=   96 NGZF=   96
   support grid    NGXF=    96 NGYF=   96 NGZF=   96
   ions per type =              32   1
 NGX,Y,Z   is equivalent  to a cutoff of   9.87,  9.87,  9.87 a.u.
 NGXF,Y,Z  is equivalent  to a cutoff of  19.73, 19.73, 19.73 a.u.


 I would recommend the setting:
   dimension x,y,z NGX =    46 NGY =   46 NGZ =   46
 SYSTEM =  unknown system                          
 POSCAR =  Mg1 Al32                                

 Startparameter for this run:
   NWRITE =      2    write-flag & timer
   PREC   = accura    medium, high low
   ISTART =      0    job   : 0-new  1-cont  2-samecut
   ICHARG =      2    charge: 1-file 2-atom 10-const
   ISPIN  =      1    spin polarized calculation?
   LNONCOLLINEAR =      F non collinear calculations
   LSORBIT =      F    spin-orbit coupling
   INIWAV =      1    electr: 0-lowe 1-rand  2-diag
   LASPH  =      F    aspherical Exc in radial PAW
   METAGGA=      F    non-selfconsistent MetaGGA calc.

 Electronic Relaxation 1
   ENCUT  =  300.0 eV  22.05 Ry    4.70 a.u.  11.42 11.42 11.42*2*pi/ulx,y,z
   ENINI  =  300.0     initial cutoff
   ENAUG  =  291.1 eV  augmentation charge cutoff
   NELM   =     60;   NELMIN=  2; NELMDL=-12     # of ELM steps 
   EDIFF  = 0.1E-03   stopping-criterion for ELM
   LREAL  =      F    real-space projection
   LCOMPAT=      F    compatible to vasp.4.4
   LREAL_COMPAT= F    compatible to vasp.4.5.1-3
   GGA_COMPAT  = T    GGA compatible to vasp.4.4-vasp.4.6
   LMAXPAW     = -100 max onsite density
   LMAXMIX     =    2 max onsite mixed and CHGCAR
   VOSKOWN=      0    Vosko Wilk Nusair interpolation
   ROPT   =    0.00000   0.00000
 Ionic relaxation
   EDIFFG = 0.5E-01   stopping-criterion for IOM
   NSW    =    191    number of steps for IOM
   NBLOCK =      1;   KBLOCK =    191    inner block; outer block 
   IBRION =      2    ionic relax: 0-MD 1-quasi-New 2-CG
   NFREE  =      1    steps in history (QN), initial steepest desc. (CG)
   ISIF   =      2    stress and relaxation
   IWAVPR =     11    prediction:  0-non 1-charg 2-wave 3-comb
   ISYM   =      2    0-nonsym 1-usesym 2-fastsym
   LCORR  =      T    Harris-Foulkes like correction to forces

   POTIM  = 0.5000    time-step for ionic-motion
   TEIN   =    0.0    initial temperature
   TEBEG  =    0.0;   TEEND  =   0.0 temperature during run
   SMASS  =  -3.00    Nose mass-parameter (am)
   estimated Nose-frequenzy (Omega)   =  0.10E-29 period in steps =****** mass=  -0.149E-26a.u.
   NPACO  =    256;   APACO  = 16.0  distance and # of slots for P.C.
   PSTRESS=    0.0 pullay stress

  Mass of Ions in am
   POMASS =  26.98 24.30
  Ionic Valenz
   ZVAL   =   3.00  2.00
  Atomic Wigner-Seitz radii
   RWIGS  =  -1.00 -1.00
   NELECT =      98.0000    total number of electrons
   NUPDOWN=      -1.0000    fix difference up-down

 DOS related values:
   EMIN   =  10.00;   EMAX   =-10.00  energy-range for DOS
   EFERMI =   0.00
   ISMEAR =     1;   SIGMA  =   0.20  broadening in eV -4-tet -1-fermi 0-gaus

 Electronic relaxation 2 (details)
   IALGO  =     48    algorithm
   LDIAG  =      T    sub-space diagonalisation
   IMIX   =      4    mixing-type and parameters
     AMIX     =   0.40;   BMIX     =  1.00
     AMIX_MAG =   1.60;   BMIX_MAG =  1.00
     AMIN     =   0.10
     WC   =   100.;   INIMIX=   1;  MIXPRE=   1

 Intra band minimization:
   WEIMIN = 0.0010     energy-eigenvalue tresh-hold
   EBREAK =  0.38E-06  absolut break condition
   DEPER  =   0.30     relativ break condition  

   TIME   =   0.40     timestep for ELM

  volume/ion in A,a.u.               =      16.03       108.16
  Fermi-wavevector in a.u.,A,eV,Ry     =   0.933313  1.763706 11.851667  0.871073
  Thomas-Fermi vector in A             =   2.060001
 
 Write flags
   LWAVE  =      F    write WAVECAR
   LCHARG =      F    write CHGCAR
   LVTOT  =      F    write LOCPOT, local potential
   LELF   =      F    write electronic localiz. function (ELF)
   LORBIT =      0    0 simple, 1 ext, 2 COOP (PROOUT)


 Dipole corrections
   LMONO  =      F    monopole corrections only (constant potential shift)
   LDIPOL =      F    correct potential (dipole corrections)
   IDIPOL =      0    1-x, 2-y, 3-z, 4-all directions 
   EPSILON=  1.0000000 bulk dielectric constant

 Exchange correlation treatment:
   GGA     =    --    GGA type
   LEXCH   =     8    internal setting for exchange type
   VOSKOWN=      0    Vosko Wilk Nusair interpolation
   LHFCALC =     F    Hartree Fock is set to
   LHFONE  =     F    Hartree Fock one center treatment
   AEXX    =    0.0000 exact exchange contribution

 Linear response parameters
   LEPSILON=     F    determine dielectric tensor
   LRPA    =     F    only Hartree local field effects (RPA)
   LNABLA  =     F    use nabla operator in PAW spheres
   LVEL    =     F    velocity operator in full k-point grid
   LINTERFAST=   F  fast interpolation
   KINTER  =     0    interpolate to denser k-point grid
   CSHIFT  =0.1000    complex shift for real part using Kramers Kronig
   OMEGAMAX=  -1.0    maximum frequency

 Orbital magnetization related:
   ORBITALMAG=     F  switch on orbital magnetization
   LCHIMAG   =     F  perturbation theory with respect to B field



--------------------------------------------------------------------------------------------------------


 conjugate gradient relaxation of ions
 charge density and potential will be updated during run
 non-spin polarized calculation
 RMM-DIIS sequential band-by-band
 perform sub-space diagonalisation
    before iterative eigenvector-optimisation
 modified Broyden-mixing scheme, WC =      100.0
 initial mixing is a Kerker type mixing with AMIX =  0.4000 and BMIX =      1.0000
 Hartree-type preconditioning will be used
 using additional bands           47
 reciprocal scheme for non local part
 use partial core corrections
 calculate Harris-corrections to forces 
   (improved forces if not selfconsistent)
 use gradient corrections 
 use of overlap-Matrix (Vanderbilt PP)
 Methfessel and Paxton  Order N= 1 SIGMA  =   0.20


--------------------------------------------------------------------------------------------------------


  energy-cutoff  :      300.00
  volume of cell :      528.89
      direct lattice vectors                 reciprocal lattice vectors
     8.087040000  0.000000000  0.000000000     0.123654638  0.000000000  0.000000000
     0.000000000  8.087040000  0.000000000     0.000000000  0.123654638  0.000000000
     0.000000000  0.000000000  8.087040000     0.000000000  0.000000000  0.123654638

  length of vectors
     8.087040000  8.087040000  8.087040000     0.123654638  0.123654638  0.123654638


 
 k-points in units of 2pi/SCALE and weight: Automatic kpoint scheme                 
   0.00000000  0.00000000  0.00000000       1.000
 
 k-points in reciprocal lattice and weights: Automatic kpoint scheme                 
   0.00000000  0.00000000  0.00000000       1.000
 
 position of ions in fractional coordinates (direct lattice) 
   0.00000000  0.00000000  0.00000000
   0.25000000  0.00000000  0.25000000
   0.25000000  0.25000000  0.00000000
   0.00000000  0.25000000  0.25000000
   0.50000000  0.00000000  0.00000000
   0.75000000  0.00000000  0.25000000
   0.75000000  0.25000000  0.00000000
   0.50000000  0.25000000  0.25000000
   0.00000000  0.50000000  0.00000000
   0.25000000  0.50000000  0.25000000
   0.25000000  0.75000000  0.00000000
   0.00000000  0.75000000  0.25000000
   0.50000000  0.50000000  0.00000000
   0.75000000  0.50000000  0.25000000
   0.75000000  0.75000000  0.00000000
   0.50000000  0.75000000  0.25000000
   0.00000000  0.00000000  0.50000000
   0.25000000  0.00000000  0.75000000
   0.25000000  0.25000000  0.50000000
   0.00000000  0.25000000  0.75000000
   0.50000000  0.00000000  0.50000000
   0.75000000  0.00000000  0.75000000
   0.75000000  0.25000000  0.50000000
   0.50000000  0.25000000  0.75000000
   0.00000000  0.50000000  0.50000000
   0.25000000  0.50000000  0.75000000
   0.25000000  0.75000000  0.50000000
   0.00000000  0.75000000  0.75000000
   0.50000000  0.50000000  0.50000000
   0.75000000  0.50000000  0.75000000
   0.75000000  0.75000000  0.50000000
   0.50000000  0.75000000  0.75000000
   0.66000000  0.66000000  0.66000000
 
 position of ions in cartesian coordinates  (Angst):
   0.00000000  0.00000000  0.00000000
   2.02176000  0.00000000  2.02176000
   2.02176000  2.02176000  0.00000000
   0.00000000  2.02176000  2.02176000
   4.04352000  0.00000000  0.00000000
   6.06528000  0.00000000  2.02176000
   6.06528000  2.02176000  0.00000000
   4.04352000  2.02176000  2.02176000
   0.00000000  4.04352000  0.00000000
   2.02176000  4.04352000  2.02176000
   2.02176000  6.06528000  0.00000000
   0.00000000  6.06528000  2.02176000
   4.04352000  4.04352000  0.00000000
   6.06528000  4.04352000  2.02176000
   6.06528000  6.06528000  0.00000000
   4.04352000  6.06528000  2.02176000
   0.00000000  0.00000000  4.04352000
   2.02176000  0.00000000  6.06528000
   2.02176000  2.02176000  4.04352000
   0.00000000  2.02176000  6.06528000
   4.04352000  0.00000000  4.04352000
   6.06528000  0.00000000  6.06528000
   6.06528000  2.02176000  4.04352000
   4.04352000  2.02176000  6.06528000
   0.00000000  4.04352000  4.04352000
   2.02176000  4.04352000  6.06528000
   2.02176000  6.06528000  4.04352000
   0.00000000  6.06528000  6.06528000
   4.04352000  4.04352000  4.04352000
   6.06528000  4.04352000  6.06528000
   6.06528000  6.06528000  4.04352000
   4.04352000  6.06528000  6.06528000
   5.33744640  5.33744640  5.33744640
 


--------------------------------------------------------------------------------------------------------


 k-point  1 :  0.00000.00000.0000  plane waves:    6235

 maximum and minimum number of plane-waves per node :    6235   6235

 maximum number of plane-waves:    6235
 maximal index in each direction: 
   IXMAX= 11   IYMAX= 11   IZMAX= 11
   IXMIN=-11   IYMIN=-11   IZMIN=-11

 NGX is ok and might be reduce to  46
 NGY is ok and might be reduce to  46
 NGZ is ok and might be reduce to  46

 serial   3D FFT for wavefunctions
 parallel 3D FFT for charge:
    minimum data exchange during FFTs selected (reduces bandwidth)


 total amount of memory used by VASP on root node  55665. kBytes
========================================================================

   base      :    30000. kBytes
   nonl-proj :     4093. kBytes
   fftplans  :     1413. kBytes
   grid      :    19745. kBytes
   one-center:      101. kBytes
   wavefun   :      313. kBytes
 
 Broyden mixing: mesh for mixing (old mesh)
   NGX = 23   NGY = 23   NGZ = 23
  (NGX  = 96   NGY  = 96   NGZ  = 96)
  gives a total of  12167 points

 initial charge density was supplied:
 charge density of overlapping atoms calculated
 number of electron   98.0000000 magnetization 
 keeping initial charge density in first step


--------------------------------------------------------------------------------------------------------


 Maximum index for augmentation-charges          506 (set IRDMAX)


--------------------------------------------------------------------------------------------------------


 First call to EWALD:  gamma=   0.219
 Maximum number of real-space cells 3x 3x 3
 Maximum number of reciprocal cells 3x 3x 3

    FEWALD:  cpu time    0.02: real time    0.02
   RESPFUN:  cpu time    0.00: real time    0.00


----------------------------------------- Iteration    1(   1)  ---------------------------------------


    POTLOK:  cpu time    0.09: real time    0.09
    SETDIJ:  cpu time    0.01: real time    0.01
    EDDIAG:  cpu time    0.09: real time    0.09
  RMM-DIIS:  cpu time    0.18: real time    0.18
    ORTHCH:  cpu time    0.01: real time    0.01
       DOS:  cpu time    0.00: real time    0.00
    --------------------------------------------
      LOOP:  cpu time    0.38: real time    0.40

 eigenvalue-minimisations  :    96
 total energy-change (2. order) : 0.1870909E+03  (-0.1452452E+04)
 number of electron   98.0000000 magnetization 
 augmentation part    98.0000000 magnetization 

 Free energy of the ion-electron system (eV)
  ---------------------------------------------------
  alpha Z        PSCENC =        -8.27958290
  Ewald energy   TEWEN  =     -2377.70297664
  -1/2 Hartree   DENC   =        -9.50484566
  -exchange  EXHF       =         0.00000000
  -V(xc)+E(xc)   XCENC  =      -846.35375069
  PAW double counting   =      1149.32568210     -115.70169129
  entropy T*S    EENTRO =         0.04913771
  eigenvalues    EBANDS =       659.05223584
  atomic energy  EATOM  =      1736.20668909
  ---------------------------------------------------
  free energy    TOTEN  =       187.09089755 eV

  energy without entropy =      187.04175984  energy(sigma->0) =      187.07451832


--------------------------------------------------------------------------------------------------------




----------------------------------------- Iteration    1(   2)  ---------------------------------------


    EDDIAG:  cpu time    0.09: real time    0.09
  RMM-DIIS:  cpu time    0.17: real time    0.18
    ORTHCH:  cpu time    0.01: real time    0.01
       DOS:  cpu time    0.00: real time    0.00
    --------------------------------------------
      LOOP:  cpu time    0.27: real time    0.28

 eigenvalue-minimisations  :    96
 total energy-change (2. order) :-0.2184706E+03  (-0.2017045E+03)
 number of electron   98.0000000 magnetization 
 augmentation part    98.0000000 magnetization 

 Free energy of the ion-electron system (eV)
  ---------------------------------------------------
  alpha Z        PSCENC =        -8.27958290
  Ewald energy   TEWEN  =     -2377.70297664
  -1/2 Hartree   DENC   =        -9.50484566
  -exchange  EXHF       =         0.00000000
  -V(xc)+E(xc)   XCENC  =      -846.35375069
  PAW double counting   =      1149.32568210     -115.70169129
  entropy T*S    EENTRO =        -0.00406372
  eigenvalues    EBANDS =       440.63482762
  atomic energy  EATOM  =      1736.20668909
  ---------------------------------------------------
  free energy    TOTEN  =       -31.37971210 eV

  energy without entropy =      -31.37564838  energy(sigma->0) =      -31.37835753


--------------------------------------------------------------------------------------------------------




----------------------------------------- Iteration    1(   3)  ---------------------------------------


    EDDIAG:  cpu time    0.09: real time    0.09
  RMM-DIIS:  cpu time    0.17: real time    0.17
    ORTHCH:  cpu time    0.01: real time    0.01
       DOS:  cpu time    0.00: real time    0.00
    --------------------------------------------
      LOOP:  cpu time    0.27: real time    0.28

 eigenvalue-minimisations  :    96
 total energy-change (2. order) :-0.3766588E+02  (-0.3301290E+02)
 number of electron   98.0000000 magnetization 
 augmentation part    98.0000000 magnetization 

 Free energy of the ion-electron system (eV)
  ---------------------------------------------------
  alpha Z        PSCENC =        -8.27958290
  Ewald energy   TEWEN  =     -2377.70297664
  -1/2 Hartree   DENC   =        -9.50484566
  -exchange  EXHF       =         0.00000000
  -V(xc)+E(xc)   XCENC  =      -846.35375069
  PAW double counting   =      1149.32568210     -115.70169129
  entropy T*S    EENTRO =        -0.00831560
  eigenvalues    EBANDS =       402.97320385
  atomic energy  EATOM  =      1736.20668909
  ---------------------------------------------------
  free energy    TOTEN  =       -69.04558775 eV

  energy without entropy =      -69.03727215  energy(sigma->0) =      -69.04281588


--------------------------------------------------------------------------------------------------------




----------------------------------------- Iteration    1(   4)  ---------------------------------------


    EDDIAG:  cpu time    0.09: real time    0.09
  RMM-DIIS:  cpu time    0.17: real time    0.17
    ORTHCH:  cpu time    0.01: real time    0.01
       DOS:  cpu time    0.00: real time    0.00
    --------------------------------------------
      LOOP:  cpu time    0.27: real time    0.29

 eigenvalue-minimisations  :    96
 total energy-change (2. order) :-0.1326728E+02  (-0.7556371E+01)
 number of electron   98.0000000 magnetization 
 augmentation part    98.0000000 magnetization 

 Free energy of the ion-electron system (eV)
  ---------------------------------------------------
  alpha Z        PSCENC =        -8.27958290
  Ewald energy   TEWEN  =     -2377.70297664
  -1/2 Hartree   DENC   =        -9.50484566
  -exchange  EXHF       =         0.00000000
  -V(xc)+E(xc)   XCENC  =      -846.35375069
  PAW double counting   =      1149.32568210     -115.70169129
  entropy T*S    EENTRO =        -0.03791888
  eigenvalues    EBANDS =       389.73552687
  atomic energy  EATOM  =      1736.20668909
  ---------------------------------------------------
  free energy    TOTEN  =       -82.31286802 eV

  energy without entropy =      -82.27494913  energy(sigma->0) =      -82.30022839


--------------------------------------------------------------------------------------------------------




----------------------------------------- Iteration    1(   5)  ---------------------------------------


    EDDIAG:  cpu time    0.09: real time    0.09
  RMM-DIIS:  cpu time    0.17: real time    0.17
    ORTHCH:  cpu time    0.01: real time    0.01
       DOS:  cpu time    0.00: real time    0.00
    --------------------------------------------
      LOOP:  cpu time    0.27: real time    0.28

 eigenvalue-minimisations  :    96
 total energy-change (2. order) :-0.3282128E+01  (-0.1847099E+01)
 number of electron   98.0000000 magnetization 
 augmentation part    98.0000000 magnetization 

 Free energy of the ion-electron system (eV)
  ---------------------------------------------------
  alpha Z        PSCENC =        -8.27958290
  Ewald energy   TEWEN  =     -2377.70297664
  -1/2 Hartree   DENC   =        -9.50484566
  -exchange  EXHF       =         0.00000000
  -V(xc)+E(xc)   XCENC  =      -846.35375069
  PAW double counting   =      1149.32568210     -115.70169129
  entropy T*S    EENTRO =        -0.08978391
  eigenvalues    EBANDS =       386.50526375
  atomic energy  EATOM  =      1736.20668909
  ---------------------------------------------------
  free energy    TOTEN  =       -85.59499616 eV

  energy without entropy =      -85.50521225  energy(sigma->0) =      -85.56506819


--------------------------------------------------------------------------------------------------------




----------------------------------------- Iteration    1(   6)  ---------------------------------------


    EDDIAG:  cpu time    0.09: real time    0.09
  RMM-DIIS:  cpu time    0.17: real time    0.17
    ORTHCH:  cpu time    0.01: real time    0.01
       DOS:  cpu time    0.00: real time    0.00
    --------------------------------------------
      LOOP:  cpu time    0.27: real time    0.28

 eigenvalue-minimisations  :    96
 total energy-change (2. order) :-0.6614786E+00  (-0.4014640E+00)
 number of electron   98.0000000 magnetization 
 augmentation part    98.0000000 magnetization 

 Free energy of the ion-electron system (eV)
  ---------------------------------------------------
  alpha Z        PSCENC =        -8.27958290
  Ewald energy   TEWEN  =     -2377.70297664
  -1/2 Hartree   DENC   =        -9.50484566
  -exchange  EXHF       =         0.00000000
  -V(xc)+E(xc)   XCENC  =      -846.35375069
  PAW double counting   =      1149.32568210     -115.70169129
  entropy T*S    EENTRO =        -0.09316533
  eigenvalues    EBANDS =       385.84716652
  atomic energy  EATOM  =      1736.20668909
  ---------------------------------------------------
  free energy    TOTEN  =       -86.25647481 eV

  energy without entropy =      -86.16330948  energy(sigma->0) =      -86.22541970


--------------------------------------------------------------------------------------------------------




----------------------------------------- Iteration    1(   7)  ---------------------------------------


    EDDIAG:  cpu time    0.09: real time    0.09
  RMM-DIIS:  cpu time    0.17: real time    0.17
    ORTHCH:  cpu time    0.01: real time    0.01
       DOS:  cpu time    0.00: real time    0.00
    --------------------------------------------
      LOOP:  cpu time    0.27: real time    0.28

 eigenvalue-minimisations  :    96
 total energy-change (2. order) :-0.1109960E+00  (-0.7770807E-01)
 number of electron   98.0000000 magnetization 
 augmentation part    98.0000000 magnetization 

 Free energy of the ion-electron system (eV)
  ---------------------------------------------------
  alpha Z        PSCENC =        -8.27958290
  Ewald energy   TEWEN  =     -2377.70297664
  -1/2 Hartree   DENC   =        -9.50484566
  -exchange  EXHF       =         0.00000000
  -V(xc)+E(xc)   XCENC  =      -846.35375069
  PAW double counting   =      1149.32568210     -115.70169129
  entropy T*S    EENTRO =        -0.09209418
  eigenvalues    EBANDS =       385.73509936
  atomic energy  EATOM  =      1736.20668909
  ---------------------------------------------------
  free energy    TOTEN  =       -86.36747082 eV

  energy without entropy =      -86.27537664  energy(sigma->0) =      -86.33677276


--------------------------------------------------------------------------------------------------------




----------------------------------------- Iteration    1(   8)  ---------------------------------------


    EDDIAG:  cpu time    0.09: real time    0.09
  RMM-DIIS:  cpu time    0.17: real time    0.17
    ORTHCH:  cpu time    0.01: real time    0.01
       DOS:  cpu time    0.00: real time    0.00
    --------------------------------------------
      LOOP:  cpu time    0.27: real time    0.28

 eigenvalue-minimisations  :    96
 total energy-change (2. order) :-0.1753880E-01  (-0.1453159E-01)
 number of electron   98.0000000 magnetization 
 augmentation part    98.0000000 magnetization 

 Free energy of the ion-electron system (eV)
  ---------------------------------------------------
  alpha Z        PSCENC =        -8.27958290
  Ewald energy   TEWEN  =     -2377.70297664
  -1/2 Hartree   DENC   =        -9.50484566
  -exchange  EXHF       =         0.00000000
  -V(xc)+E(xc)   XCENC  =      -846.35375069
  PAW double counting   =      1149.32568210     -115.70169129
  entropy T*S    EENTRO =        -0.09162709
  eigenvalues    EBANDS =       385.71709347
  atomic energy  EATOM  =      1736.20668909
  ---------------------------------------------------
  free energy    TOTEN  =       -86.38500962 eV

  energy without entropy =      -86.29338253  energy(sigma->0) =      -86.35446726


--------------------------------------------------------------------------------------------------------




----------------------------------------- Iteration    1(   9)  ---------------------------------------


    EDDIAG:  cpu time    0.09: real time    0.09
  RMM-DIIS:  cpu time    0.35: real time    0.35
    ORTHCH:  cpu time    0.01: real time    0.01
       DOS:  cpu time    0.00: real time    0.00
    --------------------------------------------
      LOOP:  cpu time    0.44: real time    0.45

 eigenvalue-minimisations  :   190
 total energy-change (2. order) :-0.3702101E-02  (-0.3451917E-02)
 number of electron   98.0000000 magnetization 
 augmentation part    98.0000000 magnetization 

 Free energy of the ion-electron system (eV)
  ---------------------------------------------------
  alpha Z        PSCENC =        -8.27958290
  Ewald energy   TEWEN  =     -2377.70297664
  -1/2 Hartree   DENC   =        -9.50484566
  -exchange  EXHF       =         0.00000000
  -V(xc)+E(xc)   XCENC  =      -846.35375069
  PAW double counting   =      1149.32568210     -115.70169129
  entropy T*S    EENTRO =        -0.09149495
  eigenvalues    EBANDS =       385.71325922
  atomic energy  EATOM  =      1736.20668909
  ---------------------------------------------------
  free energy    TOTEN  =       -86.38871172 eV

  energy without entropy =      -86.29721677  energy(sigma->0) =      -86.35821341


--------------------------------------------------------------------------------------------------------




----------------------------------------- Iteration    1(  10)  ---------------------------------------


    EDDIAG:  cpu time    0.09: real time    0.09
  RMM-DIIS:  cpu time    0.30: real time    0.30
    ORTHCH:  cpu time    0.01: real time    0.01
       DOS:  cpu time    0.00: real time    0.00
    --------------------------------------------
      LOOP:  cpu time    0.40: real time    0.41

 eigenvalue-minimisations  :   170
 total energy-change (2. order) :-0.3678132E-03  (-0.3524423E-03)
 number of electron   98.0000000 magnetization 
 augmentation part    98.0000000 magnetization 

 Free energy of the ion-electron system (eV)
  ---------------------------------------------------
  alpha Z        PSCENC =        -8.27958290
  Ewald energy   TEWEN  =     -2377.70297664
  -1/2 Hartree   DENC   =        -9.50484566
  -exchange  EXHF       =         0.00000000
  -V(xc)+E(xc)   XCENC  =      -846.35375069
  PAW double counting   =      1149.32568210     -115.70169129
  entropy T*S    EENTRO =        -0.09148034
  eigenvalues    EBANDS =       385.71287680
  atomic energy  EATOM  =      1736.20668909
  ---------------------------------------------------
  free energy    TOTEN  =       -86.38907954 eV

  energy without entropy =      -86.29759920  energy(sigma->0) =      -86.35858609


--------------------------------------------------------------------------------------------------------




----------------------------------------- Iteration    1(  11)  ---------------------------------------


    EDDIAG:  cpu time    0.09: real time    0.09
  RMM-DIIS:  cpu time    0.31: real time    0.32
    ORTHCH:  cpu time    0.01: real time    0.01
       DOS:  cpu time    0.00: real time    0.00
    --------------------------------------------
      LOOP:  cpu time    0.41: real time    0.42

 eigenvalue-minimisations  :   148
 total energy-change (2. order) :-0.1725883E-04  (-0.1705243E-04)
 number of electron   98.0000000 magnetization 
 augmentation part    98.0000000 magnetization 

 Free energy of the ion-electron system (eV)
  ---------------------------------------------------
  alpha Z        PSCENC =        -8.27958290
  Ewald energy   TEWEN  =     -2377.70297664
  -1/2 Hartree   DENC   =        -9.50484566
  -exchange  EXHF       =         0.00000000
  -V(xc)+E(xc)   XCENC  =      -846.35375069
  PAW double counting   =      1149.32568210     -115.70169129
  entropy T*S    EENTRO =        -0.09148024
  eigenvalues    EBANDS =       385.71285945
  atomic energy  EATOM  =      1736.20668909
  ---------------------------------------------------
  free energy    TOTEN  =       -86.38909679 eV

  energy without entropy =      -86.29761655  energy(sigma->0) =      -86.35860338


--------------------------------------------------------------------------------------------------------




----------------------------------------- Iteration    1(  12)  ---------------------------------------


    EDDIAG:  cpu time    0.09: real time    0.09
  RMM-DIIS:  cpu time    0.25: real time    0.25
    ORTHCH:  cpu time    0.01: real time    0.01
       DOS:  cpu time    0.00: real time    0.00
    CHARGE:  cpu time    0.12: real time    0.12
    MIXING:  cpu time    0.00: real time    0.00
    --------------------------------------------
      LOOP:  cpu time    0.47: real time    0.48

 eigenvalue-minimisations  :   120
 total energy-change (2. order) :-0.4782693E-05  (-0.4787239E-05)
 number of electron   97.9999993 magnetization 
 augmentation part    -0.8911605 magnetization 

 Broyden mixing:
  rms(total) = 0.77466E+00    rms(broyden)= 0.77464E+00
  rms(prec ) = 0.16192E+01
  weight for this iteration     100.00

 Free energy of the ion-electron system (eV)
  ---------------------------------------------------
  alpha Z        PSCENC =        -8.27958290
  Ewald energy   TEWEN  =     -2377.70297664
  -1/2 Hartree   DENC   =        -9.50484566
  -exchange  EXHF       =         0.00000000
  -V(xc)+E(xc)   XCENC  =      -846.35375069
  PAW double counting   =      1149.32568210     -115.70169129
  entropy T*S    EENTRO =        -0.09148024
  eigenvalues    EBANDS =       385.71285466
  atomic energy  EATOM  =      1736.20668909
  ---------------------------------------------------
  free energy    TOTEN  =       -86.38910158 eV

  energy without entropy =      -86.29762133  energy(sigma->0) =      -86.35860816


--------------------------------------------------------------------------------------------------------




----------------------------------------- Iteration    1(  13)  ---------------------------------------


    POTLOK:  cpu time    0.06: real time    0.06
    SETDIJ:  cpu time    0.01: real time    0.01
    EDDIAG:  cpu time    0.09: real time    0.09
  RMM-DIIS:  cpu time    0.31: real time    0.31
    ORTHCH:  cpu time    0.01: real time    0.01
       DOS:  cpu time    0.00: real time    0.00
    CHARGE:  cpu time    0.09: real time    0.09
    MIXING:  cpu time    0.00: real time    0.00
    --------------------------------------------
      LOOP:  cpu time    0.58: real time    0.58

 eigenvalue-minimisations  :   192
 total energy-change (2. order) : 0.2323342E+01  (-0.2988005E+00)
 number of electron   97.9999993 magnetization 
 augmentation part    -0.9122990 magnetization 

 Broyden mixing:
  rms(total) = 0.44512E+00    rms(broyden)= 0.44512E+00
  rms(prec ) = 0.94412E+00
  weight for this iteration     100.00

 eigenvalues of (default mixing * dielectric matrix)
  average eigenvalue GAMMA=   1.2927
  1.2927

 Free energy of the ion-electron system (eV)
  ---------------------------------------------------
  alpha Z        PSCENC =        -8.27958290
  Ewald energy   TEWEN  =     -2377.70297664
  -1/2 Hartree   DENC   =       -12.51904138
  -exchange  EXHF       =         0.00000000
  -V(xc)+E(xc)   XCENC  =      -844.91144673
  PAW double counting   =      1152.15644632     -118.88589185
  entropy T*S    EENTRO =        -0.11633783
  eigenvalues    EBANDS =       389.98638268
  atomic energy  EATOM  =      1736.20668909
  ---------------------------------------------------
  free energy    TOTEN  =       -84.06575925 eV

  energy without entropy =      -83.94942142  energy(sigma->0) =      -84.02697997


--------------------------------------------------------------------------------------------------------




----------------------------------------- Iteration    1(  14)  ---------------------------------------


    POTLOK:  cpu time    0.06: real time    0.06
    SETDIJ:  cpu time    0.01: real time    0.01
    EDDIAG:  cpu time    0.09: real time    0.09
  RMM-DIIS:  cpu time    0.31: real time    0.31
    ORTHCH:  cpu time    0.01: real time    0.01
       DOS:  cpu time    0.00: real time    0.00
    CHARGE:  cpu time    0.09: real time    0.09
    MIXING:  cpu time    0.00: real time    0.00
    --------------------------------------------
      LOOP:  cpu time    0.57: real time    0.58

 eigenvalue-minimisations  :   192
 total energy-change (2. order) : 0.5984116E+00  (-0.2888756E-01)
 number of electron   97.9999993 magnetization 
 augmentation part    -0.9239907 magnetization 

 Broyden mixing:
  rms(total) = 0.30220E+00    rms(broyden)= 0.30220E+00
  rms(prec ) = 0.45590E+00
  weight for this iteration     100.00

 eigenvalues of (default mixing * dielectric matrix)
  average eigenvalue GAMMA=   1.5356
  0.6689  2.4023

 Free energy of the ion-electron system (eV)
  ---------------------------------------------------
  alpha Z        PSCENC =        -8.27958290
  Ewald energy   TEWEN  =     -2377.70297664
  -1/2 Hartree   DENC   =       -11.52456573
  -exchange  EXHF       =         0.00000000
  -V(xc)+E(xc)   XCENC  =      -844.20197719
  PAW double counting   =      1152.31788189     -119.12229924
  entropy T*S    EENTRO =        -0.11448557
  eigenvalues    EBANDS =       388.95396860
  atomic energy  EATOM  =      1736.20668909
  ---------------------------------------------------
  free energy    TOTEN  =       -83.46734769 eV

  energy without entropy =      -83.35286213  energy(sigma->0) =      -83.42918584


--------------------------------------------------------------------------------------------------------




----------------------------------------- Iteration    1(  15)  ---------------------------------------


    POTLOK:  cpu time    0.06: real time    0.06
    SETDIJ:  cpu time    0.01: real time    0.01
    EDDIAG:  cpu time    0.09: real time    0.09
  RMM-DIIS:  cpu time    0.31: real time    0.31
    ORTHCH:  cpu time    0.01: real time    0.01
       DOS:  cpu time    0.00: real time    0.00
    CHARGE:  cpu time    0.09: real time    0.09
    MIXING:  cpu time    0.00: real time    0.00
    --------------------------------------------
      LOOP:  cpu time    0.57: real time    0.58

 eigenvalue-minimisations  :   192
 total energy-change (2. order) : 0.2940155E+00  (-0.1019661E-01)
 number of electron   97.9999993 magnetization 
 augmentation part    -0.9426542 magnetization 

 Broyden mixing:
  rms(total) = 0.94110E-01    rms(broyden)= 0.94109E-01
  rms(prec ) = 0.14350E+00
  weight for this iteration     100.00

 eigenvalues of (default mixing * dielectric matrix)
  average eigenvalue GAMMA=   1.4066
  2.5815  1.0222  0.6162

 Free energy of the ion-electron system (eV)
  ---------------------------------------------------
  alpha Z        PSCENC =        -8.27958290
  Ewald energy   TEWEN  =     -2377.70297664
  -1/2 Hartree   DENC   =       -12.30419608
  -exchange  EXHF       =         0.00000000
  -V(xc)+E(xc)   XCENC  =      -842.71187991
  PAW double counting   =      1153.78001555     -120.81176373
  entropy T*S    EENTRO =        -0.14083089
  eigenvalues    EBANDS =       388.79119335
  atomic energy  EATOM  =      1736.20668909
  ---------------------------------------------------
  free energy    TOTEN  =       -83.17333215 eV

  energy without entropy =      -83.03250126  energy(sigma->0) =      -83.12638852


--------------------------------------------------------------------------------------------------------




----------------------------------------- Iteration    1(  16)  ---------------------------------------


    POTLOK:  cpu time    0.06: real time    0.06
    SETDIJ:  cpu time    0.01: real time    0.01
    EDDIAG:  cpu time    0.09: real time    0.09
  RMM-DIIS:  cpu time    0.31: real time    0.31
    ORTHCH:  cpu time    0.01: real time    0.01
       DOS:  cpu time    0.00: real time    0.00
    CHARGE:  cpu time    0.09: real time    0.09
    MIXING:  cpu time    0.00: real time    0.00
    --------------------------------------------
      LOOP:  cpu time    0.58: real time    0.58

 eigenvalue-minimisations  :   192
 total energy-change (2. order) : 0.3526217E-01  (-0.2119659E-02)
 number of electron   97.9999993 magnetization 
 augmentation part    -0.9526612 magnetization 

 Broyden mixing:
  rms(total) = 0.12658E-01    rms(broyden)= 0.12658E-01
  rms(prec ) = 0.23433E-01
  weight for this iteration     100.00

 eigenvalues of (default mixing * dielectric matrix)
  average eigenvalue GAMMA=   1.3363
  2.6122  0.6133  1.0598  1.0598

 Free energy of the ion-electron system (eV)
  ---------------------------------------------------
  alpha Z        PSCENC =        -8.27958290
  Ewald energy   TEWEN  =     -2377.70297664
  -1/2 Hartree   DENC   =       -12.67705916
  -exchange  EXHF       =         0.00000000
  -V(xc)+E(xc)   XCENC  =      -841.98690463
  PAW double counting   =      1154.80203467     -121.96176864
  entropy T*S    EENTRO =        -0.12903438
  eigenvalues    EBANDS =       388.59053261
  atomic energy  EATOM  =      1736.20668909
  ---------------------------------------------------
  free energy    TOTEN  =       -83.13806998 eV

  energy without entropy =      -83.00903560  energy(sigma->0) =      -83.09505852


--------------------------------------------------------------------------------------------------------




----------------------------------------- Iteration    1(  17)  ---------------------------------------


    POTLOK:  cpu time    0.06: real time    0.06
    SETDIJ:  cpu time    0.01: real time    0.01
    EDDIAG:  cpu time    0.09: real time    0.09
  RMM-DIIS:  cpu time    0.31: real time    0.31
    ORTHCH:  cpu time    0.01: real time    0.01
       DOS:  cpu time    0.00: real time    0.00
    CHARGE:  cpu time    0.09: real time    0.09
    MIXING:  cpu time    0.00: real time    0.00
    --------------------------------------------
      LOOP:  cpu time    0.57: real time    0.58

 eigenvalue-minimisations  :   192
 total energy-change (2. order) : 0.6666218E-03  (-0.1131570E-03)
 number of electron   97.9999993 magnetization 
 augmentation part    -0.9550337 magnetization 

 Broyden mixing:
  rms(total) = 0.65280E-02    rms(broyden)= 0.65279E-02
  rms(prec ) = 0.10338E-01
  weight for this iteration     100.00

 eigenvalues of (default mixing * dielectric matrix)
  average eigenvalue GAMMA=   1.3859
  2.6181  1.8323  0.6148  1.0469  0.8173

 Free energy of the ion-electron system (eV)
  ---------------------------------------------------
  alpha Z        PSCENC =        -8.27958290
  Ewald energy   TEWEN  =     -2377.70297664
  -1/2 Hartree   DENC   =       -12.73941153
  -exchange  EXHF       =         0.00000000
  -V(xc)+E(xc)   XCENC  =      -841.91710860
  PAW double counting   =      1155.09888764     -122.28343173
  entropy T*S    EENTRO =        -0.13125987
  eigenvalues    EBANDS =       388.61079118
  atomic energy  EATOM  =      1736.20668909
  ---------------------------------------------------
  free energy    TOTEN  =       -83.13740336 eV

  energy without entropy =      -83.00614349  energy(sigma->0) =      -83.09365007


--------------------------------------------------------------------------------------------------------




----------------------------------------- Iteration    1(  18)  ---------------------------------------


    POTLOK:  cpu time    0.06: real time    0.06
    SETDIJ:  cpu time    0.01: real time    0.01
    EDDIAG:  cpu time    0.09: real time    0.09
  RMM-DIIS:  cpu time    0.25: real time    0.25
    ORTHCH:  cpu time    0.01: real time    0.01
       DOS:  cpu time    0.00: real time    0.00
    --------------------------------------------
      LOOP:  cpu time    0.41: real time    0.42

 eigenvalue-minimisations  :   120
 total energy-change (2. order) : 0.9011434E-04  (-0.1593153E-04)
 number of electron   97.9999993 magnetization 
 augmentation part    -0.9550337 magnetization 

 Free energy of the ion-electron system (eV)
  ---------------------------------------------------
  alpha Z        PSCENC =        -8.27958290
  Ewald energy   TEWEN  =     -2377.70297664
  -1/2 Hartree   DENC   =       -12.75961074
  -exchange  EXHF       =         0.00000000
  -V(xc)+E(xc)   XCENC  =      -841.89236302
  PAW double counting   =      1155.28631927     -122.48645696
  entropy T*S    EENTRO =        -0.13075534
  eigenvalues    EBANDS =       388.62142400
  atomic energy  EATOM  =      1736.20668909
  ---------------------------------------------------
  free energy    TOTEN  =       -83.13731324 eV

  energy without entropy =      -83.00655790  energy(sigma->0) =      -83.09372813


--------------------------------------------------------------------------------------------------------




 average (electrostatic) potential at core
  the test charge radii are     1.0406  1.0714
  (the norm of the test charge is              1.0000)
       1 -72.6703       2 -72.7069       3 -72.7069       4 -72.7069       5 -72.5300
       6 -72.5324       7 -72.5324       8 -72.5832       9 -72.5300      10 -72.5832
      11 -72.5324      12 -72.5324      13 -72.5955      14 -72.5660      15 -72.5437
      16 -72.5660      17 -72.5300      18 -72.5324      19 -72.5832      20 -72.5324
      21 -72.5955      22 -72.5437      23 -72.5660      24 -72.5660      25 -72.5955
      26 -72.5660      27 -72.5660      28 -72.5437      29 -72.3861      30 -73.5619
      31 -73.5619      32 -73.5619      33 -53.4497
 
 
 
 E-fermi :   8.3370     XC(G=0): -10.2691     alpha+bet :-15.2356
   add alpha+bet to get absolut eigen values

 k-point   1 :       0.0000    0.0000    0.0000
  band No.  band energies     occupation 
      1      -3.0121      2.00000
      2      -1.0126      2.00000
      3      -0.7291      2.00000
      4      -0.7291      2.00000
      5      -0.7214      2.00000
      6      -0.6725      2.00000
      7      -0.6725      2.00000
      8       1.2501      2.00000
      9       1.3452      2.00000
     10       1.3452      2.00000
     11       1.3569      2.00000
     12       1.5124      2.00000
     13       1.5205      2.00000
     14       1.5205      2.00000
     15       1.5281      2.00000
     16       1.5281      2.00000
     17       1.5351      2.00000
     18       1.5551      2.00000
     19       1.5551      2.00000
     20       3.4784      2.00000
     21       3.5356      2.00000
     22       3.5356      2.00000
     23       3.5848      2.00000
     24       3.7200      2.00000
     25       3.7200      2.00000
     26       3.7759      2.00000
     27       3.7983      2.00000
     28       5.1647      2.00000
     29       5.1647      2.00000
     30       5.2606      2.00000
     31       6.4429      2.00000
     32       6.4676      2.00000
     33       6.4676      2.00000
     34       7.0119      2.00000
     35       7.0119      2.00000
     36       7.2037      2.00000
     37       7.2736      2.00000
     38       7.2736      2.00000
     39       7.3347      2.00000
     40       7.3347      2.00000
     41       7.3491      2.00000
     42       7.3551      2.00000
     43       7.3778      2.00000
     44       7.3778      2.00000
     45       7.3862      2.00000
     46       8.1289      2.05763
     47       8.1964      1.92162
     48       8.1964      1.92162
     49       8.3662      0.75543
     50       8.3765      0.67246
     51       8.3765      0.67246
     52       8.8930     -0.00060
     53       8.8930     -0.00060
     54       9.0105     -0.00002
     55       9.2284      0.00000
     56       9.2284      0.00000
     57       9.2694      0.00000
     58       9.2694      0.00000
     59       9.3126      0.00000
     60       9.3567      0.00000
     61       9.3567      0.00000
     62       9.3861      0.00000
     63       9.4131      0.00000
     64       9.4231      0.00000
     65       9.4231      0.00000
     66       9.4350      0.00000
     67       9.4601      0.00000
     68       9.4601      0.00000
     69       9.5928      0.00000
     70      10.6908      0.00000
     71      10.6908      0.00000
     72      10.7047      0.00000
     73      10.7399      0.00000
     74      10.7399      0.00000
     75      10.8459      0.00000
     76      10.9415      0.00000
     77      10.9415      0.00000
     78      10.9509      0.00000
     79      10.9522      0.00000
     80      10.9569      0.00000
     81      10.9569      0.00000
     82      13.3271      0.00000
     83      13.3271      0.00000
     84      13.4570      0.00000
     85      13.6038      0.00000
     86      13.6038      0.00000
     87      13.6640      0.00000
     88      13.6640      0.00000
     89      13.7148      0.00000
     90      13.7567      0.00000
     91      15.2693      0.00000
     92      15.3548      0.00000
     93      15.3769      0.00000
     94      15.4358      0.00000
     95      15.4965      0.00000
     96      15.5767      0.00000


--------------------------------------------------------------------------------------------------------


 soft charge-density along one line, spin component           1
         0         1         2         3         4         5         6         7         8         9
 total charge-density along one line
 
 pseudopotential strength for first ion, spin component:           1
  8.436  -0.006  -0.001  -0.001  -0.001   0.000   0.000   0.000
 -0.006   0.000   0.000   0.000   0.000   0.000   0.000   0.000
 -0.001   0.000   1.984   0.000   0.000  -0.026   0.000   0.000
 -0.001   0.000   0.000   1.984   0.000   0.000  -0.026   0.000
 -0.001   0.000   0.000   0.000   1.984   0.000   0.000  -0.026
  0.000   0.000  -0.026   0.000   0.000  -0.012   0.000   0.000
  0.000   0.000   0.000  -0.026   0.000   0.000  -0.012   0.000
  0.000   0.000   0.000   0.000  -0.026   0.000   0.000  -0.012
 total augmentation occupancy for first ion, spin component:           1
  1.123  -0.545   0.020   0.020   0.020  -0.004  -0.004  -0.004
 -0.545   0.442   0.016   0.016   0.016  -0.002  -0.002  -0.002
  0.020   0.016   0.762  -0.016  -0.016  -0.174   0.001   0.001
  0.020   0.016  -0.016   0.762  -0.016   0.001  -0.174   0.001
  0.020   0.016  -0.016  -0.016   0.762   0.001   0.001  -0.174
 -0.004  -0.002  -0.174   0.001   0.001   0.047   0.000   0.000
 -0.004  -0.002   0.001  -0.174   0.001   0.000   0.047   0.000
 -0.004  -0.002   0.001   0.001  -0.174   0.000   0.000   0.047


------------------------ aborting loop because EDIFF is reached ----------------------------------------




--------------------------------------------------------------------------------------------------------



  FREE ENERGIE OF THE ION-ELECTRON SYSTEM (eV)
  ---------------------------------------------------
  free  energy   TOTEN  =       -83.137313 eV

  energy  without entropy=      -83.006558  energy(sigma->0) =      -83.093728
 
    CHARGE:  cpu time    0.09: real time    0.09
    FORLOC:  cpu time    0.01: real time    0.02
    FORNL :  cpu time    0.15: real time    0.15
    STRESS:  cpu time    0.27: real time    0.27
    FORCOR:  cpu time    0.06: real time    0.07
    FORHAR:  cpu time    0.03: real time    0.03
    MIXING:  cpu time    0.00: real time    0.00

  FORCE on cell =-STRESS in cart. coord.  units (eV):
  Direction    XX          YY          ZZ          XY          YZ          ZX
  --------------------------------------------------------------------------------------
  Alpha Z    -8.27958    -8.27958    -8.27958
  Ewald    -792.57104  -792.57104  -792.57104   -10.74665   -10.74665   -10.74665
  Hartree     4.25716     4.25716     4.25716     0.02577     0.02577     0.02577
  E(xc)    -281.96661  -281.96661  -281.96661     0.10656     0.10656     0.10656
  Local      11.18793    11.18793    11.18793    -1.72955    -1.72955    -1.72955
  n-local   597.78666   597.78672   597.78671    -0.26615    -0.26615    -0.26611
  augment   -25.88004   -25.88005   -25.88005    -0.01907    -0.01906    -0.01907
  Kinetic   514.41021   514.41023   514.41022    -1.19510    -1.19512    -1.19506
  Fock        0.00000     0.00000     0.00000     0.00000     0.00000     0.00000
  -------------------------------------------------------------------------------------
  Total      18.94473    18.94473    18.94473   -13.82417   -13.82417   -13.82417
  in kB      57.38922    57.38922    57.38922   -41.87751   -41.87751   -41.87751
  external pressure =       57.39 kB  Pullay stress =        0.00 kB


 VOLUME and BASIS-vectors are now :
 -----------------------------------------------------------------------------
  energy-cutoff  :      300.00
  volume of cell :      528.89
      direct lattice vectors                 reciprocal lattice vectors
     8.087040000  0.000000000  0.000000000     0.123654638  0.000000000  0.000000000
     0.000000000  8.087040000  0.000000000     0.000000000  0.123654638  0.000000000
     0.000000000  0.000000000  8.087040000     0.000000000  0.000000000  0.123654638

  length of vectors
     8.087040000  8.087040000  8.087040000     0.123654638  0.123654638  0.123654638


 FORCES acting on ions
    electron-ion (+dipol)            ewald-force                    non-local-force                 convergence-correction
 -----------------------------------------------------------------------------------------------
   -.728E+00 -.728E+00 -.728E+00   0.122E+01 0.122E+01 0.122E+01   -.360E+00 -.360E+00 -.360E+00   0.812E-02 0.812E-02 0.812E-02
   0.700E-01 -.244E+00 0.700E-01   -.634E+00 0.880E+00 -.634E+00   0.336E+00 -.464E+00 0.336E+00   0.385E-02 0.726E-02 0.385E-02
   0.700E-01 0.700E-01 -.244E+00   -.634E+00 -.634E+00 0.880E+00   0.336E+00 0.336E+00 -.464E+00   0.385E-02 0.385E-02 0.726E-02
   -.244E+00 0.700E-01 0.700E-01   0.880E+00 -.634E+00 -.634E+00   -.464E+00 0.336E+00 0.336E+00   0.726E-02 0.385E-02 0.385E-02
   0.118E+01 -.195E+01 -.195E+01   -.137E+01 0.207E+01 0.207E+01   0.259E-01 -.152E+00 -.152E+00   -.725E-02 0.598E-02 0.598E-02
   -.240E+00 -.175E+01 0.129E+01   0.719E+00 0.178E+01 -.140E+01   -.190E+00 -.740E-01 0.113E+00   -.427E-02 0.523E-02 0.558E-02
   -.240E+00 0.129E+01 -.175E+01   0.719E+00 -.140E+01 0.178E+01   -.190E+00 0.113E+00 -.740E-01   -.427E-02 0.558E-02 0.523E-02
   0.650E+00 0.771E+00 0.771E+00   -.930E+00 -.969E+00 -.969E+00   0.184E+00 0.245E+00 0.245E+00   -.666E-02 0.704E-02 0.704E-02
   -.195E+01 0.118E+01 -.195E+01   0.207E+01 -.137E+01 0.207E+01   -.152E+00 0.259E-01 -.152E+00   0.598E-02 -.725E-02 0.598E-02
   0.771E+00 0.650E+00 0.771E+00   -.969E+00 -.930E+00 -.969E+00   0.245E+00 0.184E+00 0.245E+00   0.704E-02 -.666E-02 0.704E-02
   0.129E+01 -.240E+00 -.175E+01   -.140E+01 0.719E+00 0.178E+01   0.113E+00 -.190E+00 -.740E-01   0.558E-02 -.427E-02 0.523E-02
   -.175E+01 -.240E+00 0.129E+01   0.178E+01 0.719E+00 -.140E+01   -.740E-01 -.190E+00 0.113E+00   0.523E-02 -.427E-02 0.558E-02
   0.255E+01 0.255E+01 -.419E+01   -.268E+01 -.268E+01 0.453E+01   0.284E+00 0.284E+00 -.622E+00   -.547E-02 -.547E-02 0.359E-02
   -.140E+01 0.218E+01 0.289E+01   0.124E+01 -.214E+01 -.296E+01   -.779E-02 0.110E+00 0.219E+00   -.745E-02 -.482E-02 0.960E-02
   -.242E+01 -.242E+01 -.714E+01   0.226E+01 0.226E+01 0.699E+01   -.805E-02 -.805E-02 -.206E+00   -.654E-02 -.654E-02 0.530E-02
   0.218E+01 -.140E+01 0.289E+01   -.214E+01 0.124E+01 -.296E+01   0.110E+00 -.779E-02 0.219E+00   -.482E-02 -.745E-02 0.960E-02
   -.195E+01 -.195E+01 0.118E+01   0.207E+01 0.207E+01 -.137E+01   -.152E+00 -.152E+00 0.259E-01   0.598E-02 0.598E-02 -.726E-02
   0.129E+01 -.175E+01 -.240E+00   -.140E+01 0.178E+01 0.719E+00   0.113E+00 -.740E-01 -.190E+00   0.558E-02 0.523E-02 -.427E-02
   0.771E+00 0.771E+00 0.650E+00   -.969E+00 -.969E+00 -.930E+00   0.245E+00 0.245E+00 0.184E+00   0.704E-02 0.704E-02 -.666E-02
   -.175E+01 0.129E+01 -.240E+00   0.178E+01 -.140E+01 0.719E+00   -.740E-01 0.113E+00 -.190E+00   0.523E-02 0.558E-02 -.427E-02
   0.255E+01 -.419E+01 0.255E+01   -.268E+01 0.453E+01 -.268E+01   0.284E+00 -.622E+00 0.284E+00   -.547E-02 0.359E-02 -.547E-02
   -.242E+01 -.714E+01 -.242E+01   0.226E+01 0.699E+01 0.226E+01   -.805E-02 -.206E+00 -.805E-02   -.654E-02 0.530E-02 -.654E-02
   -.140E+01 0.289E+01 0.218E+01   0.124E+01 -.296E+01 -.214E+01   -.779E-02 0.219E+00 0.110E+00   -.745E-02 0.960E-02 -.482E-02
   0.218E+01 0.289E+01 -.140E+01   -.214E+01 -.296E+01 0.124E+01   0.110E+00 0.219E+00 -.779E-02   -.482E-02 0.960E-02 -.745E-02
   -.419E+01 0.255E+01 0.255E+01   0.453E+01 -.268E+01 -.268E+01   -.622E+00 0.284E+00 0.284E+00   0.359E-02 -.547E-02 -.547E-02
   0.289E+01 0.218E+01 -.140E+01   -.296E+01 -.214E+01 0.124E+01   0.219E+00 0.110E+00 -.779E-02   0.960E-02 -.482E-02 -.745E-02
   0.289E+01 -.140E+01 0.218E+01   -.296E+01 0.124E+01 -.214E+01   0.219E+00 -.779E-02 0.110E+00   0.960E-02 -.745E-02 -.482E-02
   -.714E+01 -.242E+01 -.242E+01   0.699E+01 0.226E+01 0.226E+01   -.206E+00 -.805E-02 -.805E-02   0.530E-02 -.654E-02 -.654E-02
   0.102E+02 0.102E+02 0.102E+02   -.917E+01 -.917E+01 -.917E+01   -.233E+01 -.233E+01 -.233E+01   -.922E-03 -.922E-03 -.923E-03
   -.101E+02 0.171E+02 -.101E+02   0.135E+02 -.238E+02 0.135E+02   0.419E+01 -.698E+01 0.419E+01   -.116E-01 -.340E-02 -.116E-01
   -.101E+02 -.101E+02 0.171E+02   0.135E+02 0.135E+02 -.238E+02   0.419E+01 0.419E+01 -.698E+01   -.116E-01 -.116E-01 -.340E-02
   0.171E+02 -.101E+02 -.101E+02   -.238E+02 0.135E+02 0.135E+02   -.698E+01 0.419E+01 0.419E+01   -.340E-02 -.116E-01 -.116E-01
   -.111E+01 -.111E+01 -.111E+01   0.133E+00 0.133E+00 0.133E+00   0.116E+01 0.116E+01 0.116E+01   -.725E-02 -.725E-02 -.725E-02
 -----------------------------------------------------------------------------------------------
   -.536E+00 -.536E+00 -.536E+00   -.491E-14 0.114E-13 -.996E-14   0.543E+00 0.543E+00 0.543E+00   -.704E-02 -.704E-02 -.704E-02
 
 
 POSITION                                       TOTAL-FORCE (eV/Angst)
 -----------------------------------------------------------------------------------
      0.00000      0.00000      0.00000         0.141146      0.141146      0.141146
      2.02176      0.00000      2.02176        -0.224333      0.178336     -0.224333
      2.02176      2.02176      0.00000        -0.224333     -0.224333      0.178336
      0.00000      2.02176      2.02176         0.178336     -0.224333     -0.224333
      4.04352      0.00000      0.00000        -0.171995     -0.023629     -0.023629
      6.06528      0.00000      2.02176         0.284947     -0.036603      0.012702
      6.06528      2.02176      0.00000         0.284947      0.012702     -0.036603
      4.04352      2.02176      2.02176        -0.102715      0.053736      0.053736
      0.00000      4.04352      0.00000        -0.023629     -0.171995     -0.023629
      2.02176      4.04352      2.02176         0.053736     -0.102715      0.053736
      2.02176      6.06528      0.00000         0.012702      0.284947     -0.036603
      0.00000      6.06528      2.02176        -0.036603      0.284947      0.012702
      4.04352      4.04352      0.00000         0.146571      0.146571     -0.285451
      6.06528      4.04352      2.02176        -0.167844      0.152002      0.159805
      6.06528      6.06528      0.00000        -0.170996     -0.170996     -0.347392
      4.04352      6.06528      2.02176         0.152002     -0.167844      0.159805
      0.00000      0.00000      4.04352        -0.023629     -0.023629     -0.171995
      2.02176      0.00000      6.06528         0.012702     -0.036603      0.284947
      2.02176      2.02176      4.04352         0.053736      0.053736     -0.102715
      0.00000      2.02176      6.06528        -0.036603      0.012702      0.284947
      4.04352      0.00000      4.04352         0.146571     -0.285451      0.146571
      6.06528      0.00000      6.06528        -0.170996     -0.347392     -0.170996
      6.06528      2.02176      4.04352        -0.167844      0.159805      0.152002
      4.04352      2.02176      6.06528         0.152002      0.159805     -0.167844
      0.00000      4.04352      4.04352        -0.285451      0.146571      0.146571
      2.02176      4.04352      6.06528         0.159805      0.152002     -0.167844
      2.02176      6.06528      4.04352         0.159805     -0.167844      0.152002
      0.00000      6.06528      6.06528        -0.347392     -0.170996     -0.170996
      4.04352      4.04352      4.04352        -1.324672     -1.324672     -1.324672
      6.06528      4.04352      6.06528         7.525336    -13.689896      7.525336
      6.06528      6.06528      4.04352         7.525336      7.525336    -13.689896
      4.04352      6.06528      6.06528       -13.689896      7.525336      7.525336
      5.33745      5.33745      5.33745         0.179251      0.179251      0.179251
 -----------------------------------------------------------------------------------
    total drift:                                0.000770      0.000770      0.000770


--------------------------------------------------------------------------------------------------------


    POTLOK:  cpu time    0.07: real time    0.07


--------------------------------------------------------------------------------------------------------


  FORCES: max atom, RMS    17.339972    5.250831
  FORCE total and by dimension   30.163730   13.689896


--------------------------------------------------------------------------------------------------------


    WAVPRE:  cpu time    0.02: real time    0.02
    FEWALD:  cpu time    0.01: real time    0.01
    ORTHCH:  cpu time    0.04: real time    0.04
     LOOP+:  cpu time    8.09: real time    8.21
   RESPFUN:  cpu time    0.00: real time    0.00


----------------------------------------- Iteration    2(   1)  ---------------------------------------


    POTLOK:  cpu time    0.06: real time    0.06
    SETDIJ:  cpu time    0.01: real time    0.01
    EDDIAG:  cpu time    0.09: real time    0.09
  RMM-DIIS:  cpu time    0.31: real time    0.31
    ORTHCH:  cpu time    0.01: real time    0.01
       DOS:  cpu time    0.00: real time    0.00
    CHARGE:  cpu time    0.09: real time    0.09
    MIXING:  cpu time    0.00: real time    0.00
    --------------------------------------------
      LOOP:  cpu time    0.57: real time    0.58

 eigenvalue-minimisations  :   192
 total energy-change (2. order) :-0.1802710E+02  (-0.1359643E+02)
 number of electron   97.9999995 magnetization 
 augmentation part    -1.0546740 magnetization 

 Broyden mixing:
  rms(total) = 0.60287E+00    rms(broyden)= 0.60287E+00
  rms(prec ) = 0.17384E+01
  weight for this iteration     100.00

 Free energy of the ion-electron system (eV)
  ---------------------------------------------------
  alpha Z        PSCENC =        -8.27958290
  Ewald energy   TEWEN  =     -2381.89758526
  -1/2 Hartree   DENC   =       -10.86858545
  -exchange  EXHF       =         0.00000000
  -V(xc)+E(xc)   XCENC  =      -841.54607113
  PAW double counting   =      1155.38890866     -122.59827136
  entropy T*S    EENTRO =        -0.10282002
  eigenvalues    EBANDS =       372.53281456
  atomic energy  EATOM  =      1736.20668909
  ---------------------------------------------------
  free energy    TOTEN  =      -101.16450380 eV

  energy without entropy =     -101.06168378  energy(sigma->0) =     -101.13023046


--------------------------------------------------------------------------------------------------------




----------------------------------------- Iteration    2(   2)  ---------------------------------------


    POTLOK:  cpu time    0.06: real time    0.06
    SETDIJ:  cpu time    0.01: real time    0.01
    EDDIAG:  cpu time    0.09: real time    0.09
  RMM-DIIS:  cpu time    0.35: real time    0.35
    ORTHCH:  cpu time    0.01: real time    0.01
       DOS:  cpu time    0.00: real time    0.00
    CHARGE:  cpu time    0.09: real time    0.09
    MIXING:  cpu time    0.00: real time    0.00
    --------------------------------------------
      LOOP:  cpu time    0.62: real time    0.62

 eigenvalue-minimisations  :   193
 total energy-change (2. order) : 0.3817782E+01  (-0.4184086E+00)
 number of electron   97.9999995 magnetization 
 augmentation part    -1.0111586 magnetization 

 Broyden mixing:
  rms(total) = 0.35294E+00    rms(broyden)= 0.35294E+00
  rms(prec ) = 0.99315E+00
  weight for this iteration     100.00

 eigenvalues of (default mixing * dielectric matrix)
  average eigenvalue GAMMA=   1.0215
  1.0215

 Free energy of the ion-electron system (eV)
  ---------------------------------------------------
  alpha Z        PSCENC =        -8.27958290
  Ewald energy   TEWEN  =     -2381.89758526
  -1/2 Hartree   DENC   =       -15.40019448
  -exchange  EXHF       =         0.00000000
  -V(xc)+E(xc)   XCENC  =      -841.35386121
  PAW double counting   =      1155.75127529     -122.93865159
  entropy T*S    EENTRO =        -0.07539658
  eigenvalues    EBANDS =       380.64058583
  atomic energy  EATOM  =      1736.20668909
  ---------------------------------------------------
  free energy    TOTEN  =       -97.34672180 eV

  energy without entropy =      -97.27132522  energy(sigma->0) =      -97.32158960


--------------------------------------------------------------------------------------------------------




----------------------------------------- Iteration    2(   3)  ---------------------------------------


    POTLOK:  cpu time    0.06: real time    0.06
    SETDIJ:  cpu time    0.01: real time    0.01
    EDDIAG:  cpu time    0.09: real time    0.09
  RMM-DIIS:  cpu time    0.31: real time    0.31
    ORTHCH:  cpu time    0.01: real time    0.01
       DOS:  cpu time    0.00: real time    0.00
    CHARGE:  cpu time    0.09: real time    0.09
    MIXING:  cpu time    0.00: real time    0.00
    --------------------------------------------
      LOOP:  cpu time    0.57: real time    0.57

 eigenvalue-minimisations  :   192
 total energy-change (2. order) : 0.9082185E+00  (-0.8082695E-01)
 number of electron   97.9999995 magnetization 
 augmentation part    -0.9944477 magnetization 

 Broyden mixing:
  rms(total) = 0.17616E+00    rms(broyden)= 0.17616E+00
  rms(prec ) = 0.31826E+00
  weight for this iteration     100.00

 eigenvalues of (default mixing * dielectric matrix)
  average eigenvalue GAMMA=   1.1890
  0.6690  1.7091

 Free energy of the ion-electron system (eV)
  ---------------------------------------------------
  alpha Z        PSCENC =        -8.27958290
  Ewald energy   TEWEN  =     -2381.89758526
  -1/2 Hartree   DENC   =       -16.63799551
  -exchange  EXHF       =         0.00000000
  -V(xc)+E(xc)   XCENC  =      -841.24595924
  PAW double counting   =      1156.78680212     -123.99796231
  entropy T*S    EENTRO =        -0.09682529
  eigenvalues    EBANDS =       382.72391598
  atomic energy  EATOM  =      1736.20668909
  ---------------------------------------------------
  free energy    TOTEN  =       -96.43850331 eV

  energy without entropy =      -96.34167802  energy(sigma->0) =      -96.40622822


--------------------------------------------------------------------------------------------------------




----------------------------------------- Iteration    2(   4)  ---------------------------------------


    POTLOK:  cpu time    0.06: real time    0.06
    SETDIJ:  cpu time    0.01: real time    0.01
    EDDIAG:  cpu time    0.09: real time    0.09
  RMM-DIIS:  cpu time    0.31: real time    0.31
    ORTHCH:  cpu time    0.01: real time    0.01
       DOS:  cpu time    0.00: real time    0.00
    CHARGE:  cpu time    0.09: real time    0.09
    MIXING:  cpu time    0.00: real time    0.00
    --------------------------------------------
      LOOP:  cpu time    0.57: real time    0.58

 eigenvalue-minimisations  :   192
 total energy-change (2. order) : 0.1324049E+00  (-0.3623320E-01)
 number of electron   97.9999995 magnetization 
 augmentation part    -0.9829045 magnetization 

 Broyden mixing:
  rms(total) = 0.69359E-01    rms(broyden)= 0.69359E-01
  rms(prec ) = 0.11623E+00
  weight for this iteration     100.00

 eigenvalues of (default mixing * dielectric matrix)
  average eigenvalue GAMMA=   1.1372
  1.6191  1.1160  0.6765

 Free energy of the ion-electron system (eV)
[...]
  PAW double counting   =      1156.81527374     -123.92397181
  entropy T*S    EENTRO =         0.05019056
  eigenvalues    EBANDS =       380.53872004
  atomic energy  EATOM  =      1736.20668909
  ---------------------------------------------------
  free energy    TOTEN  =      -100.78729534 eV

  energy without entropy =     -100.83748590  energy(sigma->0) =     -100.80402553


--------------------------------------------------------------------------------------------------------




----------------------------------------- Iteration   21(   4)  ---------------------------------------


    POTLOK:  cpu time    0.06: real time    0.06
    SETDIJ:  cpu time    0.01: real time    0.01
    EDDIAG:  cpu time    0.09: real time    0.09
  RMM-DIIS:  cpu time    0.29: real time    0.29
    ORTHCH:  cpu time    0.01: real time    0.01
       DOS:  cpu time    0.00: real time    0.00
    --------------------------------------------
      LOOP:  cpu time    0.46: real time    0.46

 eigenvalue-minimisations  :   143
 total energy-change (2. order) : 0.9660119E-04  (-0.2656736E-04)
 number of electron   98.0000001 magnetization 
 augmentation part    -0.9568566 magnetization 

 Free energy of the ion-electron system (eV)
  ---------------------------------------------------
  alpha Z        PSCENC =        -8.27958290
  Ewald energy   TEWEN  =     -2353.65179896
  -1/2 Hartree   DENC   =       -48.07480223
  -exchange  EXHF       =         0.00000000
  -V(xc)+E(xc)   XCENC  =      -840.46924314
  PAW double counting   =      1156.78402894     -123.89104688
  entropy T*S    EENTRO =         0.04946578
  eigenvalues    EBANDS =       380.53909156
  atomic energy  EATOM  =      1736.20668909
  ---------------------------------------------------
  free energy    TOTEN  =      -100.78719874 eV

  energy without entropy =     -100.83666452  energy(sigma->0) =     -100.80368733


--------------------------------------------------------------------------------------------------------




 average (electrostatic) potential at core
  the test charge radii are     1.0406  1.0714
  (the norm of the test charge is              1.0000)
       1 -72.2898       2 -71.8455       3 -71.8455       4 -71.8455       5 -72.4474
       6 -72.2578       7 -72.2578       8 -72.0061       9 -72.4474      10 -72.0061
      11 -72.2578      12 -72.2578      13 -72.6597      14 -72.5896      15 -72.8339
      16 -72.5896      17 -72.4474      18 -72.2578      19 -72.0061      20 -72.2578
      21 -72.6597      22 -72.8339      23 -72.5896      24 -72.5896      25 -72.6597
      26 -72.5896      27 -72.5896      28 -72.8339      29 -72.9273      30 -72.5071
      31 -72.5071      32 -72.5071      33 -50.0211
 
 
 
 E-fermi :   8.4285     XC(G=0): -10.2435     alpha+bet :-15.2356
   add alpha+bet to get absolut eigen values

 k-point   1 :       0.0000    0.0000    0.0000
  band No.  band energies     occupation 
      1      -3.1367      2.00000
      2      -1.1810      2.00000
      3      -1.1810      2.00000
      4      -0.8382      2.00000
      5      -0.8382      2.00000
      6      -0.7723      2.00000
      7      -0.4912      2.00000
      8       0.8518      2.00000
      9       0.8518      2.00000
     10       1.0905      2.00000
     11       1.3346      2.00000
     12       1.3346      2.00000
     13       1.4385      2.00000
     14       1.4615      2.00000
     15       1.4615      2.00000
     16       1.6855      2.00000
     17       1.6855      2.00000
     18       1.7394      2.00000
     19       1.8374      2.00000
     20       3.1450      2.00000
     21       3.5668      2.00000
     22       3.5785      2.00000
     23       3.5785      2.00000
     24       3.7118      2.00000
     25       3.7118      2.00000
     26       3.7639      2.00000
     27       3.8538      2.00000
     28       5.1077      2.00000
     29       5.1900      2.00000
     30       5.1900      2.00000
     31       6.1592      2.00000
     32       6.4625      2.00000
     33       6.4625      2.00000
     34       6.6382      2.00000
     35       6.8519      2.00000
     36       6.8519      2.00000
     37       7.0293      2.00000
     38       7.2180      2.00000
     39       7.2180      2.00000
     40       7.3335      2.00000
     41       7.3939      2.00000
     42       7.3939      2.00000
     43       7.5425      2.00000
     44       7.5425      2.00000
     45       7.6087      2.00000
     46       7.6976      2.00000
     47       7.6976      2.00000
     48       8.1306      2.05622
     49       8.3106      1.83041
     50       8.5571      0.12329
     51       8.5571      0.12328
     52       8.7436     -0.04841
     53       8.7436     -0.04841
     54       8.7872     -0.02937
     55       8.9165     -0.00301
     56       8.9350     -0.00200
     57       8.9350     -0.00200
     58       9.1349     -0.00001
     59       9.2183      0.00000
     60       9.2183      0.00000
     61       9.2926      0.00000
     62       9.2926      0.00000
     63       9.4674      0.00000
     64       9.4674      0.00000
     65       9.4882      0.00000
     66       9.6348      0.00000
     67       9.7577      0.00000
     68       9.7577      0.00000
     69       9.8206      0.00000
     70      10.1657      0.00000
     71      10.1657      0.00000
     72      10.7086      0.00000
     73      10.7086      0.00000
     74      10.7723      0.00000
     75      10.7997      0.00000
     76      10.7997      0.00000
     77      10.8768      0.00000
     78      11.1912      0.00000
     79      11.2262      0.00000
     80      11.2262      0.00000
     81      11.8068      0.00000
     82      13.3286      0.00000
     83      13.3850      0.00000
     84      13.3850      0.00000
     85      13.6074      0.00000
     86      13.6074      0.00000
     87      13.7609      0.00000
     88      13.8562      0.00000
     89      13.8562      0.00000
     90      13.9445      0.00000
     91      15.1914      0.00000
     92      15.2466      0.00000
     93      15.2482      0.00000
     94      15.3247      0.00000
     95      15.3256      0.00000
     96      15.4842      0.00000


--------------------------------------------------------------------------------------------------------


 soft charge-density along one line, spin component           1
         0         1         2         3         4         5         6         7         8         9
 total charge-density along one line
 
 pseudopotential strength for first ion, spin component:           1
  8.437  -0.006   0.000   0.000   0.000   0.000   0.000   0.000
 -0.006   0.000   0.000   0.000   0.000   0.000   0.000   0.000
  0.000   0.000   1.990   0.000   0.000  -0.028   0.000   0.000
  0.000   0.000   0.000   1.990   0.000   0.000  -0.028   0.000
  0.000   0.000   0.000   0.000   1.990   0.000   0.000  -0.028
  0.000   0.000  -0.028   0.000   0.000  -0.012   0.000   0.000
  0.000   0.000   0.000  -0.028   0.000   0.000  -0.012   0.000
  0.000   0.000   0.000   0.000  -0.028   0.000   0.000  -0.012
 total augmentation occupancy for first ion, spin component:           1
  1.110  -0.598   0.000   0.000   0.000   0.000   0.000   0.000
 -0.598   0.502  -0.007  -0.007  -0.007   0.002   0.002   0.002
  0.000  -0.007   0.880   0.040   0.040  -0.198  -0.010  -0.010
  0.000  -0.007   0.040   0.880   0.040  -0.010  -0.198  -0.010
  0.000  -0.007   0.040   0.040   0.880  -0.010  -0.010  -0.198
  0.000   0.002  -0.198  -0.010  -0.010   0.053   0.003   0.003
  0.000   0.002  -0.010  -0.198  -0.010   0.003   0.053   0.003
  0.000   0.002  -0.010  -0.010  -0.198   0.003   0.003   0.053


------------------------ aborting loop because EDIFF is reached ----------------------------------------




--------------------------------------------------------------------------------------------------------



  FREE ENERGIE OF THE ION-ELECTRON SYSTEM (eV)
  ---------------------------------------------------
  free  energy   TOTEN  =      -100.787199 eV

  energy  without entropy=     -100.836665  energy(sigma->0) =     -100.803687
 
    CHARGE:  cpu time    0.09: real time    0.09
    FORLOC:  cpu time    0.02: real time    0.02
    FORNL :  cpu time    0.15: real time    0.15
    STRESS:  cpu time    0.27: real time    0.27
    FORCOR:  cpu time    0.06: real time    0.07
    FORHAR:  cpu time    0.03: real time    0.03
    MIXING:  cpu time    0.00: real time    0.00

  FORCE on cell =-STRESS in cart. coord.  units (eV):
  Direction    XX          YY          ZZ          XY          YZ          ZX
  --------------------------------------------------------------------------------------
  Alpha Z    -8.27958    -8.27958    -8.27958
  Ewald    -784.55369  -784.55369  -784.55369    -1.06637    -1.06637    -1.06637
  Hartree    16.02384    16.02384    16.02384    -0.14275    -0.14275    -0.14275
  E(xc)    -282.92716  -282.92716  -282.92716    -0.02059    -0.02059    -0.02059
  Local     -14.06866   -14.06866   -14.06866     0.18970     0.18970     0.18970
  n-local   595.89026   595.89029   595.89028     0.24685     0.24681     0.24682
  augment   -25.60419   -25.60420   -25.60419     0.00958     0.00958     0.00959
  Kinetic   518.44097   518.44099   518.44097    -1.40528    -1.40528    -1.40529
  Fock        0.00000     0.00000     0.00000     0.00000     0.00000     0.00000
  -------------------------------------------------------------------------------------
  Total      14.92181    14.92181    14.92181    -2.18888    -2.18888    -2.18888
  in kB      45.20259    45.20259    45.20259    -6.63076    -6.63076    -6.63076
  external pressure =       45.20 kB  Pullay stress =        0.00 kB


 VOLUME and BASIS-vectors are now :
 -----------------------------------------------------------------------------
  energy-cutoff  :      300.00
  volume of cell :      528.89
      direct lattice vectors                 reciprocal lattice vectors
     8.087040000  0.000000000  0.000000000     0.123654638  0.000000000  0.000000000
     0.000000000  8.087040000  0.000000000     0.000000000  0.123654638  0.000000000
     0.000000000  0.000000000  8.087040000     0.000000000  0.000000000  0.123654638

  length of vectors
     8.087040000  8.087040000  8.087040000     0.123654638  0.123654638  0.123654638


 FORCES acting on ions
    electron-ion (+dipol)            ewald-force                    non-local-force                 convergence-correction
 -----------------------------------------------------------------------------------------------
   0.537E+01 0.537E+01 0.537E+01   -.546E+01 -.546E+01 -.546E+01   0.699E-01 0.699E-01 0.699E-01   -.329E-03 -.329E-03 -.330E-03
   0.745E+00 0.127E+02 0.745E+00   -.214E+00 -.961E+01 -.214E+00   -.544E+00 -.295E+01 -.544E+00   0.141E-02 0.200E-02 0.141E-02
   0.745E+00 0.745E+00 0.127E+02   -.214E+00 -.214E+00 -.961E+01   -.544E+00 -.544E+00 -.295E+01   0.141E-02 0.141E-02 0.199E-02
   0.127E+02 0.745E+00 0.745E+00   -.961E+01 -.214E+00 -.214E+00   -.295E+01 -.544E+00 -.544E+00   0.200E-02 0.141E-02 0.141E-02
   -.757E+01 0.114E+02 0.114E+02   0.710E+01 -.104E+02 -.104E+02   0.404E+00 -.101E+01 -.101E+01   0.181E-03 0.385E-03 0.383E-03
   -.163E+01 0.704E+01 -.170E+01   0.105E+01 -.523E+01 0.249E+01   0.563E+00 -.175E+01 -.895E+00   -.837E-03 -.826E-04 -.812E-04
   -.163E+01 -.170E+01 0.704E+01   0.105E+01 0.249E+01 -.523E+01   0.563E+00 -.895E+00 -.175E+01   -.837E-03 -.820E-04 -.845E-04
   -.117E+02 -.737E+01 -.737E+01   0.889E+01 0.592E+01 0.592E+01   0.266E+01 0.148E+01 0.148E+01   -.209E-02 -.147E-03 -.146E-03
   0.114E+02 -.757E+01 0.114E+02   -.104E+02 0.710E+01 -.104E+02   -.101E+01 0.404E+00 -.101E+01   0.385E-03 0.181E-03 0.383E-03
   -.737E+01 -.117E+02 -.737E+01   0.592E+01 0.889E+01 0.592E+01   0.148E+01 0.266E+01 0.148E+01   -.147E-03 -.209E-02 -.146E-03
   -.170E+01 -.163E+01 0.704E+01   0.249E+01 0.105E+01 -.523E+01   -.895E+00 0.563E+00 -.175E+01   -.820E-04 -.837E-03 -.845E-04
   0.704E+01 -.163E+01 -.170E+01   -.523E+01 0.105E+01 0.249E+01   -.175E+01 0.563E+00 -.895E+00   -.826E-04 -.837E-03 -.812E-04
   -.133E+02 -.133E+02 0.120E+02   0.117E+02 0.117E+02 -.101E+02   0.164E+01 0.164E+01 -.172E+01   -.801E-03 -.801E-03 0.122E-02
   0.747E+01 -.812E+01 -.595E+01   -.635E+01 0.647E+01 0.478E+01   -.117E+01 0.167E+01 0.125E+01   0.752E-03 0.113E-02 -.700E-04
   0.718E+01 0.718E+01 0.204E+02   -.603E+01 -.603E+01 -.177E+02   -.119E+01 -.119E+01 -.261E+01   -.642E-03 -.642E-03 -.297E-02
   -.812E+01 0.747E+01 -.595E+01   0.647E+01 -.635E+01 0.478E+01   0.167E+01 -.117E+01 0.125E+01   0.113E-02 0.752E-03 -.700E-04
   0.114E+02 0.114E+02 -.757E+01   -.104E+02 -.104E+02 0.710E+01   -.101E+01 -.101E+01 0.404E+00   0.385E-03 0.385E-03 0.183E-03
   -.170E+01 0.704E+01 -.163E+01   0.249E+01 -.523E+01 0.105E+01   -.895E+00 -.175E+01 0.563E+00   -.817E-04 -.831E-04 -.838E-03
   -.737E+01 -.737E+01 -.117E+02   0.592E+01 0.592E+01 0.889E+01   0.148E+01 0.148E+01 0.266E+01   -.147E-03 -.147E-03 -.209E-02
   0.704E+01 -.170E+01 -.163E+01   -.523E+01 0.249E+01 0.105E+01   -.175E+01 -.895E+00 0.563E+00   -.831E-04 -.817E-04 -.838E-03
   -.133E+02 0.120E+02 -.133E+02   0.117E+02 -.101E+02 0.117E+02   0.164E+01 -.172E+01 0.164E+01   -.801E-03 0.122E-02 -.799E-03
   0.718E+01 0.204E+02 0.718E+01   -.603E+01 -.177E+02 -.603E+01   -.119E+01 -.261E+01 -.119E+01   -.643E-03 -.297E-02 -.644E-03
   0.747E+01 -.595E+01 -.812E+01   -.635E+01 0.478E+01 0.647E+01   -.117E+01 0.125E+01 0.167E+01   0.751E-03 -.706E-04 0.113E-02
   -.812E+01 -.595E+01 0.747E+01   0.647E+01 0.478E+01 -.635E+01   0.167E+01 0.125E+01 -.117E+01   0.113E-02 -.707E-04 0.751E-03
   0.120E+02 -.133E+02 -.133E+02   -.101E+02 0.117E+02 0.117E+02   -.172E+01 0.164E+01 0.164E+01   0.122E-02 -.801E-03 -.799E-03
   -.595E+01 -.812E+01 0.747E+01   0.478E+01 0.647E+01 -.635E+01   0.125E+01 0.167E+01 -.117E+01   -.707E-04 0.113E-02 0.751E-03
   -.595E+01 0.747E+01 -.812E+01   0.478E+01 -.635E+01 0.647E+01   0.125E+01 -.117E+01 0.167E+01   -.706E-04 0.751E-03 0.113E-02
   0.204E+02 0.718E+01 0.718E+01   -.177E+02 -.603E+01 -.603E+01   -.261E+01 -.119E+01 -.119E+01   -.297E-02 -.643E-03 -.644E-03
   -.122E+02 -.122E+02 -.122E+02   0.105E+02 0.105E+02 0.105E+02   0.171E+01 0.171E+01 0.171E+01   -.160E-02 -.160E-02 -.160E-02
   0.733E+01 -.271E+02 0.733E+01   -.614E+01 0.220E+02 -.614E+01   -.132E+01 0.521E+01 -.132E+01   0.417E-03 0.788E-03 0.416E-03
   0.733E+01 0.733E+01 -.271E+02   -.614E+01 -.614E+01 0.220E+02   -.132E+01 -.132E+01 0.521E+01   0.417E-03 0.417E-03 0.790E-03
   -.271E+02 0.733E+01 0.733E+01   0.220E+02 -.614E+01 -.614E+01   0.521E+01 -.132E+01 -.132E+01   0.788E-03 0.417E-03 0.416E-03
   0.226E+01 0.226E+01 0.226E+01   -.168E+01 -.168E+01 -.168E+01   -.587E+00 -.587E+00 -.587E+00   0.162E-04 0.162E-04 0.159E-04
 -----------------------------------------------------------------------------------------------
   0.355E+00 0.355E+00 0.355E+00   0.386E-13 0.273E-13 0.910E-14   -.356E+00 -.356E+00 -.356E+00   0.734E-04 0.734E-04 0.735E-04
 
 
 POSITION                                       TOTAL-FORCE (eV/Angst)
 -----------------------------------------------------------------------------------
      0.07846      0.07846      0.07846        -0.021651     -0.021651     -0.021651
      2.02847      0.12661      2.02847        -0.011662      0.152799     -0.011662
      2.02847      2.02847      0.12661        -0.011662     -0.011662      0.152799
      0.12661      2.02847      2.02847         0.152799     -0.011662     -0.011662
      3.94011      0.03871      0.03871        -0.060410      0.062171      0.062171
      5.95122      0.22225      1.98789        -0.012641      0.064191     -0.108438
      5.95122      1.98789      0.22225        -0.012641     -0.108438      0.064191
      3.87693      1.95973      1.95973        -0.102135      0.018749      0.018749
      0.03871      3.94011      0.03871         0.062171     -0.060410      0.062171
      1.95973      3.87693      1.95973         0.018749     -0.102135      0.018749
      1.98789      5.95122      0.22225        -0.108438     -0.012641      0.064191
      0.22225      5.95122      1.98789         0.064191     -0.012641     -0.108438
      3.94671      3.94671      0.04368        -0.041222     -0.041222      0.092111
      6.11995      3.89970      1.91343        -0.045708      0.017063      0.077044
      6.21708      6.21708      0.38184        -0.039257     -0.039257      0.098526
      3.89970      6.11995      1.91343         0.017063     -0.045708      0.077044
      0.03871      0.03871      3.94011         0.062171      0.062171     -0.060410
      1.98789      0.22225      5.95122        -0.108438      0.064191     -0.012641
      1.95973      1.95973      3.87693         0.018749      0.018749     -0.102135
      0.22225      1.98789      5.95122         0.064191     -0.108438     -0.012641
      3.94671      0.04368      3.94671        -0.041222      0.092111     -0.041222
      6.21708      0.38184      6.21708        -0.039257      0.098526     -0.039257
      6.11995      1.91343      3.89970        -0.045708      0.077044      0.017063
      3.89970      1.91343      6.11995         0.017063      0.077044     -0.045708
      0.04368      3.94671      3.94671         0.092111     -0.041222     -0.041222
      1.91343      3.89970      6.11995         0.077044      0.017063     -0.045708
      1.91343      6.11995      3.89970         0.077044     -0.045708      0.017063
      0.38184      6.21708      6.21708         0.098526     -0.039257     -0.039257
      3.95440      3.95440      3.95440        -0.002773     -0.002773     -0.002773
      6.18579      3.23800      6.18579        -0.125652      0.136634     -0.125652
      6.18579      6.18579      3.23800        -0.125652     -0.125652      0.136634
      3.23800      6.18579      6.18579         0.136634     -0.125652     -0.125652
      5.80006      5.80006      5.80006        -0.002377     -0.002377     -0.002377
 -----------------------------------------------------------------------------------
    total drift:                               -0.000684     -0.000684     -0.000682
 d Force = 0.1372493E-01[-0.164E-02, 0.291E-01]  d Energy = 0.1388151E-01-0.157E-03
 d Force = 0.6790236E+00[ 0.525E+00, 0.833E+00]  d Ewald  = 0.6785350E+00 0.489E-03


--------------------------------------------------------------------------------------------------------


    POTLOK:  cpu time    0.07: real time    0.07


--------------------------------------------------------------------------------------------------------


  FORCES: max atom, RMS     0.224155    0.124406
  FORCE total and by dimension    0.714657    0.152799


--------------------------------------------------------------------------------------------------------


  
 reached required accuracy - stopping structural energy minimisation
     LOOP+:  cpu time    2.95: real time    3.04
    4ORBIT:  cpu time    0.00: real time    0.00

 total amount of memory used by VASP on root node  55665. kBytes
========================================================================

   base      :    30000. kBytes
   nonl-proj :     4093. kBytes
   fftplans  :     1413. kBytes
   grid      :    19745. kBytes
   one-center:      101. kBytes
   wavefun   :      313. kBytes
 
  
  
 General timing and accounting informations for this job:
 ========================================================
  
                  Total CPU time used (sec):       76.816
                            User time (sec):       76.368
                          System time (sec):        0.448
                         Elapsed time (sec):       79.289
  
                   Maximum memory used (kb):           0.
                   Average memory used (kb):           0.
  
                          Minor page faults:        26911
                          Major page faults:            0
                 Voluntary context switches:         7010
