   8   8   0   0
  0.2226630E+02  0.5626600E-09  0.5626600E-09  0.5626600E-09  0.5000000E-15
  1.000000000000000E-004
  CAR 
 unknown system                          
     11.45029748    -13.38432566  301      3.78253672      1.00000000
    -13.384  0.0000E+00  0.0000E+00  0.0000E+00  0.0000E+00
    -13.302  0.0000E+00  0.0000E+00  0.0000E+00  0.0000E+00
    -13.219  0.0000E+00  0.0000E+00  0.0000E+00  0.0000E+00
    -13.136  0.0000E+00  0.0000E+00  0.0000E+00  0.0000E+00
    -13.053 -0.1529E-28 -0.1639E-28 -0.1265E-29 -0.1357E-29
    -12.970 -0.1459E-25 -0.1560E-25 -0.1209E-26 -0.1293E-26
    -12.888 -0.8475E-23 -0.9030E-23 -0.7028E-24 -0.7488E-24
    -12.805 -0.3493E-20 -0.3708E-20 -0.2898E-21 -0.3077E-21
    -12.722 -0.1021E-17 -0.1080E-17 -0.8482E-19 -0.8974E-19
    -12.639 -0.2117E-15 -0.2232E-15 -0.1761E-16 -0.1857E-16
    -12.557 -0.3045E-13 -0.3202E-13 -0.2538E-14 -0.2670E-14
    -12.474 -0.3137E-11 -0.3284E-11 -0.2622E-12 -0.2745E-12
    -12.391 -0.2302E-09 -0.2402E-09 -0.1932E-10 -0.2016E-10
    -12.308 -0.1195E-07 -0.1242E-07 -0.1008E-08 -0.1048E-08
    -12.225 -0.4377E-06 -0.4534E-06 -0.3724E-07 -0.3858E-07
    -12.143 -0.1130E-04 -0.1167E-04 -0.9728E-06 -0.1004E-05
    -12.060 -0.2051E-03 -0.2110E-03 -0.1795E-04 -0.1847E-04
    -11.977 -0.2607E-02 -0.2672E-02 -0.2338E-03 -0.2396E-03
    -11.894 -0.2306E-01 -0.2354E-01 -0.2143E-02 -0.2188E-02
    -11.811 -0.1403E+00 -0.1427E+00 -0.1376E-01 -0.1400E-01
    -11.729 -0.5726E+00 -0.5798E+00 -0.6116E-01 -0.6199E-01
    -11.646 -0.1459E+01 -0.1469E+01 -0.1819E+00 -0.1836E+00
    -11.563 -0.1652E+01 -0.1640E+01 -0.3187E+00 -0.3193E+00
    -11.480  0.2828E+01  0.2920E+01 -0.8455E-01 -0.7760E-01
    -11.398  0.1680E+02  0.1701E+02  0.1307E+01  0.1330E+01
    -11.315  0.3810E+02  0.3832E+02  0.4460E+01  0.4503E+01
    -11.232  0.5282E+02  0.5288E+02  0.8833E+01  0.8880E+01
    -11.149  0.4725E+02  0.4708E+02  0.1274E+02  0.1278E+02
    -11.066  0.2580E+02  0.2555E+02  0.1488E+02  0.1489E+02
    -10.984  0.6284E+01  0.6136E+01  0.1540E+02  0.1540E+02
    -10.901 -0.1717E+01 -0.1748E+01  0.1526E+02  0.1526E+02
    -10.818 -0.2057E+01 -0.2044E+01  0.1509E+02  0.1509E+02
    -10.735 -0.8331E+00 -0.8226E+00  0.1502E+02  0.1502E+02
    -10.653 -0.1992E+00 -0.1957E+00  0.1500E+02  0.1500E+02
    -10.570 -0.3114E-01 -0.3046E-01  0.1500E+02  0.1500E+02
    -10.487 -0.3305E-02 -0.3221E-02  0.1500E+02  0.1500E+02
    -10.404 -0.2425E-03 -0.2354E-03  0.1500E+02  0.1500E+02
    -10.321 -0.1242E-04 -0.1201E-04  0.1500E+02  0.1500E+02
    -10.239 -0.4560E-06 -0.4397E-06  0.1500E+02  0.1500E+02
    -10.156 -0.3400E-06 -0.3404E-06  0.1500E+02  0.1500E+02
    -10.073 -0.7756E-05 -0.7773E-05  0.1500E+02  0.1500E+02
     -9.990 -0.1269E-03 -0.1271E-03  0.1500E+02  0.1500E+02
     -9.907 -0.1425E-02 -0.1428E-02  0.1500E+02  0.1500E+02
     -9.825 -0.1080E-01 -0.1082E-01  0.1500E+02  0.1500E+02
     -9.742 -0.5342E-01 -0.5348E-01  0.1499E+02  0.1499E+02
     -9.659 -0.1585E+00 -0.1586E+00  0.1498E+02  0.1498E+02
     -9.576 -0.1977E+00 -0.1976E+00  0.1497E+02  0.1497E+02
     -9.494  0.3470E+00  0.3478E+00  0.1499E+02  0.1499E+02
     -9.411  0.1934E+01  0.1936E+01  0.1515E+02  0.1515E+02
     -9.328  0.3732E+01  0.3733E+01  0.1546E+02  0.1546E+02
     -9.245  0.3959E+01  0.3959E+01  0.1579E+02  0.1579E+02
     -9.162  0.2358E+01  0.2357E+01  0.1599E+02  0.1599E+02
     -9.080  0.5985E+00  0.5975E+00  0.1604E+02  0.1604E+02
     -8.997 -0.1548E+00 -0.1550E+00  0.1602E+02  0.1602E+02
     -8.914 -0.1833E+00 -0.1832E+00  0.1601E+02  0.1601E+02
     -8.831 -0.7058E-01 -0.7052E-01  0.1600E+02  0.1600E+02
     -8.749 -0.1575E-01 -0.1573E-01  0.1600E+02  0.1600E+02
     -8.666 -0.2269E-02 -0.2266E-02  0.1600E+02  0.1600E+02
     -8.583 -0.2640E-03 -0.2638E-03  0.1600E+02  0.1600E+02
     -8.500 -0.5999E-03 -0.6015E-03  0.1600E+02  0.1600E+02
     -8.417 -0.5181E-02 -0.5193E-02  0.1600E+02  0.1600E+02
     -8.335 -0.3040E-01 -0.3045E-01  0.1600E+02  0.1600E+02
     -8.252 -0.1117E+00 -0.1119E+00  0.1599E+02  0.1599E+02
     -8.169 -0.2143E+00 -0.2144E+00  0.1597E+02  0.1597E+02
     -8.086  0.2251E-01  0.2325E-01  0.1597E+02  0.1597E+02
     -8.003  0.1210E+01  0.1212E+01  0.1607E+02  0.1607E+02
     -7.921  0.3127E+01  0.3129E+01  0.1633E+02  0.1633E+02
     -7.838  0.4103E+01  0.4103E+01  0.1667E+02  0.1667E+02
     -7.755  0.2970E+01  0.2967E+01  0.1692E+02  0.1692E+02
     -7.672  0.8270E+00  0.8246E+00  0.1698E+02  0.1698E+02
     -7.590 -0.3134E+00 -0.3133E+00  0.1696E+02  0.1696E+02
     -7.507  0.8972E+00  0.9014E+00  0.1703E+02  0.1703E+02
     -7.424  0.4473E+01  0.4479E+01  0.1740E+02  0.1740E+02
     -7.341  0.7829E+01  0.7832E+01  0.1805E+02  0.1805E+02
     -7.258  0.7541E+01  0.7537E+01  0.1868E+02  0.1868E+02
     -7.176  0.4000E+01  0.3993E+01  0.1901E+02  0.1901E+02
     -7.093  0.7659E+00  0.7623E+00  0.1907E+02  0.1907E+02
     -7.010 -0.3858E+00 -0.3863E+00  0.1904E+02  0.1904E+02
     -6.927 -0.3250E+00 -0.3246E+00  0.1901E+02  0.1901E+02
     -6.845 -0.1118E+00 -0.1115E+00  0.1900E+02  0.1900E+02
     -6.762 -0.2295E-01 -0.2288E-01  0.1900E+02  0.1900E+02
     -6.679 -0.3069E-02 -0.3058E-02  0.1900E+02  0.1900E+02
     -6.596 -0.2768E-03 -0.2756E-03  0.1900E+02  0.1900E+02
     -6.513 -0.1713E-04 -0.1704E-04  0.1900E+02  0.1900E+02
     -6.431 -0.7348E-06 -0.7308E-06  0.1900E+02  0.1900E+02
     -6.348 -0.2201E-07 -0.2188E-07  0.1900E+02  0.1900E+02
     -6.265 -0.1865E-08 -0.1865E-08  0.1900E+02  0.1900E+02
     -6.182 -0.5698E-07 -0.5707E-07  0.1900E+02  0.1900E+02
     -6.100 -0.1616E-05 -0.1619E-05  0.1900E+02  0.1900E+02
     -6.017 -0.3191E-04 -0.3195E-04  0.1900E+02  0.1900E+02
     -5.934 -0.4349E-03 -0.4354E-03  0.1900E+02  0.1900E+02
     -5.851 -0.4041E-02 -0.4045E-02  0.1900E+02  0.1900E+02
     -5.768 -0.2500E-01 -0.2502E-01  0.1900E+02  0.1900E+02
     -5.686 -0.9790E-01 -0.9795E-01  0.1899E+02  0.1899E+02
     -5.603 -0.2082E+00 -0.2083E+00  0.1897E+02  0.1897E+02
     -5.520 -0.4777E-01 -0.4753E-01  0.1897E+02  0.1897E+02
     -5.437  0.1004E+01  0.1005E+01  0.1905E+02  0.1905E+02
     -5.354  0.2902E+01  0.2903E+01  0.1929E+02  0.1929E+02
     -5.272  0.4117E+01  0.4117E+01  0.1963E+02  0.1963E+02
     -5.189  0.3321E+01  0.3320E+01  0.1991E+02  0.1991E+02
     -5.106  0.1405E+01  0.1405E+01  0.2002E+02  0.2002E+02
     -5.023  0.9777E-01  0.9741E-01  0.2003E+02  0.2003E+02
     -4.941 -0.2159E+00 -0.2159E+00  0.2001E+02  0.2001E+02
     -4.858 -0.1246E+00 -0.1245E+00  0.2000E+02  0.2000E+02
     -4.775 -0.3593E-01 -0.3590E-01  0.2000E+02  0.2000E+02
     -4.692 -0.6421E-02 -0.6415E-02  0.2000E+02  0.2000E+02
     -4.609 -0.7578E-03 -0.7570E-03  0.2000E+02  0.2000E+02
     -4.527 -0.6071E-04 -0.6063E-04  0.2000E+02  0.2000E+02
     -4.444 -0.3350E-05 -0.3346E-05  0.2000E+02  0.2000E+02
     -4.361 -0.1285E-06 -0.1282E-06  0.2000E+02  0.2000E+02
     -4.278 -0.3441E-08 -0.3434E-08  0.2000E+02  0.2000E+02
     -4.196 -0.6462E-10 -0.6449E-10  0.2000E+02  0.2000E+02
     -4.113 -0.8864E-12 -0.8842E-12  0.2000E+02  0.2000E+02
     -4.030 -0.3451E-11 -0.3493E-11  0.2000E+02  0.2000E+02
     -3.947 -0.2468E-09 -0.2495E-09  0.2000E+02  0.2000E+02
     -3.864 -0.1243E-07 -0.1256E-07  0.2000E+02  0.2000E+02
     -3.782 -0.4388E-06 -0.4429E-06  0.2000E+02  0.2000E+02
     -3.699 -0.1081E-04 -0.1090E-04  0.2000E+02  0.2000E+02
     -3.616 -0.1850E-03 -0.1863E-03  0.2000E+02  0.2000E+02
     -3.533 -0.2175E-02 -0.2189E-02  0.2000E+02  0.2000E+02
     -3.450 -0.1731E-01 -0.1740E-01  0.2000E+02  0.2000E+02
     -3.368 -0.9036E-01 -0.9071E-01  0.1999E+02  0.1999E+02
     -3.285 -0.2874E+00 -0.2881E+00  0.1997E+02  0.1997E+02
     -3.202 -0.4201E+00 -0.4197E+00  0.1993E+02  0.1993E+02
     -3.119  0.4563E+00  0.4613E+00  0.1997E+02  0.1997E+02
     -3.037  0.3399E+01  0.3410E+01  0.2025E+02  0.2025E+02
     -2.954  0.7135E+01  0.7143E+01  0.2084E+02  0.2084E+02
     -2.871  0.8096E+01  0.8093E+01  0.2151E+02  0.2151E+02
     -2.788  0.5195E+01  0.5184E+01  0.2194E+02  0.2194E+02
     -2.705  0.1528E+01  0.1520E+01  0.2207E+02  0.2207E+02
     -2.623 -0.2325E+00 -0.2345E+00  0.2205E+02  0.2205E+02
     -2.540 -0.3912E+00 -0.3907E+00  0.2202E+02  0.2202E+02
     -2.457 -0.1635E+00 -0.1630E+00  0.2200E+02  0.2200E+02
     -2.374 -0.3866E-01 -0.3848E-01  0.2200E+02  0.2200E+02
     -2.292 -0.5848E-02 -0.5815E-02  0.2200E+02  0.2200E+02
     -2.209 -0.5920E-03 -0.5880E-03  0.2200E+02  0.2200E+02
     -2.126 -0.4096E-04 -0.4064E-04  0.2200E+02  0.2200E+02
     -2.043 -0.2086E-05 -0.2069E-05  0.2200E+02  0.2200E+02
     -1.960 -0.3376E-05 -0.3391E-05  0.2200E+02  0.2200E+02
     -1.878 -0.6008E-04 -0.6034E-04  0.2200E+02  0.2200E+02
     -1.795 -0.7510E-03 -0.7537E-03  0.2200E+02  0.2200E+02
     -1.712 -0.6373E-02 -0.6392E-02  0.2200E+02  0.2200E+02
     -1.629 -0.3572E-01 -0.3580E-01  0.2200E+02  0.2200E+02
     -1.546 -0.1241E+00 -0.1243E+00  0.2199E+02  0.2199E+02
     -1.464 -0.2159E+00 -0.2159E+00  0.2197E+02  0.2197E+02
     -1.381  0.9489E-01  0.9605E-01  0.2198E+02  0.2198E+02
     -1.298  0.1398E+01  0.1401E+01  0.2209E+02  0.2209E+02
     -1.215  0.3314E+01  0.3317E+01  0.2237E+02  0.2237E+02
     -1.133  0.4118E+01  0.4117E+01  0.2271E+02  0.2271E+02
     -1.050  0.2906E+01  0.2903E+01  0.2295E+02  0.2295E+02
     -0.967  0.9886E+00  0.9861E+00  0.2303E+02  0.2303E+02
     -0.884 -0.1335E+00 -0.1345E+00  0.2302E+02  0.2302E+02
     -0.801 -0.4095E+00 -0.4095E+00  0.2298E+02  0.2298E+02
     -0.719 -0.1918E+00 -0.1911E+00  0.2297E+02  0.2297E+02
     -0.636  0.8195E+00  0.8217E+00  0.2304E+02  0.2304E+02
     -0.553  0.2664E+01  0.2667E+01  0.2326E+02  0.2326E+02
     -0.470  0.3894E+01  0.3895E+01  0.2358E+02  0.2358E+02
     -0.388  0.3068E+01  0.3065E+01  0.2383E+02  0.2383E+02
     -0.305  0.1445E+01  0.1444E+01  0.2395E+02  0.2395E+02
     -0.222  0.2036E+01  0.2040E+01  0.2412E+02  0.2412E+02
     -0.139  0.5414E+01  0.5421E+01  0.2457E+02  0.2457E+02
     -0.056  0.8068E+01  0.8070E+01  0.2524E+02  0.2524E+02
      0.026  0.6753E+01  0.6747E+01  0.2580E+02  0.2580E+02
      0.109  0.2973E+01  0.2967E+01  0.2604E+02  0.2604E+02
      0.192  0.2652E+00  0.2624E+00  0.2606E+02  0.2606E+02
      0.275 -0.4357E+00 -0.4358E+00  0.2603E+02  0.2603E+02
      0.357 -0.2954E+00 -0.2952E+00  0.2600E+02  0.2600E+02
      0.440 -0.2295E+00 -0.2299E+00  0.2599E+02  0.2599E+02
      0.523 -0.3939E+00 -0.3944E+00  0.2595E+02  0.2595E+02
      0.606 -0.2739E+00 -0.2721E+00  0.2593E+02  0.2593E+02
      0.689  0.1365E+01  0.1373E+01  0.2604E+02  0.2604E+02
      0.771  0.4967E+01  0.4978E+01  0.2645E+02  0.2646E+02
      0.854  0.8016E+01  0.8020E+01  0.2712E+02  0.2712E+02
      0.937  0.7280E+01  0.7272E+01  0.2772E+02  0.2772E+02
      1.020  0.3544E+01  0.3533E+01  0.2801E+02  0.2801E+02
      1.103  0.3744E+00  0.3686E+00  0.2804E+02  0.2804E+02
      1.185 -0.5417E+00 -0.5410E+00  0.2800E+02  0.2800E+02
      1.268  0.4008E+00  0.4065E+00  0.2803E+02  0.2803E+02
      1.351  0.2414E+01  0.2421E+01  0.2823E+02  0.2823E+02
      1.434  0.4000E+01  0.4003E+01  0.2856E+02  0.2857E+02
      1.516  0.3627E+01  0.3622E+01  0.2886E+02  0.2887E+02
      1.599  0.1783E+01  0.1776E+01  0.2901E+02  0.2901E+02
      1.682  0.2691E+00  0.2656E+00  0.2903E+02  0.2903E+02
      1.765 -0.2065E+00 -0.2069E+00  0.2902E+02  0.2902E+02
      1.848 -0.1496E+00 -0.1491E+00  0.2900E+02  0.2900E+02
      1.930 -0.5346E-01 -0.5325E-01  0.2900E+02  0.2900E+02
      2.013 -0.4577E-01 -0.4590E-01  0.2900E+02  0.2900E+02
      2.096 -0.1578E+00 -0.1584E+00  0.2898E+02  0.2898E+02
      2.179 -0.3843E+00 -0.3850E+00  0.2895E+02  0.2895E+02
      2.261 -0.2579E+00 -0.2557E+00  0.2893E+02  0.2893E+02
      2.344  0.1426E+01  0.1435E+01  0.2905E+02  0.2905E+02
      2.427  0.5053E+01  0.5066E+01  0.2947E+02  0.2947E+02
      2.510  0.8050E+01  0.8054E+01  0.3013E+02  0.3014E+02
      2.593  0.7238E+01  0.7229E+01  0.3073E+02  0.3073E+02
      2.675  0.3538E+01  0.3525E+01  0.3103E+02  0.3103E+02
      2.758  0.5237E+00  0.5177E+00  0.3107E+02  0.3107E+02
      2.841 -0.4143E+00 -0.4149E+00  0.3103E+02  0.3103E+02
      2.924 -0.2963E+00 -0.2955E+00  0.3101E+02  0.3101E+02
      3.007 -0.9590E-01 -0.9548E-01  0.3100E+02  0.3100E+02
      3.089 -0.2549E-01 -0.2537E-01  0.3100E+02  0.3100E+02
      3.172 -0.4069E-01 -0.4063E-01  0.3100E+02  0.3100E+02
      3.255 -0.1300E+00 -0.1300E+00  0.3099E+02  0.3099E+02
      3.338 -0.2153E+00 -0.2153E+00  0.3097E+02  0.3097E+02
      3.420  0.1312E+00  0.1306E+00  0.3098E+02  0.3098E+02
      3.503  0.1485E+01  0.1484E+01  0.3110E+02  0.3110E+02
      3.586  0.3393E+01  0.3391E+01  0.3138E+02  0.3138E+02
      3.669  0.4103E+01  0.4104E+01  0.3172E+02  0.3172E+02
      3.752  0.2819E+01  0.2820E+01  0.3196E+02  0.3196E+02
      3.834  0.9346E+00  0.9358E+00  0.3203E+02  0.3203E+02
      3.917 -0.6897E-01 -0.6861E-01  0.3203E+02  0.3203E+02
      4.000 -0.2052E+00 -0.2053E+00  0.3201E+02  0.3201E+02
      4.083 -0.9326E-01 -0.9334E-01  0.3200E+02  0.3200E+02
      4.165 -0.2331E-01 -0.2333E-01  0.3200E+02  0.3200E+02
      4.248 -0.3698E-02 -0.3704E-02  0.3200E+02  0.3200E+02
      4.331 -0.3913E-03 -0.3921E-03  0.3200E+02  0.3200E+02
      4.414 -0.3014E-04 -0.3020E-04  0.3200E+02  0.3200E+02
      4.497 -0.3820E-04 -0.3814E-04  0.3200E+02  0.3200E+02
      4.579 -0.4923E-03 -0.4915E-03  0.3200E+02  0.3200E+02
      4.662 -0.4490E-02 -0.4484E-02  0.3200E+02  0.3200E+02
      4.745 -0.2731E-01 -0.2728E-01  0.3200E+02  0.3200E+02
      4.828 -0.1057E+00 -0.1056E+00  0.3199E+02  0.3199E+02
      4.911 -0.2289E+00 -0.2288E+00  0.3197E+02  0.3197E+02
      4.993 -0.1124E+00 -0.1127E+00  0.3196E+02  0.3196E+02
      5.076  0.7971E+00  0.7961E+00  0.3203E+02  0.3203E+02
      5.159  0.2579E+01  0.2578E+01  0.3224E+02  0.3224E+02
      5.242  0.4603E+01  0.4603E+01  0.3262E+02  0.3262E+02
      5.324  0.6673E+01  0.6673E+01  0.3317E+02  0.3317E+02
      5.407  0.8479E+01  0.8479E+01  0.3388E+02  0.3387E+02
      5.490  0.8145E+01  0.8145E+01  0.3455E+02  0.3455E+02
      5.573  0.4939E+01  0.4940E+01  0.3496E+02  0.3496E+02
      5.656  0.1380E+01  0.1380E+01  0.3507E+02  0.3507E+02
      5.738 -0.2733E+00 -0.2732E+00  0.3505E+02  0.3505E+02
      5.821 -0.3950E+00 -0.3951E+00  0.3502E+02  0.3502E+02
      5.904 -0.1622E+00 -0.1623E+00  0.3500E+02  0.3500E+02
      5.987 -0.3834E-01 -0.3836E-01  0.3500E+02  0.3500E+02
      6.069 -0.8666E-02 -0.8674E-02  0.3500E+02  0.3500E+02
      6.152 -0.1999E-01 -0.2002E-01  0.3500E+02  0.3500E+02
      6.235 -0.8207E-01 -0.8214E-01  0.3499E+02  0.3499E+02
      6.318 -0.1958E+00 -0.1959E+00  0.3498E+02  0.3498E+02
      6.401 -0.1153E+00 -0.1150E+00  0.3497E+02  0.3497E+02
      6.483  0.7677E+00  0.7687E+00  0.3503E+02  0.3503E+02
      6.566  0.2602E+01  0.2603E+01  0.3524E+02  0.3524E+02
      6.649  0.4037E+01  0.4038E+01  0.3558E+02  0.3558E+02
      6.732  0.3494E+01  0.3493E+01  0.3587E+02  0.3587E+02
      6.815  0.1450E+01  0.1448E+01  0.3599E+02  0.3599E+02
      6.897 -0.2061E+00 -0.2068E+00  0.3597E+02  0.3597E+02
      6.980 -0.4656E-01 -0.4378E-01  0.3597E+02  0.3597E+02
      7.063  0.2589E+01  0.2596E+01  0.3618E+02  0.3618E+02
      7.146  0.6524E+01  0.6530E+01  0.3672E+02  0.3672E+02
      7.228  0.8236E+01  0.8235E+01  0.3740E+02  0.3740E+02
      7.311  0.5885E+01  0.5877E+01  0.3789E+02  0.3789E+02
      7.394  0.2078E+01  0.2071E+01  0.3806E+02  0.3806E+02
      7.477 -0.7306E-01 -0.7512E-01  0.3806E+02  0.3806E+02
      7.560 -0.4192E+00 -0.4190E+00  0.3802E+02  0.3802E+02
      7.642 -0.2013E+00 -0.2009E+00  0.3800E+02  0.3800E+02
      7.725 -0.5922E-01 -0.5907E-01  0.3800E+02  0.3800E+02
      7.808 -0.5531E-01 -0.5534E-01  0.3800E+02  0.3800E+02
      7.891 -0.1881E+00 -0.1883E+00  0.3798E+02  0.3798E+02
      7.973 -0.4110E+00 -0.4111E+00  0.3795E+02  0.3795E+02
      8.056 -0.1349E+00 -0.1341E+00  0.3793E+02  0.3793E+02
      8.139  0.1879E+01  0.1882E+01  0.3809E+02  0.3809E+02
      8.222  0.5647E+01  0.5650E+01  0.3856E+02  0.3856E+02
      8.305  0.8187E+01  0.8187E+01  0.3924E+02  0.3924E+02
      8.387  0.6683E+01  0.6681E+01  0.3979E+02  0.3979E+02
      8.470  0.2755E+01  0.2752E+01  0.4002E+02  0.4002E+02
      8.553  0.1788E+00  0.1766E+00  0.4003E+02  0.4003E+02
      8.636  0.4722E+00  0.4691E+00  0.4007E+02  0.4007E+02
      8.718  0.2521E+01  0.2517E+01  0.4028E+02  0.4028E+02
      8.801  0.4019E+01  0.4018E+01  0.4061E+02  0.4061E+02
      8.884  0.3408E+01  0.3412E+01  0.4089E+02  0.4089E+02
      8.967  0.1502E+01  0.1508E+01  0.4102E+02  0.4102E+02
      9.050  0.6368E-01  0.7359E-01  0.4102E+02  0.4102E+02
      9.132 -0.4122E+00 -0.4037E+00  0.4099E+02  0.4099E+02
      9.215 -0.2410E+00 -0.2716E+00  0.4097E+02  0.4097E+02
      9.298  0.7536E+00  0.6306E+00  0.4103E+02  0.4102E+02
      9.381  0.2630E+01  0.2458E+01  0.4125E+02  0.4122E+02
      9.464  0.4059E+01  0.4002E+01  0.4159E+02  0.4156E+02
      9.546  0.3538E+01  0.3661E+01  0.4188E+02  0.4186E+02
      9.629  0.1661E+01  0.1829E+01  0.4202E+02  0.4201E+02
      9.712  0.2099E+00  0.2920E+00  0.4203E+02  0.4203E+02
      9.795 -0.2114E+00 -0.2042E+00  0.4202E+02  0.4202E+02
      9.877 -0.1412E+00 -0.1519E+00  0.4200E+02  0.4201E+02
      9.960 -0.4390E-01 -0.4962E-01  0.4200E+02  0.4200E+02
     10.043 -0.8335E-02 -0.9794E-02  0.4200E+02  0.4200E+02
     10.126 -0.1039E-02 -0.1264E-02  0.4200E+02  0.4200E+02
     10.209 -0.8768E-04 -0.1103E-03  0.4200E+02  0.4200E+02
     10.291 -0.5089E-05 -0.6608E-05  0.4200E+02  0.4200E+02
     10.374 -0.2050E-06 -0.2747E-06  0.4200E+02  0.4200E+02
     10.457 -0.5765E-08 -0.7968E-08  0.4200E+02  0.4200E+02
     10.540 -0.1136E-09 -0.1620E-09  0.4200E+02  0.4200E+02
     10.622 -0.1574E-11 -0.2312E-11  0.4200E+02  0.4200E+02
     10.705 -0.1609E-13 -0.2414E-13  0.4200E+02  0.4200E+02
     10.788  0.0000E+00  0.0000E+00  0.4200E+02  0.4200E+02
     10.871  0.0000E+00  0.0000E+00  0.4200E+02  0.4200E+02
     10.954  0.0000E+00  0.0000E+00  0.4200E+02  0.4200E+02
     11.036  0.0000E+00  0.0000E+00  0.4200E+02  0.4200E+02
     11.119  0.0000E+00  0.0000E+00  0.4200E+02  0.4200E+02
     11.202  0.0000E+00  0.0000E+00  0.4200E+02  0.4200E+02
     11.285  0.0000E+00  0.0000E+00  0.4200E+02  0.4200E+02
     11.368  0.0000E+00  0.0000E+00  0.4200E+02  0.4200E+02
     11.450  0.0000E+00  0.0000E+00  0.4200E+02  0.4200E+02
