       N       E                     dE             d eps       ncg     rms          rms(c)
DAV:   1     0.429796833602E+03    0.42980E+03   -0.21570E+04   200   0.169E+03
DAV:   2     0.388367112714E+02   -0.39096E+03   -0.37028E+03   168   0.455E+02
DAV:   3    -0.283837731795E+02   -0.67220E+02   -0.64990E+02   188   0.145E+02
DAV:   4    -0.319602884848E+02   -0.35765E+01   -0.35033E+01   208   0.363E+01
DAV:   5    -0.320482074480E+02   -0.87919E-01   -0.87656E-01   192   0.521E+00    0.131E+01
DAV:   6    -0.329095614282E+02   -0.86135E+00   -0.13819E+00   236   0.105E+01    0.493E+00
DAV:   7    -0.330474229300E+02   -0.13786E+00   -0.41704E-01   224   0.455E+00    0.193E+00
DAV:   8    -0.330239830293E+02    0.23440E-01   -0.12350E-01   184   0.158E+00    0.785E-01
DAV:   9    -0.330264313944E+02   -0.24484E-02   -0.24589E-02   200   0.748E-01    0.282E-01
DAV:  10    -0.330276345019E+02   -0.12031E-02   -0.33560E-03   192   0.390E-01    0.107E-01
DAV:  11    -0.330279589058E+02   -0.32440E-03   -0.67710E-04   192   0.193E-01    0.445E-02
DAV:  12    -0.330281165323E+02   -0.15763E-03   -0.19467E-04   152   0.811E-02    0.195E-02
DAV:  13    -0.330281542413E+02   -0.37709E-04   -0.47367E-05   120   0.401E-02
   1 F= -.33028154E+02 E0= -.33032020E+02  d E =0.115958E-01  mag=    -0.0010
