Processors received = 12
script running on host compute-1-25.local
PBS_NODEFILE
compute-1-25
compute-1-25
compute-1-25
compute-1-25
compute-1-25
compute-1-25
compute-1-25
compute-1-25
compute-1-25
compute-1-25
compute-1-25
compute-1-25
 running on   12 nodes
 distr:  one band on    1 nodes,   12 groups
 vasp.5.2.2 15Apr09 complex 
 POSCAR found type information on POSCAR  Al
 POSCAR found :  1 types and   31 ions

 ----------------------------------------------------------------------------- 
|                                                                             |
|  ADVICE TO THIS USER RUNNING 'VASP/VAMP'   (HEAR YOUR MASTER'S VOICE ...):  |
|                                                                             |
|      You have a (more or less) 'large supercell' and for larger cells       |
|      it might be more efficient to use real space projection operators      |
|      So try LREAL= Auto  in the INCAR   file.                               |
|      Mind: If you want to do a very accurate calculations keep the          |
|      reciprocal projection scheme          (i.e. LREAL=.FALSE.)             |
|                                                                             |
 ----------------------------------------------------------------------------- 

 LDA part: xc-table for Pade appr. of Perdew
 POSCAR, INCAR and KPOINTS ok, starting setup
 FFT: planning ...(           1 )
 reading WAVECAR
 entering main loop
       N       E                     dE             d eps       ncg     rms          rms(c)
RMM:   1     0.236198759014E+03    0.23620E+03   -0.15708E+04    72   0.537E+02
RMM:   2    -0.370928538276E+02   -0.27329E+03   -0.26405E+03    72   0.112E+02
RMM:   3    -0.948966071177E+02   -0.57804E+02   -0.56404E+02    72   0.368E+01
RMM:   4    -0.107666042634E+03   -0.12769E+02   -0.11652E+02    72   0.205E+01
RMM:   5    -0.112632435780E+03   -0.49664E+01   -0.37159E+01    72   0.107E+01
RMM:   6    -0.114373438472E+03   -0.17410E+01   -0.13062E+01    72   0.614E+00
RMM:   7    -0.114961200338E+03   -0.58776E+00   -0.48095E+00    72   0.354E+00
RMM:   8    -0.115182083909E+03   -0.22088E+00   -0.18755E+00    72   0.214E+00
RMM:   9    -0.115307022308E+03   -0.12494E+00   -0.11475E+00   165   0.130E+00
RMM:  10    -0.115324813562E+03   -0.17791E-01   -0.12411E-01   156   0.351E-01
RMM:  11    -0.115325807519E+03   -0.99396E-03   -0.66342E-03   129   0.848E-02
RMM:  12    -0.115325841990E+03   -0.34471E-04   -0.30969E-04    90   0.253E-02    0.557E+00
RMM:  13    -0.114455526615E+03    0.87032E+00   -0.10893E+00   144   0.139E+00    0.331E+00
RMM:  14    -0.114204783370E+03    0.25074E+00   -0.20788E-01   144   0.814E-01    0.141E+00
RMM:  15    -0.114149123920E+03    0.55659E-01   -0.43422E-02   144   0.463E-01    0.163E-01
RMM:  16    -0.114147852191E+03    0.12717E-02   -0.34662E-03   145   0.119E-01    0.474E-02
RMM:  17    -0.114147905751E+03   -0.53561E-04   -0.46538E-04   121   0.481E-02
   1 F= -.11414791E+03 E0= -.11413711E+03  d E =-.114148E+03
 curvature:   0.00 expect dE= 0.000E+00 dE for cont linesearch  0.000E+00
 trial: gam= 0.00000 g(F)=  0.250E+00 g(S)=  0.000E+00 ort = 0.000E+00 (trialstep = 0.100E+01)
 search vector abs. value=  0.250E+00
 bond charge predicted
       N       E                     dE             d eps       ncg     rms          rms(c)
RMM:   1    -0.114369269298E+03   -0.22142E+00   -0.16744E+00   144   0.324E+00    0.272E-01
RMM:   2    -0.114362487122E+03    0.67822E-02   -0.21184E-02   145   0.402E-01    0.117E-01
RMM:   3    -0.114361811648E+03    0.67547E-03   -0.33903E-03   144   0.126E-01    0.461E-02
RMM:   4    -0.114361820418E+03   -0.87695E-05   -0.13341E-04    92   0.342E-02
   2 F= -.11436182E+03 E0= -.11434696E+03  d E =-.213915E+00
 trial-energy change:   -0.213915  1 .order   -0.213521   -0.249796   -0.177246
 step:   3.4431(harm=  3.4431)  dis= 0.07276  next Energy=  -114.577939 (dE=-0.430E+00)
 bond charge predicted
       N       E                     dE             d eps       ncg     rms          rms(c)
RMM:   1    -0.114611689782E+03   -0.24988E+00   -0.10206E+01   144   0.793E+00    0.652E-01
RMM:   2    -0.114572417793E+03    0.39272E-01   -0.11951E-01   144   0.971E-01    0.299E-01
RMM:   3    -0.114568345784E+03    0.40720E-02   -0.23068E-02   144   0.306E-01    0.110E-01
RMM:   4    -0.114568354348E+03   -0.85632E-05   -0.90448E-04   143   0.781E-02
   3 F= -.11456835E+03 E0= -.11455134E+03  d E =-.420449E+00
 curvature:  -1.72 expect dE=-0.403E-01 dE for cont linesearch -0.654E-03
 trial: gam= 0.13274 g(F)=  0.234E-01 g(S)=  0.000E+00 ort =-0.974E-02 (trialstep = 0.149E+01)
 search vector abs. value=  0.252E-01
 bond charge predicted
       N       E                     dE             d eps       ncg     rms          rms(c)
RMM:   1    -0.114594906425E+03   -0.26561E-01   -0.29749E-01   144   0.149E+00    0.118E-01
RMM:   2    -0.114593301592E+03    0.16048E-02   -0.47519E-03   144   0.181E-01    0.400E-02
RMM:   3    -0.114593314063E+03   -0.12472E-04   -0.16395E-04   100   0.440E-02
   4 F= -.11459331E+03 E0= -.11457672E+03  d E =-.249597E-01
 trial-energy change:   -0.024960  1 .order   -0.024980   -0.032935   -0.017024
 step:   3.0813(harm=  3.0813)  dis= 0.01762  next Energy=  -114.602441 (dE=-0.341E-01)
 bond charge predicted
       N       E                     dE             d eps       ncg     rms          rms(c)
RMM:   1    -0.114605019644E+03   -0.11718E-01   -0.34208E-01   144   0.159E+00    0.133E-01
RMM:   2    -0.114602893863E+03    0.21258E-02   -0.60032E-03   145   0.198E-01    0.439E-02
RMM:   3    -0.114602913979E+03   -0.20115E-04   -0.15649E-04   100   0.450E-02
   5 F= -.11460291E+03 E0= -.11458615E+03  d E =-.345596E-01
 curvature:  -1.76 expect dE=-0.243E-02 dE for cont linesearch -0.211E-04
 trial: gam=-0.06181 g(F)=  0.138E-02 g(S)=  0.000E+00 ort = 0.551E-03 (trialstep = 0.181E+01)
 search vector abs. value=  0.141E-02
 reached required accuracy - stopping structural energy minimisation
