  31  31   0   0
  0.1706118E+02  0.8087052E-09  0.8087052E-09  0.8087052E-09  0.5000000E-15
  1.000000000000000E-004
  CAR 
 unknown system                          
     13.32203814     -4.93380473  301      7.87833454      1.00000000
     -4.934  0.0000E+00  0.0000E+00
     -4.873  0.0000E+00  0.0000E+00
     -4.812  0.0000E+00  0.0000E+00
     -4.751  0.0000E+00  0.0000E+00
     -4.690  0.0000E+00  0.0000E+00
     -4.630  0.0000E+00  0.0000E+00
     -4.569 -0.3789E-29 -0.2306E-30
     -4.508 -0.4773E-27 -0.2927E-28
     -4.447 -0.5019E-25 -0.3084E-26
     -4.386 -0.4378E-23 -0.2695E-24
     -4.325 -0.3166E-21 -0.1954E-22
     -4.264 -0.1898E-19 -0.1175E-20
     -4.204 -0.9432E-18 -0.5857E-19
     -4.143 -0.3883E-16 -0.2421E-17
     -4.082 -0.1285E-14 -0.8063E-16
     -4.021 -0.3609E-13 -0.2277E-14
     -3.960 -0.8389E-12 -0.5333E-13
     -3.899 -0.1611E-10 -0.1033E-11
     -3.838 -0.2551E-09 -0.1656E-10
     -3.778 -0.3330E-08 -0.2192E-09
     -3.717 -0.3574E-07 -0.2394E-08
     -3.656 -0.3147E-06 -0.2154E-07
     -3.595 -0.2266E-05 -0.1594E-06
     -3.534 -0.1328E-04 -0.9675E-06
     -3.473 -0.6287E-04 -0.4793E-05
     -3.412 -0.2378E-03 -0.1926E-04
     -3.352 -0.7040E-03 -0.6211E-04
     -3.291 -0.1564E-02 -0.1573E-03
     -3.230 -0.2321E-02 -0.2985E-03
     -3.169 -0.1130E-02 -0.3673E-03
     -3.108  0.4958E-02 -0.6554E-04
     -3.047  0.1742E-01  0.9943E-03
     -2.987  0.3276E-01  0.2988E-02
     -2.926  0.4286E-01  0.5596E-02
     -2.865  0.4115E-01  0.8100E-02
     -2.804  0.2879E-01  0.9852E-02
     -2.743  0.1355E-01  0.1068E-01
     -2.682  0.2700E-02  0.1084E-01
     -2.621 -0.1802E-02  0.1073E-01
     -2.561 -0.2205E-02  0.1060E-01
     -2.500 -0.1313E-02  0.1052E-01
     -2.439 -0.5854E-03  0.1048E-01
     -2.378 -0.3699E-03  0.1046E-01
     -2.317 -0.7438E-03  0.1041E-01
     -2.256 -0.1927E-02  0.1030E-01
     -2.195 -0.3883E-02  0.1006E-01
     -2.135 -0.4990E-02  0.9756E-02
     -2.074 -0.7579E-03  0.9710E-02
     -2.013  0.1465E-01  0.1060E-01
     -1.952  0.4269E-01  0.1320E-01
     -1.891  0.7525E-01  0.1778E-01
     -1.830  0.9803E-01  0.2374E-01
     -1.769  0.1013E+00  0.2991E-01
     -1.709  0.8655E-01  0.3518E-01
     -1.648  0.6227E-01  0.3897E-01
     -1.587  0.3700E-01  0.4122E-01
     -1.526  0.1639E-01  0.4222E-01
     -1.465  0.3320E-02  0.4242E-01
     -1.404 -0.2324E-02  0.4228E-01
     -1.343 -0.3111E-02  0.4209E-01
     -1.283 -0.2131E-02  0.4196E-01
     -1.222 -0.1393E-02  0.4187E-01
     -1.161 -0.1731E-02  0.4177E-01
     -1.100 -0.3230E-02  0.4157E-01
     -1.039 -0.4721E-02  0.4128E-01
     -0.978 -0.2488E-02  0.4113E-01
     -0.918  0.9243E-02  0.4169E-01
     -0.857  0.3332E-01  0.4372E-01
     -0.796  0.6322E-01  0.4757E-01
     -0.735  0.8451E-01  0.5271E-01
     -0.674  0.8697E-01  0.5800E-01
     -0.613  0.7451E-01  0.6254E-01
     -0.552  0.5939E-01  0.6615E-01
     -0.492  0.4810E-01  0.6908E-01
     -0.431  0.3779E-01  0.7138E-01
     -0.370  0.2486E-01  0.7289E-01
     -0.309  0.1137E-01  0.7358E-01
     -0.248  0.1834E-02  0.7369E-01
     -0.187 -0.2194E-02  0.7356E-01
     -0.126 -0.2757E-02  0.7339E-01
     -0.066 -0.2771E-02  0.7322E-01
     -0.005 -0.4006E-02  0.7298E-01
      0.056 -0.6131E-02  0.7261E-01
      0.117 -0.5486E-02  0.7227E-01
      0.178  0.5226E-02  0.7259E-01
      0.239  0.3256E-01  0.7457E-01
      0.300  0.7361E-01  0.7905E-01
      0.360  0.1122E+00  0.8588E-01
      0.421  0.1294E+00  0.9376E-01
      0.482  0.1194E+00  0.1010E+00
      0.543  0.9348E-01  0.1067E+00
      0.604  0.6621E-01  0.1107E+00
      0.665  0.4371E-01  0.1134E+00
      0.726  0.2523E-01  0.1149E+00
      0.786  0.1050E-01  0.1156E+00
      0.847  0.1104E-02  0.1156E+00
      0.908 -0.2789E-02  0.1155E+00
      0.969 -0.3522E-02  0.1153E+00
      1.030 -0.4143E-02  0.1150E+00
      1.091 -0.6318E-02  0.1146E+00
      1.151 -0.8596E-02  0.1141E+00
      1.212 -0.4745E-02  0.1138E+00
      1.273  0.1524E-01  0.1147E+00
      1.334  0.5786E-01  0.1183E+00
      1.395  0.1159E+00  0.1253E+00
      1.456  0.1670E+00  0.1355E+00
      1.517  0.1860E+00  0.1468E+00
      1.577  0.1637E+00  0.1568E+00
      1.638  0.1132E+00  0.1636E+00
      1.699  0.6051E-01  0.1673E+00
      1.760  0.2812E-01  0.1690E+00
      1.821  0.2193E-01  0.1704E+00
      1.882  0.3091E-01  0.1722E+00
      1.943  0.3803E-01  0.1746E+00
      2.003  0.3377E-01  0.1766E+00
      2.064  0.2075E-01  0.1779E+00
      2.125  0.7389E-02  0.1783E+00
      2.186 -0.9427E-03  0.1783E+00
      2.247 -0.4631E-02  0.1780E+00
      2.308 -0.6364E-02  0.1776E+00
      2.369 -0.6361E-02  0.1772E+00
      2.429 -0.1820E-03  0.1772E+00
      2.490  0.1872E-01  0.1783E+00
      2.551  0.5181E-01  0.1815E+00
      2.612  0.8928E-01  0.1869E+00
      2.673  0.1135E+00  0.1938E+00
      2.734  0.1115E+00  0.2006E+00
      2.795  0.8548E-01  0.2058E+00
      2.855  0.4972E-01  0.2088E+00
      2.916  0.1946E-01  0.2100E+00
      2.977  0.1963E-02  0.2102E+00
      3.038 -0.4205E-02  0.2099E+00
      3.099 -0.4448E-02  0.2096E+00
      3.160 -0.3605E-02  0.2094E+00
      3.220 -0.4301E-02  0.2091E+00
      3.281 -0.6886E-02  0.2087E+00
      3.342 -0.8588E-02  0.2082E+00
      3.403 -0.2014E-02  0.2081E+00
      3.464  0.2321E-01  0.2095E+00
      3.525  0.7231E-01  0.2139E+00
      3.586  0.1348E+00  0.2221E+00
      3.646  0.1839E+00  0.2333E+00
      3.707  0.1930E+00  0.2450E+00
      3.768  0.1580E+00  0.2546E+00
      3.829  0.1026E+00  0.2609E+00
      3.890  0.5823E-01  0.2644E+00
      3.951  0.3869E-01  0.2668E+00
      4.012  0.3484E-01  0.2689E+00
      4.072  0.3080E-01  0.2708E+00
      4.133  0.2021E-01  0.2720E+00
      4.194  0.6949E-02  0.2724E+00
      4.255 -0.3809E-02  0.2722E+00
      4.316 -0.1049E-01  0.2716E+00
      4.377 -0.1144E-01  0.2709E+00
      4.438  0.3671E-03  0.2709E+00
      4.498  0.3482E-01  0.2730E+00
      4.559  0.9279E-01  0.2787E+00
      4.620  0.1565E+00  0.2882E+00
      4.681  0.1985E+00  0.3003E+00
      4.742  0.2050E+00  0.3127E+00
      4.803  0.1876E+00  0.3242E+00
      4.863  0.1660E+00  0.3343E+00
      4.924  0.1456E+00  0.3431E+00
      4.985  0.1196E+00  0.3504E+00
      5.046  0.8778E-01  0.3557E+00
      5.107  0.6069E-01  0.3594E+00
      5.168  0.4501E-01  0.3622E+00
      5.229  0.3575E-01  0.3643E+00
      5.289  0.2501E-01  0.3659E+00
      5.350  0.1163E-01  0.3666E+00
      5.411 -0.1366E-03  0.3666E+00
      5.472 -0.6365E-02  0.3662E+00
      5.533 -0.4212E-02  0.3659E+00
      5.594  0.9727E-02  0.3665E+00
      5.655  0.3627E-01  0.3687E+00
      5.715  0.6716E-01  0.3728E+00
      5.776  0.8584E-01  0.3780E+00
      5.837  0.7996E-01  0.3829E+00
      5.898  0.5331E-01  0.3861E+00
      5.959  0.2304E-01  0.3875E+00
      6.020  0.5763E-02  0.3879E+00
      6.081  0.7175E-02  0.3883E+00
      6.141  0.2155E-01  0.3896E+00
      6.202  0.3693E-01  0.3919E+00
      6.263  0.4226E-01  0.3945E+00
      6.324  0.3405E-01  0.3965E+00
      6.385  0.1754E-01  0.3976E+00
      6.446  0.1293E-02  0.3977E+00
      6.507 -0.7944E-02  0.3972E+00
      6.567 -0.4824E-02  0.3969E+00
      6.628  0.1586E-01  0.3979E+00
      6.689  0.5435E-01  0.4012E+00
      6.750  0.1002E+00  0.4073E+00
      6.811  0.1380E+00  0.4157E+00
      6.872  0.1619E+00  0.4255E+00
      6.932  0.1773E+00  0.4363E+00
      6.993  0.1852E+00  0.4476E+00
      7.054  0.1735E+00  0.4581E+00
      7.115  0.1336E+00  0.4663E+00
      7.176  0.7680E-01  0.4709E+00
      7.237  0.2683E-01  0.4726E+00
      7.298 -0.1226E-02  0.4725E+00
      7.358 -0.9437E-02  0.4719E+00
      7.419 -0.8483E-02  0.4714E+00
      7.480 -0.6956E-02  0.4710E+00
      7.541 -0.7388E-02  0.4705E+00
      7.602 -0.6466E-02  0.4701E+00
      7.663  0.3484E-02  0.4704E+00
      7.724  0.2943E-01  0.4721E+00
      7.784  0.6877E-01  0.4763E+00
      7.845  0.1063E+00  0.4828E+00
      7.906  0.1267E+00  0.4905E+00
      7.967  0.1330E+00  0.4986E+00
      8.028  0.1443E+00  0.5074E+00
      8.089  0.1718E+00  0.5178E+00
      8.150  0.2014E+00  0.5301E+00
      8.210  0.2066E+00  0.5427E+00
      8.271  0.1756E+00  0.5534E+00
      8.332  0.1212E+00  0.5607E+00
      8.393  0.6580E-01  0.5647E+00
      8.454  0.2515E-01  0.5663E+00
      8.515  0.2934E-02  0.5664E+00
      8.576 -0.5158E-02  0.5661E+00
      8.636 -0.5787E-02  0.5658E+00
      8.697 -0.4461E-02  0.5655E+00
      8.758 -0.4327E-02  0.5652E+00
      8.819 -0.6051E-02  0.5649E+00
      8.880 -0.7082E-02  0.5644E+00
      8.941 -0.7138E-03  0.5644E+00
      9.001  0.2118E-01  0.5657E+00
      9.062  0.5950E-01  0.5693E+00
      9.123  0.1011E+00  0.5755E+00
      9.184  0.1270E+00  0.5832E+00
      9.245  0.1314E+00  0.5912E+00
      9.306  0.1280E+00  0.5990E+00
      9.367  0.1302E+00  0.6069E+00
      9.427  0.1317E+00  0.6149E+00
      9.488  0.1155E+00  0.6219E+00
      9.549  0.7745E-01  0.6267E+00
      9.610  0.3257E-01  0.6286E+00
      9.671 -0.1332E-02  0.6286E+00
      9.732 -0.1612E-01  0.6276E+00
      9.793 -0.9154E-02  0.6270E+00
      9.853  0.2418E-01  0.6285E+00
      9.914  0.8521E-01  0.6337E+00
      9.975  0.1593E+00  0.6434E+00
     10.036  0.2154E+00  0.6565E+00
     10.097  0.2248E+00  0.6701E+00
     10.158  0.1828E+00  0.6813E+00
     10.219  0.1121E+00  0.6881E+00
     10.279  0.4691E-01  0.6909E+00
     10.340  0.1430E-01  0.6918E+00
     10.401  0.2349E-01  0.6932E+00
     10.462  0.6333E-01  0.6971E+00
     10.523  0.1065E+00  0.7036E+00
     10.584  0.1236E+00  0.7111E+00
     10.645  0.1035E+00  0.7174E+00
     10.705  0.6149E-01  0.7211E+00
     10.766  0.2638E-01  0.7227E+00
     10.827  0.1911E-01  0.7239E+00
     10.888  0.3945E-01  0.7263E+00
     10.949  0.6832E-01  0.7305E+00
     11.010  0.8240E-01  0.7355E+00
     11.070  0.7212E-01  0.7399E+00
     11.131  0.4848E-01  0.7428E+00
     11.192  0.3112E-01  0.7447E+00
     11.253  0.2954E-01  0.7465E+00
     11.314  0.3664E-01  0.7487E+00
     11.375  0.3904E-01  0.7511E+00
     11.436  0.3080E-01  0.7530E+00
     11.496  0.1669E-01  0.7540E+00
     11.557  0.4748E-02  0.7543E+00
     11.618 -0.1178E-02  0.7542E+00
     11.679 -0.2330E-02  0.7541E+00
     11.740 -0.1565E-02  0.7540E+00
     11.801 -0.7042E-03  0.7539E+00
     11.862 -0.2378E-03  0.7539E+00
     11.922 -0.6287E-04  0.7539E+00
     11.983 -0.1328E-04  0.7539E+00
     12.044 -0.2266E-05  0.7539E+00
     12.105 -0.3147E-06  0.7539E+00
     12.166 -0.3574E-07  0.7539E+00
     12.227 -0.3330E-08  0.7539E+00
     12.288 -0.2551E-09  0.7539E+00
     12.348 -0.1611E-10  0.7539E+00
     12.409 -0.8389E-12  0.7539E+00
     12.470 -0.3607E-13  0.7539E+00
     12.531 -0.1299E-14  0.7539E+00
     12.592 -0.3821E-16  0.7539E+00
     12.653  0.0000E+00  0.7539E+00
     12.714  0.0000E+00  0.7539E+00
     12.774  0.0000E+00  0.7539E+00
     12.835  0.0000E+00  0.7539E+00
     12.896  0.0000E+00  0.7539E+00
     12.957  0.0000E+00  0.7539E+00
     13.018  0.0000E+00  0.7539E+00
     13.079  0.0000E+00  0.7539E+00
     13.139  0.0000E+00  0.7539E+00
     13.200  0.0000E+00  0.7539E+00
     13.261  0.0000E+00  0.7539E+00
     13.322  0.0000E+00  0.7539E+00
