   31   31  191    1
  0.1706118E+02  0.8087052E-09  0.8087052E-09  0.8087052E-09  0.5000000E-15
  1.000000000000000E-004
  CAR 
 unknown system                          
   93    1   72
 
  0.2500000E+00  0.2500000E+00  0.2500000E+00  0.1000000E+01
   1       -2.933805
   2       -1.858196
   3       -1.858196
   4       -1.686808
   5       -0.743139
   6       -0.743139
   7       -0.497805
   8        0.360357
   9        0.360357
  10        0.426373
  11        0.604820
  12        1.428539
  13        1.428539
  14        1.457790
  15        1.562924
  16        1.562924
  17        1.907562
  18        2.634330
  19        2.634330
  20        2.751959
  21        3.595345
  22        3.595345
  23        3.695963
  24        3.697582
  25        3.697582
  26        3.988722
  27        4.622695
  28        4.622695
  29        4.655016
  30        4.716892
  31        4.716892
  32        4.910461
  33        4.910461
  34        4.914712
  35        5.173874
  36        5.763798
  37        5.763798
  38        6.221816
  39        6.777529
  40        6.793796
  41        6.793797
  42        6.970767
  43        7.022287
  44        7.030833
  45        7.030833
  46        7.835707
  47        7.881635
  48        7.881635
  49        8.096351
  50        8.096351
  51        8.153913
  52        8.195935
  53        8.195935
  54        8.318805
  55        9.149549
  56        9.149549
  57        9.181570
  58        9.408948
  59        9.408948
  60        9.434753
  61        9.987348
  62       10.004012
  63       10.004015
  64       10.052787
  65       10.128810
  66       10.128815
  67       10.532403
  68       10.532500
  69       10.583124
  70       10.976598
  71       10.981685
  72       11.322038
