 vasp.5.2.2 15Apr09 complex 
 executed on             LinuxIFC date 2017.03.17  11:26:44
 running on   12 nodes
 distr:  one band on    1 nodes,   12 groups


--------------------------------------------------------------------------------------------------------


 INCAR:
 POTCAR:   PAW_PBE Al 04Jan2001                   
 POTCAR:   PAW_PBE Al 04Jan2001                   
   VRHFIN =Al: s2p1                                                             
   LEXCH  = PE                                                                  
   EATOM  =    53.5387 eV,    3.9350 Ry                                         
                                                                                
   TITEL  = PAW_PBE Al 04Jan2001                                                
   LULTRA =        F    use ultrasoft PP ?                                      
   IUNSCR =        1    unscreen: 0-lin 1-nonlin 2-no                           
   RPACOR =    1.500    partial core radius                                     
   POMASS =   26.982; ZVAL   =    3.000    mass and valenz                      
   RCORE  =    1.900    outmost cutoff radius                                   
   RWIGS  =    2.650; RWIGS  =    1.402    wigner-seitz radius (au A)           
   ENMAX  =  240.300; ENMIN  =  180.225 eV                                      
   ICORE  =        2    local potential                                         
   LCOR   =        T    correct aug charges                                     
   LPAW   =        T    paw PP                                                  
   EAUG   =  291.052                                                            
   DEXC   =    -.041                                                            
   RMAX   =    2.974    core radius for proj-oper                               
   RAUG   =    1.300    factor for augmentation sphere                          
   RDEP   =    1.966    radius for radial grids                                 
   QCUT   =   -4.203; QGAM   =    8.405    optimization parameters              
                                                                                
   Description                                                                  
     l     E      TYP  RCUT    TYP  RCUT                                        
     0   .000     23  1.900                                                     
     0   .000     23  1.900                                                     
     1   .000     23  1.900                                                     
     1  1.000     23  1.900                                                     
     2   .000      7  1.900                                                     
  local pseudopotential read in
  partial core-charges read in
  atomic valenz-charges read in
  non local Contribution for L=           0  read in
    real space projection operators read in
  non local Contribution for L=           0  read in
    real space projection operators read in
  non local Contribution for L=           1  read in
    real space projection operators read in
  non local Contribution for L=           1  read in
    real space projection operators read in
    PAW grid and wavefunctions read in
 
   number of l-projection  operators is LMAX  =           4
   number of lm-projection operators is LMMAX =           8
 

 ----------------------------------------------------------------------------- 
|                                                                             |
|  ADVICE TO THIS USER RUNNING 'VASP/VAMP'   (HEAR YOUR MASTER'S VOICE ...):  |
|                                                                             |
|      You have a (more or less) 'large supercell' and for larger cells       |
|      it might be more efficient to use real space projection operators      |
|      So try LREAL= Auto  in the INCAR   file.                               |
|      Mind: If you want to do a very accurate calculations keep the          |
|      reciprocal projection scheme          (i.e. LREAL=.FALSE.)             |
|                                                                             |
 ----------------------------------------------------------------------------- 

 PAW_PBE Al 04Jan2001                   :
 energy of atom  1       EATOM=  -53.5387
 kinetic energy error for atom=    0.0011 (will be added to EATOM!!)
 
 
 POSCAR: Al31                                    
  positions in direct lattice
  velocities in cartesian coordinates
 exchange correlation table for  LEXCH =        8
   RHO(1)=    0.500       N(1)  =     2000
   RHO(2)=  100.500       N(2)  =     4000

 VTST: version 2.03d, (02/18/09)

 CHAIN: initializing optimizer
 
 OPT: Using VASP Conjugate-Gradient optimizer
 CHAIN: Read ICHAIN            0
 


--------------------------------------------------------------------------------------------------------


 ion  position               nearest neighbor table
   1  0.000  0.000  0.000-   2 2.86   3 2.86   4 2.86   6 2.86   7 2.86  11 2.86  12 2.86  15 2.86
                            18 2.86  20 2.86  22 2.86  28 2.86
   2  0.250  0.000  0.250-   8 2.82  16 2.82  19 2.82  27 2.82  21 2.85  17 2.86   5 2.86   4 2.86
                             1 2.86   3 2.86  11 2.86  12 2.86
   3  0.250  0.250  0.000-   8 2.82  10 2.82  24 2.82  26 2.82  13 2.85   5 2.86   9 2.86   2 2.86
                            18 2.86  20 2.86   4 2.86   1 2.86
   4  0.000  0.250  0.250-  10 2.82  14 2.82  19 2.82  23 2.82  25 2.85  17 2.86   9 2.86   3 2.86
                             6 2.86   7 2.86   1 2.86   2 2.86
   5  0.500  0.000  0.000-   8 2.78  16 2.78  24 2.78  31 2.78   2 2.86  11 2.86  15 2.86   3 2.86
                            18 2.86  22 2.86   6 2.86   7 2.86
   6  0.750  0.000  0.250-   8 2.82  16 2.82  23 2.82  30 2.82  21 2.85  17 2.86   5 2.86   1 2.86
                             7 2.86   4 2.86  12 2.86  15 2.86
   7  0.750  0.250  0.000-   8 2.82  14 2.82  24 2.82  29 2.82  13 2.85   5 2.86   9 2.86   4 2.86
                            20 2.86  22 2.86   1 2.86   6 2.86
   8  0.500  0.243  0.243-   5 2.78   3 2.82   2 2.82   6 2.82   7 2.82  13 2.86  21 2.86  14 2.94
                            19 2.94  10 2.94  23 2.94
   9  0.000  0.500  0.000-  10 2.78  14 2.78  26 2.78  29 2.78  11 2.86  12 2.86   4 2.86  15 2.86
                            20 2.86   7 2.86  28 2.86   3 2.86
  10  0.243  0.500  0.243-   9 2.78   4 2.82   3 2.82  11 2.82  12 2.82  13 2.86  25 2.86  16 2.94
                            19 2.94   8 2.94  27 2.94
  11  0.250  0.750  0.000-  10 2.82  16 2.82  26 2.82  31 2.82  13 2.85   9 2.86   5 2.86   1 2.86
                            18 2.86  12 2.86  28 2.86   2 2.86
  12  0.000  0.750  0.250-  10 2.82  14 2.82  27 2.82  30 2.82  25 2.85  17 2.86   9 2.86  15 2.86
                             1 2.86   2 2.86  11 2.86   6 2.86
  13  0.500  0.500  0.000-   3 2.85   7 2.85  11 2.85  15 2.85   8 2.86  14 2.86  10 2.86  16 2.86
                            24 2.86  26 2.86  29 2.86  31 2.86
  14  0.757  0.500  0.243-   9 2.78   7 2.82   4 2.82  12 2.82  15 2.82  13 2.86  25 2.86  16 2.94
                            23 2.94   8 2.94  30 2.94
  15  0.750  0.750  0.000-  14 2.82  16 2.82  29 2.82  31 2.82  13 2.85   9 2.86   5 2.86  12 2.86
                            22 2.86  28 2.86   6 2.86   1 2.86
  16  0.500  0.757  0.243-   5 2.78   2 2.82   6 2.82  11 2.82  15 2.82  13 2.86  21 2.86  10 2.94
                            14 2.94  27 2.94  30 2.94
  17  0.000  0.000  0.500-  19 2.78  23 2.78  27 2.78  30 2.78  18 2.86   2 2.86  20 2.86  22 2.86
                             4 2.86   6 2.86  28 2.86  12 2.86
  18  0.250  0.000  0.750-  19 2.82  24 2.82  27 2.82  31 2.82  21 2.85  17 2.86   5 2.86  11 2.86
                             3 2.86   1 2.86  28 2.86  20 2.86
  19  0.243  0.243  0.500-  17 2.78   4 2.82   2 2.82  18 2.82  20 2.82  21 2.86  25 2.86  10 2.94
                            24 2.94   8 2.94  26 2.94
  20  0.000  0.250  0.750-  19 2.82  23 2.82  26 2.82  29 2.82  25 2.85  17 2.86   9 2.86  22 2.86
                             1 2.86   3 2.86  18 2.86   7 2.86
  21  0.500  0.000  0.500-   2 2.85   6 2.85  18 2.85  22 2.85   8 2.86  19 2.86  16 2.86  23 2.86
                            24 2.86  27 2.86  30 2.86  31 2.86
  22  0.750  0.000  0.750-  23 2.82  24 2.82  30 2.82  31 2.82  21 2.85  17 2.86   5 2.86  15 2.86
                             1 2.86  28 2.86  20 2.86   7 2.86
  23  0.757  0.243  0.500-  17 2.78   6 2.82   4 2.82  20 2.82  22 2.82  21 2.86  25 2.86  14 2.94
                            24 2.94   8 2.94  29 2.94
  24  0.500  0.243  0.757-   5 2.78   3 2.82   7 2.82  18 2.82  22 2.82  21 2.86  13 2.86  19 2.94
                            23 2.94  26 2.94  29 2.94
  25  0.000  0.500  0.500-   4 2.85  12 2.85  20 2.85  28 2.85  19 2.86  10 2.86  23 2.86  26 2.86
                            27 2.86  14 2.86  29 2.86  30 2.86
  26  0.243  0.500  0.757-   9 2.78   3 2.82  11 2.82  20 2.82  28 2.82  25 2.86  13 2.86  19 2.94
                            27 2.94  24 2.94  31 2.94
  27  0.243  0.757  0.500-  17 2.78  12 2.82   2 2.82  18 2.82  28 2.82  25 2.86  21 2.86  16 2.94
                            26 2.94  10 2.94  31 2.94
  28  0.000  0.750  0.750-  26 2.82  27 2.82  29 2.82  30 2.82  25 2.85  17 2.86   9 2.86  11 2.86
                            15 2.86   1 2.86  18 2.86  22 2.86
  29  0.757  0.500  0.757-   9 2.78   7 2.82  15 2.82  20 2.82  28 2.82  25 2.86  13 2.86  23 2.94
                            24 2.94  30 2.94  31 2.94
  30  0.757  0.757  0.500-  17 2.78  12 2.82   6 2.82  22 2.82  28 2.82  25 2.86  21 2.86  16 2.94
                            14 2.94  29 2.94  31 2.94
  31  0.500  0.757  0.757-   5 2.78  11 2.82  15 2.82  18 2.82  22 2.82  21 2.86  13 2.86  26 2.94
                            27 2.94  29 2.94  30 2.94
 
  LATTYP: Found a simple cubic cell.
 ALAT       =     8.0870520000
  
  Lattice vectors:
  
 A1 = (   8.0870520000,   0.0000000000,   0.0000000000)
 A2 = (   0.0000000000,   8.0870520000,   0.0000000000)
 A3 = (   0.0000000000,   0.0000000000,   8.0870520000)
 Subroutine PRICEL returns:
 Original cell was already a primitive cell.
 

Analysis of symmetry for initial positions (statically):

 Routine SETGRP: Setting up the symmetry group for a 
 simple cubic supercell.


 Subroutine GETGRP returns: Found 48 space group operations
 (whereof 48 operations were pure point group operations)
 out of a pool of 48 trial point group operations.


The static configuration has the point symmetry O_h .

Analysis of symmetry for dynamics (positions and initial velocities):

 Subroutine DYNSYM returns: Found 48 space group operations
 (whereof 48 operations were pure point group operations)
 out of a pool of 48 trial space group operations
 (whereof 48 operations were pure point group operations)
 and found also     1 'primitive' translations


The dynamic configuration has the point symmetry O_h .
 
 
 KPOINTS: Automatic kpoint scheme                 

Automatic generation of k-mesh.
 
 Subroutine IBZKPT returns following result:
 ===========================================
 
 Found      1 irreducible k-points:
 
 Following reciprocal coordinates:
            Coordinates               Weight
  0.250000  0.250000  0.250000      8.000000
 
 Following cartesian coordinates:
            Coordinates               Weight
  0.030914  0.030914  0.030914      8.000000
 


--------------------------------------------------------------------------------------------------------




 Dimension of arrays:
   k-points           NKPTS =      1   k-points in BZ     NKDIM =      1   number of bands    NBANDS=     72
   number of dos      NEDOS =    301   number of ions     NIONS =     31
   non local maximal  LDIM  =      4   non local SUM 2l+1 LMDIM =      8
   total plane-waves  NPLWV = 110592
   max r-space proj   IRMAX =      1   max aug-charges    IRDMAX=   8337
   dimension x,y,z NGX =    48 NGY =   48 NGZ =   48
   dimension x,y,z NGXF=    96 NGYF=   96 NGZF=   96
   support grid    NGXF=    96 NGYF=   96 NGZF=   96
   ions per type =              31
 NGX,Y,Z   is equivalent  to a cutoff of   9.87,  9.87,  9.87 a.u.
 NGXF,Y,Z  is equivalent  to a cutoff of  19.73, 19.73, 19.73 a.u.


 I would recommend the setting:
   dimension x,y,z NGX =    46 NGY =   46 NGZ =   46
 SYSTEM =  unknown system                          
 POSCAR =  Al31                                    

 Startparameter for this run:
   NWRITE =      2    write-flag & timer
   PREC   = accura    medium, high low
   ISTART =      0    job   : 0-new  1-cont  2-samecut
   ICHARG =      2    charge: 1-file 2-atom 10-const
   ISPIN  =      1    spin polarized calculation?
   LNONCOLLINEAR =      F non collinear calculations
   LSORBIT =      F    spin-orbit coupling
   INIWAV =      1    electr: 0-lowe 1-rand  2-diag
   LASPH  =      F    aspherical Exc in radial PAW
   METAGGA=      F    non-selfconsistent MetaGGA calc.

 Electronic Relaxation 1
   ENCUT  =  300.0 eV  22.05 Ry    4.70 a.u.  11.42 11.42 11.42*2*pi/ulx,y,z
   ENINI  =  300.0     initial cutoff
   ENAUG  =  291.1 eV  augmentation charge cutoff
   NELM   =     60;   NELMIN=  2; NELMDL=-12     # of ELM steps 
   EDIFF  = 0.1E-03   stopping-criterion for ELM
   LREAL  =      F    real-space projection
   LCOMPAT=      F    compatible to vasp.4.4
   LREAL_COMPAT= F    compatible to vasp.4.5.1-3
   GGA_COMPAT  = T    GGA compatible to vasp.4.4-vasp.4.6
   LMAXPAW     = -100 max onsite density
   LMAXMIX     =    2 max onsite mixed and CHGCAR
   VOSKOWN=      0    Vosko Wilk Nusair interpolation
   ROPT   =    0.00000
 Ionic relaxation
   EDIFFG = 0.5E-01   stopping-criterion for IOM
   NSW    =    191    number of steps for IOM
   NBLOCK =      1;   KBLOCK =    191    inner block; outer block 
   IBRION =      2    ionic relax: 0-MD 1-quasi-New 2-CG
   NFREE  =      1    steps in history (QN), initial steepest desc. (CG)
   ISIF   =      2    stress and relaxation
   IWAVPR =     11    prediction:  0-non 1-charg 2-wave 3-comb
   ISYM   =      2    0-nonsym 1-usesym 2-fastsym
   LCORR  =      T    Harris-Foulkes like correction to forces

   POTIM  = 0.5000    time-step for ionic-motion
   TEIN   =    0.0    initial temperature
   TEBEG  =    0.0;   TEEND  =   0.0 temperature during run
   SMASS  =  -3.00    Nose mass-parameter (am)
   estimated Nose-frequenzy (Omega)   =  0.10E-29 period in steps =****** mass=  -0.149E-26a.u.
   NPACO  =    256;   APACO  = 16.0  distance and # of slots for P.C.
   PSTRESS=    0.0 pullay stress

  Mass of Ions in am
   POMASS =  26.98
  Ionic Valenz
   ZVAL   =   3.00
  Atomic Wigner-Seitz radii
   RWIGS  =  -1.00
   NELECT =      93.0000    total number of electrons
   NUPDOWN=      -1.0000    fix difference up-down

 DOS related values:
   EMIN   =  10.00;   EMAX   =-10.00  energy-range for DOS
   EFERMI =   0.00
   ISMEAR =     1;   SIGMA  =   0.20  broadening in eV -4-tet -1-fermi 0-gaus

 Electronic relaxation 2 (details)
   IALGO  =     48    algorithm
   LDIAG  =      T    sub-space diagonalisation
   IMIX   =      4    mixing-type and parameters
     AMIX     =   0.40;   BMIX     =  1.00
     AMIX_MAG =   1.60;   BMIX_MAG =  1.00
     AMIN     =   0.10
     WC   =   100.;   INIMIX=   1;  MIXPRE=   1

 Intra band minimization:
   WEIMIN = 0.0010     energy-eigenvalue tresh-hold
   EBREAK =  0.40E-06  absolut break condition
   DEPER  =   0.30     relativ break condition  

   TIME   =   0.40     timestep for ELM

  volume/ion in A,a.u.               =      17.06       115.13
  Fermi-wavevector in a.u.,A,eV,Ry     =   0.917161  1.733183 11.445007  0.841184
  Thomas-Fermi vector in A             =   2.042098
 
 Write flags
   LWAVE  =      F    write WAVECAR
   LCHARG =      F    write CHGCAR
   LVTOT  =      F    write LOCPOT, local potential
   LELF   =      F    write electronic localiz. function (ELF)
   LORBIT =      0    0 simple, 1 ext, 2 COOP (PROOUT)


 Dipole corrections
   LMONO  =      F    monopole corrections only (constant potential shift)
   LDIPOL =      F    correct potential (dipole corrections)
   IDIPOL =      0    1-x, 2-y, 3-z, 4-all directions 
   EPSILON=  1.0000000 bulk dielectric constant

 Exchange correlation treatment:
   GGA     =    --    GGA type
   LEXCH   =     8    internal setting for exchange type
   VOSKOWN=      0    Vosko Wilk Nusair interpolation
   LHFCALC =     F    Hartree Fock is set to
   LHFONE  =     F    Hartree Fock one center treatment
   AEXX    =    0.0000 exact exchange contribution

 Linear response parameters
   LEPSILON=     F    determine dielectric tensor
   LRPA    =     F    only Hartree local field effects (RPA)
   LNABLA  =     F    use nabla operator in PAW spheres
   LVEL    =     F    velocity operator in full k-point grid
   LINTERFAST=   F  fast interpolation
   KINTER  =     0    interpolate to denser k-point grid
   CSHIFT  =0.1000    complex shift for real part using Kramers Kronig
   OMEGAMAX=  -1.0    maximum frequency

 Orbital magnetization related:
   ORBITALMAG=     F  switch on orbital magnetization
   LCHIMAG   =     F  perturbation theory with respect to B field



--------------------------------------------------------------------------------------------------------


 conjugate gradient relaxation of ions
 charge density and potential will be updated during run
 non-spin polarized calculation
 RMM-DIIS sequential band-by-band
 perform sub-space diagonalisation
    before iterative eigenvector-optimisation
 modified Broyden-mixing scheme, WC =      100.0
 initial mixing is a Kerker type mixing with AMIX =  0.4000 and BMIX =      1.0000
 Hartree-type preconditioning will be used
 using additional bands           25
 reciprocal scheme for non local part
 use partial core corrections
 calculate Harris-corrections to forces 
   (improved forces if not selfconsistent)
 use gradient corrections 
 use of overlap-Matrix (Vanderbilt PP)
 Methfessel and Paxton  Order N= 1 SIGMA  =   0.20


--------------------------------------------------------------------------------------------------------


  energy-cutoff  :      300.00
  volume of cell :      528.90
      direct lattice vectors                 reciprocal lattice vectors
     8.087052000  0.000000000  0.000000000     0.123654454  0.000000000  0.000000000
     0.000000000  8.087052000  0.000000000     0.000000000  0.123654454  0.000000000
     0.000000000  0.000000000  8.087052000     0.000000000  0.000000000  0.123654454

  length of vectors
     8.087052000  8.087052000  8.087052000     0.123654454  0.123654454  0.123654454


 
 k-points in units of 2pi/SCALE and weight: Automatic kpoint scheme                 
   0.03091361  0.03091361  0.03091361       1.000
 
 k-points in reciprocal lattice and weights: Automatic kpoint scheme                 
   0.25000000  0.25000000  0.25000000       1.000
 
 position of ions in fractional coordinates (direct lattice) 
   0.00000000  0.00000000  0.00000000
   0.25043400  0.00000000  0.25043400
   0.25043400  0.25043400  0.00000000
   0.00000000  0.25043400  0.25043400
   0.50000000  0.00000000  0.00000000
   0.74956600  0.00000000  0.25043400
   0.74956600  0.25043400  0.00000000
   0.50000000  0.24265500  0.24265500
   0.00000000  0.50000000  0.00000000
   0.24265500  0.50000000  0.24265500
   0.25043400  0.74956600  0.00000000
   0.00000000  0.74956600  0.25043400
   0.50000000  0.50000000  0.00000000
   0.75734500  0.50000000  0.24265500
   0.74956600  0.74956600  0.00000000
   0.50000000  0.75734500  0.24265500
   0.00000000  0.00000000  0.50000000
   0.25043400  0.00000000  0.74956600
   0.24265500  0.24265500  0.50000000
   0.00000000  0.25043400  0.74956600
   0.50000000  0.00000000  0.50000000
   0.74956600  0.00000000  0.74956600
   0.75734500  0.24265500  0.50000000
   0.50000000  0.24265500  0.75734500
   0.00000000  0.50000000  0.50000000
   0.24265500  0.50000000  0.75734500
   0.24265500  0.75734500  0.50000000
   0.00000000  0.74956600  0.74956600
   0.75734500  0.50000000  0.75734500
   0.75734500  0.75734500  0.50000000
   0.50000000  0.75734500  0.75734500
 
 position of ions in cartesian coordinates  (Angst):
   0.00000000  0.00000000  0.00000000
   2.02527278  0.00000000  2.02527278
   2.02527278  2.02527278  0.00000000
   0.00000000  2.02527278  2.02527278
   4.04352600  0.00000000  0.00000000
   6.06177922  0.00000000  2.02527278
   6.06177922  2.02527278  0.00000000
   4.04352600  1.96236360  1.96236360
   0.00000000  4.04352600  0.00000000
   1.96236360  4.04352600  1.96236360
   2.02527278  6.06177922  0.00000000
   0.00000000  6.06177922  2.02527278
   4.04352600  4.04352600  0.00000000
   6.12468840  4.04352600  1.96236360
   6.06177922  6.06177922  0.00000000
   4.04352600  6.12468840  1.96236360
   0.00000000  0.00000000  4.04352600
   2.02527278  0.00000000  6.06177922
   1.96236360  1.96236360  4.04352600
   0.00000000  2.02527278  6.06177922
   4.04352600  0.00000000  4.04352600
   6.06177922  0.00000000  6.06177922
   6.12468840  1.96236360  4.04352600
   4.04352600  1.96236360  6.12468840
   0.00000000  4.04352600  4.04352600
   1.96236360  4.04352600  6.12468840
   1.96236360  6.12468840  4.04352600
   0.00000000  6.06177922  6.06177922
   6.12468840  4.04352600  6.12468840
   6.12468840  6.12468840  4.04352600
   4.04352600  6.12468840  6.12468840
 


--------------------------------------------------------------------------------------------------------


 k-point  1 :  0.25000.25000.2500  plane waves:    6238

 maximum and minimum number of plane-waves per node :    6238   6238

 maximum number of plane-waves:    6238
 maximal index in each direction: 
   IXMAX= 11   IYMAX= 11   IZMAX= 11
   IXMIN=-11   IYMIN=-11   IZMIN=-11

 NGX is ok and might be reduce to  46
 NGY is ok and might be reduce to  46
 NGZ is ok and might be reduce to  46

 serial   3D FFT for wavefunctions
 parallel 3D FFT for charge:
    minimum data exchange during FFTs selected (reduces bandwidth)


 total amount of memory used by VASP on root node  58219. kBytes
========================================================================

   base      :    30000. kBytes
   nonl-proj :     3494. kBytes
   fftplans  :     2983. kBytes
   grid      :    21024. kBytes
   one-center:       95. kBytes
   wavefun   :      623. kBytes
 
 Broyden mixing: mesh for mixing (old mesh)
   NGX = 23   NGY = 23   NGZ = 23
  (NGX  = 96   NGY  = 96   NGZ  = 96)
  gives a total of  12167 points

 initial charge density was supplied:
 charge density of overlapping atoms calculated
 number of electron   93.0000000 magnetization 
 keeping initial charge density in first step


--------------------------------------------------------------------------------------------------------


 Maximum index for augmentation-charges          553 (set IRDMAX)


--------------------------------------------------------------------------------------------------------


 First call to EWALD:  gamma=   0.219
 Maximum number of real-space cells 3x 3x 3
 Maximum number of reciprocal cells 3x 3x 3

    FEWALD:  cpu time    0.01: real time    0.01
   RESPFUN:  cpu time    0.00: real time    0.00


----------------------------------------- Iteration    1(   1)  ---------------------------------------


    POTLOK:  cpu time    0.15: real time    0.15
    SETDIJ:  cpu time    0.01: real time    0.01
    EDDIAG:  cpu time    0.15: real time    0.15
  RMM-DIIS:  cpu time    0.35: real time    0.35
    ORTHCH:  cpu time    0.01: real time    0.01
       DOS:  cpu time    0.00: real time    0.00
    --------------------------------------------
      LOOP:  cpu time    0.67: real time    0.68

 eigenvalue-minimisations  :    72
 total energy-change (2. order) : 0.2361988E+03  (-0.1570834E+04)
 number of electron   93.0000000 magnetization 
 augmentation part    93.0000000 magnetization 

 Free energy of the ion-electron system (eV)
  ---------------------------------------------------
  alpha Z        PSCENC =        -6.10292983
  Ewald energy   TEWEN  =     -2211.09602166
  -1/2 Hartree   DENC   =       -32.58980639
  -exchange  EXHF       =         0.00000000
  -V(xc)+E(xc)   XCENC  =      -814.53097592
  PAW double counting   =      1102.18190231     -111.56847430
  entropy T*S    EENTRO =        -0.05115657
  eigenvalues    EBANDS =       650.28987730
  atomic energy  EATOM  =      1659.66634407
  ---------------------------------------------------
  free energy    TOTEN  =       236.19875901 eV

  energy without entropy =      236.24991558  energy(sigma->0) =      236.21581120


--------------------------------------------------------------------------------------------------------




----------------------------------------- Iteration    1(   2)  ---------------------------------------


    EDDIAG:  cpu time    0.15: real time    0.15
  RMM-DIIS:  cpu time    0.34: real time    0.34
    ORTHCH:  cpu time    0.01: real time    0.01
       DOS:  cpu time    0.00: real time    0.00
    --------------------------------------------
      LOOP:  cpu time    0.51: real time    0.51

 eigenvalue-minimisations  :    72
 total energy-change (2. order) :-0.2732916E+03  (-0.2640520E+03)
 number of electron   93.0000000 magnetization 
 augmentation part    93.0000000 magnetization 

 Free energy of the ion-electron system (eV)
  ---------------------------------------------------
  alpha Z        PSCENC =        -6.10292983
  Ewald energy   TEWEN  =     -2211.09602166
  -1/2 Hartree   DENC   =       -32.58980639
  -exchange  EXHF       =         0.00000000
  -V(xc)+E(xc)   XCENC  =      -814.53097592
  PAW double counting   =      1102.18190231     -111.56847430
  entropy T*S    EENTRO =        -0.08087809
  eigenvalues    EBANDS =       377.02798598
  atomic energy  EATOM  =      1659.66634407
  ---------------------------------------------------
  free energy    TOTEN  =       -37.09285383 eV

  energy without entropy =      -37.01197574  energy(sigma->0) =      -37.06589446


--------------------------------------------------------------------------------------------------------




----------------------------------------- Iteration    1(   3)  ---------------------------------------


    EDDIAG:  cpu time    0.15: real time    0.15
  RMM-DIIS:  cpu time    0.34: real time    0.35
    ORTHCH:  cpu time    0.01: real time    0.01
       DOS:  cpu time    0.00: real time    0.00
    --------------------------------------------
      LOOP:  cpu time    0.51: real time    0.51

 eigenvalue-minimisations  :    72
 total energy-change (2. order) :-0.5780375E+02  (-0.5640371E+02)
 number of electron   93.0000000 magnetization 
 augmentation part    93.0000000 magnetization 

 Free energy of the ion-electron system (eV)
  ---------------------------------------------------
  alpha Z        PSCENC =        -6.10292983
  Ewald energy   TEWEN  =     -2211.09602166
  -1/2 Hartree   DENC   =       -32.58980639
  -exchange  EXHF       =         0.00000000
  -V(xc)+E(xc)   XCENC  =      -814.53097592
  PAW double counting   =      1102.18190231     -111.56847430
  entropy T*S    EENTRO =        -0.03867111
  eigenvalues    EBANDS =       319.18202571
  atomic energy  EATOM  =      1659.66634407
  ---------------------------------------------------
  free energy    TOTEN  =       -94.89660712 eV

  energy without entropy =      -94.85793600  energy(sigma->0) =      -94.88371675


--------------------------------------------------------------------------------------------------------




----------------------------------------- Iteration    1(   4)  ---------------------------------------


    EDDIAG:  cpu time    0.15: real time    0.15
  RMM-DIIS:  cpu time    0.34: real time    0.34
    ORTHCH:  cpu time    0.01: real time    0.01
       DOS:  cpu time    0.00: real time    0.00
    --------------------------------------------
      LOOP:  cpu time    0.50: real time    0.51

 eigenvalue-minimisations  :    72
 total energy-change (2. order) :-0.1276944E+02  (-0.1165152E+02)
 number of electron   93.0000000 magnetization 
 augmentation part    93.0000000 magnetization 

 Free energy of the ion-electron system (eV)
  ---------------------------------------------------
  alpha Z        PSCENC =        -6.10292983
  Ewald energy   TEWEN  =     -2211.09602166
  -1/2 Hartree   DENC   =       -32.58980639
  -exchange  EXHF       =         0.00000000
  -V(xc)+E(xc)   XCENC  =      -814.53097592
  PAW double counting   =      1102.18190231     -111.56847430
  entropy T*S    EENTRO =         0.05514629
  eigenvalues    EBANDS =       306.31877280
  atomic energy  EATOM  =      1659.66634407
  ---------------------------------------------------
  free energy    TOTEN  =      -107.66604263 eV

  energy without entropy =     -107.72118892  energy(sigma->0) =     -107.68442473


--------------------------------------------------------------------------------------------------------




----------------------------------------- Iteration    1(   5)  ---------------------------------------


    EDDIAG:  cpu time    0.15: real time    0.15
  RMM-DIIS:  cpu time    0.34: real time    0.34
    ORTHCH:  cpu time    0.01: real time    0.01
       DOS:  cpu time    0.00: real time    0.00
    --------------------------------------------
      LOOP:  cpu time    0.50: real time    0.51

 eigenvalue-minimisations  :    72
 total energy-change (2. order) :-0.4966393E+01  (-0.3715894E+01)
 number of electron   93.0000000 magnetization 
 augmentation part    93.0000000 magnetization 

 Free energy of the ion-electron system (eV)
  ---------------------------------------------------
  alpha Z        PSCENC =        -6.10292983
  Ewald energy   TEWEN  =     -2211.09602166
  -1/2 Hartree   DENC   =       -32.58980639
  -exchange  EXHF       =         0.00000000
  -V(xc)+E(xc)   XCENC  =      -814.53097592
  PAW double counting   =      1102.18190231     -111.56847430
  entropy T*S    EENTRO =        -0.08730939
  eigenvalues    EBANDS =       301.49483533
  atomic energy  EATOM  =      1659.66634407
  ---------------------------------------------------
  free energy    TOTEN  =      -112.63243578 eV

  energy without entropy =     -112.54512639  energy(sigma->0) =     -112.60333265


--------------------------------------------------------------------------------------------------------




----------------------------------------- Iteration    1(   6)  ---------------------------------------


    EDDIAG:  cpu time    0.15: real time    0.15
  RMM-DIIS:  cpu time    0.34: real time    0.34
    ORTHCH:  cpu time    0.01: real time    0.01
       DOS:  cpu time    0.00: real time    0.00
    --------------------------------------------
      LOOP:  cpu time    0.50: real time    0.51

 eigenvalue-minimisations  :    72
 total energy-change (2. order) :-0.1741003E+01  (-0.1306164E+01)
 number of electron   93.0000000 magnetization 
 augmentation part    93.0000000 magnetization 

 Free energy of the ion-electron system (eV)
  ---------------------------------------------------
  alpha Z        PSCENC =        -6.10292983
  Ewald energy   TEWEN  =     -2211.09602166
  -1/2 Hartree   DENC   =       -32.58980639
  -exchange  EXHF       =         0.00000000
  -V(xc)+E(xc)   XCENC  =      -814.53097592
  PAW double counting   =      1102.18190231     -111.56847430
  entropy T*S    EENTRO =        -0.05402292
  eigenvalues    EBANDS =       299.72054616
  atomic energy  EATOM  =      1659.66634407
  ---------------------------------------------------
  free energy    TOTEN  =      -114.37343847 eV

  energy without entropy =     -114.31941556  energy(sigma->0) =     -114.35543083


--------------------------------------------------------------------------------------------------------




----------------------------------------- Iteration    1(   7)  ---------------------------------------


    EDDIAG:  cpu time    0.15: real time    0.15
  RMM-DIIS:  cpu time    0.34: real time    0.34
    ORTHCH:  cpu time    0.01: real time    0.01
       DOS:  cpu time    0.00: real time    0.00
    --------------------------------------------
      LOOP:  cpu time    0.50: real time    0.51

 eigenvalue-minimisations  :    72
 total energy-change (2. order) :-0.5877619E+00  (-0.4809469E+00)
 number of electron   93.0000000 magnetization 
 augmentation part    93.0000000 magnetization 

 Free energy of the ion-electron system (eV)
  ---------------------------------------------------
  alpha Z        PSCENC =        -6.10292983
  Ewald energy   TEWEN  =     -2211.09602166
  -1/2 Hartree   DENC   =       -32.58980639
  -exchange  EXHF       =         0.00000000
  -V(xc)+E(xc)   XCENC  =      -814.53097592
  PAW double counting   =      1102.18190231     -111.56847430
  entropy T*S    EENTRO =        -0.03864116
  eigenvalues    EBANDS =       299.11740255
  atomic energy  EATOM  =      1659.66634407
  ---------------------------------------------------
  free energy    TOTEN  =      -114.96120034 eV

  energy without entropy =     -114.92255917  energy(sigma->0) =     -114.94831995


--------------------------------------------------------------------------------------------------------




----------------------------------------- Iteration    1(   8)  ---------------------------------------


    EDDIAG:  cpu time    0.15: real time    0.15
  RMM-DIIS:  cpu time    0.34: real time    0.34
    ORTHCH:  cpu time    0.01: real time    0.01
       DOS:  cpu time    0.00: real time    0.00
    --------------------------------------------
      LOOP:  cpu time    0.50: real time    0.51

 eigenvalue-minimisations  :    72
 total energy-change (2. order) :-0.2208836E+00  (-0.1875523E+00)
 number of electron   93.0000000 magnetization 
 augmentation part    93.0000000 magnetization 

 Free energy of the ion-electron system (eV)
  ---------------------------------------------------
  alpha Z        PSCENC =        -6.10292983
  Ewald energy   TEWEN  =     -2211.09602166
  -1/2 Hartree   DENC   =       -32.58980639
  -exchange  EXHF       =         0.00000000
  -V(xc)+E(xc)   XCENC  =      -814.53097592
  PAW double counting   =      1102.18190231     -111.56847430
  entropy T*S    EENTRO =        -0.03695278
  eigenvalues    EBANDS =       298.89483059
  atomic energy  EATOM  =      1659.66634407
  ---------------------------------------------------
  free energy    TOTEN  =      -115.18208391 eV

  energy without entropy =     -115.14513113  energy(sigma->0) =     -115.16976632


--------------------------------------------------------------------------------------------------------




----------------------------------------- Iteration    1(   9)  ---------------------------------------


    EDDIAG:  cpu time    0.15: real time    0.15
  RMM-DIIS:  cpu time    0.75: real time    0.75
    ORTHCH:  cpu time    0.01: real time    0.01
       DOS:  cpu time    0.00: real time    0.00
    --------------------------------------------
      LOOP:  cpu time    0.91: real time    0.91

 eigenvalue-minimisations  :   165
 total energy-change (2. order) :-0.1249384E+00  (-0.1147537E+00)
 number of electron   93.0000000 magnetization 
 augmentation part    93.0000000 magnetization 

 Free energy of the ion-electron system (eV)
  ---------------------------------------------------
  alpha Z        PSCENC =        -6.10292983
  Ewald energy   TEWEN  =     -2211.09602166
  -1/2 Hartree   DENC   =       -32.58980639
  -exchange  EXHF       =         0.00000000
  -V(xc)+E(xc)   XCENC  =      -814.53097592
  PAW double counting   =      1102.18190231     -111.56847430
  entropy T*S    EENTRO =        -0.03861265
  eigenvalues    EBANDS =       298.77155207
  atomic energy  EATOM  =      1659.66634407
  ---------------------------------------------------
  free energy    TOTEN  =      -115.30702231 eV

  energy without entropy =     -115.26840965  energy(sigma->0) =     -115.29415142


--------------------------------------------------------------------------------------------------------




----------------------------------------- Iteration    1(  10)  ---------------------------------------


    EDDIAG:  cpu time    0.15: real time    0.15
  RMM-DIIS:  cpu time    0.69: real time    0.69
    ORTHCH:  cpu time    0.01: real time    0.01
       DOS:  cpu time    0.00: real time    0.00
    --------------------------------------------
      LOOP:  cpu time    0.85: real time    0.85

 eigenvalue-minimisations  :   156
 total energy-change (2. order) :-0.1779125E-01  (-0.1241146E-01)
 number of electron   93.0000000 magnetization 
 augmentation part    93.0000000 magnetization 

 Free energy of the ion-electron system (eV)
  ---------------------------------------------------
  alpha Z        PSCENC =        -6.10292983
  Ewald energy   TEWEN  =     -2211.09602166
  -1/2 Hartree   DENC   =       -32.58980639
  -exchange  EXHF       =         0.00000000
  -V(xc)+E(xc)   XCENC  =      -814.53097592
  PAW double counting   =      1102.18190231     -111.56847430
  entropy T*S    EENTRO =        -0.03844564
  eigenvalues    EBANDS =       298.75359380
  atomic energy  EATOM  =      1659.66634407
  ---------------------------------------------------
  free energy    TOTEN  =      -115.32481356 eV

  energy without entropy =     -115.28636792  energy(sigma->0) =     -115.31199835


--------------------------------------------------------------------------------------------------------




----------------------------------------- Iteration    1(  11)  ---------------------------------------


    EDDIAG:  cpu time    0.15: real time    0.15
  RMM-DIIS:  cpu time    0.56: real time    0.56
    ORTHCH:  cpu time    0.01: real time    0.01
       DOS:  cpu time    0.00: real time    0.00
    --------------------------------------------
      LOOP:  cpu time    0.72: real time    0.73

 eigenvalue-minimisations  :   129
 total energy-change (2. order) :-0.9939569E-03  (-0.6634242E-03)
 number of electron   93.0000000 magnetization 
 augmentation part    93.0000000 magnetization 

 Free energy of the ion-electron system (eV)
  ---------------------------------------------------
  alpha Z        PSCENC =        -6.10292983
  Ewald energy   TEWEN  =     -2211.09602166
  -1/2 Hartree   DENC   =       -32.58980639
  -exchange  EXHF       =         0.00000000
  -V(xc)+E(xc)   XCENC  =      -814.53097592
  PAW double counting   =      1102.18190231     -111.56847430
  entropy T*S    EENTRO =        -0.03838126
  eigenvalues    EBANDS =       298.75253546
  atomic energy  EATOM  =      1659.66634407
  ---------------------------------------------------
  free energy    TOTEN  =      -115.32580752 eV

  energy without entropy =     -115.28742626  energy(sigma->0) =     -115.31301377


--------------------------------------------------------------------------------------------------------




----------------------------------------- Iteration    1(  12)  ---------------------------------------


    EDDIAG:  cpu time    0.15: real time    0.15
  RMM-DIIS:  cpu time    0.47: real time    0.47
    ORTHCH:  cpu time    0.01: real time    0.01
       DOS:  cpu time    0.00: real time    0.00
    CHARGE:  cpu time    0.13: real time    0.13
    MIXING:  cpu time    0.00: real time    0.00
    --------------------------------------------
      LOOP:  cpu time    0.77: real time    0.77

 eigenvalue-minimisations  :    90
 total energy-change (2. order) :-0.3447147E-04  (-0.3096854E-04)
 number of electron   92.9999994 magnetization 
 augmentation part    -1.1328972 magnetization 

 Broyden mixing:
  rms(total) = 0.55679E+00    rms(broyden)= 0.55677E+00
  rms(prec ) = 0.97735E+00
  weight for this iteration     100.00

 Free energy of the ion-electron system (eV)
  ---------------------------------------------------
  alpha Z        PSCENC =        -6.10292983
  Ewald energy   TEWEN  =     -2211.09602166
  -1/2 Hartree   DENC   =       -32.58980639
  -exchange  EXHF       =         0.00000000
  -V(xc)+E(xc)   XCENC  =      -814.53097592
  PAW double counting   =      1102.18190231     -111.56847430
  entropy T*S    EENTRO =        -0.03837973
  eigenvalues    EBANDS =       298.75249946
  atomic energy  EATOM  =      1659.66634407
  ---------------------------------------------------
  free energy    TOTEN  =      -115.32584199 eV

  energy without entropy =     -115.28746226  energy(sigma->0) =     -115.31304875


--------------------------------------------------------------------------------------------------------




----------------------------------------- Iteration    1(  13)  ---------------------------------------


    POTLOK:  cpu time    0.15: real time    0.15
    SETDIJ:  cpu time    0.01: real time    0.01
    EDDIAG:  cpu time    0.15: real time    0.15
  RMM-DIIS:  cpu time    0.62: real time    0.62
    ORTHCH:  cpu time    0.01: real time    0.01
       DOS:  cpu time    0.00: real time    0.00
    CHARGE:  cpu time    0.13: real time    0.13
    MIXING:  cpu time    0.00: real time    0.00
    --------------------------------------------
      LOOP:  cpu time    1.08: real time    1.08

 eigenvalue-minimisations  :   144
 total energy-change (2. order) : 0.8703154E+00  (-0.1089292E+00)
 number of electron   92.9999994 magnetization 
 augmentation part    -1.1469123 magnetization 

 Broyden mixing:
  rms(total) = 0.33147E+00    rms(broyden)= 0.33147E+00
  rms(prec ) = 0.49396E+00
  weight for this iteration     100.00

 eigenvalues of (default mixing * dielectric matrix)
  average eigenvalue GAMMA=   2.3013
  2.3013

 Free energy of the ion-electron system (eV)
  ---------------------------------------------------
  alpha Z        PSCENC =        -6.10292983
  Ewald energy   TEWEN  =     -2211.09602166
  -1/2 Hartree   DENC   =       -35.01404691
  -exchange  EXHF       =         0.00000000
  -V(xc)+E(xc)   XCENC  =      -813.38589154
  PAW double counting   =      1104.31087999     -113.83337069
  entropy T*S    EENTRO =        -0.03148436
  eigenvalues    EBANDS =       301.03099431
  atomic energy  EATOM  =      1659.66634407
  ---------------------------------------------------
  free energy    TOTEN  =      -114.45552662 eV

  energy without entropy =     -114.42404226  energy(sigma->0) =     -114.44503183


--------------------------------------------------------------------------------------------------------




----------------------------------------- Iteration    1(  14)  ---------------------------------------


    POTLOK:  cpu time    0.15: real time    0.15
    SETDIJ:  cpu time    0.01: real time    0.01
    EDDIAG:  cpu time    0.15: real time    0.15
  RMM-DIIS:  cpu time    0.61: real time    0.61
    ORTHCH:  cpu time    0.01: real time    0.01
       DOS:  cpu time    0.00: real time    0.00
    CHARGE:  cpu time    0.13: real time    0.13
    MIXING:  cpu time    0.00: real time    0.00
    --------------------------------------------
      LOOP:  cpu time    1.07: real time    1.07

 eigenvalue-minimisations  :   144
 total energy-change (2. order) : 0.2507432E+00  (-0.2078763E-01)
 number of electron   92.9999994 magnetization 
 augmentation part    -1.1627666 magnetization 

 Broyden mixing:
  rms(total) = 0.14110E+00    rms(broyden)= 0.14110E+00
  rms(prec ) = 0.20740E+00
  weight for this iteration     100.00

 eigenvalues of (default mixing * dielectric matrix)
  average eigenvalue GAMMA=   1.8774
  2.5880  1.1668

 Free energy of the ion-electron system (eV)
  ---------------------------------------------------
  alpha Z        PSCENC =        -6.10292983
  Ewald energy   TEWEN  =     -2211.09602166
  -1/2 Hartree   DENC   =       -36.25527423
  -exchange  EXHF       =         0.00000000
  -V(xc)+E(xc)   XCENC  =      -812.14238859
  PAW double counting   =      1105.96794977     -115.63706897
  entropy T*S    EENTRO =        -0.03066363
  eigenvalues    EBANDS =       301.42526970
  atomic energy  EATOM  =      1659.66634407
  ---------------------------------------------------
  free energy    TOTEN  =      -114.20478337 eV

  energy without entropy =     -114.17411974  energy(sigma->0) =     -114.19456216


--------------------------------------------------------------------------------------------------------




----------------------------------------- Iteration    1(  15)  ---------------------------------------


    POTLOK:  cpu time    0.15: real time    0.15
    SETDIJ:  cpu time    0.01: real time    0.01
    EDDIAG:  cpu time    0.15: real time    0.15
  RMM-DIIS:  cpu time    0.62: real time    0.62
    ORTHCH:  cpu time    0.01: real time    0.01
       DOS:  cpu time    0.00: real time    0.00
    CHARGE:  cpu time    0.13: real time    0.13
    MIXING:  cpu time    0.00: real time    0.00
    --------------------------------------------
      LOOP:  cpu time    1.07: real time    1.07

 eigenvalue-minimisations  :   144
 total energy-change (2. order) : 0.5565945E-01  (-0.4342155E-02)
 number of electron   92.9999994 magnetization 
 augmentation part    -1.1760743 magnetization 

 Broyden mixing:
  rms(total) = 0.16313E-01    rms(broyden)= 0.16312E-01
  rms(prec ) = 0.29706E-01
  weight for this iteration     100.00

 eigenvalues of (default mixing * dielectric matrix)
  average eigenvalue GAMMA=   1.8017
  2.6216  1.1245  1.6589

 Free energy of the ion-electron system (eV)
  ---------------------------------------------------
  alpha Z        PSCENC =        -6.10292983
  Ewald energy   TEWEN  =     -2211.09602166
  -1/2 Hartree   DENC   =       -36.94803391
  -exchange  EXHF       =         0.00000000
  -V(xc)+E(xc)   XCENC  =      -811.16349208
  PAW double counting   =      1107.18170270     -116.97822289
  entropy T*S    EENTRO =        -0.03149031
  eigenvalues    EBANDS =       301.32301999
  atomic energy  EATOM  =      1659.66634407
  ---------------------------------------------------
  free energy    TOTEN  =      -114.14912392 eV

  energy without entropy =     -114.11763361  energy(sigma->0) =     -114.13862715


--------------------------------------------------------------------------------------------------------




----------------------------------------- Iteration    1(  16)  ---------------------------------------


    POTLOK:  cpu time    0.14: real time    0.14
    SETDIJ:  cpu time    0.01: real time    0.01
    EDDIAG:  cpu time    0.15: real time    0.15
  RMM-DIIS:  cpu time    0.65: real time    0.65
    ORTHCH:  cpu time    0.01: real time    0.01
       DOS:  cpu time    0.00: real time    0.00
    CHARGE:  cpu time    0.13: real time    0.13
    MIXING:  cpu time    0.00: real time    0.00
    --------------------------------------------
      LOOP:  cpu time    1.10: real time    1.11

 eigenvalue-minimisations  :   145
 total energy-change (2. order) : 0.1271729E-02  (-0.3466157E-03)
 number of electron   92.9999994 magnetization 
 augmentation part    -1.1790791 magnetization 

 Broyden mixing:
  rms(total) = 0.47410E-02    rms(broyden)= 0.47410E-02
  rms(prec ) = 0.79065E-02
  weight for this iteration     100.00

 eigenvalues of (default mixing * dielectric matrix)
  average eigenvalue GAMMA=   1.8569
  2.6273  2.3597  1.2202  1.2202

 Free energy of the ion-electron system (eV)
  ---------------------------------------------------
  alpha Z        PSCENC =        -6.10292983
  Ewald energy   TEWEN  =     -2211.09602166
  -1/2 Hartree   DENC   =       -36.96587223
  -exchange  EXHF       =         0.00000000
  -V(xc)+E(xc)   XCENC  =      -811.05348168
  PAW double counting   =      1107.50763484     -117.33427583
  entropy T*S    EENTRO =        -0.03250826
  eigenvalues    EBANDS =       301.26325839
  atomic energy  EATOM  =      1659.66634407
  ---------------------------------------------------
  free energy    TOTEN  =      -114.14785219 eV

  energy without entropy =     -114.11534393  energy(sigma->0) =     -114.13701610


--------------------------------------------------------------------------------------------------------




----------------------------------------- Iteration    1(  17)  ---------------------------------------


    POTLOK:  cpu time    0.14: real time    0.14
    SETDIJ:  cpu time    0.01: real time    0.01
    EDDIAG:  cpu time    0.15: real time    0.15
  RMM-DIIS:  cpu time    0.55: real time    0.55
    ORTHCH:  cpu time    0.01: real time    0.01
       DOS:  cpu time    0.00: real time    0.00
    --------------------------------------------
      LOOP:  cpu time    0.87: real time    0.87

 eigenvalue-minimisations  :   121
 total energy-change (2. order) :-0.5356073E-04  (-0.4653811E-04)
 number of electron   92.9999994 magnetization 
 augmentation part    -1.1790791 magnetization 

 Free energy of the ion-electron system (eV)
  ---------------------------------------------------
  alpha Z        PSCENC =        -6.10292983
  Ewald energy   TEWEN  =     -2211.09602166
  -1/2 Hartree   DENC   =       -36.94309144
  -exchange  EXHF       =         0.00000000
  -V(xc)+E(xc)   XCENC  =      -811.03452842
  PAW double counting   =      1107.60196184     -117.44079807
  entropy T*S    EENTRO =        -0.03239227
  eigenvalues    EBANDS =       301.23355003
  atomic energy  EATOM  =      1659.66634407
  ---------------------------------------------------
  free energy    TOTEN  =      -114.14790575 eV

  energy without entropy =     -114.11551348  energy(sigma->0) =     -114.13710833


--------------------------------------------------------------------------------------------------------




 average (electrostatic) potential at core
  the test charge radii are     1.0406
  (the norm of the test charge is              1.0000)
       1 -72.8758       2 -73.0195       3 -73.0195       4 -73.0195       5 -72.9869
       6 -73.0195       7 -73.0195       8 -72.9957       9 -72.9869      10 -72.9957
      11 -73.0195      12 -73.0195      13 -73.1148      14 -72.9957      15 -73.0195
      16 -72.9957      17 -72.9869      18 -73.0195      19 -72.9957      20 -73.0195
      21 -73.1148      22 -73.0195      23 -72.9957      24 -72.9957      25 -73.1148
      26 -72.9957      27 -72.9957      28 -73.0195      29 -72.9957      30 -72.9957
      31 -72.9957
 
 
 
 E-fermi :   7.8207     XC(G=0): -10.0306     alpha+bet :-14.3870
   add alpha+bet to get absolut eigen values

 k-point   1 :       0.2500    0.2500    0.2500
  band No.  band energies     occupation 
      1      -3.0314      2.00000
      2      -1.9981      2.00000
      3      -1.9981      2.00000
      4      -1.6675      2.00000
      5      -0.8709      2.00000
      6      -0.8709      2.00000
      7      -0.4380      2.00000
      8       0.2180      2.00000
      9       0.2180      2.00000
     10       0.5122      2.00000
     11       0.6603      2.00000
     12       1.1840      2.00000
     13       1.3430      2.00000
     14       1.3430      2.00000
     15       1.5942      2.00000
     16       1.5942      2.00000
     17       1.9409      2.00000
     18       2.6327      2.00000
     19       2.6327      2.00000
     20       2.8409      2.00000
     21       3.5006      2.00000
     22       3.5006      2.00000
     23       3.6192      2.00000
     24       3.6192      2.00000
     25       3.6895      2.00000
     26       4.0416      2.00000
     27       4.3776      2.00000
     28       4.5418      2.00000
     29       4.5418      2.00000
     30       4.7653      2.00000
     31       4.7653      2.00000
     32       4.8953      2.00000
     33       4.8953      2.00000
     34       5.0356      2.00000
     35       5.2691      2.00000
     36       5.7088      2.00000
     37       5.7088      2.00000
     38       6.4392      2.00000
     39       6.6015      2.00000
     40       6.6997      2.00000
     41       6.6997      2.00000
     42       6.9905      2.00000
     43       7.0359      2.00000
     44       7.0359      2.00000
     45       7.1843      2.00007
     46       7.6993      1.84664
     47       7.8593      0.68050
     48       7.8593      0.68050
     49       8.0670     -0.07090
     50       8.0670     -0.07090
     51       8.1785     -0.02974
     52       8.1785     -0.02974
     53       8.2746     -0.00609
     54       8.4001     -0.00033
     55       8.9801      0.00000
     56       9.1074      0.00000
     57       9.1074      0.00000
     58       9.3895      0.00000
     59       9.3896      0.00000
     60       9.4470      0.00000
     61       9.9762      0.00000
     62       9.9786      0.00000
     63      10.0803      0.00000
     64      10.0966      0.00000
     65      10.0988      0.00000
     66      10.1235      0.00000
     67      10.5350      0.00000
     68      10.5440      0.00000
     69      10.7734      0.00000
     70      10.9409      0.00000
     71      10.9985      0.00000
     72      11.1941      0.00000


--------------------------------------------------------------------------------------------------------


 soft charge-density along one line, spin component           1
         0         1         2         3         4         5         6         7         8         9
 total charge-density along one line
 
 pseudopotential strength for first ion, spin component:           1
  8.455  -0.006   0.000   0.000   0.000   0.000   0.000   0.000
 -0.006   0.000   0.000   0.000   0.000   0.000   0.000   0.000
  0.000   0.000   1.989   0.000   0.000  -0.026   0.000   0.000
  0.000   0.000   0.000   1.989   0.000   0.000  -0.026   0.000
  0.000   0.000   0.000   0.000   1.989   0.000   0.000  -0.026
  0.000   0.000  -0.026   0.000   0.000  -0.012   0.000   0.000
  0.000   0.000   0.000  -0.026   0.000   0.000  -0.012   0.000
  0.000   0.000   0.000   0.000  -0.026   0.000   0.000  -0.012
 total augmentation occupancy for first ion, spin component:           1
  1.329  -0.513   0.000   0.000   0.000   0.000   0.000   0.000
 -0.513   0.509   0.000   0.000   0.000   0.000   0.000   0.000
  0.000   0.000   0.743   0.000   0.000  -0.184   0.000   0.000
  0.000   0.000   0.000   0.743   0.000   0.000  -0.184   0.000
  0.000   0.000   0.000   0.000   0.743   0.000   0.000  -0.184
  0.000   0.000  -0.184   0.000   0.000   0.051   0.000   0.000
  0.000   0.000   0.000  -0.184   0.000   0.000   0.051   0.000
  0.000   0.000   0.000   0.000  -0.184   0.000   0.000   0.051


------------------------ aborting loop because EDIFF is reached ----------------------------------------




--------------------------------------------------------------------------------------------------------



  FREE ENERGIE OF THE ION-ELECTRON SYSTEM (eV)
  ---------------------------------------------------
  free  energy   TOTEN  =      -114.147906 eV

  energy  without entropy=     -114.115513  energy(sigma->0) =     -114.137108
 
    CHARGE:  cpu time    0.12: real time    0.12
    FORLOC:  cpu time    0.03: real time    0.03
    FORNL :  cpu time    0.24: real time    0.24
    STRESS:  cpu time    0.39: real time    0.39
    FORCOR:  cpu time    0.17: real time    0.17
    FORHAR:  cpu time    0.06: real time    0.06
    MIXING:  cpu time    0.00: real time    0.00

  FORCE on cell =-STRESS in cart. coord.  units (eV):
  Direction    XX          YY          ZZ          XY          YZ          ZX
  --------------------------------------------------------------------------------------
  Alpha Z    -6.10293    -6.10293    -6.10293
  Ewald    -737.03499  -737.03499  -737.03499     0.00000     0.00000     0.00000
  Hartree    12.34740    12.34740    12.34740     0.00000     0.00000     0.00000
  E(xc)    -264.76134  -264.76134  -264.76134     0.00000     0.00000     0.00000
  Local     -23.03657   -23.03657   -23.03657     0.00000     0.00000     0.00000
  n-local   586.77690   586.77564   586.77698    -0.96051    -0.96055    -0.96036
  augment   -31.46824   -31.46824   -31.46824     0.00001     0.00001     0.00000
  Kinetic   462.80176   462.80165   462.80182    -1.64199    -1.64172    -1.64195
  Fock        0.00000     0.00000     0.00000     0.00000     0.00000     0.00000
  -------------------------------------------------------------------------------------
  Total      -0.47842    -0.47842    -0.47842     0.00000     0.00000     0.00000
  in kB      -1.44927    -1.44927    -1.44927     0.00000     0.00000     0.00000
  external pressure =       -1.45 kB  Pullay stress =        0.00 kB


 VOLUME and BASIS-vectors are now :
 -----------------------------------------------------------------------------
  energy-cutoff  :      300.00
  volume of cell :      528.90
      direct lattice vectors                 reciprocal lattice vectors
     8.087052000  0.000000000  0.000000000     0.123654454  0.000000000  0.000000000
     0.000000000  8.087052000  0.000000000     0.000000000  0.123654454  0.000000000
     0.000000000  0.000000000  8.087052000     0.000000000  0.000000000  0.123654454

  length of vectors
     8.087052000  8.087052000  8.087052000     0.123654454  0.123654454  0.123654454


 FORCES acting on ions
    electron-ion (+dipol)            ewald-force                    non-local-force                 convergence-correction
 -----------------------------------------------------------------------------------------------
   -.429E-14 0.173E-14 0.555E-14   -.742E-14 -.583E-14 -.627E-14   0.000E+00 0.000E+00 0.000E+00   -.175E-13 0.265E-13 -.289E-13
   -.218E+01 0.136E-13 -.218E+01   0.222E+01 -.189E-14 0.222E+01   -.201E+00 0.104E-16 -.201E+00   0.504E-02 0.152E-13 0.504E-02
   -.218E+01 -.218E+01 -.775E-07   0.222E+01 0.222E+01 0.134E-13   -.201E+00 -.201E+00 -.139E-16   0.504E-02 0.504E-02 -.316E-13
   -.496E-14 -.218E+01 -.218E+01   -.397E-15 0.222E+01 0.222E+01   0.867E-17 -.201E+00 -.201E+00   -.723E-14 0.504E-02 0.504E-02
   -.727E-14 -.139E-12 -.301E-12   0.279E-14 0.683E-14 0.505E-14   0.000E+00 0.000E+00 0.000E+00   0.168E-13 0.245E-13 -.508E-13
   0.218E+01 -.100E-13 -.218E+01   -.222E+01 0.389E-14 0.222E+01   0.201E+00 -.123E-17 -.201E+00   -.504E-02 0.133E-13 0.504E-02
   0.218E+01 -.218E+01 -.217E-12   -.222E+01 0.222E+01 0.111E-15   0.201E+00 -.201E+00 0.322E-17   -.504E-02 0.504E-02 -.466E-13
   -.934E-14 -.136E+02 -.136E+02   -.982E-15 0.131E+02 0.131E+02   0.139E-16 0.926E+00 0.926E+00   0.658E-14 0.141E-01 0.141E-01
   -.313E-14 -.959E-14 -.307E-14   0.494E-15 -.194E-14 0.244E-14   0.000E+00 0.000E+00 0.000E+00   -.123E-13 -.266E-13 -.181E-13
   -.136E+02 -.466E-13 -.136E+02   0.131E+02 0.877E-14 0.131E+02   0.926E+00 -.243E-16 0.926E+00   0.141E-01 -.153E-13 0.141E-01
   -.218E+01 0.218E+01 -.146E-12   0.222E+01 -.222E+01 0.278E-15   -.201E+00 0.201E+00 0.372E-17   0.504E-02 -.504E-02 -.224E-13
   -.191E-14 0.218E+01 -.218E+01   0.662E-15 -.222E+01 0.222E+01   0.148E-17 0.201E+00 -.201E+00   -.899E-14 -.504E-02 0.504E-02
   -.925E-14 0.179E-12 0.666E-13   -.172E-15 0.716E-14 -.300E-14   0.000E+00 0.000E+00 0.000E+00   0.119E-13 -.248E-13 -.240E-13
   0.136E+02 0.994E-14 -.136E+02   -.131E+02 0.999E-15 0.131E+02   -.926E+00 0.293E-16 0.926E+00   -.141E-01 -.134E-13 0.141E-01
   0.218E+01 0.218E+01 0.775E-07   -.222E+01 -.222E+01 -.175E-13   0.201E+00 0.201E+00 0.139E-16   -.504E-02 -.504E-02 -.203E-13
   -.906E-14 0.136E+02 -.136E+02   0.452E-14 -.131E+02 0.131E+02   -.251E-16 -.926E+00 0.926E+00   0.862E-14 -.141E-01 0.141E-01
   -.263E-14 -.824E-15 -.532E-14   0.484E-14 0.400E-14 0.627E-14   0.000E+00 0.000E+00 0.000E+00   -.545E-14 0.230E-13 0.301E-13
   -.218E+01 -.779E-13 0.218E+01   0.222E+01 0.111E-15 -.222E+01   -.201E+00 0.123E-17 0.201E+00   0.504E-02 0.241E-13 -.504E-02
   -.136E+02 -.136E+02 -.220E-06   0.131E+02 0.131E+02 -.322E-14   0.926E+00 0.926E+00 0.694E-17   0.141E-01 0.141E-01 0.307E-13
   -.395E-14 -.218E+01 0.218E+01   0.284E-14 0.222E+01 -.222E+01   -.148E-17 -.201E+00 0.201E+00   -.230E-13 0.504E-02 -.504E-02
   -.936E-14 0.131E-13 0.147E-12   0.532E-14 -.300E-14 0.183E-14   0.000E+00 0.000E+00 0.000E+00   0.467E-14 0.158E-13 0.509E-13
   0.218E+01 0.622E-13 0.218E+01   -.222E+01 0.189E-14 -.222E+01   0.201E+00 -.173E-16 0.201E+00   -.504E-02 0.387E-13 -.504E-02
   0.136E+02 -.136E+02 0.244E-12   -.131E+02 0.131E+02 -.999E-15   -.926E+00 0.926E+00 -.147E-16   -.141E-01 0.141E-01 0.474E-13
   -.926E-14 -.136E+02 0.136E+02   -.321E-14 0.131E+02 -.131E+02   0.112E-16 0.926E+00 -.926E+00   0.225E-13 0.141E-01 -.141E-01
   -.935E-15 -.811E-14 -.390E-14   -.663E-14 -.322E-14 0.333E-15   0.000E+00 0.000E+00 0.000E+00   -.124E-13 -.225E-13 0.185E-13
   -.136E+02 -.966E-14 0.136E+02   0.131E+02 0.810E-14 -.131E+02   0.926E+00 -.155E-16 -.926E+00   0.141E-01 -.241E-13 -.141E-01
   -.136E+02 0.136E+02 -.484E-13   0.131E+02 -.131E+02 -.666E-15   0.926E+00 -.926E+00 0.147E-16   0.141E-01 -.141E-01 0.222E-13
   -.138E-14 0.218E+01 0.218E+01   0.712E-14 -.222E+01 -.222E+01   -.867E-17 0.201E+00 0.201E+00   -.839E-14 -.504E-02 -.504E-02
   0.136E+02 -.157E-12 0.136E+02   -.131E+02 -.616E-14 -.131E+02   -.926E+00 0.243E-16 -.926E+00   -.141E-01 -.383E-13 -.141E-01
   0.136E+02 0.136E+02 0.220E-06   -.131E+02 -.131E+02 -.422E-14   -.926E+00 -.926E+00 -.208E-16   -.141E-01 -.141E-01 0.235E-13
   -.909E-14 0.136E+02 0.136E+02   0.994E-15 -.131E+02 -.131E+02   -.694E-17 -.926E+00 -.926E+00   0.825E-14 -.141E-01 -.141E-01
 -----------------------------------------------------------------------------------------------
   -.279E-12 -.216E-12 -.556E-12   -.782E-15 0.586E-13 0.426E-13   -.694E-17 0.222E-15 -.777E-15   -.159E-13 0.211E-13 -.341E-13
 
 
 POSITION                                       TOTAL-FORCE (eV/Angst)
 -----------------------------------------------------------------------------------
      0.00000      0.00000      0.00000         0.000000      0.000000      0.000000
      2.02527      0.00000      2.02527        -0.154486      0.000000     -0.154486
      2.02527      2.02527      0.00000        -0.154486     -0.154486      0.000000
      0.00000      2.02527      2.02527         0.000000     -0.154486     -0.154486
      4.04353      0.00000      0.00000         0.000000      0.000000      0.000000
      6.06178      0.00000      2.02527         0.154486      0.000000     -0.154486
      6.06178      2.02527      0.00000         0.154486     -0.154486      0.000000
      4.04353      1.96236      1.96236         0.000000      0.438041      0.438041
      0.00000      4.04353      0.00000         0.000000      0.000000      0.000000
      1.96236      4.04353      1.96236         0.438041      0.000000      0.438041
      2.02527      6.06178      0.00000        -0.154486      0.154486      0.000000
      0.00000      6.06178      2.02527         0.000000      0.154486     -0.154486
      4.04353      4.04353      0.00000         0.000000      0.000000      0.000000
      6.12469      4.04353      1.96236        -0.438041      0.000000      0.438041
      6.06178      6.06178      0.00000         0.154486      0.154486      0.000000
      4.04353      6.12469      1.96236         0.000000     -0.438041      0.438041
      0.00000      0.00000      4.04353         0.000000      0.000000      0.000000
      2.02527      0.00000      6.06178        -0.154486      0.000000      0.154486
      1.96236      1.96236      4.04353         0.438041      0.438041      0.000000
      0.00000      2.02527      6.06178         0.000000     -0.154486      0.154486
      4.04353      0.00000      4.04353         0.000000      0.000000      0.000000
      6.06178      0.00000      6.06178         0.154486      0.000000      0.154486
      6.12469      1.96236      4.04353        -0.438041      0.438041      0.000000
      4.04353      1.96236      6.12469         0.000000      0.438041     -0.438041
      0.00000      4.04353      4.04353         0.000000      0.000000      0.000000
      1.96236      4.04353      6.12469         0.438041      0.000000     -0.438041
      1.96236      6.12469      4.04353         0.438041     -0.438041      0.000000
      0.00000      6.06178      6.06178         0.000000      0.154486      0.154486
      6.12469      4.04353      6.12469        -0.438041      0.000000     -0.438041
      6.12469      6.12469      4.04353        -0.438041     -0.438041      0.000000
      4.04353      6.12469      6.12469         0.000000     -0.438041     -0.438041
 -----------------------------------------------------------------------------------
    total drift:                                0.000000      0.000000      0.000000


--------------------------------------------------------------------------------------------------------


    POTLOK:  cpu time    0.16: real time    0.16


--------------------------------------------------------------------------------------------------------


  FORCES: max atom, RMS     0.619483    0.408692
  FORCE total and by dimension    2.275500    0.438041


--------------------------------------------------------------------------------------------------------


    WAVPRE:  cpu time    0.04: real time    0.04
    FEWALD:  cpu time    0.01: real time    0.01
    ORTHCH:  cpu time    0.05: real time    0.05
     LOOP+:  cpu time   13.96: real time   14.00
   RESPFUN:  cpu time    0.00: real time    0.00


----------------------------------------- Iteration    2(   1)  ---------------------------------------


    POTLOK:  cpu time    0.15: real time    0.15
    SETDIJ:  cpu time    0.01: real time    0.01
    EDDIAG:  cpu time    0.15: real time    0.15
  RMM-DIIS:  cpu time    0.60: real time    0.60
    ORTHCH:  cpu time    0.01: real time    0.01
       DOS:  cpu time    0.00: real time    0.00
    CHARGE:  cpu time    0.13: real time    0.13
    MIXING:  cpu time    0.00: real time    0.00
    --------------------------------------------
      LOOP:  cpu time    1.05: real time    1.05

 eigenvalue-minimisations  :   144
 total energy-change (2. order) :-0.2214171E+00  (-0.1674409E+00)
 number of electron   92.9999996 magnetization 
 augmentation part    -1.1817810 magnetization 

 Broyden mixing:
  rms(total) = 0.27155E-01    rms(broyden)= 0.27150E-01
  rms(prec ) = 0.72677E-01
  weight for this iteration     100.00

 Free energy of the ion-electron system (eV)
  ---------------------------------------------------
  alpha Z        PSCENC =        -6.10292983
  Ewald energy   TEWEN  =     -2216.99236628
  -1/2 Hartree   DENC   =       -32.44729470
  -exchange  EXHF       =         0.00000000
  -V(xc)+E(xc)   XCENC  =      -811.13753515
  PAW double counting   =      1107.59978737     -117.44039855
  entropy T*S    EENTRO =        -0.04184699
  eigenvalues    EBANDS =       302.52697077
  atomic energy  EATOM  =      1659.66634407
  ---------------------------------------------------
  free energy    TOTEN  =      -114.36926930 eV

  energy without entropy =     -114.32742231  energy(sigma->0) =     -114.35532030


--------------------------------------------------------------------------------------------------------




----------------------------------------- Iteration    2(   2)  ---------------------------------------


    POTLOK:  cpu time    0.14: real time    0.14
    SETDIJ:  cpu time    0.01: real time    0.01
    EDDIAG:  cpu time    0.15: real time    0.15
  RMM-DIIS:  cpu time    0.62: real time    0.62
    ORTHCH:  cpu time    0.01: real time    0.01
       DOS:  cpu time    0.00: real time    0.00
    CHARGE:  cpu time    0.13: real time    0.13
    MIXING:  cpu time    0.00: real time    0.00
    --------------------------------------------
      LOOP:  cpu time    1.07: real time    1.07

 eigenvalue-minimisations  :   145
 total energy-change (2. order) : 0.6782175E-02  (-0.2118430E-02)
 number of electron   92.9999996 magnetization 
 augmentation part    -1.1817801 magnetization 

 Broyden mixing:
  rms(total) = 0.11747E-01    rms(broyden)= 0.11747E-01
  rms(prec ) = 0.24305E-01
  weight for this iteration     100.00

 eigenvalues of (default mixing * dielectric matrix)
  average eigenvalue GAMMA=   1.5737
  1.5737

 Free energy of the ion-electron system (eV)
  ---------------------------------------------------
  alpha Z        PSCENC =        -6.10292983
  Ewald energy   TEWEN  =     -2216.99236628
  -1/2 Hartree   DENC   =       -32.21729587
  -exchange  EXHF       =         0.00000000
  -V(xc)+E(xc)   XCENC  =      -811.14589180
  PAW double counting   =      1107.43884571     -117.27254930
  entropy T*S    EENTRO =        -0.04348153
  eigenvalues    EBANDS =       302.30683772
  atomic energy  EATOM  =      1659.66634407
  ---------------------------------------------------
  free energy    TOTEN  =      -114.36248712 eV

  energy without entropy =     -114.31900559  energy(sigma->0) =     -114.34799328


--------------------------------------------------------------------------------------------------------




----------------------------------------- Iteration    2(   3)  ---------------------------------------


    POTLOK:  cpu time    0.14: real time    0.14
    SETDIJ:  cpu time    0.01: real time    0.01
    EDDIAG:  cpu time    0.15: real time    0.15
  RMM-DIIS:  cpu time    0.60: real time    0.60
    ORTHCH:  cpu time    0.01: real time    0.01
       DOS:  cpu time    0.00: real time    0.00
    CHARGE:  cpu time    0.13: real time    0.13
    MIXING:  cpu time    0.00: real time    0.00
    --------------------------------------------
      LOOP:  cpu time    1.05: real time    1.05

 eigenvalue-minimisations  :   144
 total energy-change (2. order) : 0.6754740E-03  (-0.3390321E-03)
 number of electron   92.9999996 magnetization 
 augmentation part    -1.1817709 magnetization 

 Broyden mixing:
  rms(total) = 0.46137E-02    rms(broyden)= 0.46136E-02
  rms(prec ) = 0.69195E-02
  weight for this iteration     100.00

 eigenvalues of (default mixing * dielectric matrix)
  average eigenvalue GAMMA=   1.6102
  1.8818  1.3387

 Free energy of the ion-electron system (eV)
  ---------------------------------------------------
  alpha Z        PSCENC =        -6.10292983
  Ewald energy   TEWEN  =     -2216.99236628
  -1/2 Hartree   DENC   =       -32.13961986
  -exchange  EXHF       =         0.00000000
  -V(xc)+E(xc)   XCENC  =      -811.15064153
  PAW double counting   =      1107.31234755     -117.14083223
  entropy T*S    EENTRO =        -0.04451575
  eigenvalues    EBANDS =       302.23040223
  atomic energy  EATOM  =      1659.66634407
  ---------------------------------------------------
  free energy    TOTEN  =      -114.36181165 eV

  energy without entropy =     -114.31729589  energy(sigma->0) =     -114.34697306


--------------------------------------------------------------------------------------------------------




----------------------------------------- Iteration    2(   4)  ---------------------------------------


    POTLOK:  cpu time    0.14: real time    0.14
    SETDIJ:  cpu time    0.01: real time    0.01
    EDDIAG:  cpu time    0.15: real time    0.15
  RMM-DIIS:  cpu time    0.41: real time    0.42
    ORTHCH:  cpu time    0.01: real time    0.01
       DOS:  cpu time    0.00: real time    0.00
    --------------------------------------------
      LOOP:  cpu time    0.73: real time    0.73

 eigenvalue-minimisations  :    92
 total energy-change (2. order) :-0.8769476E-05  (-0.1334083E-04)
 number of electron   92.9999996 magnetization 
 augmentation part    -1.1817709 magnetization 

 Free energy of the ion-electron system (eV)
  ---------------------------------------------------
  alpha Z        PSCENC =        -6.10292983
  Ewald energy   TEWEN  =     -2216.99236628
  -1/2 Hartree   DENC   =       -32.14549919
  -exchange  EXHF       =         0.00000000
  -V(xc)+E(xc)   XCENC  =      -811.15198391
  PAW double counting   =      1107.25632343     -117.08251456
  entropy T*S    EENTRO =        -0.04459571
  eigenvalues    EBANDS =       302.23540157
  atomic energy  EATOM  =      1659.66634407
  ---------------------------------------------------
  free energy    TOTEN  =      -114.36182042 eV

  energy without entropy =     -114.31722470  energy(sigma->0) =     -114.34695518


--------------------------------------------------------------------------------------------------------




 average (electrostatic) potential at core
  the test charge radii are     1.0406
  (the norm of the test charge is              1.0000)
       1 -72.8802       2 -73.0180       3 -73.0180       4 -73.0180       5 -73.0065
       6 -73.0180       7 -73.0180       8 -72.9917       9 -73.0065      10 -72.9917
      11 -73.0180      12 -73.0180      13 -73.0936      14 -72.9917      15 -73.0180
      16 -72.9917      17 -73.0065      18 -73.0180      19 -72.9917      20 -73.0180
      21 -73.0936      22 -73.0180      23 -72.9917      24 -72.9917      25 -73.0936
      26 -72.9917      27 -72.9917      28 -73.0180      29 -72.9917      30 -72.9917
      31 -72.9917
 
 
 
 E-fermi :   7.8382     XC(G=0): -10.0354     alpha+bet :-14.3870
   add alpha+bet to get absolut eigen values

 k-point   1 :       0.2500    0.2500    0.2500
  band No.  band energies     occupation 
      1      -3.0065      2.00000
      2      -1.9551      2.00000
      3      -1.9551      2.00000
      4      -1.6788      2.00000
      5      -0.8293      2.00000
      6      -0.8293      2.00000
      7      -0.4530      2.00000
      8       0.2598      2.00000
      9       0.2598      2.00000
     10       0.4887      2.00000
     11       0.6349      2.00000
     12       1.2675      2.00000
     13       1.3702      2.00000
     14       1.3702      2.00000
     15       1.5854      2.00000
     16       1.5854      2.00000
     17       1.9307      2.00000
     18       2.6387      2.00000
     19       2.6387      2.00000
     20       2.8247      2.00000
     21       3.5294      2.00000
     22       3.5294      2.00000
     23       3.6322      2.00000
     24       3.6322      2.00000
     25       3.6867      2.00000
     26       4.0198      2.00000
     27       4.4628      2.00000
     28       4.5676      2.00000
     29       4.5676      2.00000
     30       4.7600      2.00000
     31       4.7600      2.00000
     32       4.8958      2.00000
     33       4.8958      2.00000
     34       4.9941      2.00000
     35       5.2459      2.00000
     36       5.7265      2.00000
     37       5.7265      2.00000
     38       6.3840      2.00000
     39       6.6567      2.00000
     40       6.7260      2.00000
     41       6.7260      2.00000
     42       6.9898      2.00000
     43       7.0283      2.00000
     44       7.0283      2.00000
     45       7.1338      2.00001
     46       7.7423      1.71728
     47       7.8676      0.75424
     48       7.8676      0.75424
     49       8.0829     -0.07092
     50       8.0829     -0.07092
     51       8.1791     -0.03672
     52       8.1791     -0.03672
     53       8.2740     -0.00860
     54       8.3472     -0.00189
     55       9.0440      0.00000
     56       9.1189      0.00000
     57       9.1189      0.00000
     58       9.3926      0.00000
     59       9.3927      0.00000
     60       9.4416      0.00000
     61       9.9850      0.00000
     62       9.9852      0.00000
     63      10.0645      0.00000
     64      10.0804      0.00000
     65      10.1068      0.00000
     66      10.1069      0.00000
     67      10.5399      0.00000
     68      10.5421      0.00000
     69      10.7036      0.00000
     70      10.9494      0.00000
     71      10.9808      0.00000
     72      11.2214      0.00000


--------------------------------------------------------------------------------------------------------


 soft charge-density along one line, spin component           1
         0         1         2         3         4         5         6         7         8         9
 total charge-density along one line
 
 pseudopotential strength for first ion, spin component:           1
  8.456  -0.006   0.000   0.000   0.000   0.000   0.000   0.000
 -0.006   0.000   0.000   0.000   0.000   0.000   0.000   0.000
  0.000   0.000   1.989   0.000   0.000  -0.026   0.000   0.000
  0.000   0.000   0.000   1.989   0.000   0.000  -0.026   0.000
  0.000   0.000   0.000   0.000   1.989   0.000   0.000  -0.026
  0.000   0.000  -0.026   0.000   0.000  -0.012   0.000   0.000
  0.000   0.000   0.000  -0.026   0.000   0.000  -0.012   0.000
  0.000   0.000   0.000   0.000  -0.026   0.000   0.000  -0.012
 total augmentation occupancy for first ion, spin component:           1
  1.326  -0.515   0.000   0.000   0.000   0.000   0.000   0.000
 -0.515   0.510   0.000   0.000   0.000   0.000   0.000   0.000
  0.000   0.000   0.750   0.000   0.000  -0.187   0.000   0.000
  0.000   0.000   0.000   0.750   0.000   0.000  -0.187   0.000
  0.000   0.000   0.000   0.000   0.750   0.000   0.000  -0.187
  0.000   0.000  -0.187   0.000   0.000   0.052   0.000   0.000
  0.000   0.000   0.000  -0.187   0.000   0.000   0.052   0.000
  0.000   0.000   0.000   0.000  -0.187   0.000   0.000   0.052


------------------------ aborting loop because EDIFF is reached ----------------------------------------




--------------------------------------------------------------------------------------------------------



  FREE ENERGIE OF THE ION-ELECTRON SYSTEM (eV)
  ---------------------------------------------------
  free  energy   TOTEN  =      -114.361820 eV

  energy  without entropy=     -114.317225  energy(sigma->0) =     -114.346955
 
    CHARGE:  cpu time    0.12: real time    0.12
    FORLOC:  cpu time    0.03: real time    0.03
    FORNL :  cpu time    0.24: real time    0.24
    STRESS:  cpu time    0.39: real time    0.39
    FORCOR:  cpu time    0.16: real time    0.17
    FORHAR:  cpu time    0.06: real time    0.06
    MIXING:  cpu time    0.00: real time    0.00

  FORCE on cell =-STRESS in cart. coord.  units (eV):
  Direction    XX          YY          ZZ          XY          YZ          ZX
  --------------------------------------------------------------------------------------
  Alpha Z    -6.10293    -6.10293    -6.10293
  Ewald    -739.00052  -739.00052  -739.00052     0.00000     0.00000     0.00000
  Hartree    10.71695    10.71695    10.71695     0.00000     0.00000     0.00000
  E(xc)    -264.54262  -264.54262  -264.54262     0.00000     0.00000     0.00000
  Local     -19.07436   -19.07436   -19.07436     0.00000     0.00000     0.00000
  n-local   586.17566   586.17522   586.17559    -0.93662    -0.93669    -0.93670
  augment   -31.52030   -31.52030   -31.52030     0.00001     0.00000     0.00000
  Kinetic   462.02196   462.02185   462.02186    -1.66132    -1.66127    -1.66125
  Fock        0.00000     0.00000     0.00000     0.00000     0.00000     0.00000
  -------------------------------------------------------------------------------------
  Total      -1.32641    -1.32641    -1.32641     0.00000     0.00000     0.00000
  in kB      -4.01807    -4.01807    -4.01807     0.00000     0.00000     0.00000
  external pressure =       -4.02 kB  Pullay stress =        0.00 kB


 VOLUME and BASIS-vectors are now :
 -----------------------------------------------------------------------------
  energy-cutoff  :      300.00
  volume of cell :      528.90
      direct lattice vectors                 reciprocal lattice vectors
     8.087052000  0.000000000  0.000000000     0.123654454  0.000000000  0.000000000
     0.000000000  8.087052000  0.000000000     0.000000000  0.123654454  0.000000000
     0.000000000  0.000000000  8.087052000     0.000000000  0.000000000  0.123654454

  length of vectors
     8.087052000  8.087052000  8.087052000     0.123654454  0.123654454  0.123654454


 FORCES acting on ions
    electron-ion (+dipol)            ewald-force                    non-local-force                 convergence-correction
 -----------------------------------------------------------------------------------------------
   0.165E-14 -.186E-13 -.159E-13   -.498E-14 -.261E-14 0.139E-14   0.000E+00 0.000E+00 0.000E+00   -.712E-13 -.539E-13 -.289E-13
[...]


    POTLOK:  cpu time    0.14: real time    0.14
    SETDIJ:  cpu time    0.01: real time    0.01
    EDDIAG:  cpu time    0.15: real time    0.15
  RMM-DIIS:  cpu time    0.61: real time    0.61
    ORTHCH:  cpu time    0.01: real time    0.01
       DOS:  cpu time    0.00: real time    0.00
    CHARGE:  cpu time    0.13: real time    0.13
    MIXING:  cpu time    0.00: real time    0.00
    --------------------------------------------
      LOOP:  cpu time    1.07: real time    1.07

 eigenvalue-minimisations  :   145
 total energy-change (2. order) : 0.2125780E-02  (-0.6003191E-03)
 number of electron   92.9999994 magnetization 
 augmentation part    -1.1857119 magnetization 

 Broyden mixing:
  rms(total) = 0.43887E-02    rms(broyden)= 0.43883E-02
  rms(prec ) = 0.62631E-02
  weight for this iteration     100.00

 eigenvalues of (default mixing * dielectric matrix)
  average eigenvalue GAMMA=   1.2192
  1.2192

 Free energy of the ion-electron system (eV)
  ---------------------------------------------------
  alpha Z        PSCENC =        -6.10292983
  Ewald energy   TEWEN  =     -2232.10862733
  -1/2 Hartree   DENC   =       -19.24358158
  -exchange  EXHF       =         0.00000000
  -V(xc)+E(xc)   XCENC  =      -811.43841130
  PAW double counting   =      1106.78730375     -116.58945316
  entropy T*S    EENTRO =        -0.05034320
  eigenvalues    EBANDS =       304.47680472
  atomic energy  EATOM  =      1659.66634407
  ---------------------------------------------------
  free energy    TOTEN  =      -114.60289386 eV

  energy without entropy =     -114.55255067  energy(sigma->0) =     -114.58611280


--------------------------------------------------------------------------------------------------------




----------------------------------------- Iteration    5(   3)  ---------------------------------------


    POTLOK:  cpu time    0.14: real time    0.15
    SETDIJ:  cpu time    0.01: real time    0.01
    EDDIAG:  cpu time    0.15: real time    0.15
  RMM-DIIS:  cpu time    0.47: real time    0.47
    ORTHCH:  cpu time    0.01: real time    0.01
       DOS:  cpu time    0.00: real time    0.00
    --------------------------------------------
      LOOP:  cpu time    0.79: real time    0.80

 eigenvalue-minimisations  :   100
 total energy-change (2. order) :-0.2011526E-04  (-0.1564872E-04)
 number of electron   92.9999994 magnetization 
 augmentation part    -1.1857119 magnetization 

 Free energy of the ion-electron system (eV)
  ---------------------------------------------------
  alpha Z        PSCENC =        -6.10292983
  Ewald energy   TEWEN  =     -2232.10862733
  -1/2 Hartree   DENC   =       -19.23738480
  -exchange  EXHF       =         0.00000000
  -V(xc)+E(xc)   XCENC  =      -811.43918231
  PAW double counting   =      1106.77859562     -116.58020516
  entropy T*S    EENTRO =        -0.05029988
  eigenvalues    EBANDS =       304.47077565
  atomic energy  EATOM  =      1659.66634407
  ---------------------------------------------------
  free energy    TOTEN  =      -114.60291398 eV

  energy without entropy =     -114.55261410  energy(sigma->0) =     -114.58614735


--------------------------------------------------------------------------------------------------------




 average (electrostatic) potential at core
  the test charge radii are     1.0406
  (the norm of the test charge is              1.0000)
       1 -72.9260       2 -73.0122       3 -73.0122       4 -73.0122       5 -73.0555
       6 -73.0122       7 -73.0122       8 -72.9721       9 -73.0555      10 -72.9721
      11 -73.0122      12 -73.0122      13 -73.0614      14 -72.9721      15 -73.0122
      16 -72.9721      17 -73.0555      18 -73.0122      19 -72.9721      20 -73.0122
      21 -73.0614      22 -73.0122      23 -72.9721      24 -72.9721      25 -73.0614
      26 -72.9721      27 -72.9721      28 -73.0122      29 -72.9721      30 -72.9721
      31 -72.9721
 
 
 
 E-fermi :   7.8783     XC(G=0): -10.0466     alpha+bet :-14.3870
   add alpha+bet to get absolut eigen values

 k-point   1 :       0.2500    0.2500    0.2500
  band No.  band energies     occupation 
      1      -2.9338      2.00000
      2      -1.8582      2.00000
      3      -1.8582      2.00000
      4      -1.6868      2.00000
      5      -0.7431      2.00000
      6      -0.7431      2.00000
      7      -0.4978      2.00000
      8       0.3604      2.00000
      9       0.3604      2.00000
     10       0.4264      2.00000
     11       0.6048      2.00000
     12       1.4285      2.00000
     13       1.4285      2.00000
     14       1.4578      2.00000
     15       1.5629      2.00000
     16       1.5629      2.00000
     17       1.9076      2.00000
     18       2.6343      2.00000
     19       2.6343      2.00000
     20       2.7520      2.00000
     21       3.5953      2.00000
     22       3.5953      2.00000
     23       3.6960      2.00000
     24       3.6976      2.00000
     25       3.6976      2.00000
     26       3.9887      2.00000
     27       4.6227      2.00000
     28       4.6227      2.00000
     29       4.6550      2.00000
     30       4.7169      2.00000
     31       4.7169      2.00000
     32       4.9105      2.00000
     33       4.9105      2.00000
     34       4.9147      2.00000
     35       5.1739      2.00000
     36       5.7638      2.00000
     37       5.7638      2.00000
     38       6.2218      2.00000
     39       6.7775      2.00000
     40       6.7938      2.00000
     41       6.7938      2.00000
     42       6.9708      2.00000
     43       7.0223      2.00000
     44       7.0308      2.00000
     45       7.0308      2.00000
     46       7.8357      1.35182
     47       7.8816      0.97208
     48       7.8816      0.97208
     49       8.0964     -0.06425
     50       8.0964     -0.06425
     51       8.1539     -0.06510
     52       8.1959     -0.04724
     53       8.1959     -0.04724
     54       8.3188     -0.00788
     55       9.1495      0.00000
     56       9.1495      0.00000
     57       9.1816      0.00000
     58       9.4089      0.00000
     59       9.4089      0.00000
     60       9.4348      0.00000
     61       9.9873      0.00000
     62      10.0040      0.00000
     63      10.0040      0.00000
     64      10.0528      0.00000
     65      10.1288      0.00000
     66      10.1288      0.00000
     67      10.5324      0.00000
     68      10.5325      0.00000
     69      10.5831      0.00000
     70      10.9766      0.00000
     71      10.9817      0.00000
     72      11.3220      0.00000


--------------------------------------------------------------------------------------------------------


 soft charge-density along one line, spin component           1
         0         1         2         3         4         5         6         7         8         9
 total charge-density along one line
 
 pseudopotential strength for first ion, spin component:           1
  8.457  -0.006   0.000   0.000   0.000   0.000   0.000   0.000
 -0.006   0.000   0.000   0.000   0.000   0.000   0.000   0.000
  0.000   0.000   1.989   0.000   0.000  -0.026   0.000   0.000
  0.000   0.000   0.000   1.989   0.000   0.000  -0.026   0.000
  0.000   0.000   0.000   0.000   1.989   0.000   0.000  -0.026
  0.000   0.000  -0.026   0.000   0.000  -0.012   0.000   0.000
  0.000   0.000   0.000  -0.026   0.000   0.000  -0.012   0.000
  0.000   0.000   0.000   0.000  -0.026   0.000   0.000  -0.012
 total augmentation occupancy for first ion, spin component:           1
  1.327  -0.509   0.000   0.000   0.000   0.000   0.000   0.000
 -0.509   0.495   0.000   0.000   0.000   0.000   0.000   0.000
  0.000   0.000   0.746   0.000   0.000  -0.186   0.000   0.000
  0.000   0.000   0.000   0.746   0.000   0.000  -0.186   0.000
  0.000   0.000   0.000   0.000   0.746   0.000   0.000  -0.186
  0.000   0.000  -0.186   0.000   0.000   0.052   0.000   0.000
  0.000   0.000   0.000  -0.186   0.000   0.000   0.052   0.000
  0.000   0.000   0.000   0.000  -0.186   0.000   0.000   0.052


------------------------ aborting loop because EDIFF is reached ----------------------------------------




--------------------------------------------------------------------------------------------------------



  FREE ENERGIE OF THE ION-ELECTRON SYSTEM (eV)
  ---------------------------------------------------
  free  energy   TOTEN  =      -114.602914 eV

  energy  without entropy=     -114.552614  energy(sigma->0) =     -114.586147
 
    CHARGE:  cpu time    0.12: real time    0.12
    FORLOC:  cpu time    0.03: real time    0.03
    FORNL :  cpu time    0.24: real time    0.24
    STRESS:  cpu time    0.39: real time    0.39
    FORCOR:  cpu time    0.16: real time    0.17
    FORHAR:  cpu time    0.06: real time    0.06
    MIXING:  cpu time    0.00: real time    0.00

  FORCE on cell =-STRESS in cart. coord.  units (eV):
  Direction    XX          YY          ZZ          XY          YZ          ZX
  --------------------------------------------------------------------------------------
  Alpha Z    -6.10293    -6.10293    -6.10293
  Ewald    -744.03927  -744.03927  -744.03927     0.00000     0.00000     0.00000
  Hartree     6.41038     6.41038     6.41038     0.00000     0.00000     0.00000
  E(xc)    -264.13302  -264.13302  -264.13302     0.00000     0.00000     0.00000
  Local      -9.11848    -9.11848    -9.11848     0.00000     0.00000     0.00000
  n-local   585.60591   585.60592   585.60604    -0.90233    -0.90234    -0.90236
  augment   -31.62794   -31.62794   -31.62794     0.00001     0.00000     0.00000
  Kinetic   460.39464   460.39465   460.39468    -1.44999    -1.44995    -1.44997
  Fock        0.00000     0.00000     0.00000     0.00000     0.00000     0.00000
  -------------------------------------------------------------------------------------
  Total      -2.61065    -2.61065    -2.61065     0.00000     0.00000     0.00000
  in kB      -7.90839    -7.90839    -7.90839     0.00000     0.00000     0.00000
  external pressure =       -7.91 kB  Pullay stress =        0.00 kB


 VOLUME and BASIS-vectors are now :
 -----------------------------------------------------------------------------
  energy-cutoff  :      300.00
  volume of cell :      528.90
      direct lattice vectors                 reciprocal lattice vectors
     8.087052000  0.000000000  0.000000000     0.123654454  0.000000000  0.000000000
     0.000000000  8.087052000  0.000000000     0.000000000  0.123654454  0.000000000
     0.000000000  0.000000000  8.087052000     0.000000000  0.000000000  0.123654454

  length of vectors
     8.087052000  8.087052000  8.087052000     0.123654454  0.123654454  0.123654454


 FORCES acting on ions
    electron-ion (+dipol)            ewald-force                    non-local-force                 convergence-correction
 -----------------------------------------------------------------------------------------------
   -.677E-14 -.356E-13 -.323E-13   -.184E-13 -.738E-14 0.139E-13   0.000E+00 0.000E+00 0.000E+00   0.218E-12 -.348E-13 0.735E-13
   -.233E+01 -.354E-14 -.233E+01   0.231E+01 -.466E-14 0.231E+01   0.437E-01 -.260E-17 0.437E-01   0.775E-03 -.536E-13 0.775E-03
   -.233E+01 -.233E+01 0.976E-07   0.231E+01 0.231E+01 -.461E-14   0.437E-01 0.437E-01 0.694E-17   0.774E-03 0.774E-03 -.932E-13
   -.518E-14 -.233E+01 -.233E+01   0.326E-14 0.231E+01 0.231E+01   -.867E-18 0.437E-01 0.437E-01   -.259E-12 0.775E-03 0.775E-03
   -.139E-13 -.185E-13 -.172E-12   -.233E-14 -.244E-14 0.816E-14   0.000E+00 0.000E+00 0.000E+00   -.216E-12 -.487E-13 0.468E-13
   0.233E+01 -.741E-14 -.233E+01   -.231E+01 0.289E-14 0.231E+01   -.437E-01 0.388E-17 0.437E-01   -.775E-03 -.352E-13 0.775E-03
   0.233E+01 -.233E+01 -.433E-13   -.231E+01 0.231E+01 0.161E-14   -.437E-01 0.437E-01 -.844E-17   -.774E-03 0.774E-03 0.276E-12
   -.128E-13 -.753E+01 -.753E+01   0.813E-14 0.762E+01 0.762E+01   -.173E-16 -.117E+00 -.117E+00   0.262E-12 0.441E-03 0.443E-03
   -.550E-14 -.154E-13 -.216E-14   0.462E-14 0.455E-14 0.722E-15   0.000E+00 0.000E+00 0.000E+00   -.152E-12 0.491E-13 0.811E-13
   -.753E+01 -.180E-13 -.753E+01   0.762E+01 0.772E-14 0.762E+01   -.117E+00 -.243E-16 -.117E+00   0.441E-03 0.278E-13 0.443E-03
   -.233E+01 0.233E+01 0.127E-13   0.231E+01 -.231E+01 -.122E-13   0.437E-01 -.437E-01 -.370E-17   0.774E-03 -.774E-03 -.135E-12
   -.511E-14 0.233E+01 -.233E+01   0.589E-14 -.231E+01 0.231E+01   0.196E-17 -.437E-01 0.437E-01   -.244E-12 -.775E-03 0.775E-03
   -.130E-13 0.211E-12 0.522E-13   -.138E-15 0.272E-14 -.305E-14   0.000E+00 0.000E+00 0.000E+00   0.150E-12 0.268E-13 0.656E-13
   0.753E+01 -.232E-13 -.753E+01   -.762E+01 -.444E-14 0.762E+01   0.117E+00 0.131E-16 -.117E+00   -.441E-03 0.183E-13 0.443E-03
   0.233E+01 0.233E+01 -.976E-07   -.231E+01 -.231E+01 -.104E-13   -.437E-01 -.437E-01 0.520E-17   -.774E-03 -.774E-03 0.271E-12
   -.132E-13 0.753E+01 -.753E+01   0.132E-14 -.762E+01 0.762E+01   -.133E-17 0.117E+00 -.117E+00   0.248E-12 -.441E-03 0.443E-03
   -.277E-14 -.282E-14 -.126E-13   0.868E-15 0.117E-14 -.810E-14   0.000E+00 0.000E+00 0.000E+00   -.187E-12 -.532E-13 -.894E-13
   -.233E+01 -.116E-13 0.233E+01   0.231E+01 0.205E-14 -.231E+01   0.437E-01 -.561E-17 -.437E-01   0.775E-03 -.105E-12 -.775E-03
   -.753E+01 -.753E+01 -.276E-06   0.762E+01 0.762E+01 0.350E-14   -.117E+00 -.117E+00 0.173E-16   0.442E-03 0.442E-03 0.502E-13
   -.556E-14 -.233E+01 0.233E+01   0.368E-14 0.231E+01 -.231E+01   0.671E-17 0.437E-01 -.437E-01   0.102E-12 0.775E-03 -.775E-03
   -.104E-13 0.415E-13 0.181E-12   -.244E-14 0.766E-14 0.944E-15   0.000E+00 0.000E+00 0.000E+00   0.185E-12 -.821E-13 -.976E-13
   0.233E+01 0.255E-13 0.233E+01   -.231E+01 0.383E-14 -.231E+01   -.437E-01 -.607E-17 -.437E-01   -.775E-03 -.415E-13 -.775E-03
   0.753E+01 -.753E+01 -.142E-12   -.762E+01 0.762E+01 0.799E-14   0.117E+00 -.117E+00 -.133E-17   -.442E-03 0.442E-03 -.306E-12
   -.126E-13 -.753E+01 0.753E+01   -.205E-14 0.762E+01 -.762E+01   0.133E-17 -.117E+00 0.117E+00   -.100E-12 0.441E-03 -.443E-03
   -.253E-14 -.442E-13 -.428E-13   0.412E-14 -.661E-14 0.383E-14   0.000E+00 0.000E+00 0.000E+00   -.119E-12 0.399E-13 -.807E-13
   -.753E+01 0.260E-13 0.753E+01   0.762E+01 0.483E-14 -.762E+01   -.117E+00 -.131E-16 0.117E+00   0.441E-03 0.911E-13 -.443E-03
   -.753E+01 0.753E+01 0.226E-12   0.762E+01 -.762E+01 0.305E-14   -.117E+00 0.117E+00 0.133E-17   0.442E-03 -.442E-03 0.122E-12
   -.614E-14 0.233E+01 0.233E+01   0.645E-14 -.231E+01 -.231E+01   -.954E-17 -.437E-01 -.437E-01   0.163E-12 -.775E-03 -.775E-03
   0.753E+01 0.356E-13 0.753E+01   -.762E+01 -.147E-13 -.762E+01   0.117E+00 0.243E-16 0.117E+00   -.441E-03 0.293E-13 -.443E-03
   0.753E+01 0.753E+01 0.276E-06   -.762E+01 -.762E+01 -.583E-14   0.117E+00 0.117E+00 -.173E-16   -.442E-03 -.442E-03 -.292E-12
   -.139E-13 0.753E+01 0.753E+01   -.111E-13 -.762E+01 -.762E+01   0.173E-16 0.117E+00 0.117E+00   -.163E-12 -.441E-03 -.443E-03
 -----------------------------------------------------------------------------------------------
   0.308E-12 -.343E-12 0.225E-12   -.400E-14 0.533E-14 -.799E-14   -.382E-16 0.694E-16 0.194E-15   -.785E-13 -.262E-13 0.872E-13
 
 
 POSITION                                       TOTAL-FORCE (eV/Angst)
 -----------------------------------------------------------------------------------
      0.00000      0.00000      0.00000         0.000000      0.000000      0.000000
      2.01723      0.00000      2.01723         0.023084      0.000000      0.023084
      2.01723      2.01723      0.00000         0.023084      0.023084      0.000000
      0.00000      2.01723      2.01723         0.000000      0.023084      0.023084
      4.04353      0.00000      0.00000         0.000000      0.000000      0.000000
      6.06982      0.00000      2.01723        -0.023084      0.000000      0.023084
      6.06982      2.01723      0.00000        -0.023084      0.023084      0.000000
      4.04353      2.04820      2.04820         0.000000     -0.025695     -0.025695
      0.00000      4.04353      0.00000         0.000000      0.000000      0.000000
      2.04820      4.04353      2.04820        -0.025695      0.000000     -0.025695
      2.01723      6.06982      0.00000         0.023084     -0.023084      0.000000
      0.00000      6.06982      2.01723         0.000000     -0.023084      0.023084
      4.04353      4.04353      0.00000         0.000000      0.000000      0.000000
      6.03885      4.04353      2.04820         0.025695      0.000000     -0.025695
      6.06982      6.06982      0.00000        -0.023084     -0.023084      0.000000
      4.04353      6.03885      2.04820         0.000000      0.025695     -0.025695
      0.00000      0.00000      4.04353         0.000000      0.000000      0.000000
      2.01723      0.00000      6.06982         0.023084      0.000000     -0.023084
      2.04820      2.04820      4.04353        -0.025695     -0.025695      0.000000
      0.00000      2.01723      6.06982         0.000000      0.023084     -0.023084
      4.04353      0.00000      4.04353         0.000000      0.000000      0.000000
      6.06982      0.00000      6.06982        -0.023084      0.000000     -0.023084
      6.03885      2.04820      4.04353         0.025695     -0.025695      0.000000
      4.04353      2.04820      6.03885         0.000000     -0.025695      0.025695
      0.00000      4.04353      4.04353         0.000000      0.000000      0.000000
      2.04820      4.04353      6.03885        -0.025695      0.000000      0.025695
      2.04820      6.03885      4.04353        -0.025695      0.025695      0.000000
      0.00000      6.06982      6.06982         0.000000     -0.023084     -0.023084
      6.03885      4.04353      6.03885         0.025695      0.000000      0.025695
      6.03885      6.03885      4.04353         0.025695      0.025695      0.000000
      4.04353      6.03885      6.03885         0.000000      0.025695      0.025695
 -----------------------------------------------------------------------------------
    total drift:                                0.000000      0.000000      0.000000
 d Force = 0.9545588E-02[ 0.877E-03, 0.182E-01]  d Energy = 0.9599915E-02-0.543E-04
 d Force = 0.1864639E+01[ 0.174E+01, 0.199E+01]  d Ewald  = 0.1864566E+01 0.730E-04


--------------------------------------------------------------------------------------------------------


    POTLOK:  cpu time    0.16: real time    0.16


--------------------------------------------------------------------------------------------------------


  FORCES: max atom, RMS     0.036338    0.030392
  FORCE total and by dimension    0.169216    0.025695


--------------------------------------------------------------------------------------------------------


  
 reached required accuracy - stopping structural energy minimisation
     LOOP+:  cpu time    4.13: real time    4.14
    4ORBIT:  cpu time    0.00: real time    0.00

 total amount of memory used by VASP on root node  58219. kBytes
========================================================================

   base      :    30000. kBytes
   nonl-proj :     3494. kBytes
   fftplans  :     2983. kBytes
   grid      :    21024. kBytes
   one-center:       95. kBytes
   wavefun   :      623. kBytes
 
  
  
 General timing and accounting informations for this job:
 ========================================================
  
                  Total CPU time used (sec):       33.772
                            User time (sec):       33.635
                          System time (sec):        0.137
                         Elapsed time (sec):       33.993
  
                   Maximum memory used (kb):           0.
                   Average memory used (kb):           0.
  
                          Minor page faults:        22485
                          Major page faults:            0
                 Voluntary context switches:         2469
