<?xml version="1.0" encoding="ISO-8859-1"?>
<modeling>
 <generator>
  <i name="program" type="string">vasp </i>
  <i name="version" type="string">5.2.2  </i>
  <i name="subversion" type="string">15Apr09 complex  parallel </i>
  <i name="platform" type="string">LinuxIFC </i>
  <i name="date" type="string">2017 03 17 </i>
  <i name="time" type="string">11:26:44 </i>
 </generator>
 <incar>
  <i type="string" name="PREC">accurate</i>
  <i type="int" name="IALGO">    48</i>
  <i type="int" name="IBRION">     2</i>
  <i name="EDIFFG">      0.05000000</i>
  <i type="int" name="NSW">   191</i>
  <i type="int" name="ISIF">     2</i>
  <i name="ENCUT">    300.00000000</i>
  <i name="NELECT">     93.00000000</i>
  <i type="int" name="ISMEAR">     1</i>
  <i name="SIGMA">      0.20000000</i>
  <i type="logical" name="LWAVE"> F  </i>
  <i type="logical" name="LCHARG"> F  </i>
  <i type="logical" name="LPEAD"> F  </i>
  <i type="logical" name="LCALCPOL"> F  </i>
  <i type="logical" name="LCALCEPS"> F  </i>
  <v name="EFIELD_PEAD">      0.00000000      0.00000000      0.00000000</v>
  <i type="logical" name="LEFG"> F  </i>
 </incar>
 <kpoints>
  <generation param="Monkhorst-Pack">
   <v type="int" name="divisions">       2        2        2 </v>
   <v name="usershift">      0.00000000       0.00000000       0.00000000 </v>
   <v name="genvec1">      0.50000000       0.00000000       0.00000000 </v>
   <v name="genvec2">      0.00000000       0.50000000       0.00000000 </v>
   <v name="genvec3">      0.00000000       0.00000000       0.50000000 </v>
   <v name="shift">      0.50000000       0.50000000       0.50000000 </v>
  </generation>
  <varray name="kpointlist" >
   <v>       0.25000000       0.25000000       0.25000000 </v>
  </varray>
  <varray name="weights" >
   <v>       1.00000000 </v>
  </varray>
 </kpoints>
 <parameters>
  <separator name="general" >
   <i type="string" name="SYSTEM">unknown system</i>
   <i type="logical" name="LCOMPAT"> F  </i>
  </separator>
  <separator name="electronic" >
   <i type="string" name="PREC">accura</i>
   <i name="ENMAX">    300.00000000</i>
   <i name="ENAUG">    291.05200000</i>
   <i name="EDIFF">      0.00010000</i>
   <i type="int" name="IALGO">    48</i>
   <i type="int" name="IWAVPR">    11</i>
   <i type="int" name="NBANDS">    72</i>
   <i name="NELECT">     93.00000000</i>
   <separator name="electronic smearing" >
    <i type="int" name="ISMEAR">     1</i>
    <i name="SIGMA">      0.20000000</i>
   </separator>
   <separator name="electronic projectors" >
    <i type="logical" name="LREAL"> F  </i>
    <v name="ROPT">      0.00000000</v>
    <i type="int" name="LMAXPAW">  -100</i>
    <i type="int" name="LMAXMIX">     2</i>
   </separator>
   <separator name="electronic startup" >
    <i type="int" name="ISTART">     0</i>
    <i type="int" name="ICHARG">     2</i>
    <i type="int" name="INIWAV">     1</i>
   </separator>
   <separator name="electronic spin" >
    <i type="int" name="ISPIN">     1</i>
    <i type="logical" name="LNONCOLLINEAR"> F  </i>
    <v name="MAGMOM">      1.00000000      1.00000000      1.00000000      1.00000000      1.00000000      1.00000000      1.00000000      1.00000000      1.00000000      1.00000000      1.00000000      1.00000000      1.00000000      1.00000000      1.00000000      1.00000000      1.00000000      1.00000000      1.00000000      1.00000000
      1.00000000      1.00000000      1.00000000      1.00000000      1.00000000      1.00000000      1.00000000      1.00000000      1.00000000      1.00000000      1.00000000</v>
    <i name="NUPDOWN">     -1.00000000</i>
    <i type="logical" name="LSORBIT"> F  </i>
    <v name="SAXIS">      0.00000000      0.00000000      1.00000000</v>
    <i type="logical" name="LSPIRAL"> F  </i>
    <v name="QSPIRAL">      0.00000000      0.00000000      0.00000000</v>
    <i type="logical" name="LZEROZ"> F  </i>
   </separator>
   <separator name="electronic exchange-correlation" >
    <i type="logical" name="LASPH"> F  </i>
    <i type="logical" name="LMETAGGA"> F  </i>
   </separator>
   <separator name="electronic convergence" >
    <i type="int" name="NELM">    60</i>
    <i type="int" name="NELMDL">   -12</i>
    <i type="int" name="NELMIN">     2</i>
    <i name="ENINI">    300.00000000</i>
    <separator name="electronic convergence detail" >
     <i type="logical" name="LDIAG"> T  </i>
     <i name="WEIMIN">      0.00100000</i>
     <i name="EBREAK">      0.00000040</i>
     <i name="DEPER">      0.30000000</i>
     <i type="int" name="NRMM">     4</i>
     <i name="TIME">      0.40000000</i>
    </separator>
   </separator>
   <separator name="electronic mixer" >
    <i name="AMIX">      0.40000000</i>
    <i name="BMIX">      1.00000000</i>
    <i name="AMIN">      0.10000000</i>
    <i name="AMIX_MAG">      1.60000000</i>
    <i name="BMIX_MAG">      1.00000000</i>
    <separator name="electronic mixer details" >
     <i type="int" name="IMIX">     4</i>
     <i type="int" name="MAXMIX">   -45</i>
     <i name="WC">    100.00000000</i>
     <i type="int" name="INIMIX">     1</i>
     <i type="int" name="MIXPRE">     1</i>
     <i type="int" name="MREMOVE">     5</i>
    </separator>
   </separator>
   <separator name="electronic dipolcorrection" >
    <i type="logical" name="LDIPOL"> F  </i>
    <i type="logical" name="LMONO"> F  </i>
    <i type="int" name="IDIPOL">     0</i>
    <i name="EPSILON">      1.00000000</i>
    <v name="DIPOL">   -100.00000000   -100.00000000   -100.00000000</v>
    <i name="EFIELD">      0.00000000</i>
   </separator>
  </separator>
  <separator name="grids" >
   <i type="int" name="NGX">    48</i>
   <i type="int" name="NGY">    48</i>
   <i type="int" name="NGZ">    48</i>
   <i type="int" name="NGXF">    96</i>
   <i type="int" name="NGYF">    96</i>
   <i type="int" name="NGZF">    96</i>
   <i type="logical" name="ADDGRID"> F  </i>
  </separator>
  <separator name="ionic" >
   <i type="int" name="NSW">   191</i>
   <i type="int" name="IBRION">     2</i>
   <i type="int" name="ISIF">     2</i>
   <i name="PSTRESS">      0.00000000</i>
   <i name="EDIFFG">      0.05000000</i>
   <i type="int" name="NFREE">     1</i>
   <i name="POTIM">      0.50000000</i>
   <i name="SMASS">     -3.00000000</i>
  </separator>
  <separator name="ionic md" >
   <i name="TEBEG">      0.00010000</i>
   <i name="TEEND">      0.00010000</i>
   <i type="int" name="NBLOCK">     1</i>
   <i type="int" name="KBLOCK">   191</i>
   <i type="int" name="NPACO">   256</i>
   <i name="APACO">     16.00000000</i>
  </separator>
  <separator name="symmetry" >
   <i type="int" name="ISYM">     2</i>
   <i name="SYMPREC">      0.00001000</i>
  </separator>
  <separator name="dos" >
   <i type="logical" name="LORBIT"> F  </i>
   <v name="RWIGS">     -1.00000000</v>
   <i type="int" name="NEDOS">   301</i>
   <i name="EMIN">     10.00000000</i>
   <i name="EMAX">    -10.00000000</i>
   <i name="EFERMI">      0.00000000</i>
  </separator>
  <separator name="writing" >
   <i type="int" name="NWRITE">     2</i>
   <i type="logical" name="LWAVE"> F  </i>
   <i type="logical" name="LCHARG"> F  </i>
   <i type="logical" name="LPARD"> F  </i>
   <i type="logical" name="LVTOT"> F  </i>
   <i type="logical" name="LELF"> F  </i>
   <i type="logical" name="LOPTICS"> F  </i>
   <v name="STM">      0.00000000      0.00000000      0.00000000      0.00000000      0.00000000</v>
  </separator>
  <separator name="performance" >
   <i type="int" name="NPAR">    12</i>
   <i type="int" name="NSIM">     4</i>
   <i type="int" name="NBLK">    32</i>
   <i type="logical" name="LPLANE"> T  </i>
   <i type="logical" name="LSCALAPACK"> F  </i>
   <i type="logical" name="LSCAAWARE"> F  </i>
   <i type="logical" name="LSCALU"> F  </i>
   <i type="logical" name="LASYNC"> F  </i>
  </separator>
  <separator name="miscellaneous" >
   <i type="int" name="IDIOT">     3</i>
   <i type="logical" name="LMUSIC"> F  </i>
   <v name="POMASS">     26.98200000</v>
   <i type="logical" name="LCORR"> T  </i>
  </separator>
  <i type="logical" name="LREAL_COMPAT"> F  </i>
  <i type="logical" name="GGA_COMPAT"> T  </i>
  <i type="logical" name="LBERRY"> F  </i>
  <i type="int" name="ICORELEVEL">     0</i>
  <i type="logical" name="LDAU"> F  </i>
  <i type="int" name="I_CONSTRAINED_M">     0</i>
  <separator name="electronic exchange-correlation" >
   <i type="string" name="GGA">--</i>
   <i type="int" name="VOSKOWN">     0</i>
   <i type="logical" name="LHFCALC"> F  </i>
   <i type="logical" name="LHFONE"> F  </i>
   <i type="logical" name="LRHFCALC"> F  </i>
   <i type="logical" name="LTHOMAS"> F  </i>
   <i type="logical" name="LMODELHF"> F  </i>
   <i name="ENCUTFOCK">      0.00000000</i>
   <i name="ENCUT4O">     -1.00000000</i>
   <i type="int" name="EXXOEP">     0</i>
   <i type="int" name="FOURORBIT">     0</i>
   <i name="AEXX">      0.00000000</i>
   <i name="HFALPHA">      0.00000000</i>
   <i name="ALDAX">      1.00000000</i>
   <i name="AGGAX">      1.00000000</i>
   <i name="ALDAC">      1.00000000</i>
   <i name="AGGAC">      1.00000000</i>
   <i type="int" name="NKREDX">     1</i>
   <i type="int" name="NKREDY">     1</i>
   <i type="int" name="NKREDZ">     1</i>
   <i type="logical" name="SHIFTRED"> F  </i>
   <i type="logical" name="ODDONLY"> F  </i>
   <i type="logical" name="EVENONLY"> F  </i>
   <i type="int" name="LMAXFOCK">     0</i>
   <i type="int" name="NMAXFOCKAE">     0</i>
   <i name="HFSCREEN">      0.00000000</i>
   <i name="HFSCREENC">      0.00000000</i>
  </separator>
  <separator name="model GW" >
   <i type="int" name="MODEL_GW">     0</i>
   <i name="MODEL_EPS0">     10.23670678</i>
   <i name="MODEL_ALPHA">      1.00000000</i>
  </separator>
  <separator name="linear response parameters" >
   <i type="logical" name="LEPSILON"> F  </i>
   <i type="logical" name="LRPA"> F  </i>
   <i type="logical" name="LNABLA"> F  </i>
   <i type="logical" name="LVEL"> F  </i>
   <i type="int" name="KINTER">     0</i>
   <i name="CSHIFT">      0.10000000</i>
   <i name="OMEGAMAX">     -1.00000000</i>
  </separator>
  <separator name="orbital magnetization" >
   <i type="logical" name="ORBITALMAG"> F  </i>
   <i type="logical" name="LMAGBLOCH"> F  </i>
   <i type="logical" name="LCHIMAG"> F  </i>
   <i type="logical" name="LGAUGE"> T  </i>
   <i type="int" name="MAGATOM">     0</i>
   <v name="MAGDIPOL">      0.00000000      0.00000000      0.00000000</v>
   <v name="AVECCONST">      0.00000000      0.00000000      0.00000000</v>
  </separator>
  <separator name="response functions" >
   <i type="logical" name="LRPA"> T  </i>
   <i type="logical" name="LTCTE"> F  </i>
   <i type="logical" name="LTETE"> F  </i>
   <i type="logical" name="L2ORDER"> F  </i>
   <i type="logical" name="LGWLF"> F  </i>
   <i name="ENCUTGW">    200.00000000</i>
   <i name="ENCUTGWSOFT">     -2.00000000</i>
   <i name="ENCUTLF">     -1.00000000</i>
   <i type="int" name="LMAXMP2">    -1</i>
   <i name="SCISSOR">      0.00000000</i>
   <i type="int" name="NOMEGA">     0</i>
   <i type="int" name="NOMEGAR">     0</i>
   <i type="int" name="NBANDSGW">    -1</i>
   <i type="int" name="NBANDSLF">    -1</i>
   <i type="int" name="NELM">     1</i>
   <i type="int" name="DIM">     3</i>
   <i type="int" name="ANTIRES">     0</i>
   <i type="logical" name="LUSEW"> F  </i>
   <i name="OMEGAMAX">    -30.00000000</i>
   <i name="OMEGATL">   -200.00000000</i>
   <i type="int" name="OMEGAGRID">     0</i>
   <i name="CSHIFT">     -0.10000000</i>
   <i type="logical" name="SELFENERGY"> F  </i>
   <i type="logical" name="LSPECTRAL"> F  </i>
   <i type="logical" name="ODDONLYGW"> F  </i>
   <i type="logical" name="EVENONLYGW"> F  </i>
   <i type="int" name="NKREDLFX">     1</i>
   <i type="int" name="NKREDLFY">     1</i>
   <i type="int" name="NKREDLFZ">     1</i>
   <i type="int" name="MAXMEM">  1024</i>
   <i type="int" name="TELESCOPE">     0</i>
  </separator>
 </parameters>
 <atominfo>
  <atoms>      31 </atoms>
  <types>       1 </types>
  <array name="atoms" >
   <dimension dim="1">ion</dimension>
   <field type="string">element</field>
   <field type="int">atomtype</field>
   <set>
    <rc><c>Al</c><c>   1</c></rc>
    <rc><c>Al</c><c>   1</c></rc>
    <rc><c>Al</c><c>   1</c></rc>
    <rc><c>Al</c><c>   1</c></rc>
    <rc><c>Al</c><c>   1</c></rc>
    <rc><c>Al</c><c>   1</c></rc>
    <rc><c>Al</c><c>   1</c></rc>
    <rc><c>Al</c><c>   1</c></rc>
    <rc><c>Al</c><c>   1</c></rc>
    <rc><c>Al</c><c>   1</c></rc>
    <rc><c>Al</c><c>   1</c></rc>
    <rc><c>Al</c><c>   1</c></rc>
    <rc><c>Al</c><c>   1</c></rc>
    <rc><c>Al</c><c>   1</c></rc>
    <rc><c>Al</c><c>   1</c></rc>
    <rc><c>Al</c><c>   1</c></rc>
    <rc><c>Al</c><c>   1</c></rc>
    <rc><c>Al</c><c>   1</c></rc>
    <rc><c>Al</c><c>   1</c></rc>
    <rc><c>Al</c><c>   1</c></rc>
    <rc><c>Al</c><c>   1</c></rc>
    <rc><c>Al</c><c>   1</c></rc>
    <rc><c>Al</c><c>   1</c></rc>
    <rc><c>Al</c><c>   1</c></rc>
    <rc><c>Al</c><c>   1</c></rc>
    <rc><c>Al</c><c>   1</c></rc>
    <rc><c>Al</c><c>   1</c></rc>
    <rc><c>Al</c><c>   1</c></rc>
    <rc><c>Al</c><c>   1</c></rc>
    <rc><c>Al</c><c>   1</c></rc>
    <rc><c>Al</c><c>   1</c></rc>
   </set>
  </array>
  <array name="atomtypes" >
   <dimension dim="1">type</dimension>
   <field type="int">atomspertype</field>
   <field type="string">element</field>
   <field>mass</field>
   <field>valence</field>
   <field type="string">pseudopotential</field>
   <set>
    <rc><c>  31</c><c>Al</c><c>     26.98200000</c><c>      3.00000000</c><c> PAW_PBE Al 04Jan2001                   </c></rc>
   </set>
  </array>
 </atominfo>
 <structure name="initialpos" >
  <crystal>
   <varray name="basis" >
    <v>       8.08705200       0.00000000       0.00000000 </v>
    <v>       0.00000000       8.08705200       0.00000000 </v>
    <v>       0.00000000       0.00000000       8.08705200 </v>
   </varray>
   <i name="volume">    528.89651690 </i>
   <varray name="rec_basis" >
    <v>       0.12365445       0.00000000       0.00000000 </v>
    <v>       0.00000000       0.12365445       0.00000000 </v>
    <v>       0.00000000       0.00000000       0.12365445 </v>
   </varray>
  </crystal>
  <varray name="positions" >
   <v>       0.00000000       0.00000000       0.00000000 </v>
   <v>       0.25043400       0.00000000       0.25043400 </v>
   <v>       0.25043400       0.25043400       0.00000000 </v>
   <v>       0.00000000       0.25043400       0.25043400 </v>
   <v>       0.50000000       0.00000000       0.00000000 </v>
   <v>       0.74956600       0.00000000       0.25043400 </v>
   <v>       0.74956600       0.25043400       0.00000000 </v>
   <v>       0.50000000       0.24265500       0.24265500 </v>
   <v>       0.00000000       0.50000000       0.00000000 </v>
   <v>       0.24265500       0.50000000       0.24265500 </v>
   <v>       0.25043400       0.74956600       0.00000000 </v>
   <v>       0.00000000       0.74956600       0.25043400 </v>
   <v>       0.50000000       0.50000000       0.00000000 </v>
   <v>       0.75734500       0.50000000       0.24265500 </v>
   <v>       0.74956600       0.74956600       0.00000000 </v>
   <v>       0.50000000       0.75734500       0.24265500 </v>
   <v>       0.00000000       0.00000000       0.50000000 </v>
   <v>       0.25043400       0.00000000       0.74956600 </v>
   <v>       0.24265500       0.24265500       0.50000000 </v>
   <v>       0.00000000       0.25043400       0.74956600 </v>
   <v>       0.50000000       0.00000000       0.50000000 </v>
   <v>       0.74956600       0.00000000       0.74956600 </v>
   <v>       0.75734500       0.24265500       0.50000000 </v>
   <v>       0.50000000       0.24265500       0.75734500 </v>
   <v>       0.00000000       0.50000000       0.50000000 </v>
   <v>       0.24265500       0.50000000       0.75734500 </v>
   <v>       0.24265500       0.75734500       0.50000000 </v>
   <v>       0.00000000       0.74956600       0.74956600 </v>
   <v>       0.75734500       0.50000000       0.75734500 </v>
   <v>       0.75734500       0.75734500       0.50000000 </v>
   <v>       0.50000000       0.75734500       0.75734500 </v>
  </varray>
 </structure>
 <calculation>
  <scstep>
   <time name="diag">    0.15    0.15</time>
   <time name="diis">    0.35    0.35</time>
   <time name="orth">    0.01    0.01</time>
   <time name="total">    0.67    0.68</time>
   <energy>
    <i name="alphaZ">     -6.10292983 </i>
    <i name="ewald">  -2211.09602166 </i>
    <i name="hartreedc">    -32.58980639 </i>
    <i name="XCdc">   -814.53097592 </i>
    <i name="pawpsdc">   1102.18190231 </i>
    <i name="pawaedc">   -111.56847430 </i>
    <i name="eentropy">     -0.05115657 </i>
    <i name="bandstr">    650.28987730 </i>
    <i name="atom">   1659.66634407 </i>
    <i name="e_fr_energy">    236.19875901 </i>
    <i name="e_wo_entrp">    236.24991558 </i>
    <i name="e_0_energy">    236.21581120 </i>
   </energy>
  </scstep>
  <scstep>
   <time name="diag">    0.15    0.15</time>
   <time name="diis">    0.34    0.34</time>
   <time name="orth">    0.01    0.01</time>
   <time name="total">    0.51    0.51</time>
   <energy>
    <i name="e_fr_energy">    -37.09285383 </i>
    <i name="e_wo_entrp">    -37.01197574 </i>
    <i name="e_0_energy">    -37.06589446 </i>
   </energy>
  </scstep>
  <scstep>
   <time name="diag">    0.15    0.15</time>
   <time name="diis">    0.34    0.35</time>
   <time name="orth">    0.01    0.01</time>
   <time name="total">    0.51    0.51</time>
   <energy>
    <i name="e_fr_energy">    -94.89660712 </i>
    <i name="e_wo_entrp">    -94.85793600 </i>
    <i name="e_0_energy">    -94.88371675 </i>
   </energy>
  </scstep>
  <scstep>
   <time name="diag">    0.15    0.15</time>
   <time name="diis">    0.34    0.34</time>
   <time name="orth">    0.01    0.01</time>
   <time name="total">    0.50    0.51</time>
   <energy>
    <i name="e_fr_energy">   -107.66604263 </i>
    <i name="e_wo_entrp">   -107.72118892 </i>
    <i name="e_0_energy">   -107.68442473 </i>
   </energy>
  </scstep>
  <scstep>
   <time name="diag">    0.15    0.15</time>
   <time name="diis">    0.34    0.34</time>
   <time name="orth">    0.01    0.01</time>
   <time name="total">    0.50    0.51</time>
   <energy>
    <i name="e_fr_energy">   -112.63243578 </i>
    <i name="e_wo_entrp">   -112.54512639 </i>
    <i name="e_0_energy">   -112.60333265 </i>
   </energy>
  </scstep>
  <scstep>
   <time name="diag">    0.15    0.15</time>
   <time name="diis">    0.34    0.34</time>
   <time name="orth">    0.01    0.01</time>
   <time name="total">    0.50    0.51</time>
   <energy>
    <i name="e_fr_energy">   -114.37343847 </i>
    <i name="e_wo_entrp">   -114.31941556 </i>
    <i name="e_0_energy">   -114.35543083 </i>
   </energy>
  </scstep>
  <scstep>
   <time name="diag">    0.15    0.15</time>
   <time name="diis">    0.34    0.34</time>
   <time name="orth">    0.01    0.01</time>
   <time name="total">    0.50    0.51</time>
   <energy>
    <i name="e_fr_energy">   -114.96120034 </i>
    <i name="e_wo_entrp">   -114.92255917 </i>
    <i name="e_0_energy">   -114.94831995 </i>
   </energy>
  </scstep>
  <scstep>
   <time name="diag">    0.15    0.15</time>
   <time name="diis">    0.34    0.34</time>
   <time name="orth">    0.01    0.01</time>
   <time name="total">    0.50    0.51</time>
   <energy>
    <i name="e_fr_energy">   -115.18208391 </i>
    <i name="e_wo_entrp">   -115.14513113 </i>
    <i name="e_0_energy">   -115.16976632 </i>
   </energy>
  </scstep>
  <scstep>
   <time name="diag">    0.15    0.15</time>
   <time name="diis">    0.75    0.75</time>
   <time name="orth">    0.01    0.01</time>
   <time name="total">    0.91    0.91</time>
   <energy>
    <i name="e_fr_energy">   -115.30702231 </i>
    <i name="e_wo_entrp">   -115.26840965 </i>
    <i name="e_0_energy">   -115.29415142 </i>
   </energy>
  </scstep>
  <scstep>
   <time name="diag">    0.15    0.15</time>
   <time name="diis">    0.69    0.69</time>
   <time name="orth">    0.01    0.01</time>
   <time name="total">    0.85    0.85</time>
   <energy>
    <i name="e_fr_energy">   -115.32481356 </i>
    <i name="e_wo_entrp">   -115.28636792 </i>
    <i name="e_0_energy">   -115.31199835 </i>
   </energy>
  </scstep>
  <scstep>
   <time name="diag">    0.15    0.15</time>
   <time name="diis">    0.56    0.56</time>
   <time name="orth">    0.01    0.01</time>
   <time name="total">    0.72    0.73</time>
   <energy>
    <i name="e_fr_energy">   -115.32580752 </i>
    <i name="e_wo_entrp">   -115.28742626 </i>
    <i name="e_0_energy">   -115.31301377 </i>
   </energy>
  </scstep>
  <scstep>
   <time name="diag">    0.15    0.15</time>
   <time name="diis">    0.47    0.47</time>
   <time name="orth">    0.01    0.01</time>
   <time name="total">    0.77    0.77</time>
   <energy>
    <i name="e_fr_energy">   -115.32584199 </i>
    <i name="e_wo_entrp">   -115.28746226 </i>
    <i name="e_0_energy">   -115.31304875 </i>
   </energy>
  </scstep>
  <scstep>
   <time name="diag">    0.15    0.15</time>
   <time name="diis">    0.62    0.62</time>
   <time name="orth">    0.01    0.01</time>
   <time name="total">    1.08    1.08</time>
   <energy>
    <i name="e_fr_energy">   -114.45552662 </i>
    <i name="e_wo_entrp">   -114.42404226 </i>
    <i name="e_0_energy">   -114.44503183 </i>
   </energy>
  </scstep>
  <scstep>
   <time name="diag">    0.15    0.15</time>
   <time name="diis">    0.61    0.61</time>
   <time name="orth">    0.01    0.01</time>
   <time name="total">    1.07    1.07</time>
   <energy>
    <i name="e_fr_energy">   -114.20478337 </i>
    <i name="e_wo_entrp">   -114.17411974 </i>
    <i name="e_0_energy">   -114.19456216 </i>
   </energy>
  </scstep>
  <scstep>
   <time name="diag">    0.15    0.15</time>
   <time name="diis">    0.62    0.62</time>
   <time name="orth">    0.01    0.01</time>
   <time name="total">    1.07    1.07</time>
   <energy>
    <i name="e_fr_energy">   -114.14912392 </i>
    <i name="e_wo_entrp">   -114.11763361 </i>
    <i name="e_0_energy">   -114.13862715 </i>
   </energy>
  </scstep>
  <scstep>
   <time name="diag">    0.15    0.15</time>
   <time name="diis">    0.65    0.65</time>
   <time name="orth">    0.01    0.01</time>
   <time name="total">    1.10    1.11</time>
   <energy>
    <i name="e_fr_energy">   -114.14785219 </i>
    <i name="e_wo_entrp">   -114.11534393 </i>
    <i name="e_0_energy">   -114.13701610 </i>
   </energy>
  </scstep>
  <scstep>
   <time name="diag">    0.15    0.15</time>
   <time name="diis">    0.55    0.55</time>
   <time name="orth">    0.01    0.01</time>
   <time name="total">    0.87    0.87</time>
   <energy>
    <i name="alphaZ">     -6.10292983 </i>
    <i name="ewald">  -2211.09602166 </i>
    <i name="hartreedc">    -36.94309144 </i>
    <i name="XCdc">   -811.03452842 </i>
    <i name="pawpsdc">   1107.60196184 </i>
    <i name="pawaedc">   -117.44079807 </i>
    <i name="eentropy">     -0.03239227 </i>
    <i name="bandstr">    301.23355003 </i>
    <i name="atom">   1659.66634407 </i>
    <i name="e_fr_energy">   -114.14790575 </i>
    <i name="e_wo_entrp">   -114.11551348 </i>
    <i name="e_0_energy">   -114.13710833 </i>
   </energy>
  </scstep>
  <structure>
   <crystal>
    <varray name="basis" >
     <v>       8.08705200       0.00000000       0.00000000 </v>
     <v>       0.00000000       8.08705200       0.00000000 </v>
     <v>       0.00000000       0.00000000       8.08705200 </v>
    </varray>
    <i name="volume">    528.89651690 </i>
    <varray name="rec_basis" >
     <v>       0.12365445       0.00000000       0.00000000 </v>
     <v>       0.00000000       0.12365445       0.00000000 </v>
     <v>       0.00000000       0.00000000       0.12365445 </v>
    </varray>
   </crystal>
   <varray name="positions" >
    <v>       0.00000000       0.00000000       0.00000000 </v>
    <v>       0.25043400       0.00000000       0.25043400 </v>
    <v>       0.25043400       0.25043400       0.00000000 </v>
    <v>       0.00000000       0.25043400       0.25043400 </v>
    <v>       0.50000000       0.00000000       0.00000000 </v>
    <v>       0.74956600       0.00000000       0.25043400 </v>
    <v>       0.74956600       0.25043400       0.00000000 </v>
    <v>       0.50000000       0.24265500       0.24265500 </v>
    <v>       0.00000000       0.50000000       0.00000000 </v>
    <v>       0.24265500       0.50000000       0.24265500 </v>
    <v>       0.25043400       0.74956600       0.00000000 </v>
    <v>       0.00000000       0.74956600       0.25043400 </v>
    <v>       0.50000000       0.50000000       0.00000000 </v>
    <v>       0.75734500       0.50000000       0.24265500 </v>
    <v>       0.74956600       0.74956600       0.00000000 </v>
    <v>       0.50000000       0.75734500       0.24265500 </v>
    <v>       0.00000000       0.00000000       0.50000000 </v>
    <v>       0.25043400       0.00000000       0.74956600 </v>
    <v>       0.24265500       0.24265500       0.50000000 </v>
    <v>       0.00000000       0.25043400       0.74956600 </v>
    <v>       0.50000000       0.00000000       0.50000000 </v>
    <v>       0.74956600       0.00000000       0.74956600 </v>
    <v>       0.75734500       0.24265500       0.50000000 </v>
    <v>       0.50000000       0.24265500       0.75734500 </v>
    <v>       0.00000000       0.50000000       0.50000000 </v>
    <v>       0.24265500       0.50000000       0.75734500 </v>
    <v>       0.24265500       0.75734500       0.50000000 </v>
    <v>       0.00000000       0.74956600       0.74956600 </v>
    <v>       0.75734500       0.50000000       0.75734500 </v>
    <v>       0.75734500       0.75734500       0.50000000 </v>
    <v>       0.50000000       0.75734500       0.75734500 </v>
   </varray>
  </structure>
  <varray name="forces" >
   <v>       0.00000000       0.00000000       0.00000000 </v>
   <v>      -0.15448627       0.00000000      -0.15448627 </v>
   <v>      -0.15448627      -0.15448627       0.00000000 </v>
   <v>       0.00000000      -0.15448627      -0.15448627 </v>
   <v>       0.00000000       0.00000000       0.00000000 </v>
   <v>       0.15448627       0.00000000      -0.15448627 </v>
   <v>       0.15448627      -0.15448627       0.00000000 </v>
   <v>       0.00000000       0.43804091       0.43804091 </v>
   <v>       0.00000000       0.00000000       0.00000000 </v>
   <v>       0.43804091       0.00000000       0.43804091 </v>
   <v>      -0.15448627       0.15448627       0.00000000 </v>
   <v>       0.00000000       0.15448627      -0.15448627 </v>
   <v>       0.00000000       0.00000000       0.00000000 </v>
   <v>      -0.43804091       0.00000000       0.43804091 </v>
   <v>       0.15448627       0.15448627       0.00000000 </v>
   <v>       0.00000000      -0.43804091       0.43804091 </v>
   <v>       0.00000000       0.00000000       0.00000000 </v>
   <v>      -0.15448627       0.00000000       0.15448627 </v>
   <v>       0.43804091       0.43804091       0.00000000 </v>
   <v>       0.00000000      -0.15448627       0.15448627 </v>
   <v>       0.00000000       0.00000000       0.00000000 </v>
   <v>       0.15448627       0.00000000       0.15448627 </v>
   <v>      -0.43804091       0.43804091       0.00000000 </v>
   <v>       0.00000000       0.43804091      -0.43804091 </v>
   <v>       0.00000000       0.00000000       0.00000000 </v>
   <v>       0.43804091       0.00000000      -0.43804091 </v>
   <v>       0.43804091      -0.43804091       0.00000000 </v>
   <v>       0.00000000       0.15448627       0.15448627 </v>
   <v>      -0.43804091       0.00000000      -0.43804091 </v>
   <v>      -0.43804091      -0.43804091       0.00000000 </v>
   <v>       0.00000000      -0.43804091      -0.43804091 </v>
  </varray>
  <varray name="stress" >
   <v>      -1.44926851       0.00000000       0.00000000 </v>
   <v>       0.00000000      -1.44926851       0.00000000 </v>
   <v>       0.00000000       0.00000000      -1.44926851 </v>
  </varray>
  <energy>
   <i name="e_fr_energy">   -114.14790575 </i>
   <i name="e_wo_entrp">   -114.13710833 </i>
   <i name="e_0_energy">     -0.03239227 </i>
  </energy>
  <time name="totalsc">   13.96   14.00</time>
 </calculation>
 <calculation>
  <scstep>
   <time name="diag">    0.15    0.15</time>
   <time name="diis">    0.60    0.60</time>
   <time name="orth">    0.01    0.01</time>
   <time name="total">    1.05    1.05</time>
   <energy>
    <i name="alphaZ">     -6.10292983 </i>
    <i name="ewald">  -2216.99236628 </i>
    <i name="hartreedc">    -32.44729470 </i>
    <i name="XCdc">   -811.13753515 </i>
    <i name="pawpsdc">   1107.59978737 </i>
    <i name="pawaedc">   -117.44039855 </i>
    <i name="eentropy">     -0.04184699 </i>
    <i name="bandstr">    302.52697077 </i>
    <i name="atom">   1659.66634407 </i>
    <i name="e_fr_energy">   -114.36926930 </i>
    <i name="e_wo_entrp">   -114.32742231 </i>
    <i name="e_0_energy">   -114.35532030 </i>
   </energy>
  </scstep>
  <scstep>
   <time name="diag">    0.15    0.15</time>
   <time name="diis">    0.62    0.62</time>
   <time name="orth">    0.01    0.01</time>
   <time name="total">    1.07    1.07</time>
   <energy>
    <i name="e_fr_energy">   -114.36248712 </i>
    <i name="e_wo_entrp">   -114.31900559 </i>
    <i name="e_0_energy">   -114.34799328 </i>
   </energy>
  </scstep>
  <scstep>
   <time name="diag">    0.15    0.15</time>
   <time name="diis">    0.60    0.60</time>
   <time name="orth">    0.01    0.01</time>
   <time name="total">    1.05    1.05</time>
   <energy>
    <i name="e_fr_energy">   -114.36181165 </i>
    <i name="e_wo_entrp">   -114.31729589 </i>
    <i name="e_0_energy">   -114.34697306 </i>
   </energy>
  </scstep>
  <scstep>
   <time name="diag">    0.15    0.15</time>
   <time name="diis">    0.41    0.42</time>
   <time name="orth">    0.01    0.01</time>
   <time name="total">    0.73    0.73</time>
   <energy>
    <i name="alphaZ">     -6.10292983 </i>
    <i name="ewald">  -2216.99236628 </i>
    <i name="hartreedc">    -32.14549919 </i>
    <i name="XCdc">   -811.15198391 </i>
    <i name="pawpsdc">   1107.25632343 </i>
    <i name="pawaedc">   -117.08251456 </i>
    <i name="eentropy">     -0.04459571 </i>
    <i name="bandstr">    302.23540157 </i>
    <i name="atom">   1659.66634407 </i>
    <i name="e_fr_energy">   -114.36182042 </i>
    <i name="e_wo_entrp">   -114.31722470 </i>
    <i name="e_0_energy">   -114.34695518 </i>
   </energy>
  </scstep>
  <structure>
   <crystal>
    <varray name="basis" >
     <v>       8.08705200       0.00000000       0.00000000 </v>
     <v>       0.00000000       8.08705200       0.00000000 </v>
     <v>       0.00000000       0.00000000       8.08705200 </v>
    </varray>
    <i name="volume">    528.89651690 </i>
    <varray name="rec_basis" >
     <v>       0.12365445       0.00000000       0.00000000 </v>
     <v>       0.00000000       0.12365445       0.00000000 </v>
     <v>       0.00000000       0.00000000       0.12365445 </v>
    </varray>
   </crystal>
   <varray name="positions" >
    <v>       0.00000000       0.00000000       0.00000000 </v>
    <v>       0.24951242       0.00000000       0.24951242 </v>
    <v>       0.24951242       0.24951242       0.00000000 </v>
    <v>       0.00000000       0.24951242       0.24951242 </v>
    <v>       0.50000000       0.00000000       0.00000000 </v>
    <v>       0.75048758       0.00000000       0.24951242 </v>
    <v>       0.75048758       0.24951242       0.00000000 </v>
    <v>       0.50000000       0.24526810       0.24526810 </v>
    <v>       0.00000000       0.50000000       0.00000000 </v>
    <v>       0.24526810       0.50000000       0.24526810 </v>
    <v>       0.24951242       0.75048758       0.00000000 </v>
    <v>       0.00000000       0.75048758       0.24951242 </v>
    <v>       0.50000000       0.50000000       0.00000000 </v>
    <v>       0.75473190       0.50000000       0.24526810 </v>
    <v>       0.75048758       0.75048758       0.00000000 </v>
    <v>       0.50000000       0.75473190       0.24526810 </v>
    <v>       0.00000000       0.00000000       0.50000000 </v>
    <v>       0.24951242       0.00000000       0.75048758 </v>
    <v>       0.24526810       0.24526810       0.50000000 </v>
    <v>       0.00000000       0.24951242       0.75048758 </v>
    <v>       0.50000000       0.00000000       0.50000000 </v>
    <v>       0.75048758       0.00000000       0.75048758 </v>
    <v>       0.75473190       0.24526810       0.50000000 </v>
    <v>       0.50000000       0.24526810       0.75473190 </v>
    <v>       0.00000000       0.50000000       0.50000000 </v>
    <v>       0.24526810       0.50000000       0.75473190 </v>
    <v>       0.24526810       0.75473190       0.50000000 </v>
    <v>       0.00000000       0.75048758       0.75048758 </v>
    <v>       0.75473190       0.50000000       0.75473190 </v>
    <v>       0.75473190       0.75473190       0.50000000 </v>
    <v>       0.50000000       0.75473190       0.75473190 </v>
   </varray>
  </structure>
  <varray name="forces" >
   <v>       0.00000000       0.00000000       0.00000000 </v>
   <v>      -0.06606678       0.00000000      -0.06606678 </v>
   <v>      -0.06606678      -0.06606678       0.00000000 </v>
   <v>       0.00000000      -0.06606678      -0.06606678 </v>
   <v>       0.00000000       0.00000000       0.00000000 </v>
   <v>       0.06606678       0.00000000      -0.06606678 </v>
   <v>       0.06606678      -0.06606678       0.00000000 </v>
   <v>       0.00000000       0.32617659       0.32617659 </v>
   <v>       0.00000000       0.00000000       0.00000000 </v>
   <v>       0.32617659       0.00000000       0.32617659 </v>
   <v>      -0.06606678       0.06606678       0.00000000 </v>
   <v>       0.00000000       0.06606678      -0.06606678 </v>
   <v>       0.00000000       0.00000000       0.00000000 </v>
   <v>      -0.32617659       0.00000000       0.32617659 </v>
   <v>       0.06606678       0.06606678       0.00000000 </v>
   <v>       0.00000000      -0.32617659       0.32617659 </v>
   <v>       0.00000000       0.00000000       0.00000000 </v>
   <v>      -0.06606678       0.00000000       0.06606678 </v>
   <v>       0.32617659       0.32617659       0.00000000 </v>
   <v>       0.00000000      -0.06606678       0.06606678 </v>
   <v>       0.00000000       0.00000000       0.00000000 </v>
   <v>       0.06606678       0.00000000       0.06606678 </v>
   <v>      -0.32617659       0.32617659       0.00000000 </v>
   <v>       0.00000000       0.32617659      -0.32617659 </v>
   <v>       0.00000000       0.00000000       0.00000000 </v>
   <v>       0.32617659       0.00000000      -0.32617659 </v>
   <v>       0.32617659      -0.32617659       0.00000000 </v>
   <v>       0.00000000       0.06606678       0.06606678 </v>
   <v>      -0.32617659       0.00000000      -0.32617659 </v>
   <v>      -0.32617659      -0.32617659       0.00000000 </v>
   <v>       0.00000000      -0.32617659      -0.32617659 </v>
  </varray>
  <varray name="stress" >
   <v>      -4.01806745       0.00000000       0.00000000 </v>
   <v>       0.00000000      -4.01806745       0.00000000 </v>
   <v>       0.00000000       0.00000000      -4.01806745 </v>
  </varray>
  <energy>
   <i name="e_fr_energy">   -114.36182042 </i>
   <i name="e_wo_entrp">   -114.34695518 </i>
   <i name="e_0_energy">     -0.04459571 </i>
  </energy>
  <time name="totalsc">    5.20    5.21</time>
 </calculation>
 <calculation>
  <scstep>
   <time name="diag">    0.15    0.15</time>
   <time name="diis">    0.61    0.61</time>
   <time name="orth">    0.01    0.01</time>
   <time name="total">    1.06    1.06</time>
   <energy>
    <i name="alphaZ">     -6.10292983 </i>
    <i name="ewald">  -2228.27992726 </i>
    <i name="hartreedc">    -23.02070033 </i>
    <i name="XCdc">   -811.36604123 </i>
    <i name="pawpsdc">   1107.20873718 </i>
    <i name="pawaedc">   -117.03297416 </i>
    <i name="eentropy">     -0.05257845 </i>
    <i name="bandstr">    304.36838023 </i>
    <i name="atom">   1659.66634407 </i>
    <i name="e_fr_energy">   -114.61168978 </i>
    <i name="e_wo_entrp">   -114.55911133 </i>
    <i name="e_0_energy">   -114.59416363 </i>
   </energy>
  </scstep>
  <scstep>
   <time name="diag">    0.15    0.15</time>
   <time name="diis">    0.59    0.59</time>
   <time name="orth">    0.01    0.01</time>
   <time name="total">    1.04    1.04</time>
   <energy>
    <i name="e_fr_energy">   -114.57241779 </i>
    <i name="e_wo_entrp">   -114.52141144 </i>
    <i name="e_0_energy">   -114.55541568 </i>
   </energy>
  </scstep>
  <scstep>
   <time name="diag">    0.15    0.15</time>
   <time name="diis">    0.60    0.60</time>
   <time name="orth">    0.01    0.01</time>
   <time name="total">    1.05    1.05</time>
   <energy>
    <i name="e_fr_energy">   -114.56834578 </i>
    <i name="e_wo_entrp">   -114.51705117 </i>
    <i name="e_0_energy">   -114.55124758 </i>
   </energy>
  </scstep>
  <scstep>
   <time name="diag">    0.15    0.15</time>
   <time name="diis">    0.61    0.61</time>
   <time name="orth">    0.01    0.01</time>
   <time name="total">    0.92    0.93</time>
   <energy>
    <i name="alphaZ">     -6.10292983 </i>
    <i name="ewald">  -2228.27992726 </i>
    <i name="hartreedc">    -22.63838181 </i>
    <i name="XCdc">   -811.37734817 </i>
    <i name="pawpsdc">   1106.87448184 </i>
    <i name="pawaedc">   -116.68288327 </i>
    <i name="eentropy">     -0.05103019 </i>
    <i name="bandstr">    304.02332027 </i>
    <i name="atom">   1659.66634407 </i>
    <i name="e_fr_energy">   -114.56835435 </i>
    <i name="e_wo_entrp">   -114.51732416 </i>
    <i name="e_0_energy">   -114.55134428 </i>
   </energy>
  </scstep>
  <structure>
   <crystal>
    <varray name="basis" >
     <v>       8.08705200       0.00000000       0.00000000 </v>
     <v>       0.00000000       8.08705200       0.00000000 </v>
     <v>       0.00000000       0.00000000       8.08705200 </v>
    </varray>
    <i name="volume">    528.89651690 </i>
    <varray name="rec_basis" >
     <v>       0.12365445       0.00000000       0.00000000 </v>
     <v>       0.00000000       0.12365445       0.00000000 </v>
     <v>       0.00000000       0.00000000       0.12365445 </v>
    </varray>
   </crystal>
   <varray name="positions" >
    <v>       0.00000000       0.00000000       0.00000000 </v>
    <v>       0.24726094       0.00000000       0.24726094 </v>
    <v>       0.24726094       0.24726094       0.00000000 </v>
    <v>       0.00000000       0.24726094       0.24726094 </v>
    <v>       0.50000000       0.00000000       0.00000000 </v>
    <v>       0.75273906       0.00000000       0.24726094 </v>
    <v>       0.75273906       0.24726094       0.00000000 </v>
    <v>       0.50000000       0.25165210       0.25165210 </v>
    <v>       0.00000000       0.50000000       0.00000000 </v>
    <v>       0.25165210       0.50000000       0.25165210 </v>
    <v>       0.24726094       0.75273906       0.00000000 </v>
    <v>       0.00000000       0.75273906       0.24726094 </v>
    <v>       0.50000000       0.50000000       0.00000000 </v>
    <v>       0.74834790       0.50000000       0.25165210 </v>
    <v>       0.75273906       0.75273906       0.00000000 </v>
    <v>       0.50000000       0.74834790       0.25165210 </v>
    <v>       0.00000000       0.00000000       0.50000000 </v>
    <v>       0.24726094       0.00000000       0.75273906 </v>
    <v>       0.25165210       0.25165210       0.50000000 </v>
    <v>       0.00000000       0.24726094       0.75273906 </v>
    <v>       0.50000000       0.00000000       0.50000000 </v>
    <v>       0.75273906       0.00000000       0.75273906 </v>
    <v>       0.74834790       0.25165210       0.50000000 </v>
    <v>       0.50000000       0.25165210       0.74834790 </v>
    <v>       0.00000000       0.50000000       0.50000000 </v>
    <v>       0.25165210       0.50000000       0.74834790 </v>
    <v>       0.25165210       0.74834790       0.50000000 </v>
    <v>       0.00000000       0.75273906       0.75273906 </v>
    <v>       0.74834790       0.50000000       0.74834790 </v>
    <v>       0.74834790       0.74834790       0.50000000 </v>
    <v>       0.50000000       0.74834790       0.74834790 </v>
   </varray>
  </structure>
  <varray name="forces" >
   <v>       0.00000000       0.00000000       0.00000000 </v>
   <v>       0.13905281       0.00000000       0.13905281 </v>
   <v>       0.13905281       0.13905281       0.00000000 </v>
   <v>       0.00000000       0.13905281       0.13905281 </v>
   <v>       0.00000000       0.00000000       0.00000000 </v>
   <v>      -0.13905281       0.00000000       0.13905281 </v>
   <v>      -0.13905281       0.13905281       0.00000000 </v>
   <v>       0.00000000       0.02983457       0.02983457 </v>
   <v>       0.00000000       0.00000000       0.00000000 </v>
   <v>       0.02983457       0.00000000       0.02983457 </v>
   <v>       0.13905281      -0.13905281       0.00000000 </v>
   <v>       0.00000000      -0.13905281       0.13905281 </v>
   <v>       0.00000000       0.00000000       0.00000000 </v>
   <v>      -0.02983457       0.00000000       0.02983457 </v>
   <v>      -0.13905281      -0.13905281       0.00000000 </v>
   <v>       0.00000000      -0.02983457       0.02983457 </v>
   <v>       0.00000000       0.00000000       0.00000000 </v>
   <v>       0.13905281       0.00000000      -0.13905281 </v>
   <v>       0.02983457       0.02983457       0.00000000 </v>
   <v>       0.00000000       0.13905281      -0.13905281 </v>
   <v>       0.00000000       0.00000000       0.00000000 </v>
   <v>      -0.13905281       0.00000000      -0.13905281 </v>
   <v>      -0.02983457       0.02983457       0.00000000 </v>
   <v>       0.00000000       0.02983457      -0.02983457 </v>
   <v>       0.00000000       0.00000000       0.00000000 </v>
   <v>       0.02983457       0.00000000      -0.02983457 </v>
   <v>       0.02983457      -0.02983457       0.00000000 </v>
   <v>       0.00000000      -0.13905281      -0.13905281 </v>
   <v>      -0.02983457       0.00000000      -0.02983457 </v>
   <v>      -0.02983457      -0.02983457       0.00000000 </v>
   <v>       0.00000000      -0.02983457      -0.02983457 </v>
  </varray>
  <varray name="stress" >
   <v>      -7.13114900       0.00000000       0.00000000 </v>
   <v>       0.00000000      -7.13114900       0.00000000 </v>
   <v>       0.00000000       0.00000000      -7.13114900 </v>
  </varray>
  <energy>
   <i name="e_fr_energy">   -114.56835435 </i>
   <i name="e_wo_entrp">   -114.55134428 </i>
   <i name="e_0_energy">     -0.05103019 </i>
  </energy>
  <time name="totalsc">    5.41    5.41</time>
 </calculation>
 <calculation>
  <scstep>
   <time name="diag">    0.15    0.15</time>
   <time name="diis">    0.60    0.60</time>
   <time name="orth">    0.01    0.01</time>
   <time name="total">    1.06    1.06</time>
   <energy>
    <i name="alphaZ">     -6.10292983 </i>
    <i name="ewald">  -2230.24406159 </i>
    <i name="hartreedc">    -20.98787110 </i>
    <i name="XCdc">   -811.40563072 </i>
    <i name="pawpsdc">   1106.84872388 </i>
    <i name="pawaedc">   -116.65477364 </i>
    <i name="eentropy">     -0.05040744 </i>
    <i name="bandstr">    304.33569996 </i>
    <i name="atom">   1659.66634407 </i>
    <i name="e_fr_energy">   -114.59490642 </i>
    <i name="e_wo_entrp">   -114.54449898 </i>
    <i name="e_0_energy">   -114.57810394 </i>
   </energy>
  </scstep>
  <scstep>
   <time name="diag">    0.15    0.15</time>
   <time name="diis">    0.60    0.62</time>
   <time name="orth">    0.01    0.01</time>
   <time name="total">    1.06    1.08</time>
   <energy>
    <i name="e_fr_energy">   -114.59330159 </i>
    <i name="e_wo_entrp">   -114.54346193 </i>
    <i name="e_0_energy">   -114.57668837 </i>
   </energy>
  </scstep>
  <scstep>
   <time name="diag">    0.15    0.15</time>
   <time name="diis">    0.47    0.48</time>
   <time name="orth">    0.01    0.01</time>
   <time name="total">    0.79    0.80</time>
   <energy>
    <i name="alphaZ">     -6.10292983 </i>
    <i name="ewald">  -2230.24406159 </i>
    <i name="hartreedc">    -20.91152728 </i>
    <i name="XCdc">   -811.40833879 </i>
    <i name="pawpsdc">   1106.81652737 </i>
    <i name="pawaedc">   -116.62050458 </i>
    <i name="eentropy">     -0.04979452 </i>
    <i name="bandstr">    304.26097108 </i>
    <i name="atom">   1659.66634407 </i>
    <i name="e_fr_energy">   -114.59331406 </i>
    <i name="e_wo_entrp">   -114.54351955 </i>
    <i name="e_0_energy">   -114.57671589 </i>
   </energy>
  </scstep>
  <structure>
   <crystal>
    <varray name="basis" >
     <v>       8.08705200       0.00000000       0.00000000 </v>
     <v>       0.00000000       8.08705200       0.00000000 </v>
     <v>       0.00000000       0.00000000       8.08705200 </v>
    </varray>
    <i name="volume">    528.89651690 </i>
    <varray name="rec_basis" >
     <v>       0.12365445       0.00000000       0.00000000 </v>
     <v>       0.00000000       0.12365445       0.00000000 </v>
     <v>       0.00000000       0.00000000       0.12365445 </v>
    </varray>
   </crystal>
   <varray name="positions" >
    <v>       0.00000000       0.00000000       0.00000000 </v>
    <v>       0.24831366       0.00000000       0.24831366 </v>
    <v>       0.24831366       0.24831366       0.00000000 </v>
    <v>       0.00000000       0.24831366       0.24831366 </v>
    <v>       0.50000000       0.00000000       0.00000000 </v>
    <v>       0.75168634       0.00000000       0.24831366 </v>
    <v>       0.75168634       0.24831366       0.00000000 </v>
    <v>       0.50000000       0.25243339       0.25243339 </v>
    <v>       0.00000000       0.50000000       0.00000000 </v>
    <v>       0.25243339       0.50000000       0.25243339 </v>
    <v>       0.24831366       0.75168634       0.00000000 </v>
    <v>       0.00000000       0.75168634       0.24831366 </v>
    <v>       0.50000000       0.50000000       0.00000000 </v>
    <v>       0.74756661       0.50000000       0.25243339 </v>
    <v>       0.75168634       0.75168634       0.00000000 </v>
    <v>       0.50000000       0.74756661       0.25243339 </v>
    <v>       0.00000000       0.00000000       0.50000000 </v>
    <v>       0.24831366       0.00000000       0.75168634 </v>
    <v>       0.25243339       0.25243339       0.50000000 </v>
    <v>       0.00000000       0.24831366       0.75168634 </v>
    <v>       0.50000000       0.00000000       0.50000000 </v>
    <v>       0.75168634       0.00000000       0.75168634 </v>
    <v>       0.74756661       0.25243339       0.50000000 </v>
    <v>       0.50000000       0.25243339       0.74756661 </v>
    <v>       0.00000000       0.50000000       0.50000000 </v>
    <v>       0.25243339       0.50000000       0.74756661 </v>
    <v>       0.25243339       0.74756661       0.50000000 </v>
    <v>       0.00000000       0.75168634       0.75168634 </v>
    <v>       0.74756661       0.50000000       0.74756661 </v>
    <v>       0.74756661       0.74756661       0.50000000 </v>
    <v>       0.50000000       0.74756661       0.74756661 </v>
   </varray>
  </structure>
  <varray name="forces" >
   <v>       0.00000000       0.00000000       0.00000000 </v>
   <v>       0.08175349       0.00000000       0.08175349 </v>
   <v>       0.08175349       0.08175349       0.00000000 </v>
   <v>       0.00000000       0.08175349       0.08175349 </v>
   <v>       0.00000000       0.00000000       0.00000000 </v>
   <v>      -0.08175349       0.00000000       0.08175349 </v>
   <v>      -0.08175349       0.08175349       0.00000000 </v>
   <v>       0.00000000       0.00210970       0.00210970 </v>
   <v>       0.00000000       0.00000000       0.00000000 </v>
   <v>       0.00210970       0.00000000       0.00210970 </v>
   <v>       0.08175349      -0.08175349       0.00000000 </v>
   <v>       0.00000000      -0.08175349       0.08175349 </v>
   <v>       0.00000000       0.00000000       0.00000000 </v>
   <v>      -0.00210970       0.00000000       0.00210970 </v>
   <v>      -0.08175349      -0.08175349       0.00000000 </v>
   <v>       0.00000000      -0.00210970       0.00210970 </v>
   <v>       0.00000000       0.00000000       0.00000000 </v>
   <v>       0.08175349       0.00000000      -0.08175349 </v>
   <v>       0.00210970       0.00210970       0.00000000 </v>
   <v>       0.00000000       0.08175349      -0.08175349 </v>
   <v>       0.00000000       0.00000000       0.00000000 </v>
   <v>      -0.08175349       0.00000000      -0.08175349 </v>
   <v>      -0.00210970       0.00210970       0.00000000 </v>
   <v>       0.00000000       0.00210970      -0.00210970 </v>
   <v>       0.00000000       0.00000000       0.00000000 </v>
   <v>       0.00210970       0.00000000      -0.00210970 </v>
   <v>       0.00210970      -0.00210970       0.00000000 </v>
   <v>       0.00000000      -0.08175349      -0.08175349 </v>
   <v>      -0.00210970       0.00000000      -0.00210970 </v>
   <v>      -0.00210970      -0.00210970       0.00000000 </v>
   <v>       0.00000000      -0.00210970      -0.00210970 </v>
  </varray>
  <varray name="stress" >
   <v>      -7.60526792       0.00000000       0.00000000 </v>
   <v>       0.00000000      -7.60526792       0.00000000 </v>
   <v>       0.00000000       0.00000000      -7.60526792 </v>
  </varray>
  <energy>
   <i name="e_fr_energy">   -114.59331406 </i>
   <i name="e_wo_entrp">   -114.57671589 </i>
   <i name="e_0_energy">     -0.04979452 </i>
  </energy>
  <time name="totalsc">    4.22    4.26</time>
 </calculation>
 <calculation>
  <scstep>
   <time name="diag">    0.15    0.15</time>
   <time name="diis">    0.61    0.61</time>
   <time name="orth">    0.01    0.01</time>
   <time name="total">    1.06    1.06</time>
   <energy>
    <i name="alphaZ">     -6.10292983 </i>
    <i name="ewald">  -2232.10862733 </i>
    <i name="hartreedc">    -19.32086874 </i>
    <i name="XCdc">   -811.43670967 </i>
    <i name="pawpsdc">   1106.80314352 </i>
    <i name="pawaedc">   -116.60617356 </i>
    <i name="eentropy">     -0.05142590 </i>
    <i name="bandstr">    304.55222779 </i>
    <i name="atom">   1659.66634407 </i>
    <i name="e_fr_energy">   -114.60501964 </i>
    <i name="e_wo_entrp">   -114.55359374 </i>
    <i name="e_0_energy">   -114.58787768 </i>
   </energy>
  </scstep>
  <scstep>
   <time name="diag">    0.15    0.15</time>
   <time name="diis">    0.61    0.61</time>
   <time name="orth">    0.01    0.01</time>
   <time name="total">    1.07    1.07</time>
   <energy>
    <i name="e_fr_energy">   -114.60289386 </i>
    <i name="e_wo_entrp">   -114.55255067 </i>
    <i name="e_0_energy">   -114.58611280 </i>
   </energy>
  </scstep>
  <scstep>
   <time name="diag">    0.15    0.15</time>
   <time name="diis">    0.47    0.47</time>
   <time name="orth">    0.01    0.01</time>
   <time name="total">    0.79    0.80</time>
   <energy>
    <i name="alphaZ">     -6.10292983 </i>
    <i name="ewald">  -2232.10862733 </i>
    <i name="hartreedc">    -19.23738480 </i>
    <i name="XCdc">   -811.43918231 </i>
    <i name="pawpsdc">   1106.77859562 </i>
    <i name="pawaedc">   -116.58020516 </i>
    <i name="eentropy">     -0.05029988 </i>
    <i name="bandstr">    304.47077565 </i>
    <i name="atom">   1659.66634407 </i>
    <i name="e_fr_energy">   -114.60291398 </i>
    <i name="e_wo_entrp">   -114.55261410 </i>
    <i name="e_0_energy">   -114.58614735 </i>
   </energy>
  </scstep>
  <structure>
   <crystal>
    <varray name="basis" >
     <v>       8.08705200       0.00000000       0.00000000 </v>
     <v>       0.00000000       8.08705200       0.00000000 </v>
     <v>       0.00000000       0.00000000       8.08705200 </v>
    </varray>
    <i name="volume">    528.89651690 </i>
    <varray name="rec_basis" >
     <v>       0.12365445       0.00000000       0.00000000 </v>
     <v>       0.00000000       0.12365445       0.00000000 </v>
     <v>       0.00000000       0.00000000       0.12365445 </v>
    </varray>
   </crystal>
   <varray name="positions" >
    <v>       0.00000000       0.00000000       0.00000000 </v>
    <v>       0.24943995       0.00000000       0.24943995 </v>
    <v>       0.24943995       0.24943995       0.00000000 </v>
    <v>       0.00000000       0.24943995       0.24943995 </v>
    <v>       0.50000000       0.00000000       0.00000000 </v>
    <v>       0.75056005       0.00000000       0.24943995 </v>
    <v>       0.75056005       0.24943995       0.00000000 </v>
    <v>       0.50000000       0.25326930       0.25326930 </v>
    <v>       0.00000000       0.50000000       0.00000000 </v>
    <v>       0.25326930       0.50000000       0.25326930 </v>
    <v>       0.24943995       0.75056005       0.00000000 </v>
    <v>       0.00000000       0.75056005       0.24943995 </v>
    <v>       0.50000000       0.50000000       0.00000000 </v>
    <v>       0.74673070       0.50000000       0.25326930 </v>
    <v>       0.75056005       0.75056005       0.00000000 </v>
    <v>       0.50000000       0.74673070       0.25326930 </v>
    <v>       0.00000000       0.00000000       0.50000000 </v>
    <v>       0.24943995       0.00000000       0.75056005 </v>
    <v>       0.25326930       0.25326930       0.50000000 </v>
    <v>       0.00000000       0.24943995       0.75056005 </v>
    <v>       0.50000000       0.00000000       0.50000000 </v>
    <v>       0.75056005       0.00000000       0.75056005 </v>
    <v>       0.74673070       0.25326930       0.50000000 </v>
    <v>       0.50000000       0.25326930       0.74673070 </v>
    <v>       0.00000000       0.50000000       0.50000000 </v>
    <v>       0.25326930       0.50000000       0.74673070 </v>
    <v>       0.25326930       0.74673070       0.50000000 </v>
    <v>       0.00000000       0.75056005       0.75056005 </v>
    <v>       0.74673070       0.50000000       0.74673070 </v>
    <v>       0.74673070       0.74673070       0.50000000 </v>
    <v>       0.50000000       0.74673070       0.74673070 </v>
   </varray>
  </structure>
  <varray name="forces" >
   <v>       0.00000000       0.00000000       0.00000000 </v>
   <v>       0.02308386       0.00000000       0.02308386 </v>
   <v>       0.02308386       0.02308386       0.00000000 </v>
   <v>       0.00000000       0.02308386       0.02308386 </v>
   <v>       0.00000000       0.00000000       0.00000000 </v>
   <v>      -0.02308386       0.00000000       0.02308386 </v>
   <v>      -0.02308386       0.02308386       0.00000000 </v>
   <v>       0.00000000      -0.02569466      -0.02569466 </v>
   <v>       0.00000000       0.00000000       0.00000000 </v>
   <v>      -0.02569466       0.00000000      -0.02569466 </v>
   <v>       0.02308386      -0.02308386       0.00000000 </v>
   <v>       0.00000000      -0.02308386       0.02308386 </v>
   <v>       0.00000000       0.00000000       0.00000000 </v>
   <v>       0.02569466       0.00000000      -0.02569466 </v>
   <v>      -0.02308386      -0.02308386       0.00000000 </v>
   <v>       0.00000000       0.02569466      -0.02569466 </v>
   <v>       0.00000000       0.00000000       0.00000000 </v>
   <v>       0.02308386       0.00000000      -0.02308386 </v>
   <v>      -0.02569466      -0.02569466       0.00000000 </v>
   <v>       0.00000000       0.02308386      -0.02308386 </v>
   <v>       0.00000000       0.00000000       0.00000000 </v>
   <v>      -0.02308386       0.00000000      -0.02308386 </v>
   <v>       0.02569466      -0.02569466       0.00000000 </v>
   <v>       0.00000000      -0.02569466       0.02569466 </v>
   <v>       0.00000000       0.00000000       0.00000000 </v>
   <v>      -0.02569466       0.00000000       0.02569466 </v>
   <v>      -0.02569466       0.02569466       0.00000000 </v>
   <v>       0.00000000      -0.02308386      -0.02308386 </v>
   <v>       0.02569466       0.00000000       0.02569466 </v>
   <v>       0.02569466       0.02569466       0.00000000 </v>
   <v>       0.00000000       0.02569466       0.02569466 </v>
  </varray>
  <varray name="stress" >
   <v>      -7.90839401       0.00000000       0.00000000 </v>
   <v>       0.00000000      -7.90839401       0.00000000 </v>
   <v>       0.00000000       0.00000000      -7.90839401 </v>
  </varray>
  <energy>
   <i name="e_fr_energy">   -114.60291398 </i>
   <i name="e_wo_entrp">   -114.58614735 </i>
   <i name="e_0_energy">     -0.05029988 </i>
  </energy>
  <time name="totalsc">    4.13    4.14</time>
  <eigenvalues>
   <array>
    <dimension dim="1">band</dimension>
    <dimension dim="2">kpoint</dimension>
    <dimension dim="3">spin</dimension>
    <field>eigene</field>
    <field>occ</field>
    <set>
     <set comment="spin 1">
      <set comment="kpoint 1">
       <r>   -2.9338    1.0000 </r>
       <r>   -1.8582    1.0000 </r>
       <r>   -1.8582    1.0000 </r>
       <r>   -1.6868    1.0000 </r>
       <r>   -0.7431    1.0000 </r>
       <r>   -0.7431    1.0000 </r>
       <r>   -0.4978    1.0000 </r>
       <r>    0.3604    1.0000 </r>
       <r>    0.3604    1.0000 </r>
       <r>    0.4264    1.0000 </r>
       <r>    0.6048    1.0000 </r>
       <r>    1.4285    1.0000 </r>
       <r>    1.4285    1.0000 </r>
       <r>    1.4578    1.0000 </r>
       <r>    1.5629    1.0000 </r>
       <r>    1.5629    1.0000 </r>
       <r>    1.9076    1.0000 </r>
       <r>    2.6343    1.0000 </r>
       <r>    2.6343    1.0000 </r>
       <r>    2.7520    1.0000 </r>
       <r>    3.5953    1.0000 </r>
       <r>    3.5953    1.0000 </r>
       <r>    3.6960    1.0000 </r>
       <r>    3.6976    1.0000 </r>
       <r>    3.6976    1.0000 </r>
       <r>    3.9887    1.0000 </r>
       <r>    4.6227    1.0000 </r>
       <r>    4.6227    1.0000 </r>
       <r>    4.6550    1.0000 </r>
       <r>    4.7169    1.0000 </r>
       <r>    4.7169    1.0000 </r>
       <r>    4.9105    1.0000 </r>
       <r>    4.9105    1.0000 </r>
       <r>    4.9147    1.0000 </r>
       <r>    5.1739    1.0000 </r>
       <r>    5.7638    1.0000 </r>
       <r>    5.7638    1.0000 </r>
       <r>    6.2218    1.0000 </r>
       <r>    6.7775    1.0000 </r>
       <r>    6.7938    1.0000 </r>
       <r>    6.7938    1.0000 </r>
       <r>    6.9708    1.0000 </r>
       <r>    7.0223    1.0000 </r>
       <r>    7.0308    1.0000 </r>
       <r>    7.0308    1.0000 </r>
       <r>    7.8357    0.6759 </r>
       <r>    7.8816    0.4860 </r>
       <r>    7.8816    0.4860 </r>
       <r>    8.0964   -0.0321 </r>
       <r>    8.0964   -0.0321 </r>
       <r>    8.1539   -0.0325 </r>
       <r>    8.1959   -0.0236 </r>
       <r>    8.1959   -0.0236 </r>
       <r>    8.3188   -0.0039 </r>
       <r>    9.1495    0.0000 </r>
       <r>    9.1495    0.0000 </r>
       <r>    9.1816    0.0000 </r>
       <r>    9.4089    0.0000 </r>
       <r>    9.4089    0.0000 </r>
       <r>    9.4348    0.0000 </r>
       <r>    9.9873    0.0000 </r>
       <r>   10.0040    0.0000 </r>
       <r>   10.0040    0.0000 </r>
       <r>   10.0528    0.0000 </r>
       <r>   10.1288    0.0000 </r>
       <r>   10.1288    0.0000 </r>
       <r>   10.5324    0.0000 </r>
       <r>   10.5325    0.0000 </r>
       <r>   10.5831    0.0000 </r>
       <r>   10.9766    0.0000 </r>
       <r>   10.9817    0.0000 </r>
       <r>   11.3220    0.0000 </r>
      </set>
     </set>
    </set>
   </array>
  </eigenvalues>
  <separator name="orbital magnetization" >
   <v name="MAGDIPOLOUT">      0.00000000      0.00000000      0.00000000</v>
  </separator>
  <dos>
   <i name="efermi">      7.87833454 </i>
   <total>
    <array>
     <dimension dim="1">gridpoints</dimension>
     <dimension dim="2">spin</dimension>
     <field>energy</field>
     <field>total</field>
     <field>integrated</field>
     <set>
      <set comment="spin 1">
       <r>  -4.9338   0.0000   0.0000 </r>
       <r>  -4.8730   0.0000   0.0000 </r>
       <r>  -4.8121   0.0000   0.0000 </r>
       <r>  -4.7512   0.0000   0.0000 </r>
       <r>  -4.6904   0.0000   0.0000 </r>
       <r>  -4.6295   0.0000   0.0000 </r>
       <r>  -4.5687   0.0000   0.0000 </r>
       <r>  -4.5078   0.0000   0.0000 </r>
       <r>  -4.4470   0.0000   0.0000 </r>
       <r>  -4.3861   0.0000   0.0000 </r>
       <r>  -4.3253   0.0000   0.0000 </r>
       <r>  -4.2644   0.0000   0.0000 </r>
       <r>  -4.2036   0.0000   0.0000 </r>
       <r>  -4.1427   0.0000   0.0000 </r>
       <r>  -4.0819   0.0000   0.0000 </r>
       <r>  -4.0210   0.0000   0.0000 </r>
       <r>  -3.9602   0.0000   0.0000 </r>
       <r>  -3.8993   0.0000   0.0000 </r>
       <r>  -3.8385   0.0000   0.0000 </r>
       <r>  -3.7776   0.0000   0.0000 </r>
       <r>  -3.7167   0.0000   0.0000 </r>
       <r>  -3.6559  -0.0001   0.0000 </r>
       <r>  -3.5950  -0.0004   0.0000 </r>
       <r>  -3.5342  -0.0025  -0.0002 </r>
       <r>  -3.4733  -0.0120  -0.0009 </r>
       <r>  -3.4125  -0.0454  -0.0037 </r>
       <r>  -3.3516  -0.1345  -0.0119 </r>
       <r>  -3.2908  -0.2987  -0.0300 </r>
       <r>  -3.2299  -0.4433  -0.0570 </r>
       <r>  -3.1691  -0.2158  -0.0701 </r>
       <r>  -3.1082   0.9470  -0.0125 </r>
       <r>  -3.0474   3.3264   0.1899 </r>
       <r>  -2.9865   6.2567   0.5706 </r>
       <r>  -2.9257   8.1870   1.0688 </r>
       <r>  -2.8648   7.8601   1.5472 </r>
       <r>  -2.8040   5.4989   1.8818 </r>
       <r>  -2.7431   2.5871   2.0392 </r>
       <r>  -2.6823   0.5157   2.0706 </r>
       <r>  -2.6214  -0.3443   2.0496 </r>
       <r>  -2.5605  -0.4211   2.0240 </r>
       <r>  -2.4997  -0.2508   2.0088 </r>
       <r>  -2.4388  -0.1118   2.0020 </r>
       <r>  -2.3780  -0.0706   1.9977 </r>
       <r>  -2.3171  -0.1421   1.9890 </r>
       <r>  -2.2563  -0.3681   1.9666 </r>
       <r>  -2.1954  -0.7417   1.9215 </r>
       <r>  -2.1346  -0.9530   1.8635 </r>
       <r>  -2.0737  -0.1448   1.8547 </r>
       <r>  -2.0129   2.7988   2.0250 </r>
       <r>  -1.9520   8.1540   2.5212 </r>
       <r>  -1.8912  14.3731   3.3958 </r>
       <r>  -1.8303  18.7238   4.5352 </r>
       <r>  -1.7695  19.3522   5.7129 </r>
       <r>  -1.7086  16.5302   6.7188 </r>
       <r>  -1.6478  11.8940   7.4426 </r>
       <r>  -1.5869   7.0676   7.8726 </r>
       <r>  -1.5260   3.1312   8.0632 </r>
       <r>  -1.4652   0.6341   8.1018 </r>
       <r>  -1.4043  -0.4438   8.0748 </r>
       <r>  -1.3435  -0.5941   8.0386 </r>
       <r>  -1.2826  -0.4071   8.0138 </r>
       <r>  -1.2218  -0.2661   7.9976 </r>
       <r>  -1.1609  -0.3306   7.9775 </r>
       <r>  -1.1001  -0.6168   7.9400 </r>
       <r>  -1.0392  -0.9018   7.8851 </r>
       <r>  -0.9784  -0.4753   7.8562 </r>
       <r>  -0.9175   1.7654   7.9636 </r>
       <r>  -0.8567   6.3633   8.3508 </r>
       <r>  -0.7958  12.0749   9.0856 </r>
       <r>  -0.7350  16.1411  10.0679 </r>
       <r>  -0.6741  16.6106  11.0787 </r>
       <r>  -0.6133  14.2323  11.9447 </r>
       <r>  -0.5524  11.3432  12.6350 </r>
       <r>  -0.4915   9.1875  13.1941 </r>
       <r>  -0.4307   7.2173  13.6333 </r>
       <r>  -0.3698   4.7476  13.9222 </r>
       <r>  -0.3090   2.1709  14.0543 </r>
       <r>  -0.2481   0.3503  14.0756 </r>
       <r>  -0.1873  -0.4191  14.0501 </r>
       <r>  -0.1264  -0.5265  14.0181 </r>
       <r>  -0.0656  -0.5293  13.9859 </r>
       <r>  -0.0047  -0.7652  13.9393 </r>
       <r>   0.0561  -1.1711  13.8680 </r>
       <r>   0.1170  -1.0478  13.8043 </r>
       <r>   0.1778   0.9982  13.8650 </r>
       <r>   0.2387   6.2198  14.2435 </r>
       <r>   0.2995  14.0588  15.0990 </r>
       <r>   0.3604  21.4367  16.4035 </r>
       <r>   0.4212  24.7124  17.9073 </r>
       <r>   0.4821  22.8090  19.2953 </r>
       <r>   0.5429  17.8545  20.3818 </r>
       <r>   0.6038  12.6464  21.1514 </r>
       <r>   0.6647   8.3482  21.6594 </r>
       <r>   0.7255   4.8184  21.9526 </r>
       <r>   0.7864   2.0062  22.0747 </r>
       <r>   0.8472   0.2109  22.0875 </r>
       <r>   0.9081  -0.5327  22.0551 </r>
       <r>   0.9689  -0.6727  22.0142 </r>
       <r>   1.0298  -0.7914  21.9660 </r>
       <r>   1.0906  -1.2067  21.8926 </r>
       <r>   1.1515  -1.6418  21.7927 </r>
       <r>   1.2123  -0.9062  21.7375 </r>
       <r>   1.2732   2.9107  21.9147 </r>
       <r>   1.3340  11.0513  22.5872 </r>
       <r>   1.3949  22.1458  23.9348 </r>
       <r>   1.4557  31.8884  25.8753 </r>
       <r>   1.5166  35.5241  28.0370 </r>
       <r>   1.5774  31.2706  29.9399 </r>
       <r>   1.6383  21.6166  31.2554 </r>
       <r>   1.6992  11.5584  31.9587 </r>
       <r>   1.7600   5.3701  32.2855 </r>
       <r>   1.8209   4.1890  32.5404 </r>
       <r>   1.8817   5.9031  32.8996 </r>
       <r>   1.9426   7.2631  33.3416 </r>
       <r>   2.0034   6.4502  33.7341 </r>
       <r>   2.0643   3.9641  33.9754 </r>
       <r>   2.1251   1.4113  34.0612 </r>
       <r>   2.1860  -0.1801  34.0503 </r>
       <r>   2.2468  -0.8845  33.9965 </r>
       <r>   2.3077  -1.2156  33.9225 </r>
       <r>   2.3685  -1.2150  33.8485 </r>
       <r>   2.4294  -0.0348  33.8464 </r>
       <r>   2.4902   3.5763  34.0641 </r>
       <r>   2.5511   9.8958  34.6662 </r>
       <r>   2.6119  17.0523  35.7039 </r>
       <r>   2.6728  21.6700  37.0226 </r>
       <r>   2.7336  21.2981  38.3187 </r>
       <r>   2.7945  16.3274  39.3122 </r>
       <r>   2.8554   9.4958  39.8901 </r>
       <r>   2.9162   3.7165  40.1162 </r>
       <r>   2.9771   0.3750  40.1390 </r>
       <r>   3.0379  -0.8032  40.0902 </r>
       <r>   3.0988  -0.8496  40.0385 </r>
       <r>   3.1596  -0.6885  39.9966 </r>
       <r>   3.2205  -0.8214  39.9466 </r>
       <r>   3.2813  -1.3152  39.8666 </r>
       <r>   3.3422  -1.6403  39.7667 </r>
       <r>   3.4030  -0.3847  39.7433 </r>
       <r>   3.4639   4.4339  40.0131 </r>
       <r>   3.5247  13.8110  40.8536 </r>
       <r>   3.5856  25.7483  42.4204 </r>
       <r>   3.6464  35.1275  44.5580 </r>
       <r>   3.7073  36.8654  46.8014 </r>
       <r>   3.7681  30.1811  48.6380 </r>
       <r>   3.8290  19.5970  49.8305 </r>
       <r>   3.8899  11.1219  50.5073 </r>
       <r>   3.9507   7.3897  50.9570 </r>
       <r>   4.0116   6.6540  51.3619 </r>
       <r>   4.0724   5.8827  51.7199 </r>
       <r>   4.1333   3.8593  51.9548 </r>
       <r>   4.1941   1.3273  52.0355 </r>
       <r>   4.2550  -0.7275  51.9913 </r>
       <r>   4.3158  -2.0040  51.8693 </r>
       <r>   4.3767  -2.1847  51.7364 </r>
       <r>   4.4375   0.0701  51.7406 </r>
       <r>   4.4984   6.6513  52.1454 </r>
       <r>   4.5592  17.7233  53.2239 </r>
       <r>   4.6201  29.8972  55.0432 </r>
       <r>   4.6809  37.9114  57.3502 </r>
       <r>   4.7418  39.1564  59.7330 </r>
       <r>   4.8026  35.8341  61.9136 </r>
       <r>   4.8635  31.7109  63.8433 </r>
       <r>   4.9244  27.8104  65.5357 </r>
       <r>   4.9852  22.8385  66.9254 </r>
       <r>   5.0461  16.7663  67.9457 </r>
       <r>   5.1069  11.5924  68.6512 </r>
       <r>   5.1678   8.5961  69.1742 </r>
       <r>   5.2286   6.8274  69.5897 </r>
       <r>   5.2895   4.7761  69.8804 </r>
       <r>   5.3503   2.2219  70.0156 </r>
       <r>   5.4112  -0.0261  70.0140 </r>
       <r>   5.4720  -1.2157  69.9400 </r>
       <r>   5.5329  -0.8045  69.8910 </r>
       <r>   5.5937   1.8579  70.0041 </r>
       <r>   5.6546   6.9281  70.4257 </r>
       <r>   5.7154  12.8271  71.2063 </r>
       <r>   5.7763  16.3956  72.2040 </r>
       <r>   5.8371  15.2731  73.1334 </r>
       <r>   5.8980  10.1815  73.7530 </r>
       <r>   5.9588   4.4005  74.0207 </r>
       <r>   6.0197   1.1008  74.0877 </r>
       <r>   6.0806   1.3705  74.1711 </r>
       <r>   6.1414   4.1169  74.4217 </r>
       <r>   6.2023   7.0538  74.8509 </r>
       <r>   6.2631   8.0721  75.3421 </r>
       <r>   6.3240   6.5045  75.7379 </r>
       <r>   6.3848   3.3504  75.9418 </r>
       <r>   6.4457   0.2469  75.9568 </r>
       <r>   6.5065  -1.5173  75.8645 </r>
       <r>   6.5674  -0.9215  75.8084 </r>
       <r>   6.6282   3.0283  75.9927 </r>
       <r>   6.6891  10.3808  76.6244 </r>
       <r>   6.7499  19.1369  77.7889 </r>
       <r>   6.8108  26.3601  79.3930 </r>
       <r>   6.8716  30.9242  81.2749 </r>
       <r>   6.9325  33.8700  83.3359 </r>
       <r>   6.9933  35.3639  85.4879 </r>
       <r>   7.0542  33.1398  87.5046 </r>
       <r>   7.1151  25.5219  89.0577 </r>
       <r>   7.1759  14.6688  89.9503 </r>
       <r>   7.2368   5.1245  90.2621 </r>
       <r>   7.2976  -0.2342  90.2479 </r>
       <r>   7.3585  -1.8024  90.1382 </r>
       <r>   7.4193  -1.6203  90.0396 </r>
       <r>   7.4802  -1.3286  89.9588 </r>
       <r>   7.5410  -1.4112  89.8729 </r>
       <r>   7.6019  -1.2351  89.7977 </r>
       <r>   7.6627   0.6654  89.8382 </r>
       <r>   7.7236   5.6217  90.1803 </r>
       <r>   7.7844  13.1356  90.9796 </r>
       <r>   7.8453  20.2994  92.2149 </r>
       <r>   7.9061  24.2074  93.6880 </r>
       <r>   7.9670  25.3970  95.2335 </r>
       <r>   8.0278  27.5543  96.9102 </r>
       <r>   8.0887  32.8225  98.9076 </r>
       <r>   8.1495  38.4759 101.2490 </r>
       <r>   8.2104  39.4529 103.6498 </r>
       <r>   8.2713  33.5476 105.6912 </r>
       <r>   8.3321  23.1495 107.1000 </r>
       <r>   8.3930  12.5681 107.8648 </r>
       <r>   8.4538   4.8044 108.1571 </r>
       <r>   8.5147   0.5605 108.1912 </r>
       <r>   8.5755  -0.9851 108.1313 </r>
       <r>   8.6364  -1.1054 108.0640 </r>
       <r>   8.6972  -0.8520 108.0122 </r>
       <r>   8.7581  -0.8265 107.9619 </r>
       <r>   8.8189  -1.1557 107.8915 </r>
       <r>   8.8798  -1.3526 107.8092 </r>
       <r>   8.9406  -0.1363 107.8009 </r>
       <r>   9.0015   4.0460 108.0471 </r>
       <r>   9.0623  11.3647 108.7387 </r>
       <r>   9.1232  19.3139 109.9140 </r>
       <r>   9.1840  24.2535 111.3899 </r>
       <r>   9.2449  25.1003 112.9173 </r>
       <r>   9.3058  24.4484 114.4051 </r>
       <r>   9.3666  24.8588 115.9178 </r>
       <r>   9.4275  25.1500 117.4483 </r>
       <r>   9.4883  22.0526 118.7902 </r>
       <r>   9.5492  14.7926 119.6904 </r>
       <r>   9.6100   6.2211 120.0690 </r>
       <r>   9.6709  -0.2544 120.0535 </r>
       <r>   9.7317  -3.0798 119.8661 </r>
       <r>   9.7926  -1.7485 119.7597 </r>
       <r>   9.8534   4.6189 120.0407 </r>
       <r>   9.9143  16.2746 121.0311 </r>
       <r>   9.9751  30.4264 122.8826 </r>
       <r>  10.0360  41.1361 125.3859 </r>
       <r>  10.0968  42.9285 127.9982 </r>
       <r>  10.1577  34.9107 130.1226 </r>
       <r>  10.2185  21.4071 131.4253 </r>
       <r>  10.2794   8.9608 131.9706 </r>
       <r>  10.3403   2.7316 132.1368 </r>
       <r>  10.4011   4.4861 132.4098 </r>
       <r>  10.4620  12.0970 133.1459 </r>
       <r>  10.5228  20.3354 134.3834 </r>
       <r>  10.5837  23.6103 135.8202 </r>
       <r>  10.6445  19.7780 137.0237 </r>
       <r>  10.7054  11.7444 137.7384 </r>
       <r>  10.7662   5.0393 138.0450 </r>
       <r>  10.8271   3.6507 138.2672 </r>
       <r>  10.8879   7.5352 138.7257 </r>
       <r>  10.9488  13.0489 139.5198 </r>
       <r>  11.0096  15.7375 140.4775 </r>
       <r>  11.0705  13.7745 141.3157 </r>
       <r>  11.1313   9.2594 141.8791 </r>
       <r>  11.1922   5.9436 142.2408 </r>
       <r>  11.2530   5.6417 142.5841 </r>
       <r>  11.3139   6.9980 143.0100 </r>
       <r>  11.3747   7.4557 143.4637 </r>
       <r>  11.4356   5.8832 143.8217 </r>
       <r>  11.4965   3.1872 144.0156 </r>
       <r>  11.5573   0.9068 144.0708 </r>
       <r>  11.6182  -0.2250 144.0571 </r>
       <r>  11.6790  -0.4450 144.0301 </r>
       <r>  11.7399  -0.2990 144.0119 </r>
       <r>  11.8007  -0.1345 144.0037 </r>
       <r>  11.8616  -0.0454 144.0009 </r>
       <r>  11.9224  -0.0120 144.0002 </r>
       <r>  11.9833  -0.0025 144.0000 </r>
       <r>  12.0441  -0.0004 144.0000 </r>
       <r>  12.1050  -0.0001 144.0000 </r>
       <r>  12.1658   0.0000 144.0000 </r>
       <r>  12.2267   0.0000 144.0000 </r>
       <r>  12.2875   0.0000 144.0000 </r>
       <r>  12.3484   0.0000 144.0000 </r>
       <r>  12.4092   0.0000 144.0000 </r>
       <r>  12.4701   0.0000 144.0000 </r>
       <r>  12.5310   0.0000 144.0000 </r>
       <r>  12.5918   0.0000 144.0000 </r>
       <r>  12.6527   0.0000 144.0000 </r>
       <r>  12.7135   0.0000 144.0000 </r>
       <r>  12.7744   0.0000 144.0000 </r>
       <r>  12.8352   0.0000 144.0000 </r>
       <r>  12.8961   0.0000 144.0000 </r>
       <r>  12.9569   0.0000 144.0000 </r>
       <r>  13.0178   0.0000 144.0000 </r>
       <r>  13.0786   0.0000 144.0000 </r>
       <r>  13.1395   0.0000 144.0000 </r>
       <r>  13.2003   0.0000 144.0000 </r>
       <r>  13.2612   0.0000 144.0000 </r>
       <r>  13.3220   0.0000 144.0000 </r>
      </set>
     </set>
    </array>
   </total>
  </dos>
 </calculation>
 <structure name="finalpos" >
  <crystal>
   <varray name="basis" >
    <v>       8.08705200       0.00000000       0.00000000 </v>
    <v>       0.00000000       8.08705200       0.00000000 </v>
    <v>       0.00000000       0.00000000       8.08705200 </v>
   </varray>
   <i name="volume">    528.89651690 </i>
   <varray name="rec_basis" >
    <v>       0.12365445       0.00000000       0.00000000 </v>
    <v>       0.00000000       0.12365445       0.00000000 </v>
    <v>       0.00000000       0.00000000       0.12365445 </v>
   </varray>
  </crystal>
  <varray name="positions" >
   <v>       0.00000000       0.00000000       0.00000000 </v>
   <v>       0.24943995       0.00000000       0.24943995 </v>
   <v>       0.24943995       0.24943995       0.00000000 </v>
   <v>       0.00000000       0.24943995       0.24943995 </v>
   <v>       0.50000000       0.00000000       0.00000000 </v>
   <v>       0.75056005       0.00000000       0.24943995 </v>
   <v>       0.75056005       0.24943995       0.00000000 </v>
   <v>       0.50000000       0.25326930       0.25326930 </v>
   <v>       0.00000000       0.50000000       0.00000000 </v>
   <v>       0.25326930       0.50000000       0.25326930 </v>
   <v>       0.24943995       0.75056005       0.00000000 </v>
   <v>       0.00000000       0.75056005       0.24943995 </v>
   <v>       0.50000000       0.50000000       0.00000000 </v>
   <v>       0.74673070       0.50000000       0.25326930 </v>
   <v>       0.75056005       0.75056005       0.00000000 </v>
   <v>       0.50000000       0.74673070       0.25326930 </v>
   <v>       0.00000000       0.00000000       0.50000000 </v>
   <v>       0.24943995       0.00000000       0.75056005 </v>
   <v>       0.25326930       0.25326930       0.50000000 </v>
   <v>       0.00000000       0.24943995       0.75056005 </v>
   <v>       0.50000000       0.00000000       0.50000000 </v>
   <v>       0.75056005       0.00000000       0.75056005 </v>
   <v>       0.74673070       0.25326930       0.50000000 </v>
   <v>       0.50000000       0.25326930       0.74673070 </v>
   <v>       0.00000000       0.50000000       0.50000000 </v>
   <v>       0.25326930       0.50000000       0.74673070 </v>
   <v>       0.25326930       0.74673070       0.50000000 </v>
   <v>       0.00000000       0.75056005       0.75056005 </v>
   <v>       0.74673070       0.50000000       0.74673070 </v>
   <v>       0.74673070       0.74673070       0.50000000 </v>
   <v>       0.50000000       0.74673070       0.74673070 </v>
  </varray>
 </structure>
</modeling>
