 vasp.5.2.2 15Apr09 complex 
 executed on             LinuxIFC date 2013.06.14  22:46:59
 running on    1 nodes
 distr:  one band on    1 nodes,    1 groups


--------------------------------------------------------------------------------------------------------


 INCAR:
 POTCAR:   PAW_GGA Fe 03Mar1998                   
 POTCAR:   PAW_GGA Fe 03Mar1998                   
   VRHFIN =Fe:  d7 s1                                                           
   LEXCH  = 91                                                                  
   EATOM  =   595.5622 eV,   43.7726 Ry                                         
                                                                                
   TITEL  = PAW_GGA Fe 03Mar1998                                                
   LULTRA =        F    use ultrasoft PP ?                                      
   IUNSCR =        1    unscreen: 0-lin 1-nonlin 2-no                           
   RPACOR =    2.000    partial core radius                                     
   POMASS =   55.847; ZVAL   =    8.000    mass and valenz                      
   RCORE  =    2.300    outmost cutoff radius                                   
   RWIGS  =    2.460; RWIGS  =    1.302    wigner-seitz radius (au A)           
   ENMAX  =  267.907; ENMIN  =  200.930 eV                                      
   RCLOC  =    1.701    cutoff for local pot                                    
   LCOR   =        T    correct aug charges                                     
   LPAW   =        T    paw PP                                                  
   EAUG   =  511.368                                                            
   DEXC   =    -.007                                                            
   RMAX   =    2.817    core radius for proj-oper                               
   RAUG   =    1.300    factor for augmentation sphere                          
   RDEP   =    2.442    core radius for depl-charge                             
   QCUT   =   -4.437; QGAM   =    8.875    optimization parameters              
                                                                                
   Description                                                                  
     l     E      TYP  RCUT    TYP  RCUT                                        
     2   .000     23  2.300                                                     
     2   .000     23  2.300                                                     
     0   .000     23  2.300                                                     
     0   .000     23  2.300                                                     
     1  -.200     23  2.300                                                     
     1   .000     23  2.300                                                     
     3   .000      7   .000                                                     
  local pseudopotential read in
  partial core-charges read in
  atomic valenz-charges read in
  non local Contribution for L=           2  read in
    real space projection operators read in
  non local Contribution for L=           2  read in
    real space projection operators read in
  non local Contribution for L=           0  read in
    real space projection operators read in
  non local Contribution for L=           0  read in
    real space projection operators read in
  non local Contribution for L=           1  read in
    real space projection operators read in
  non local Contribution for L=           1  read in
    real space projection operators read in
    PAW grid and wavefunctions read in
 
   number of l-projection  operators is LMAX  =           6
   number of lm-projection operators is LMMAX =          18
 
 PAW_GGA Fe 03Mar1998                   :
 energy of atom  1       EATOM= -595.5622
 kinetic energy error for atom=    0.0345 (will be added to EATOM!!)
 
 
 POSCAR: Fe3                                     
  positions in direct lattice
  velocities in cartesian coordinates
 exchange correlation table for  LEXCH =        7
   RHO(1)=    0.500       N(1)  =     2000
   RHO(2)=  100.500       N(2)  =     4000

 VTST: version 2.03d, (02/18/09)

 CHAIN: initializing optimizer
 
 OPT: Using VASP Dynamics algorithm
 CHAIN: Read ICHAIN            0
 


--------------------------------------------------------------------------------------------------------


 ion  position               nearest neighbor table
   1  0.000  0.500  0.500-   2 2.54   3 2.54   3 2.54   2 2.54   2 2.54   3 2.54   3 2.54   2 2.54

   2  0.500  0.000  0.500-   1 2.54   3 2.54   3 2.54   1 2.54   3 2.54   3 2.54   1 2.54   1 2.54

   3  0.500  0.500  0.000-   1 2.54   2 2.54   1 2.54   2 2.54   2 2.54   2 2.54   1 2.54   1 2.54

 
  LATTYP: Found a simple cubic cell.
 ALAT       =     3.5850510000
  
  Lattice vectors:
  
 A1 = (   3.5850510000,   0.0000000000,   0.0000000000)
 A2 = (   0.0000000000,   3.5850510000,   0.0000000000)
 A3 = (   0.0000000000,   0.0000000000,   3.5850510000)
 Subroutine PRICEL returns:
 Original cell was already a primitive cell.
 

Analysis of symmetry for initial positions (statically):

 Routine SETGRP: Setting up the symmetry group for a 
 simple cubic supercell.


 Subroutine GETGRP returns: Found 48 space group operations
 (whereof 48 operations were pure point group operations)
 out of a pool of 48 trial point group operations.


The static configuration has the point symmetry O_h .

Analysis of symmetry for dynamics (positions and initial velocities):

 Subroutine DYNSYM returns: Found 48 space group operations
 (whereof 48 operations were pure point group operations)
 out of a pool of 48 trial space group operations
 (whereof 48 operations were pure point group operations)
 and found also     1 'primitive' translations


The dynamic configuration has the point symmetry O_h .
 
 
 KPOINTS: Automatic kpoint scheme                 

Automatic generation of k-mesh.
 
 Subroutine IBZKPT returns following result:
 ===========================================
 
 Found      1 irreducible k-points:
 
 Following reciprocal coordinates:
            Coordinates               Weight
  0.000000  0.000000  0.000000      1.000000
 
 Following cartesian coordinates:
            Coordinates               Weight
  0.000000  0.000000  0.000000      1.000000
 


--------------------------------------------------------------------------------------------------------




 Dimension of arrays:
   k-points           NKPTS =      1   k-points in BZ     NKDIM =      1   number of bands    NBANDS=     16
   number of dos      NEDOS =    301   number of ions     NIONS =      3
   non local maximal  LDIM  =      6   non local SUM 2l+1 LMDIM =     18
   total plane-waves  NPLWV =   8000
   max r-space proj   IRMAX =      1   max aug-charges    IRDMAX=   6384
   dimension x,y,z NGX =    20 NGY =   20 NGZ =   20
   dimension x,y,z NGXF=    40 NGYF=   40 NGZF=   40
   support grid    NGXF=    40 NGYF=   40 NGZF=   40
   ions per type =               3
 NGX,Y,Z   is equivalent  to a cutoff of   9.27,  9.27,  9.27 a.u.
 NGXF,Y,Z  is equivalent  to a cutoff of  18.55, 18.55, 18.55 a.u.


 I would recommend the setting:
   dimension x,y,z NGX =    19 NGY =   19 NGZ =   19
 SYSTEM =  unknown system                          
 POSCAR =  Fe3                                     

 Startparameter for this run:
   NWRITE =      2    write-flag & timer
   PREC   = accura    medium, high low
   ISTART =      0    job   : 0-new  1-cont  2-samecut
   ICHARG =      2    charge: 1-file 2-atom 10-const
   ISPIN  =      1    spin polarized calculation?
   LNONCOLLINEAR =      F non collinear calculations
   LSORBIT =      F    spin-orbit coupling
   INIWAV =      1    electr: 0-lowe 1-rand  2-diag
   LASPH  =      F    aspherical Exc in radial PAW
   METAGGA=      F    non-selfconsistent MetaGGA calc.

 Electronic Relaxation 1
   ENCUT  =  267.9 eV  19.69 Ry    4.44 a.u.   4.78  4.78  4.78*2*pi/ulx,y,z
   ENINI  =  267.9     initial cutoff
   ENAUG  =  511.4 eV  augmentation charge cutoff
   NELM   =     60;   NELMIN=  2; NELMDL= -5     # of ELM steps 
   EDIFF  = 0.1E-03   stopping-criterion for ELM
   LREAL  =      F    real-space projection
   LCOMPAT=      F    compatible to vasp.4.4
   LREAL_COMPAT= F    compatible to vasp.4.5.1-3
   GGA_COMPAT  = T    GGA compatible to vasp.4.4-vasp.4.6
   LMAXPAW     = -100 max onsite density
   LMAXMIX     =    2 max onsite mixed and CHGCAR
   VOSKOWN=      0    Vosko Wilk Nusair interpolation
   ROPT   =    0.00000
 Ionic relaxation
   EDIFFG = 0.1E-02   stopping-criterion for IOM
   NSW    =      0    number of steps for IOM
   NBLOCK =      1;   KBLOCK =      1    inner block; outer block 
   IBRION =     -1    ionic relax: 0-MD 1-quasi-New 2-CG
   NFREE  =      0    steps in history (QN), initial steepest desc. (CG)
   ISIF   =      2    stress and relaxation
   IWAVPR =     10    prediction:  0-non 1-charg 2-wave 3-comb
   ISYM   =      2    0-nonsym 1-usesym 2-fastsym
   LCORR  =      T    Harris-Foulkes like correction to forces

   POTIM  = 0.5000    time-step for ionic-motion
   TEIN   =    0.0    initial temperature
   TEBEG  =    0.0;   TEEND  =   0.0 temperature during run
   SMASS  =  -3.00    Nose mass-parameter (am)
   estimated Nose-frequenzy (Omega)   =  0.10E-29 period in steps =****** mass=  -0.294E-27a.u.
   NPACO  =    256;   APACO  = 16.0  distance and # of slots for P.C.
   PSTRESS=    0.0 pullay stress

  Mass of Ions in am
   POMASS =  55.85
  Ionic Valenz
   ZVAL   =   8.00
  Atomic Wigner-Seitz radii
   RWIGS  =  -1.00
   NELECT =      24.0000    total number of electrons
   NUPDOWN=      -1.0000    fix difference up-down

 DOS related values:
   EMIN   =  10.00;   EMAX   =-10.00  energy-range for DOS
   EFERMI =   0.00
   ISMEAR =     1;   SIGMA  =   0.20  broadening in eV -4-tet -1-fermi 0-gaus

 Electronic relaxation 2 (details)
   IALGO  =     38    algorithm
   LDIAG  =      T    sub-space diagonalisation
   IMIX   =      4    mixing-type and parameters
     AMIX     =   0.40;   BMIX     =  1.00
     AMIX_MAG =   1.60;   BMIX_MAG =  1.00
     AMIN     =   0.10
     WC   =   100.;   INIMIX=   1;  MIXPRE=   1

 Intra band minimization:
   WEIMIN = 0.0000     energy-eigenvalue tresh-hold
   EBREAK =  0.16E-05  absolut break condition
   DEPER  =   0.30     relativ break condition  

   TIME   =   0.40     timestep for ELM

  volume/ion in A,a.u.               =      15.36       103.65
  Fermi-wavevector in a.u.,A,eV,Ry     =   1.317194  2.489137 23.606126  1.735001
  Thomas-Fermi vector in A             =   2.447253
 
 Write flags
   LWAVE  =      F    write WAVECAR
   LCHARG =      F    write CHGCAR
   LVTOT  =      F    write LOCPOT, local potential
   LELF   =      F    write electronic localiz. function (ELF)
   LORBIT =      0    0 simple, 1 ext, 2 COOP (PROOUT)


 Dipole corrections
   LMONO  =      F    monopole corrections only (constant potential shift)
   LDIPOL =      F    correct potential (dipole corrections)
   IDIPOL =      0    1-x, 2-y, 3-z, 4-all directions 
   EPSILON=  1.0000000 bulk dielectric constant

 Exchange correlation treatment:
   GGA     =    --    GGA type
   LEXCH   =     7    internal setting for exchange type
   VOSKOWN=      0    Vosko Wilk Nusair interpolation
   LHFCALC =     F    Hartree Fock is set to
   LHFONE  =     F    Hartree Fock one center treatment
   AEXX    =    0.0000 exact exchange contribution

 Linear response parameters
   LEPSILON=     F    determine dielectric tensor
   LRPA    =     F    only Hartree local field effects (RPA)
   LNABLA  =     F    use nabla operator in PAW spheres
   LVEL    =     F    velocity operator in full k-point grid
   LINTERFAST=   F  fast interpolation
   KINTER  =     0    interpolate to denser k-point grid
   CSHIFT  =0.1000    complex shift for real part using Kramers Kronig
   OMEGAMAX=  -1.0    maximum frequency

 Orbital magnetization related:
   ORBITALMAG=     F  switch on orbital magnetization
   LCHIMAG   =     F  perturbation theory with respect to B field



--------------------------------------------------------------------------------------------------------


 Static calculation
 charge density and potential will be updated during run
 non-spin polarized calculation
 Variant of blocked Davidson
 Davidson routine will perform the subspace rotation
 perform sub-space diagonalisation
    after iterative eigenvector-optimisation
 modified Broyden-mixing scheme, WC =      100.0
 initial mixing is a Kerker type mixing with AMIX =  0.4000 and BMIX =      1.0000
 Hartree-type preconditioning will be used
 using additional bands            4
 reciprocal scheme for non local part
 use partial core corrections
 calculate Harris-corrections to forces 
   (improved forces if not selfconsistent)
 use gradient corrections 
 use of overlap-Matrix (Vanderbilt PP)
 Methfessel and Paxton  Order N= 1 SIGMA  =   0.20


--------------------------------------------------------------------------------------------------------


  energy-cutoff  :      267.91
  volume of cell :       46.08
      direct lattice vectors                 reciprocal lattice vectors
     3.585051000  0.000000000  0.000000000     0.278936060  0.000000000  0.000000000
     0.000000000  3.585051000  0.000000000     0.000000000  0.278936060  0.000000000
     0.000000000  0.000000000  3.585051000     0.000000000  0.000000000  0.278936060

  length of vectors
     3.585051000  3.585051000  3.585051000     0.278936060  0.278936060  0.278936060


 
 k-points in units of 2pi/SCALE and weight: Automatic kpoint scheme                 
   0.00000000  0.00000000  0.00000000       1.000
 
 k-points in reciprocal lattice and weights: Automatic kpoint scheme                 
   0.00000000  0.00000000  0.00000000       1.000
 
 position of ions in fractional coordinates (direct lattice) 
   0.00000000  0.50000000  0.50000000
   0.50000000  0.00000000  0.50000000
   0.50000000  0.50000000  0.00000000
 
 position of ions in cartesian coordinates  (Angst):
   0.00000000  1.79252550  1.79252550
   1.79252550  0.00000000  1.79252550
   1.79252550  1.79252550  0.00000000
 


--------------------------------------------------------------------------------------------------------


 k-point  1 :  0.00000.00000.0000  plane waves:     461

 maximum and minimum number of plane-waves per node :     461    461

 maximum number of plane-waves:     461
 maximal index in each direction: 
   IXMAX=  4   IYMAX=  4   IZMAX=  4
   IXMIN= -4   IYMIN= -4   IZMIN= -4

 NGX is ok and might be reduce to  18
 NGY is ok and might be reduce to  18
 NGZ is ok and might be reduce to  18

 serial   3D FFT for wavefunctions
 parallel 3D FFT for charge:
    minimum data exchange during FFTs selected (reduces bandwidth)


 total amount of memory used by VASP on root node  36049. kBytes
========================================================================

   base      :    30000. kBytes
   nonl-proj :       88. kBytes
   fftplans  :     2284. kBytes
   grid      :     3500. kBytes
   one-center:       46. kBytes
   wavefun   :      131. kBytes
 
 Broyden mixing: mesh for mixing (old mesh)
   NGX =  9   NGY =  9   NGZ =  9
  (NGX  = 40   NGY  = 40   NGZ  = 40)
  gives a total of    729 points

 initial charge density was supplied:
 charge density of overlapping atoms calculated
 number of electron   24.0000000 magnetization 
 keeping initial charge density in first step


--------------------------------------------------------------------------------------------------------


 Maximum index for augmentation-charges         6031 (set IRDMAX)


--------------------------------------------------------------------------------------------------------


 First call to EWALD:  gamma=   0.494
 Maximum number of real-space cells 3x 3x 3
 Maximum number of reciprocal cells 3x 3x 3

    FEWALD:  cpu time    0.02: real time    0.01
   RESPFUN:  cpu time    0.01: real time    0.00


----------------------------------------- Iteration    1(   1)  ---------------------------------------


    POTLOK:  cpu time    0.44: real time    0.27
    SETDIJ:  cpu time    0.05: real time    0.05
     EDDAV:  cpu time    0.58: real time    0.16
       DOS:  cpu time    0.00: real time    0.00
    --------------------------------------------
      LOOP:  cpu time    1.08: real time    0.47

 eigenvalue-minimisations  :    32
 total energy-change (2. order) : 0.1139277E+03  (-0.7253932E+03)
 number of electron   24.0000000 magnetization 
 augmentation part    24.0000000 magnetization 

 Free energy of the ion-electron system (eV)
  ---------------------------------------------------
  alpha Z        PSCENC =       134.15010455
  Ewald energy   TEWEN  =     -1543.28455601
  -1/2 Hartree   DENC   =      -459.34008320
  -exchange  EXHF       =         0.00000000
  -V(xc)+E(xc)   XCENC  =         9.08926967
  PAW double counting   =      1438.89509626    -1462.21758594
  entropy T*S    EENTRO =        -0.04896898
  eigenvalues    EBANDS =       210.10139529
  atomic energy  EATOM  =      1786.58306412
  ---------------------------------------------------
  free energy    TOTEN  =       113.92773575 eV

  energy without entropy =      113.97670474  energy(sigma->0) =      113.94405875


--------------------------------------------------------------------------------------------------------




----------------------------------------- Iteration    1(   2)  ---------------------------------------


     EDDAV:  cpu time    0.61: real time    0.15
       DOS:  cpu time    0.00: real time    0.00
    --------------------------------------------
      LOOP:  cpu time    0.62: real time    0.16

 eigenvalue-minimisations  :    32
 total energy-change (2. order) :-0.1303921E+03  (-0.1250355E+03)
 number of electron   24.0000000 magnetization 
 augmentation part    24.0000000 magnetization 

 Free energy of the ion-electron system (eV)
  ---------------------------------------------------
  alpha Z        PSCENC =       134.15010455
  Ewald energy   TEWEN  =     -1543.28455601
  -1/2 Hartree   DENC   =      -459.34008320
  -exchange  EXHF       =         0.00000000
  -V(xc)+E(xc)   XCENC  =         9.08926967
  PAW double counting   =      1438.89509626    -1462.21758594
  entropy T*S    EENTRO =        -0.00241852
  eigenvalues    EBANDS =        79.66278993
  atomic energy  EATOM  =      1786.58306412
  ---------------------------------------------------
  free energy    TOTEN  =       -16.46431914 eV

  energy without entropy =      -16.46190062  energy(sigma->0) =      -16.46351297


--------------------------------------------------------------------------------------------------------




----------------------------------------- Iteration    1(   3)  ---------------------------------------


     EDDAV:  cpu time    0.83: real time    0.21
       DOS:  cpu time    0.00: real time    0.00
    --------------------------------------------
      LOOP:  cpu time    0.85: real time    0.21

 eigenvalue-minimisations  :    48
 total energy-change (2. order) :-0.7941769E+01  (-0.7826282E+01)
 number of electron   24.0000000 magnetization 
 augmentation part    24.0000000 magnetization 

 Free energy of the ion-electron system (eV)
  ---------------------------------------------------
  alpha Z        PSCENC =       134.15010455
  Ewald energy   TEWEN  =     -1543.28455601
  -1/2 Hartree   DENC   =      -459.34008320
  -exchange  EXHF       =         0.00000000
  -V(xc)+E(xc)   XCENC  =         9.08926967
  PAW double counting   =      1438.89509626    -1462.21758594
  entropy T*S    EENTRO =         0.02434863
  eigenvalues    EBANDS =        71.69425363
  atomic energy  EATOM  =      1786.58306412
  ---------------------------------------------------
  free energy    TOTEN  =       -24.40608829 eV

  energy without entropy =      -24.43043692  energy(sigma->0) =      -24.41420450


--------------------------------------------------------------------------------------------------------




----------------------------------------- Iteration    1(   4)  ---------------------------------------


     EDDAV:  cpu time    0.76: real time    0.19
       DOS:  cpu time    0.00: real time    0.00
    --------------------------------------------
      LOOP:  cpu time    0.77: real time    0.19

 eigenvalue-minimisations  :    48
 total energy-change (2. order) :-0.2495281E+00  (-0.2493849E+00)
 number of electron   24.0000000 magnetization 
 augmentation part    24.0000000 magnetization 

 Free energy of the ion-electron system (eV)
  ---------------------------------------------------
  alpha Z        PSCENC =       134.15010455
  Ewald energy   TEWEN  =     -1543.28455601
  -1/2 Hartree   DENC   =      -459.34008320
  -exchange  EXHF       =         0.00000000
  -V(xc)+E(xc)   XCENC  =         9.08926967
  PAW double counting   =      1438.89509626    -1462.21758594
  entropy T*S    EENTRO =         0.02400981
  eigenvalues    EBANDS =        71.44506435
  atomic energy  EATOM  =      1786.58306412
  ---------------------------------------------------
  free energy    TOTEN  =       -24.65561638 eV

  energy without entropy =      -24.67962620  energy(sigma->0) =      -24.66361965


--------------------------------------------------------------------------------------------------------




----------------------------------------- Iteration    1(   5)  ---------------------------------------


     EDDAV:  cpu time    0.39: real time    0.10
       DOS:  cpu time    0.00: real time    0.00
    CHARGE:  cpu time    0.13: real time    0.03
    MIXING:  cpu time    0.01: real time    0.00
    --------------------------------------------
      LOOP:  cpu time    0.54: real time    0.14

 eigenvalue-minimisations  :    40
 total energy-change (2. order) :-0.3791555E-02  (-0.3791554E-02)
 number of electron   24.0000162 magnetization 
 augmentation part    12.5873924 magnetization 

 Broyden mixing:
  rms(total) = 0.73039E+00    rms(broyden)= 0.64996E+00
  rms(prec ) = 0.12186E+01
  weight for this iteration     100.00
  WARNING: grid for Broyden might be to small

 Free energy of the ion-electron system (eV)
  ---------------------------------------------------
  alpha Z        PSCENC =       134.15010455
  Ewald energy   TEWEN  =     -1543.28455601
  -1/2 Hartree   DENC   =      -459.34008320
  -exchange  EXHF       =         0.00000000
  -V(xc)+E(xc)   XCENC  =         9.08926967
  PAW double counting   =      1438.89509626    -1462.21758594
  entropy T*S    EENTRO =         0.02400963
  eigenvalues    EBANDS =        71.44127298
  atomic energy  EATOM  =      1786.58306412
  ---------------------------------------------------
  free energy    TOTEN  =       -24.65940794 eV

  energy without entropy =      -24.68341757  energy(sigma->0) =      -24.66741115


--------------------------------------------------------------------------------------------------------




----------------------------------------- Iteration    1(   6)  ---------------------------------------


    POTLOK:  cpu time    0.19: real time    0.14
    SETDIJ:  cpu time    0.03: real time    0.03
     EDDAV:  cpu time    0.31: real time    0.08
       DOS:  cpu time    0.00: real time    0.00
    CHARGE:  cpu time    0.13: real time    0.03
    MIXING:  cpu time    0.01: real time    0.00
    --------------------------------------------
      LOOP:  cpu time    0.68: real time    0.28

 eigenvalue-minimisations  :    32
 total energy-change (2. order) : 0.8865606E+00  (-0.2921758E+00)
 number of electron   24.0000172 magnetization 
 augmentation part    13.0162319 magnetization 

 Broyden mixing:
  rms(total) = 0.32449E+00    rms(broyden)= 0.31672E+00
  rms(prec ) = 0.48216E+00
  weight for this iteration     100.00

 eigenvalues of (default mixing * dielectric matrix)
  average eigenvalue GAMMA=   1.3296
  1.3296

 Free energy of the ion-electron system (eV)
  ---------------------------------------------------
  alpha Z        PSCENC =       134.15010455
  Ewald energy   TEWEN  =     -1543.28455601
  -1/2 Hartree   DENC   =      -444.25183516
  -exchange  EXHF       =         0.00000000
  -V(xc)+E(xc)   XCENC  =         8.43152014
  PAW double counting   =      1472.12904618    -1492.25038008
  entropy T*S    EENTRO =         0.05287287
  eigenvalues    EBANDS =        54.66731610
  atomic energy  EATOM  =      1786.58306412
  ---------------------------------------------------
  free energy    TOTEN  =       -23.77284730 eV

  energy without entropy =      -23.82572017  energy(sigma->0) =      -23.79047159


--------------------------------------------------------------------------------------------------------




----------------------------------------- Iteration    1(   7)  ---------------------------------------


    POTLOK:  cpu time    0.20: real time    0.14
    SETDIJ:  cpu time    0.03: real time    0.03
     EDDAV:  cpu time    0.31: real time    0.08
       DOS:  cpu time    0.00: real time    0.00
    CHARGE:  cpu time    0.13: real time    0.03
    MIXING:  cpu time    0.01: real time    0.00
    --------------------------------------------
      LOOP:  cpu time    0.68: real time    0.28

 eigenvalue-minimisations  :    32
 total energy-change (2. order) :-0.1064221E+00  (-0.4928157E-02)
 number of electron   24.0000170 magnetization 
 augmentation part    12.9870702 magnetization 

 Broyden mixing:
  rms(total) = 0.17462E+00    rms(broyden)= 0.17420E+00
  rms(prec ) = 0.26961E+00
  weight for this iteration     100.00

 eigenvalues of (default mixing * dielectric matrix)
  average eigenvalue GAMMA=   1.7213
  0.9396  2.5030

 Free energy of the ion-electron system (eV)
  ---------------------------------------------------
  alpha Z        PSCENC =       134.15010455
  Ewald energy   TEWEN  =     -1543.28455601
  -1/2 Hartree   DENC   =      -444.89587929
  -exchange  EXHF       =         0.00000000
  -V(xc)+E(xc)   XCENC  =         8.55938084
  PAW double counting   =      1512.29416586    -1533.01758006
  entropy T*S    EENTRO =         0.03140873
  eigenvalues    EBANDS =        55.70062189
  atomic energy  EATOM  =      1786.58306412
  ---------------------------------------------------
  free energy    TOTEN  =       -23.87926937 eV

  energy without entropy =      -23.91067810  energy(sigma->0) =      -23.88973895


--------------------------------------------------------------------------------------------------------




----------------------------------------- Iteration    1(   8)  ---------------------------------------


    POTLOK:  cpu time    0.23: real time    0.14
    SETDIJ:  cpu time    0.03: real time    0.03
     EDDAV:  cpu time    0.37: real time    0.10
       DOS:  cpu time    0.00: real time    0.00
    CHARGE:  cpu time    0.13: real time    0.03
    MIXING:  cpu time    0.01: real time    0.00
    --------------------------------------------
      LOOP:  cpu time    0.77: real time    0.30

 eigenvalue-minimisations  :    40
 total energy-change (2. order) :-0.8614719E-01  (-0.2684977E-02)
 number of electron   24.0000170 magnetization 
 augmentation part    12.9849147 magnetization 

 Broyden mixing:
  rms(total) = 0.86300E-02    rms(broyden)= 0.83119E-02
  rms(prec ) = 0.20331E-01
  weight for this iteration     100.00

 eigenvalues of (default mixing * dielectric matrix)
  average eigenvalue GAMMA=   1.5279
  2.5734  1.0051  1.0051

 Free energy of the ion-electron system (eV)
  ---------------------------------------------------
  alpha Z        PSCENC =       134.15010455
  Ewald energy   TEWEN  =     -1543.28455601
  -1/2 Hartree   DENC   =      -444.37531826
  -exchange  EXHF       =         0.00000000
  -V(xc)+E(xc)   XCENC  =         8.69213773
  PAW double counting   =      1560.47698927    -1581.48640895
  entropy T*S    EENTRO =         0.02626567
  eigenvalues    EBANDS =        55.25230531
  atomic energy  EATOM  =      1786.58306412
  ---------------------------------------------------
  free energy    TOTEN  =       -23.96541656 eV

  energy without entropy =      -23.99168223  energy(sigma->0) =      -23.97417179


--------------------------------------------------------------------------------------------------------




----------------------------------------- Iteration    1(   9)  ---------------------------------------


    POTLOK:  cpu time    0.26: real time    0.14
    SETDIJ:  cpu time    0.03: real time    0.03
     EDDAV:  cpu time    0.25: real time    0.07
       DOS:  cpu time    0.00: real time    0.00
    CHARGE:  cpu time    0.12: real time    0.03
    MIXING:  cpu time    0.02: real time    0.00
    --------------------------------------------
      LOOP:  cpu time    0.69: real time    0.27

 eigenvalue-minimisations  :    24
 total energy-change (2. order) :-0.1407138E-03  (-0.1171906E-03)
 number of electron   24.0000170 magnetization 
 augmentation part    12.9897107 magnetization 

 Broyden mixing:
  rms(total) = 0.38722E-02    rms(broyden)= 0.38405E-02
  rms(prec ) = 0.92437E-02
  weight for this iteration     100.00

 eigenvalues of (default mixing * dielectric matrix)
  average eigenvalue GAMMA=   1.8169
  2.5466  2.7827  0.9692  0.9692

 Free energy of the ion-electron system (eV)
  ---------------------------------------------------
  alpha Z        PSCENC =       134.15010455
  Ewald energy   TEWEN  =     -1543.28455601
  -1/2 Hartree   DENC   =      -444.20989074
  -exchange  EXHF       =         0.00000000
  -V(xc)+E(xc)   XCENC  =         8.68838746
  PAW double counting   =      1560.82572472    -1581.77353488
  entropy T*S    EENTRO =         0.02629865
  eigenvalues    EBANDS =        55.02884487
  atomic energy  EATOM  =      1786.58306412
  ---------------------------------------------------
  free energy    TOTEN  =       -23.96555728 eV

  energy without entropy =      -23.99185592  energy(sigma->0) =      -23.97432349


--------------------------------------------------------------------------------------------------------




----------------------------------------- Iteration    1(  10)  ---------------------------------------


    POTLOK:  cpu time    0.30: real time    0.14
    SETDIJ:  cpu time    0.03: real time    0.03
     EDDAV:  cpu time    0.20: real time    0.05
       DOS:  cpu time    0.00: real time    0.00
    --------------------------------------------
      LOOP:  cpu time    0.53: real time    0.22

 eigenvalue-minimisations  :    16
 total energy-change (2. order) :-0.7092662E-04  (-0.4000492E-05)
 number of electron   24.0000170 magnetization 
 augmentation part    12.9897107 magnetization 

 Free energy of the ion-electron system (eV)
  ---------------------------------------------------
  alpha Z        PSCENC =       134.15010455
  Ewald energy   TEWEN  =     -1543.28455601
  -1/2 Hartree   DENC   =      -444.25904580
  -exchange  EXHF       =         0.00000000
  -V(xc)+E(xc)   XCENC  =         8.68866293
  PAW double counting   =      1559.82854971    -1580.76218891
  entropy T*S    EENTRO =         0.02626524
  eigenvalues    EBANDS =        55.06351597
  atomic energy  EATOM  =      1786.58306412
  ---------------------------------------------------
  free energy    TOTEN  =       -23.96562820 eV

  energy without entropy =      -23.99189344  energy(sigma->0) =      -23.97438328


--------------------------------------------------------------------------------------------------------




 average (electrostatic) potential at core
  the test charge radii are     1.0103
  (the norm of the test charge is              1.0000)
       1 -44.6573       2 -44.6573       3 -44.6573
 
 
 
 E-fermi :   5.0334     XC(G=0): -11.1868     alpha+bet :-10.0907
   add alpha+bet to get absolut eigen values

 k-point   1 :       0.0000    0.0000    0.0000
  band No.  band energies     occupation 
      1      -3.6464      2.00000
      2       0.0684      2.00000
      3       1.4567      2.00000
      4       1.4567      2.00000
      5       1.4567      2.00000
      6       1.7507      2.00000
      7       1.7507      2.00000
      8       4.5030      2.00114
      9       4.5030      2.00114
     10       4.5030      2.00114
     11       4.8653      1.99941
     12       4.8653      1.99941
     13       5.5821     -0.00073
     14       5.5821     -0.00073
     15       5.5821     -0.00073
     16       5.6727     -0.00006


--------------------------------------------------------------------------------------------------------


 soft charge-density along one line, spin component           1
         0         1         2         3         4         5         6         7         8         9
 total charge-density along one line
 
 pseudopotential strength for first ion, spin component:           1
 -5.755   0.000   0.000   0.000   0.000  -0.613   0.000   0.000
  0.000  -5.334   0.000   0.000   0.000   0.000  -0.732   0.000
  0.000   0.000  -5.549   0.000   0.045   0.000   0.000  -0.671
  0.000   0.000   0.000  -5.755   0.000   0.000   0.000   0.000
  0.000   0.000   0.045   0.000  -5.601   0.000   0.000  -0.012
 -0.613   0.000   0.000   0.000   0.000   0.920   0.000   0.000
  0.000  -0.732   0.000   0.000   0.000   0.000   0.955   0.000
  0.000   0.000  -0.671   0.000  -0.012   0.000   0.000   0.936
  0.000   0.000   0.000  -0.613   0.000   0.000   0.000   0.000
  0.000   0.000  -0.012   0.000  -0.656   0.000   0.000   0.002
  0.000   0.000  -0.019   0.000   0.033   0.000   0.000   0.004
  0.000   0.000   0.003   0.000  -0.004   0.000   0.000  -0.001
  0.000   0.000   0.000   0.000   0.000   0.000   0.000   0.000
  0.000   0.000   0.000   0.000   0.000   0.000   0.000   0.000
  0.000   0.000   0.000   0.000   0.000   0.000   0.000   0.000
  0.000   0.000   0.000   0.000   0.000   0.000   0.000   0.000
  0.000   0.000   0.000   0.000   0.000   0.000   0.000   0.000
  0.000   0.000   0.000   0.000   0.000   0.000   0.000   0.000
 total augmentation occupancy for first ion, spin component:           1
  1.124   0.000   0.000   0.000   0.000   0.386   0.000   0.000   0.000   0.000   0.000   0.000   0.000   0.000   0.000   0.000
  0.000   2.050   0.000   0.000   0.000   0.000  -0.108   0.000   0.000   0.000   0.000   0.000   0.000   0.000   0.000   0.000
  0.000   0.000   1.452   0.000  -0.291   0.000   0.000   0.368   0.000   0.170   0.010  -0.029   0.000   0.000   0.000   0.000
  0.000   0.000   0.000   1.124   0.000   0.000   0.000   0.000   0.386   0.000   0.000   0.000   0.000   0.000   0.000   0.000
  0.000   0.000  -0.291   0.000   1.788   0.000   0.000   0.170   0.000   0.172  -0.017   0.050   0.000   0.000   0.000   0.000
  0.386   0.000   0.000   0.000   0.000   0.170   0.000   0.000   0.000   0.000   0.000   0.000   0.000   0.000   0.000   0.000
  0.000  -0.108   0.000   0.000   0.000   0.000   0.072   0.000   0.000   0.000   0.000   0.000   0.000   0.000   0.000   0.000
  0.000   0.000   0.368   0.000   0.170   0.000   0.000   0.267   0.000  -0.105  -0.066   0.044   0.000   0.000   0.000   0.000
  0.000   0.000   0.000   0.386   0.000   0.000   0.000   0.000   0.170   0.000   0.000   0.000   0.000   0.000   0.000   0.000
  0.000   0.000   0.170   0.000   0.172   0.000   0.000  -0.105   0.000   0.388   0.115  -0.075   0.000   0.000   0.000   0.000
  0.000   0.000   0.010   0.000  -0.017   0.000   0.000  -0.066   0.000   0.115   1.300  -0.503   0.000   0.000   0.000   0.000
  0.000   0.000  -0.029   0.000   0.050   0.000   0.000   0.044   0.000  -0.075  -0.503   0.219   0.000   0.000   0.000   0.000
  0.000   0.000   0.000   0.000   0.000   0.000   0.000   0.000   0.000   0.000   0.000   0.000   0.000   0.000   0.000   0.000
  0.000   0.000   0.000   0.000   0.000   0.000   0.000   0.000   0.000   0.000   0.000   0.000   0.000   0.000   0.000   0.000
  0.000   0.000   0.000   0.000   0.000   0.000   0.000   0.000   0.000   0.000   0.000   0.000   0.000   0.000   0.000   0.000
  0.000   0.000   0.000   0.000   0.000   0.000   0.000   0.000   0.000   0.000   0.000   0.000   0.000   0.000   0.000   0.000
  0.000   0.000   0.000   0.000   0.000   0.000   0.000   0.000   0.000   0.000   0.000   0.000   0.000   0.000   0.000   0.000
  0.000   0.000   0.000   0.000   0.000   0.000   0.000   0.000   0.000   0.000   0.000   0.000   0.000   0.000   0.000   0.000


------------------------ aborting loop because EDIFF is reached ----------------------------------------




--------------------------------------------------------------------------------------------------------



  FREE ENERGIE OF THE ION-ELECTRON SYSTEM (eV)
  ---------------------------------------------------
  free  energy   TOTEN  =       -23.965628 eV

  energy  without entropy=      -23.991893  energy(sigma->0) =      -23.974383
 
    CHARGE:  cpu time    0.12: real time    0.03
    FORLOC:  cpu time    0.02: real time    0.01
    FORNL :  cpu time    0.12: real time    0.09
    STRESS:  cpu time    0.37: real time    0.15
    FORCOR:  cpu time    0.14: real time    0.14
    FORHAR:  cpu time    0.03: real time    0.03
    MIXING:  cpu time    0.01: real time    0.00

  FORCE on cell =-STRESS in cart. coord.  units (eV):
  Direction    XX          YY          ZZ          XY          YZ          ZX
  --------------------------------------------------------------------------------------
  Alpha Z   134.15010   134.15010   134.15010
  Ewald    -514.42836  -514.42836  -514.42836     0.00000     0.00000     0.00000
  Hartree   148.12207   148.12207   148.12207     0.00000     0.00000     0.00000
  E(xc)    -117.68146  -117.68146  -117.68146     0.00000     0.00000     0.00000
  Local     113.15768   113.15768   113.15768     0.00000     0.00000     0.00000
  n-local  -110.98560  -110.98547  -110.98538    -0.00007     0.00003     0.00001
  augment   109.62928   109.62930   109.62931    -0.00001     0.00000    -0.00001
  Kinetic   226.32862   226.32902   226.32903    -0.00002     0.00005    -0.00006
  Fock        0.00000     0.00000     0.00000     0.00000     0.00000     0.00000
  -------------------------------------------------------------------------------------
  Total     -11.70725   -11.70725   -11.70725     0.00000     0.00000     0.00000
  in kB    -407.07981  -407.07981  -407.07981     0.00000     0.00000     0.00000
  external pressure =     -407.08 kB  Pullay stress =        0.00 kB


 VOLUME and BASIS-vectors are now :
 -----------------------------------------------------------------------------
  energy-cutoff  :      267.91
  volume of cell :       46.08
      direct lattice vectors                 reciprocal lattice vectors
     3.585051000  0.000000000  0.000000000     0.278936060  0.000000000  0.000000000
     0.000000000  3.585051000  0.000000000     0.000000000  0.278936060  0.000000000
     0.000000000  0.000000000  3.585051000     0.000000000  0.000000000  0.278936060

  length of vectors
     3.585051000  3.585051000  3.585051000     0.278936060  0.278936060  0.278936060


 FORCES acting on ions
    electron-ion (+dipol)            ewald-force                    non-local-force                 convergence-correction
 -----------------------------------------------------------------------------------------------
   0.416E-13 -.596E-13 -.131E-12   -.830E-14 -.214E-14 -.382E-15   0.000E+00 0.000E+00 0.000E+00   -.473E-14 0.194E-13 0.810E-14
   -.562E-13 0.426E-13 0.308E-12   0.411E-14 -.521E-14 -.307E-15   0.000E+00 0.000E+00 0.000E+00   0.582E-14 -.456E-14 0.272E-13
   -.590E-13 -.135E-13 -.128E-12   0.492E-14 0.639E-14 0.192E-14   0.000E+00 0.000E+00 0.000E+00   0.257E-13 0.137E-13 -.212E-13
 -----------------------------------------------------------------------------------------------
   -.736E-13 -.305E-13 0.484E-13   0.733E-15 -.955E-15 0.123E-14   0.000E+00 0.000E+00 0.000E+00   0.268E-13 0.285E-13 0.141E-13
 
 
 POSITION                                       TOTAL-FORCE (eV/Angst)
 -----------------------------------------------------------------------------------
      0.00000      1.79253      1.79253         0.000000      0.000000      0.000000
      1.79253      0.00000      1.79253         0.000000      0.000000      0.000000
      1.79253      1.79253      0.00000         0.000000      0.000000      0.000000
 -----------------------------------------------------------------------------------
    total drift:                                0.000000      0.000000      0.000000


--------------------------------------------------------------------------------------------------------


    POTLOK:  cpu time    0.32: real time    0.16


--------------------------------------------------------------------------------------------------------


  FORCES: max atom, RMS     0.000000    0.000000
  FORCE total and by dimension    0.000000    0.000000
     LOOP+:  cpu time    8.42: real time    3.18
    4ORBIT:  cpu time    0.00: real time    0.00

 total amount of memory used by VASP on root node  36049. kBytes
========================================================================

   base      :    30000. kBytes
   nonl-proj :       88. kBytes
   fftplans  :     2284. kBytes
   grid      :     3500. kBytes
   one-center:       46. kBytes
   wavefun   :      131. kBytes
 
  
  
 General timing and accounting informations for this job:
 ========================================================
  
                  Total CPU time used (sec):        9.038
                            User time (sec):        8.938
                          System time (sec):        0.100
                         Elapsed time (sec):        3.649
  
                   Maximum memory used (kb):           0.
                   Average memory used (kb):           0.
  
                          Minor page faults:         9323
                          Major page faults:            0
                 Voluntary context switches:          221
