   33   33  191    1
  0.1602710E+02  0.8087040E-09  0.8087040E-09  0.8087040E-09  0.5000000E-15
  1.000000000000000E-004
  CAR 
 unknown system                          
   98    1   96
 
  0.0000000E+00  0.0000000E+00  0.0000000E+00  0.1000000E+01
   1       -3.136730
   2       -1.180958
   3       -1.180958
   4       -0.838220
   5       -0.838220
   6       -0.772269
   7       -0.491200
   8        0.851764
   9        0.851764
  10        1.090462
  11        1.334562
  12        1.334562
  13        1.438468
  14        1.461545
  15        1.461545
  16        1.685540
  17        1.685540
  18        1.739363
  19        1.837377
  20        3.145047
  21        3.566829
  22        3.578471
  23        3.578471
  24        3.711765
  25        3.711765
  26        3.763852
  27        3.853754
  28        5.107703
  29        5.189982
  30        5.189982
  31        6.159218
  32        6.462523
  33        6.462524
  34        6.638160
  35        6.851937
  36        6.851937
  37        7.029299
  38        7.217985
  39        7.217985
  40        7.333479
  41        7.393864
  42        7.393865
  43        7.542469
  44        7.542469
  45        7.608746
  46        7.697582
  47        7.697583
  48        8.130564
  49        8.310603
  50        8.557075
  51        8.557075
  52        8.743556
  53        8.743556
  54        8.787165
  55        8.916539
  56        8.935043
  57        8.935043
  58        9.134933
  59        9.218296
  60        9.218296
  61        9.292645
  62        9.292645
  63        9.467394
  64        9.467394
  65        9.488227
  66        9.634845
  67        9.757703
  68        9.757703
  69        9.820571
  70       10.165689
  71       10.165689
  72       10.708612
  73       10.708612
  74       10.772259
  75       10.799659
  76       10.799659
  77       10.876772
  78       11.191218
  79       11.226201
  80       11.226201
  81       11.806781
  82       13.328572
  83       13.385009
  84       13.385010
  85       13.607373
  86       13.607373
  87       13.760891
  88       13.856234
  89       13.856234
  90       13.944492
  91       15.191396
  92       15.246605
  93       15.248205
  94       15.324697
  95       15.325595
  96       15.484150
