   33   33  191    1
  0.1602717E+02  0.8087052E-09  0.8087052E-09  0.8087052E-09  0.5000000E-15
  1.000000000000000E-004
  CAR 
 unknown system                          
   98    1   72
 
  0.0000000E+00  0.0000000E+00  0.0000000E+00  0.1000000E+01
   1       -3.136539
   2       -1.183965
   3       -1.183965
   4       -0.837454
   5       -0.837454
   6       -0.765670
   7       -0.492074
   8        0.846631
   9        0.846631
  10        1.086981
  11        1.332614
  12        1.332614
  13        1.449020
  14        1.464006
  15        1.464006
  16        1.685688
  17        1.685688
  18        1.738105
  19        1.836961
  20        3.147078
  21        3.570507
  22        3.580303
  23        3.580303
  24        3.709073
  25        3.709073
  26        3.759054
  27        3.852304
  28        5.109091
  29        5.188962
  30        5.188962
  31        6.156780
  32        6.463439
  33        6.463439
  34        6.632163
  35        6.850647
  36        6.850647
  37        7.025862
  38        7.218766
  39        7.218766
  40        7.341192
  41        7.397565
  42        7.397566
  43        7.540876
  44        7.540876
  45        7.608358
  46        7.694908
  47        7.694908
  48        8.133446
  49        8.313795
  50        8.560093
  51        8.560093
  52        8.741312
  53        8.741312
  54        8.782269
  55        8.919952
  56        8.934852
  57        8.934852
  58        9.132218
  59        9.219471
  60        9.219473
  61        9.291644
  62        9.291758
  63        9.462058
  64        9.462126
  65        9.493823
  66        9.643749
  67        9.756487
  68        9.786766
  69       10.701464
  70       10.765968
  71       11.192684
  72       11.198552
