Processors received = 6
script running on host compute-0-0.local
PBS_NODEFILE
compute-0-0
compute-0-0
compute-0-0
compute-0-0
compute-0-0
compute-0-0
 running on    6 nodes
 each image running on    2 nodes
 distr:  one band on    2 nodes,    1 groups
 vasp.5.2.2 15Apr09 complex 
 POSCAR found type information on POSCAR  Al
 01/POSCAR found :  1 types and   31 ions

 ----------------------------------------------------------------------------- 
|                                                                             |
|  ADVICE TO THIS USER RUNNING 'VASP/VAMP'   (HEAR YOUR MASTER'S VOICE ...):  |
|                                                                             |
|      You have a (more or less) 'large supercell' and for larger cells       |
|      it might be more efficient to use real space projection operators      |
|      So try LREAL= Auto  in the INCAR   file.                               |
|      Mind: If you want to do a very accurate calculations keep the          |
|      reciprocal projection scheme          (i.e. LREAL=.FALSE.)             |
|                                                                             |
 ----------------------------------------------------------------------------- 

 LDA part: xc-table for Pade appr. of Perdew
 POSCAR found type information on POSCAR  Al
 00/POSCAR found :  1 types and   31 ions
 POSCAR found type information on POSCAR  Al
 04/POSCAR found :  1 types and   31 ions
 POSCAR, INCAR and KPOINTS ok, starting setup
 FFT: planning ...(           4 )
 reading WAVECAR
 entering main loop
       N       E                     dE             d eps       ncg     rms          rms(c)
DAV:   1     0.106615250146E+03    0.10662E+03   -0.26305E+04   124   0.894E+02
DAV:   2    -0.859781016445E+02   -0.19259E+03   -0.17771E+03   144   0.128E+02
DAV:   3    -0.100907340074E+03   -0.14929E+02   -0.14283E+02   168   0.265E+01
DAV:   4    -0.101337233981E+03   -0.42989E+00   -0.42339E+00   160   0.493E+00
DAV:   5    -0.101347937417E+03   -0.10703E-01   -0.10672E-01   176   0.859E-01    0.686E+00
DAV:   6    -0.998489202289E+02    0.14990E+01   -0.71491E+00   152   0.564E+00    0.408E+00
DAV:   7    -0.995546466164E+02    0.29427E+00   -0.11211E+00   144   0.295E+00    0.264E+00
DAV:   8    -0.993939285397E+02    0.16072E+00   -0.29543E-01   168   0.140E+00    0.743E-01
DAV:   9    -0.993800332967E+02    0.13895E-01   -0.31712E-02   168   0.512E-01    0.191E-01
DAV:  10    -0.993786742928E+02    0.13590E-02   -0.44846E-03   168   0.196E-01    0.830E-02
DAV:  11    -0.993784793526E+02    0.19494E-03   -0.11163E-03   160   0.875E-02    0.314E-02
DAV:  12    -0.993784912041E+02   -0.11851E-04   -0.10542E-04   104   0.324E-02
   1 F= -.99378491E+02 E0= -.99352953E+02  d E =-.993785E+02
 BRION: g(F)=  0.530E+00 g(S)=  0.000E+00
 bond charge predicted
       N       E                     dE             d eps       ncg     rms          rms(c)
DAV:   1    -0.994773390931E+02   -0.98860E-01   -0.10599E+00   152   0.303E+00    0.348E-01
DAV:   2    -0.994697273808E+02    0.76117E-02   -0.80726E-02   144   0.856E-01    0.111E-01
DAV:   3    -0.994692198963E+02    0.50748E-03   -0.52702E-03   160   0.220E-01    0.515E-02
DAV:   4    -0.994691567790E+02    0.63117E-04   -0.58644E-04   152   0.707E-02
   2 F= -.99469157E+02 E0= -.99449743E+02  d E =-.906656E-01
 BRION: g(F)=  0.188E+00 g(S)=  0.000E+00 retain N=  1 mean eig= 1.77
 eig:   1.766
 bond charge predicted
       N       E                     dE             d eps       ncg     rms          rms(c)
DAV:   1    -0.995446725974E+02   -0.75453E-01   -0.12757E+00   144   0.331E+00    0.444E-01
DAV:   2    -0.995324414708E+02    0.12231E-01   -0.12292E-01   154   0.957E-01    0.149E-01
DAV:   3    -0.995314017320E+02    0.10397E-02   -0.88198E-03   152   0.279E-01    0.736E-02
DAV:   4    -0.995312946621E+02    0.10707E-03   -0.11020E-03   154   0.947E-02    0.327E-02
DAV:   5    -0.995312978996E+02   -0.32375E-05   -0.86034E-05    88   0.311E-02
   3 F= -.99531298E+02 E0= -.99517373E+02  d E =-.621411E-01
 BRION: g(F)=  0.682E-01 g(S)=  0.000E+00 retain N=  1 mean eig= 2.10
 eig:   2.103
 bond charge predicted
       N       E                     dE             d eps       ncg     rms          rms(c)
DAV:   1    -0.995601190457E+02   -0.28824E-01   -0.32017E-01   132   0.162E+00    0.271E-01
DAV:   2    -0.995557618131E+02    0.43572E-02   -0.41951E-02   144   0.511E-01    0.856E-02
DAV:   3    -0.995553626686E+02    0.39914E-03   -0.29623E-03   152   0.161E-01    0.420E-02
DAV:   4    -0.995553302369E+02    0.32432E-04   -0.40134E-04   144   0.546E-02
   4 F= -.99555330E+02 E0= -.99543001E+02  d E =-.240323E-01
 BRION: g(F)=  0.444E-01 g(S)=  0.000E+00 retain N=  2 mean eig= 3.77
 eig:   3.245  4.300
 bond charge predicted
       N       E                     dE             d eps       ncg     rms          rms(c)
DAV:   1    -0.996299897443E+02   -0.74627E-01   -0.20459E+00   124   0.413E+00    0.699E-01
DAV:   2    -0.995992105892E+02    0.30779E-01   -0.25327E-01   124   0.135E+00    0.212E-01
DAV:   3    -0.995971247165E+02    0.20859E-02   -0.16614E-02   152   0.400E-01    0.106E-01
DAV:   4    -0.995968925030E+02    0.23221E-03   -0.24996E-03   146   0.133E-01    0.438E-02
DAV:   5    -0.995969033919E+02   -0.10889E-04   -0.15520E-04   120   0.409E-02
   5 F= -.99596903E+02 E0= -.99589795E+02  d E =-.415732E-01
 BRION: g(F)=  0.142E-01 g(S)=  0.000E+00 retain N=  1 mean eig= 4.86
 eig:   4.862
 bond charge predicted
       N       E                     dE             d eps       ncg     rms          rms(c)
DAV:   1    -0.996072345911E+02   -0.10342E-01   -0.12639E-01   136   0.102E+00    0.188E-01
DAV:   2    -0.996049505053E+02    0.22841E-02   -0.17792E-02   152   0.345E-01    0.496E-02
DAV:   3    -0.996048395079E+02    0.11100E-03   -0.96803E-04   144   0.102E-01    0.262E-02
DAV:   4    -0.996048283410E+02    0.11167E-04   -0.10160E-04   104   0.315E-02
   6 F= -.99604828E+02 E0= -.99599644E+02  d E =-.792495E-02
 BRION: g(F)=  0.103E-01 g(S)=  0.000E+00 retain N=  2 mean eig= 6.52
 eig:   6.519  6.519
 bond charge predicted
       N       E                     dE             d eps       ncg     rms          rms(c)
DAV:   1    -0.996265293876E+02   -0.21690E-01   -0.52711E-01   136   0.207E+00    0.360E-01
DAV:   2    -0.996176421627E+02    0.88872E-02   -0.68651E-02   152   0.685E-01    0.939E-02
DAV:   3    -0.996172752643E+02    0.36690E-03   -0.35770E-03   144   0.195E-01    0.492E-02
DAV:   4    -0.996172304911E+02    0.44773E-04   -0.42173E-04   152   0.614E-02
   7 F= -.99617230E+02 E0= -.99616299E+02  d E =-.124022E-01
 BRION: g(F)=  0.544E-02 g(S)=  0.000E+00 retain N=  1 mean eig= 5.50
 eig:   5.496
 bond charge predicted
       N       E                     dE             d eps       ncg     rms          rms(c)
DAV:   1    -0.996230861746E+02   -0.58109E-02   -0.94051E-02   136   0.847E-01    0.153E-01
DAV:   2    -0.996215896787E+02    0.14965E-02   -0.12722E-02   146   0.284E-01    0.398E-02
DAV:   3    -0.996215481990E+02    0.41480E-04   -0.53967E-04   144   0.767E-02
   8 F= -.99621548E+02 E0= -.99622169E+02  d E =-.431771E-02
 BRION: g(F)=  0.433E-02 g(S)=  0.000E+00 retain N=  1 mean eig= 6.54
 eig:   6.544
 bond charge predicted
       N       E                     dE             d eps       ncg     rms          rms(c)
DAV:   1    -0.996294231700E+02   -0.78335E-02   -0.16523E-01   124   0.111E+00    0.198E-01
DAV:   2    -0.996268839392E+02    0.25392E-02   -0.21697E-02   152   0.371E-01    0.513E-02
DAV:   3    -0.996268303956E+02    0.53544E-04   -0.84603E-04   144   0.961E-02
   9 F= -.99626830E+02 E0= -.99629228E+02  d E =-.528220E-02
 BRION: g(F)=  0.316E-02 g(S)=  0.000E+00 retain N=  1 mean eig= 7.29
 eig:   7.291
 bond charge predicted
       N       E                     dE             d eps       ncg     rms          rms(c)
DAV:   1    -0.996326740102E+02   -0.57901E-02   -0.11819E-01   136   0.930E-01    0.167E-01
DAV:   2    -0.996308960803E+02    0.17779E-02   -0.15265E-02   152   0.312E-01    0.453E-02
DAV:   3    -0.996308715736E+02    0.24507E-04   -0.57575E-04   144   0.786E-02
  10 F= -.99630872E+02 E0= -.99634556E+02  d E =-.404118E-02
 BRION: g(F)=  0.239E-02 g(S)=  0.000E+00
 BRIONS problems: POTIM should be increased
 retain N=  1 mean eig= 8.92
 eig:   8.919
 bond charge predicted
       N       E                     dE             d eps       ncg     rms          rms(c)
DAV:   1    -0.996381383817E+02   -0.72423E-02   -0.19198E-01   144   0.119E+00    0.208E-01
DAV:   2    -0.996352456550E+02    0.28927E-02   -0.24868E-02   146   0.390E-01    0.562E-02
DAV:   3    -0.996351792781E+02    0.66377E-04   -0.10226E-03   160   0.107E-01    0.323E-02
DAV:   4    -0.996351668659E+02    0.12412E-04   -0.11033E-04    98   0.326E-02
  11 F= -.99635167E+02 E0= -.99640430E+02  d E =-.429529E-02
 BRION: g(F)=  0.161E-02 g(S)=  0.000E+00
 BRIONS problems: POTIM should be increased
 retain N=  1 mean eig= 9.81
 eig:   9.812
 bond charge predicted
       N       E                     dE             d eps       ncg     rms          rms(c)
DAV:   1    -0.996391035900E+02   -0.39243E-02   -0.97682E-02   144   0.854E-01    0.144E-01
DAV:   2    -0.996376665317E+02    0.14371E-02   -0.12482E-02   146   0.278E-01    0.372E-02
DAV:   3    -0.996376392724E+02    0.27259E-04   -0.49738E-04   144   0.756E-02
  12 F= -.99637639E+02 E0= -.99644008E+02  d E =-.247241E-02
 BRION: g(F)=  0.100E-02 g(S)=  0.000E+00
 BRIONS problems: POTIM should be increased
 retain N=  1 mean eig=11.80
 eig:  11.797
 bond charge predicted
       N       E                     dE             d eps       ncg     rms          rms(c)
DAV:   1    -0.996439335199E+02   -0.62670E-02   -0.25266E-01   144   0.139E+00    0.223E-01
DAV:   2    -0.996405370228E+02    0.33965E-02   -0.23346E-02   144   0.441E-01    0.635E-02
DAV:   3    -0.996404476547E+02    0.89368E-04   -0.13800E-03   160   0.123E-01    0.358E-02
DAV:   4    -0.996404348867E+02    0.12768E-04   -0.14108E-04    96   0.369E-02
  13 F= -.99640435E+02 E0= -.99648624E+02  d E =-.279561E-02
 BRION: g(F)=  0.501E-03 g(S)=  0.000E+00
 BRIONS problems: POTIM should be increased
 retain N=  1 mean eig=11.89
 eig:  11.895
 bond charge predicted
       N       E                     dE             d eps       ncg     rms          rms(c)
DAV:   1    -0.996409530174E+02   -0.50536E-03   -0.53187E-03   136   0.232E-01    0.345E-02
DAV:   2    -0.996408902147E+02    0.62803E-04   -0.48912E-04   146   0.687E-02
  14 F= -.99640890E+02 E0= -.99649357E+02  d E =-.455328E-03
 BRION: g(F)=  0.311E-03 g(S)=  0.000E+00 retain N=  1 mean eig= 5.25
 eig:   5.247
 reached required accuracy - stopping structural energy minimisation
