   31   31  191    1
  0.1645095E+02  0.7989462E-09  0.7989462E-09  0.7989462E-09  0.5000000E-15
  1.000000000000000E-004
  CAR 
 unknown system                          
   93    1   62
 
  0.0000000E+00  0.0000000E+00  0.0000000E+00  0.1000000E+01
   1       -3.235080
   2       -1.143906
   3       -1.018799
   4       -0.983712
   5       -0.898434
   6       -0.841553
   7       -0.650806
   8        1.100337
   9        1.133264
  10        1.206228
  11        1.221828
  12        1.270472
  13        1.299964
  14        1.335415
  15        1.352956
  16        1.465526
  17        1.497827
  18        1.518764
  19        2.197415
  20        3.311855
  21        3.505523
  22        3.513406
  23        3.539742
  24        3.633086
  25        3.655743
  26        3.765983
  27        4.382087
  28        5.179835
  29        5.184203
  30        5.193700
  31        6.464931
  32        6.550039
  33        6.752554
  34        7.022789
  35        7.059551
  36        7.086230
  37        7.219221
  38        7.227094
  39        7.282079
  40        7.313898
  41        7.330921
  42        7.413592
  43        7.535798
  44        7.561785
  45        7.607214
  46        7.962748
  47        8.209804
  48        8.367525
  49        8.369713
  50        8.433659
  51        8.543235
  52        9.088005
  53        9.143608
  54        9.256988
  55        9.277823
  56        9.318497
  57        9.323086
  58        9.326649
  59        9.390540
  60        9.416244
  61        9.417887
  62        9.476656
