   4   4   0   0
  0.1706785E+02  0.4087078E-09  0.4087078E-09  0.4087078E-09  0.1000000E-16
  1.000000000000000E-004
  CAR 
 unknown system                          
     13.18473450     -3.62356405  301      6.91925406      1.00000000
     -3.624  0.0000E+00  0.0000E+00
     -3.568  0.0000E+00  0.0000E+00
     -3.512  0.0000E+00  0.0000E+00
     -3.455  0.0000E+00  0.0000E+00
     -3.399  0.0000E+00  0.0000E+00
     -3.343  0.0000E+00  0.0000E+00
     -3.287  0.0000E+00  0.0000E+00
     -3.231 -0.6942E-26 -0.3890E-27
     -3.175 -0.5530E-24 -0.3137E-25
     -3.119 -0.3799E-22 -0.2160E-23
     -3.063 -0.2227E-20 -0.1269E-21
     -3.007 -0.1113E-18 -0.6365E-20
     -2.951 -0.4748E-17 -0.2724E-18
     -2.895 -0.1727E-15 -0.9946E-17
     -2.839 -0.5352E-14 -0.3098E-15
     -2.783 -0.1374E-12 -0.8009E-14
     -2.727 -0.3079E-11 -0.1805E-12
     -2.671 -0.5877E-10 -0.3473E-11
     -2.615 -0.9542E-09 -0.5694E-10
     -2.559 -0.1317E-07 -0.7946E-09
     -2.503 -0.1542E-06 -0.9435E-08
     -2.447 -0.1532E-05 -0.9525E-07
     -2.391 -0.1288E-04 -0.8167E-06
     -2.335 -0.9145E-04 -0.5940E-05
     -2.279 -0.5471E-03 -0.3659E-04
     -2.223 -0.2746E-02 -0.1904E-03
     -2.167 -0.1150E-01 -0.8346E-03
     -2.111 -0.3980E-01 -0.3064E-02
     -2.055 -0.1122E+00 -0.9350E-02
     -1.999 -0.2503E+00 -0.2337E-01
     -1.943 -0.4131E+00 -0.4652E-01
     -1.887 -0.3954E+00 -0.6867E-01
     -1.831  0.2106E+00 -0.5687E-01
     -1.775  0.1809E+01  0.4450E-01
     -1.719  0.4338E+01  0.2875E+00
     -1.663  0.6943E+01  0.6766E+00
     -1.607  0.8330E+01  0.1143E+01
     -1.551  0.7700E+01  0.1575E+01
     -1.495  0.5424E+01  0.1879E+01
     -1.438  0.2722E+01  0.2031E+01
     -1.382  0.7085E+00  0.2071E+01
     -1.326 -0.2539E+00  0.2057E+01
     -1.270 -0.4464E+00  0.2032E+01
     -1.214 -0.3180E+00  0.2014E+01
     -1.158 -0.1586E+00  0.2005E+01
     -1.102 -0.6138E-01  0.2001E+01
     -1.046 -0.1918E-01  0.2000E+01
     -0.990 -0.4930E-02  0.2000E+01
     -0.934 -0.1054E-02  0.2000E+01
     -0.878 -0.1887E-03  0.2000E+01
     -0.822 -0.2841E-04  0.2000E+01
     -0.766 -0.3610E-05  0.2000E+01
     -0.710 -0.3880E-06  0.2000E+01
     -0.654 -0.3534E-07  0.2000E+01
     -0.598 -0.2731E-08  0.2000E+01
     -0.542 -0.1793E-09  0.2000E+01
     -0.486 -0.1002E-10  0.2000E+01
     -0.430 -0.4676E-12  0.2000E+01
     -0.374 -0.2378E-13  0.2000E+01
     -0.318  0.0000E+00  0.2000E+01
     -0.262  0.0000E+00  0.2000E+01
     -0.206  0.0000E+00  0.2000E+01
     -0.150  0.0000E+00  0.2000E+01
     -0.094  0.0000E+00  0.2000E+01
     -0.038  0.0000E+00  0.2000E+01
      0.018  0.0000E+00  0.2000E+01
      0.074  0.0000E+00  0.2000E+01
      0.130  0.0000E+00  0.2000E+01
      0.186  0.0000E+00  0.2000E+01
      0.242  0.0000E+00  0.2000E+01
      0.298  0.0000E+00  0.2000E+01
      0.354  0.0000E+00  0.2000E+01
      0.410  0.0000E+00  0.2000E+01
      0.466  0.0000E+00  0.2000E+01
      0.522  0.0000E+00  0.2000E+01
      0.579  0.0000E+00  0.2000E+01
      0.635  0.0000E+00  0.2000E+01
      0.691  0.0000E+00  0.2000E+01
      0.747  0.0000E+00  0.2000E+01
      0.803  0.0000E+00  0.2000E+01
      0.859  0.0000E+00  0.2000E+01
      0.915  0.0000E+00  0.2000E+01
      0.971  0.0000E+00  0.2000E+01
      1.027 -0.1561E-27  0.2000E+01
      1.083 -0.3460E-25  0.2000E+01
      1.139 -0.2716E-23  0.2000E+01
      1.195 -0.1831E-21  0.2000E+01
      1.251 -0.1053E-19  0.2000E+01
      1.307 -0.5169E-18  0.2000E+01
      1.363 -0.2163E-16  0.2000E+01
      1.419 -0.7721E-15  0.2000E+01
      1.475 -0.2349E-13  0.2000E+01
      1.531 -0.5893E-12  0.2000E+01
      1.587 -0.1301E-10  0.2000E+01
      1.643 -0.2438E-09  0.2000E+01
      1.699 -0.3884E-08  0.2000E+01
      1.755 -0.5259E-07  0.2000E+01
      1.811 -0.6044E-06  0.2000E+01
      1.867 -0.5890E-05  0.2000E+01
      1.923 -0.4857E-04  0.2000E+01
      1.979 -0.3383E-03  0.2000E+01
      2.035 -0.1984E-02  0.2000E+01
      2.091 -0.9759E-02  0.1999E+01
      2.147 -0.4001E-01  0.1997E+01
      2.203 -0.1354E+00  0.1989E+01
      2.259 -0.3726E+00  0.1969E+01
      2.315 -0.8071E+00  0.1923E+01
      2.371 -0.1277E+01  0.1852E+01
      2.427 -0.1096E+01  0.1790E+01
      2.483  0.1005E+01  0.1847E+01
      2.539  0.6159E+01  0.2192E+01
      2.596  0.1394E+02  0.2973E+01
      2.652  0.2153E+02  0.4179E+01
      2.708  0.2508E+02  0.5584E+01
      2.764  0.2253E+02  0.6847E+01
      2.820  0.1536E+02  0.7707E+01
      2.876  0.7357E+01  0.8120E+01
      2.932  0.1657E+01  0.8212E+01
      2.988 -0.9120E+00  0.8161E+01
      3.044 -0.1322E+01  0.8087E+01
      3.100 -0.8962E+00  0.8037E+01
      3.156 -0.4334E+00  0.8013E+01
      3.212 -0.1637E+00  0.8004E+01
      3.268 -0.5003E-01  0.8001E+01
      3.324 -0.1260E-01  0.8000E+01
      3.380 -0.2642E-02  0.8000E+01
      3.436 -0.4642E-03  0.8000E+01
      3.492 -0.6863E-04  0.8000E+01
      3.548 -0.8566E-05  0.8000E+01
      3.604 -0.9045E-06  0.8000E+01
      3.660 -0.8096E-07  0.8000E+01
      3.716 -0.6150E-08  0.8000E+01
      3.772 -0.3969E-09  0.8000E+01
      3.828 -0.2177E-10  0.8000E+01
      3.884 -0.1015E-11  0.8000E+01
      3.940 -0.4756E-13  0.8000E+01
      3.996  0.0000E+00  0.8000E+01
      4.052  0.0000E+00  0.8000E+01
      4.108  0.0000E+00  0.8000E+01
      4.164  0.0000E+00  0.8000E+01
      4.220  0.0000E+00  0.8000E+01
      4.276  0.0000E+00  0.8000E+01
      4.332  0.0000E+00  0.8000E+01
      4.388  0.0000E+00  0.8000E+01
      4.444  0.0000E+00  0.8000E+01
      4.500  0.0000E+00  0.8000E+01
      4.556  0.0000E+00  0.8000E+01
      4.613  0.0000E+00  0.8000E+01
      4.669  0.0000E+00  0.8000E+01
      4.725  0.0000E+00  0.8000E+01
      4.781  0.0000E+00  0.8000E+01
      4.837  0.0000E+00  0.8000E+01
      4.893  0.0000E+00  0.8000E+01
      4.949  0.0000E+00  0.8000E+01
      5.005  0.0000E+00  0.8000E+01
      5.061  0.0000E+00  0.8000E+01
      5.117  0.0000E+00  0.8000E+01
      5.173  0.0000E+00  0.8000E+01
      5.229 -0.6984E-27  0.8000E+01
      5.285 -0.6266E-25  0.8000E+01
      5.341 -0.4844E-23  0.8000E+01
      5.397 -0.3196E-21  0.8000E+01
      5.453 -0.1799E-19  0.8000E+01
      5.509 -0.8637E-18  0.8000E+01
      5.565 -0.3537E-16  0.8000E+01
      5.621 -0.1235E-14  0.8000E+01
      5.677 -0.3678E-13  0.8000E+01
      5.733 -0.9032E-12  0.8000E+01
      5.789 -0.1949E-10  0.8000E+01
      5.845 -0.3572E-09  0.8000E+01
      5.901 -0.5568E-08  0.8000E+01
      5.957 -0.7373E-07  0.8000E+01
      6.013 -0.8288E-06  0.8000E+01
      6.069 -0.7896E-05  0.8000E+01
      6.125 -0.6366E-04  0.8000E+01
      6.181 -0.4333E-03  0.8000E+01
      6.237 -0.2482E-02  0.8000E+01
      6.293 -0.1192E-01  0.7999E+01
      6.349 -0.4765E-01  0.7996E+01
      6.405 -0.1570E+00  0.7988E+01
      6.461 -0.4193E+00  0.7964E+01
      6.517 -0.8762E+00  0.7915E+01
      6.573 -0.1313E+01  0.7842E+01
      6.629 -0.9576E+00  0.7788E+01
      6.686  0.1504E+01  0.7872E+01
      6.742  0.7083E+01  0.8269E+01
      6.798  0.1504E+02  0.9112E+01
      6.854  0.2232E+02  0.1036E+02
      6.910  0.2510E+02  0.1177E+02
      6.966  0.2177E+02  0.1299E+02
      7.022  0.1426E+02  0.1379E+02
      7.078  0.6421E+01  0.1415E+02
      7.134  0.1143E+01  0.1421E+02
      7.190 -0.1060E+01  0.1415E+02
      7.246 -0.1288E+01  0.1408E+02
      7.302 -0.8269E+00  0.1403E+02
      7.358 -0.3857E+00  0.1401E+02
      7.414 -0.1414E+00  0.1400E+02
      7.470 -0.4211E-01  0.1400E+02
      7.526 -0.1035E-01  0.1400E+02
      7.582 -0.2119E-02  0.1400E+02
      7.638 -0.3637E-03  0.1400E+02
      7.694 -0.5258E-04  0.1400E+02
      7.750 -0.6419E-05  0.1400E+02
      7.806 -0.6631E-06  0.1400E+02
      7.862 -0.5808E-07  0.1400E+02
      7.918 -0.4318E-08  0.1400E+02
      7.974 -0.2728E-09  0.1400E+02
      8.030 -0.1466E-10  0.1400E+02
      8.086 -0.6658E-12  0.1400E+02
      8.142 -0.2378E-13  0.1400E+02
      8.198  0.0000E+00  0.1400E+02
      8.254  0.0000E+00  0.1400E+02
      8.310  0.0000E+00  0.1400E+02
      8.366  0.0000E+00  0.1400E+02
      8.422  0.0000E+00  0.1400E+02
      8.478  0.0000E+00  0.1400E+02
      8.534  0.0000E+00  0.1400E+02
      8.590  0.0000E+00  0.1400E+02
      8.646  0.0000E+00  0.1400E+02
      8.703  0.0000E+00  0.1400E+02
      8.759  0.0000E+00  0.1400E+02
      8.815  0.0000E+00  0.1400E+02
      8.871  0.0000E+00  0.1400E+02
      8.927  0.0000E+00  0.1400E+02
      8.983  0.0000E+00  0.1400E+02
      9.039  0.0000E+00  0.1400E+02
      9.095  0.0000E+00  0.1400E+02
      9.151  0.0000E+00  0.1400E+02
      9.207  0.0000E+00  0.1400E+02
      9.263  0.0000E+00  0.1400E+02
      9.319  0.0000E+00  0.1400E+02
      9.375 -0.6465E-26  0.1400E+02
      9.431 -0.5163E-24  0.1400E+02
      9.487 -0.3556E-22  0.1400E+02
      9.543 -0.2089E-20  0.1400E+02
      9.599 -0.1047E-18  0.1400E+02
      9.655 -0.4478E-17  0.1400E+02
      9.711 -0.1633E-15  0.1400E+02
      9.767 -0.5074E-14  0.1400E+02
      9.823 -0.1304E-12  0.1400E+02
      9.879 -0.2933E-11  0.1400E+02
      9.935 -0.5615E-10  0.1400E+02
      9.991 -0.9140E-09  0.1400E+02
     10.047 -0.1264E-07  0.1400E+02
     10.103 -0.1485E-06  0.1400E+02
     10.159 -0.1479E-05  0.1400E+02
     10.215 -0.1247E-04  0.1400E+02
     10.271 -0.8883E-04  0.1400E+02
     10.327 -0.5332E-03  0.1400E+02
     10.383 -0.2687E-02  0.1400E+02
     10.439 -0.1131E-01  0.1400E+02
     10.495 -0.3947E-01  0.1400E+02
     10.551 -0.1127E+00  0.1399E+02
     10.607 -0.2578E+00  0.1398E+02
     10.663 -0.4504E+00  0.1395E+02
     10.720 -0.5244E+00  0.1392E+02
     10.776 -0.1285E+00  0.1391E+02
     10.832  0.1133E+01  0.1398E+02
     10.888  0.3400E+01  0.1417E+02
     10.944  0.6420E+01  0.1453E+02
     11.000  0.9799E+01  0.1508E+02
     11.056  0.1327E+02  0.1582E+02
     11.112  0.1642E+02  0.1674E+02
     11.168  0.1822E+02  0.1776E+02
     11.224  0.1737E+02  0.1874E+02
     11.280  0.1355E+02  0.1949E+02
     11.336  0.8120E+01  0.1995E+02
     11.392  0.3215E+01  0.2013E+02
     11.448  0.2197E+00  0.2014E+02
     11.504 -0.8619E+00  0.2009E+02
     11.560 -0.8407E+00  0.2005E+02
     11.616 -0.4991E+00  0.2002E+02
     11.672 -0.2214E+00  0.2001E+02
     11.728 -0.7803E-01  0.2000E+02
     11.784 -0.2243E-01  0.2000E+02
     11.840 -0.5335E-02  0.2000E+02
     11.896 -0.1059E-02  0.2000E+02
     11.952 -0.1764E-03  0.2000E+02
     12.008 -0.2476E-04  0.2000E+02
     12.064 -0.2936E-05  0.2000E+02
     12.120 -0.2947E-06  0.2000E+02
     12.176 -0.2508E-07  0.2000E+02
     12.232 -0.1812E-08  0.2000E+02
     12.288 -0.1113E-09  0.2000E+02
     12.344 -0.5810E-11  0.2000E+02
     12.400 -0.2536E-12  0.2000E+02
     12.456 -0.1585E-13  0.2000E+02
     12.512  0.0000E+00  0.2000E+02
     12.568  0.0000E+00  0.2000E+02
     12.624  0.0000E+00  0.2000E+02
     12.680  0.0000E+00  0.2000E+02
     12.737  0.0000E+00  0.2000E+02
     12.793  0.0000E+00  0.2000E+02
     12.849  0.0000E+00  0.2000E+02
     12.905  0.0000E+00  0.2000E+02
     12.961  0.0000E+00  0.2000E+02
     13.017  0.0000E+00  0.2000E+02
     13.073  0.0000E+00  0.2000E+02
     13.129  0.0000E+00  0.2000E+02
     13.185  0.0000E+00  0.2000E+02
