<?xml version="1.0" encoding="ISO-8859-1"?>
<modeling>
 <generator>
  <i name="program" type="string">vasp </i>
  <i name="version" type="string">5.2.2  </i>
  <i name="subversion" type="string">15Apr09 complex  parallel </i>
  <i name="platform" type="string">LinuxIFC </i>
  <i name="date" type="string">2013 08 21 </i>
  <i name="time" type="string">16:35:04 </i>
 </generator>
 <incar>
  <i type="int" name="ISTART">     1</i>
  <i type="string" name="PREC">accurate</i>
  <i type="int" name="ICHARG">     1</i>
  <i type="int" name="IBRION">     5</i>
  <i type="int" name="NFREE">     2</i>
  <i type="int" name="NSW">   191</i>
  <i type="int" name="ISIF">     2</i>
  <i name="ENCUT">    360.65550000</i>
  <i name="POTIM">      0.01000000</i>
  <i type="int" name="ISMEAR">     1</i>
  <i name="SIGMA">      0.20000000</i>
  <i type="logical" name="LWAVE"> F  </i>
  <i type="logical" name="LCHARG"> F  </i>
  <i type="logical" name="LPEAD"> F  </i>
  <i type="logical" name="LCALCPOL"> F  </i>
  <i type="logical" name="LCALCEPS"> F  </i>
  <v name="EFIELD_PEAD">      0.00000000      0.00000000      0.00000000</v>
  <i type="logical" name="LEFG"> F  </i>
 </incar>
 <kpoints>
  <generation param="Monkhorst-Pack">
   <v type="int" name="divisions">       2        2        2 </v>
   <v name="usershift">      0.00000000       0.00000000       0.00000000 </v>
   <v name="genvec1">      0.50000000       0.00000000       0.00000000 </v>
   <v name="genvec2">      0.00000000       0.50000000       0.00000000 </v>
   <v name="genvec3">      0.00000000       0.00000000       0.50000000 </v>
   <v name="shift">      0.50000000       0.50000000       0.50000000 </v>
  </generation>
  <varray name="kpointlist" >
   <v>       0.25000000       0.25000000       0.25000000 </v>
   <v>      -0.25000000       0.25000000       0.25000000 </v>
  </varray>
  <varray name="weights" >
   <v>       0.50000000 </v>
   <v>       0.50000000 </v>
  </varray>
 </kpoints>
 <parameters>
  <separator name="general" >
   <i type="string" name="SYSTEM">unknown system</i>
   <i type="logical" name="LCOMPAT"> F  </i>
  </separator>
  <separator name="electronic" >
   <i type="string" name="PREC">accura</i>
   <i name="ENMAX">    360.65550000</i>
   <i name="ENAUG">    291.05200000</i>
   <i name="EDIFF">      0.00000100</i>
   <i type="int" name="IALGO">    38</i>
   <i type="int" name="IWAVPR">    11</i>
   <i type="int" name="NBANDS">     8</i>
   <i name="NELECT">      9.00000000</i>
   <separator name="electronic smearing" >
    <i type="int" name="ISMEAR">     1</i>
    <i name="SIGMA">      0.20000000</i>
   </separator>
   <separator name="electronic projectors" >
    <i type="logical" name="LREAL"> F  </i>
    <v name="ROPT">      0.00000000</v>
    <i type="int" name="LMAXPAW">  -100</i>
    <i type="int" name="LMAXMIX">     2</i>
   </separator>
   <separator name="electronic startup" >
    <i type="int" name="ISTART">     0</i>
    <i type="int" name="ICHARG">     1</i>
    <i type="int" name="INIWAV">     1</i>
   </separator>
   <separator name="electronic spin" >
    <i type="int" name="ISPIN">     1</i>
    <i type="logical" name="LNONCOLLINEAR"> F  </i>
    <v name="MAGMOM">      1.00000000      1.00000000      1.00000000</v>
    <i name="NUPDOWN">     -1.00000000</i>
    <i type="logical" name="LSORBIT"> F  </i>
    <v name="SAXIS">      0.00000000      0.00000000      1.00000000</v>
    <i type="logical" name="LSPIRAL"> F  </i>
    <v name="QSPIRAL">      0.00000000      0.00000000      0.00000000</v>
    <i type="logical" name="LZEROZ"> F  </i>
   </separator>
   <separator name="electronic exchange-correlation" >
    <i type="logical" name="LASPH"> F  </i>
    <i type="logical" name="LMETAGGA"> F  </i>
   </separator>
   <separator name="electronic convergence" >
    <i type="int" name="NELM">    60</i>
    <i type="int" name="NELMDL">     0</i>
    <i type="int" name="NELMIN">     2</i>
    <i name="ENINI">    360.65550000</i>
    <separator name="electronic convergence detail" >
     <i type="logical" name="LDIAG"> T  </i>
     <i name="WEIMIN">      0.00100000</i>
     <i name="EBREAK">      0.00000003</i>
     <i name="DEPER">      0.30000000</i>
     <i type="int" name="NRMM">     4</i>
     <i name="TIME">      0.40000000</i>
    </separator>
   </separator>
   <separator name="electronic mixer" >
    <i name="AMIX">      0.40000000</i>
    <i name="BMIX">      1.00000000</i>
    <i name="AMIN">      0.10000000</i>
    <i name="AMIX_MAG">      1.60000000</i>
    <i name="BMIX_MAG">      1.00000000</i>
    <separator name="electronic mixer details" >
     <i type="int" name="IMIX">     4</i>
     <i type="int" name="MAXMIX">   -45</i>
     <i name="WC">    100.00000000</i>
     <i type="int" name="INIMIX">     1</i>
     <i type="int" name="MIXPRE">     1</i>
     <i type="int" name="MREMOVE">     5</i>
    </separator>
   </separator>
   <separator name="electronic dipolcorrection" >
    <i type="logical" name="LDIPOL"> F  </i>
    <i type="logical" name="LMONO"> F  </i>
    <i type="int" name="IDIPOL">     0</i>
    <i name="EPSILON">      1.00000000</i>
    <v name="DIPOL">   -100.00000000   -100.00000000   -100.00000000</v>
    <i name="EFIELD">      0.00000000</i>
   </separator>
  </separator>
  <separator name="grids" >
   <i type="int" name="NGX">    24</i>
   <i type="int" name="NGY">    24</i>
   <i type="int" name="NGZ">    24</i>
   <i type="int" name="NGXF">    48</i>
   <i type="int" name="NGYF">    48</i>
   <i type="int" name="NGZF">    48</i>
   <i type="logical" name="ADDGRID"> F  </i>
  </separator>
  <separator name="ionic" >
   <i type="int" name="NSW">    73</i>
   <i type="int" name="IBRION">     5</i>
   <i type="int" name="ISIF">     2</i>
   <i name="PSTRESS">      0.00000000</i>
   <i name="EDIFFG">      0.00001000</i>
   <i type="int" name="NFREE">     2</i>
   <i name="POTIM">      0.01000000</i>
   <i name="SMASS">     -3.00000000</i>
  </separator>
  <separator name="ionic md" >
   <i name="TEBEG">      0.00010000</i>
   <i name="TEEND">      0.00010000</i>
   <i type="int" name="NBLOCK">     1</i>
   <i type="int" name="KBLOCK">     1</i>
   <i type="int" name="NPACO">   256</i>
   <i name="APACO">     16.00000000</i>
  </separator>
  <separator name="symmetry" >
   <i type="int" name="ISYM">     2</i>
   <i name="SYMPREC">      0.00001000</i>
  </separator>
  <separator name="dos" >
   <i type="logical" name="LORBIT"> F  </i>
   <v name="RWIGS">     -1.00000000</v>
   <i type="int" name="NEDOS">   301</i>
   <i name="EMIN">     10.00000000</i>
   <i name="EMAX">    -10.00000000</i>
   <i name="EFERMI">      0.00000000</i>
  </separator>
  <separator name="writing" >
   <i type="int" name="NWRITE">     2</i>
   <i type="logical" name="LWAVE"> F  </i>
   <i type="logical" name="LCHARG"> F  </i>
   <i type="logical" name="LPARD"> F  </i>
   <i type="logical" name="LVTOT"> F  </i>
   <i type="logical" name="LELF"> F  </i>
   <i type="logical" name="LOPTICS"> F  </i>
   <v name="STM">      0.00000000      0.00000000      0.00000000      0.00000000      0.00000000</v>
  </separator>
  <separator name="performance" >
   <i type="int" name="NPAR">     1</i>
   <i type="int" name="NSIM">     4</i>
   <i type="int" name="NBLK">    32</i>
   <i type="logical" name="LPLANE"> T  </i>
   <i type="logical" name="LSCALAPACK"> F  </i>
   <i type="logical" name="LSCAAWARE"> F  </i>
   <i type="logical" name="LSCALU"> F  </i>
   <i type="logical" name="LASYNC"> F  </i>
  </separator>
  <separator name="miscellaneous" >
   <i type="int" name="IDIOT">     3</i>
   <i type="logical" name="LMUSIC"> F  </i>
   <v name="POMASS">     26.98200000</v>
   <i type="logical" name="LCORR"> T  </i>
  </separator>
  <i type="logical" name="LREAL_COMPAT"> F  </i>
  <i type="logical" name="GGA_COMPAT"> T  </i>
  <i type="logical" name="LBERRY"> F  </i>
  <i type="int" name="ICORELEVEL">     0</i>
  <i type="logical" name="LDAU"> F  </i>
  <i type="int" name="I_CONSTRAINED_M">     0</i>
  <separator name="electronic exchange-correlation" >
   <i type="string" name="GGA">--</i>
   <i type="int" name="VOSKOWN">     0</i>
   <i type="logical" name="LHFCALC"> F  </i>
   <i type="logical" name="LHFONE"> F  </i>
   <i type="logical" name="LRHFCALC"> F  </i>
   <i type="logical" name="LTHOMAS"> F  </i>
   <i type="logical" name="LMODELHF"> F  </i>
   <i name="ENCUTFOCK">      0.00000000</i>
   <i name="ENCUT4O">     -1.00000000</i>
   <i type="int" name="EXXOEP">     0</i>
   <i type="int" name="FOURORBIT">     0</i>
   <i name="AEXX">      0.00000000</i>
   <i name="HFALPHA">      0.00000000</i>
   <i name="ALDAX">      1.00000000</i>
   <i name="AGGAX">      1.00000000</i>
   <i name="ALDAC">      1.00000000</i>
   <i name="AGGAC">      1.00000000</i>
   <i type="int" name="NKREDX">     1</i>
   <i type="int" name="NKREDY">     1</i>
   <i type="int" name="NKREDZ">     1</i>
   <i type="logical" name="SHIFTRED"> F  </i>
   <i type="logical" name="ODDONLY"> F  </i>
   <i type="logical" name="EVENONLY"> F  </i>
   <i type="int" name="LMAXFOCK">     0</i>
   <i type="int" name="NMAXFOCKAE">     0</i>
   <i name="HFSCREEN">      0.00000000</i>
   <i name="HFSCREENC">      0.00000000</i>
  </separator>
  <separator name="model GW" >
   <i type="int" name="MODEL_GW">     0</i>
   <i name="MODEL_EPS0">      8.57500000</i>
   <i name="MODEL_ALPHA">      1.00000000</i>
  </separator>
  <separator name="linear response parameters" >
   <i type="logical" name="LEPSILON"> F  </i>
   <i type="logical" name="LRPA"> F  </i>
   <i type="logical" name="LNABLA"> F  </i>
   <i type="logical" name="LVEL"> F  </i>
   <i type="int" name="KINTER">     0</i>
   <i name="CSHIFT">      0.10000000</i>
   <i name="OMEGAMAX">     -1.00000000</i>
  </separator>
  <separator name="orbital magnetization" >
   <i type="logical" name="ORBITALMAG"> F  </i>
   <i type="logical" name="LMAGBLOCH"> F  </i>
   <i type="logical" name="LCHIMAG"> F  </i>
   <i type="logical" name="LGAUGE"> T  </i>
   <i type="int" name="MAGATOM">     0</i>
   <v name="MAGDIPOL">      0.00000000      0.00000000      0.00000000</v>
   <v name="AVECCONST">      0.00000000      0.00000000      0.00000000</v>
  </separator>
  <separator name="response functions" >
   <i type="logical" name="LRPA"> T  </i>
   <i type="logical" name="LTCTE"> F  </i>
   <i type="logical" name="LTETE"> F  </i>
   <i type="logical" name="L2ORDER"> F  </i>
   <i type="logical" name="LGWLF"> F  </i>
   <i name="ENCUTGW">    240.43700000</i>
   <i name="ENCUTGWSOFT">     -2.00000000</i>
   <i name="ENCUTLF">     -1.00000000</i>
   <i type="int" name="LMAXMP2">    -1</i>
   <i name="SCISSOR">      0.00000000</i>
   <i type="int" name="NOMEGA">     0</i>
   <i type="int" name="NOMEGAR">     0</i>
   <i type="int" name="NBANDSGW">    -1</i>
   <i type="int" name="NBANDSLF">    -1</i>
   <i type="int" name="NELM">     1</i>
   <i type="int" name="DIM">     3</i>
   <i type="int" name="ANTIRES">     0</i>
   <i type="logical" name="LUSEW"> F  </i>
   <i name="OMEGAMAX">    -30.00000000</i>
   <i name="OMEGATL">   -200.00000000</i>
   <i type="int" name="OMEGAGRID">     0</i>
   <i name="CSHIFT">     -0.10000000</i>
   <i type="logical" name="SELFENERGY"> F  </i>
   <i type="logical" name="LSPECTRAL"> F  </i>
   <i type="logical" name="ODDONLYGW"> F  </i>
   <i type="logical" name="EVENONLYGW"> F  </i>
   <i type="int" name="NKREDLFX">     1</i>
   <i type="int" name="NKREDLFY">     1</i>
   <i type="int" name="NKREDLFZ">     1</i>
   <i type="int" name="MAXMEM">  1024</i>
   <i type="int" name="TELESCOPE">     0</i>
  </separator>
 </parameters>
 <atominfo>
  <atoms>       3 </atoms>
  <types>       1 </types>
  <array name="atoms" >
   <dimension dim="1">ion</dimension>
   <field type="string">element</field>
   <field type="int">atomtype</field>
   <set>
    <rc><c>Al</c><c>   1</c></rc>
    <rc><c>Al</c><c>   1</c></rc>
    <rc><c>Al</c><c>   1</c></rc>
   </set>
  </array>
  <array name="atomtypes" >
   <dimension dim="1">type</dimension>
   <field type="int">atomspertype</field>
   <field type="string">element</field>
   <field>mass</field>
   <field>valence</field>
   <field type="string">pseudopotential</field>
   <set>
    <rc><c>   3</c><c>Al</c><c>     26.98200000</c><c>      3.00000000</c><c> PAW_GGA Al 05Jan2001                   </c></rc>
   </set>
  </array>
 </atominfo>
 <structure name="initialpos" >
  <crystal>
   <varray name="basis" >
    <v>       3.50000000       0.00000000       0.00000000 </v>
    <v>       0.00000000       3.50000000       0.00000000 </v>
    <v>       0.00000000       0.00000000       3.50000000 </v>
   </varray>
   <i name="volume">     42.87500000 </i>
   <varray name="rec_basis" >
    <v>       0.28571429       0.00000000       0.00000000 </v>
    <v>       0.00000000       0.28571429       0.00000000 </v>
    <v>       0.00000000       0.00000000       0.28571429 </v>
   </varray>
  </crystal>
  <varray name="positions" >
   <v>       0.25000000       0.25000000       0.00000000 </v>
   <v>       0.96804500       0.53195500       0.50000000 </v>
   <v>       0.53195500       0.96804500       0.50000000 </v>
  </varray>
  <varray name="selective"  type="logical" >
   <v type="logical" >  T  F  F </v>
   <v type="logical" >  F  F  F </v>
   <v type="logical" >  F  F  F </v>
  </varray>
  <nose>
   <v>      -3.00000000       0.00000000       0.00010000       0.00010000 </v>
  </nose>
 </structure>
 <calculation>
  <scstep>
   <time name="dav">    0.41    0.11</time>
   <time name="total">    0.83    0.38</time>
   <energy>
    <i name="alphaZ">     -0.53451638 </i>
    <i name="ewald">   -221.91943511 </i>
    <i name="hartreedc">     -1.89687496 </i>
    <i name="XCdc">    -78.37756469 </i>
    <i name="pawpsdc">    106.97730018 </i>
    <i name="pawaedc">    -10.81747568 </i>
    <i name="eentropy">      0.00579849 </i>
    <i name="bandstr">     54.77815264 </i>
    <i name="atom">    161.07115403 </i>
    <i name="e_fr_energy">      9.28653853 </i>
    <i name="e_wo_entrp">      9.28074004 </i>
    <i name="e_0_energy">      9.28460570 </i>
   </energy>
  </scstep>
  <scstep>
   <time name="dav">    0.52    0.13</time>
   <time name="total">    0.53    0.13</time>
   <energy>
    <i name="e_fr_energy">     -7.19987201 </i>
    <i name="e_wo_entrp">     -7.20628489 </i>
    <i name="e_0_energy">     -7.20200963 </i>
   </energy>
  </scstep>
  <scstep>
   <time name="dav">    0.60    0.15</time>
   <time name="total">    0.61    0.15</time>
   <energy>
    <i name="e_fr_energy">     -7.39375192 </i>
    <i name="e_wo_entrp">     -7.40244186 </i>
    <i name="e_0_energy">     -7.39664857 </i>
   </energy>
  </scstep>
  <scstep>
   <time name="dav">    0.60    0.15</time>
   <time name="total">    0.61    0.15</time>
   <energy>
    <i name="e_fr_energy">     -7.39394025 </i>
    <i name="e_wo_entrp">     -7.40282859 </i>
    <i name="e_0_energy">     -7.39690303 </i>
   </energy>
  </scstep>
  <scstep>
   <time name="dav">    0.68    0.17</time>
   <time name="total">    0.85    0.22</time>
   <energy>
    <i name="e_fr_energy">     -7.39394047 </i>
    <i name="e_wo_entrp">     -7.40282882 </i>
    <i name="e_0_energy">     -7.39690325 </i>
   </energy>
  </scstep>
  <scstep>
   <time name="dav">    0.65    0.17</time>
   <time name="total">    1.13    0.49</time>
   <energy>
    <i name="e_fr_energy">     -7.17640050 </i>
    <i name="e_wo_entrp">     -7.19133250 </i>
    <i name="e_0_energy">     -7.18137783 </i>
   </energy>
  </scstep>
  <scstep>
   <time name="dav">    0.65    0.17</time>
   <time name="total">    1.14    0.49</time>
   <energy>
    <i name="e_fr_energy">     -7.09226693 </i>
    <i name="e_wo_entrp">     -7.11713266 </i>
    <i name="e_0_energy">     -7.10055551 </i>
   </energy>
  </scstep>
  <scstep>
   <time name="dav">    0.41    0.11</time>
   <time name="total">    0.94    0.42</time>
   <energy>
    <i name="e_fr_energy">     -7.09114492 </i>
    <i name="e_wo_entrp">     -7.11485948 </i>
    <i name="e_0_energy">     -7.09904977 </i>
   </energy>
  </scstep>
  <scstep>
   <time name="dav">    0.73    0.19</time>
   <time name="total">    1.28    0.50</time>
   <energy>
    <i name="e_fr_energy">     -7.09113609 </i>
    <i name="e_wo_entrp">     -7.11512745 </i>
    <i name="e_0_energy">     -7.09913321 </i>
   </energy>
  </scstep>
  <scstep>
   <time name="dav">    0.49    0.13</time>
   <time name="total">    1.09    0.44</time>
   <energy>
    <i name="e_fr_energy">     -7.09112240 </i>
    <i name="e_wo_entrp">     -7.11519628 </i>
    <i name="e_0_energy">     -7.09914702 </i>
   </energy>
  </scstep>
  <scstep>
   <time name="dav">    0.73    0.19</time>
   <time name="total">    1.16    0.46</time>
   <energy>
    <i name="alphaZ">     -0.53451638 </i>
    <i name="ewald">   -221.91943511 </i>
    <i name="hartreedc">     -3.69239224 </i>
    <i name="XCdc">    -77.76384533 </i>
    <i name="pawpsdc">    116.63658826 </i>
    <i name="pawaedc">    -20.95134453 </i>
    <i name="eentropy">      0.02407074 </i>
    <i name="bandstr">     40.03859878 </i>
    <i name="atom">    161.07115403 </i>
    <i name="e_fr_energy">     -7.09112178 </i>
    <i name="e_wo_entrp">     -7.11519252 </i>
    <i name="e_0_energy">     -7.09914536 </i>
   </energy>
  </scstep>
  <structure>
   <crystal>
    <varray name="basis" >
     <v>       3.50000000       0.00000000       0.00000000 </v>
     <v>       0.00000000       3.50000000       0.00000000 </v>
     <v>       0.00000000       0.00000000       3.50000000 </v>
    </varray>
    <i name="volume">     42.87500000 </i>
    <varray name="rec_basis" >
     <v>       0.28571429       0.00000000       0.00000000 </v>
     <v>       0.00000000       0.28571429       0.00000000 </v>
     <v>       0.00000000       0.00000000       0.28571429 </v>
    </varray>
   </crystal>
   <varray name="positions" >
    <v>       0.25000000       0.25000000       0.00000000 </v>
    <v>       0.96804500       0.53195500       0.50000000 </v>
    <v>       0.53195500       0.96804500       0.50000000 </v>
   </varray>
  </structure>
  <varray name="forces" >
   <v>       0.00000000       0.00000000       0.00000000 </v>
   <v>      -0.00289733       0.00289733       0.00000000 </v>
   <v>       0.00289733      -0.00289733       0.00000000 </v>
  </varray>
  <varray name="stress" >
   <v>     568.22275750    -285.47311282       0.00000000 </v>
   <v>    -285.47311282     568.22275750       0.00000000 </v>
   <v>       0.00000000       0.00000000     693.53575644 </v>
  </varray>
  <energy>
   <i name="e_fr_energy">     -7.09112178 </i>
   <i name="e_wo_entrp">     -7.09914536 </i>
   <i name="e_0_energy">      0.02407074 </i>
  </energy>
  <kpoints>
   <generation param="Monkhorst-Pack">
    <v type="int" name="divisions">       2        2        2 </v>
    <v name="usershift">      0.00000000       0.00000000       0.00000000 </v>
    <v name="genvec1">      0.50000000       0.00000000       0.00000000 </v>
    <v name="genvec2">      0.00000000       0.50000000       0.00000000 </v>
    <v name="genvec3">      0.00000000       0.00000000       0.50000000 </v>
    <v name="shift">      0.50000000       0.50000000       0.50000000 </v>
   </generation>
   <varray name="kpointlist" >
    <v>       0.25000000       0.25000000       0.25000000 </v>
    <v>      -0.25000000       0.25000000       0.25000000 </v>
   </varray>
   <varray name="weights" >
    <v>       0.50000000 </v>
    <v>       0.50000000 </v>
   </varray>
  </kpoints>
  <time name="totalsc">   11.78    4.86</time>
 </calculation>
 <calculation>
  <scstep>
   <time name="dav">    0.41    0.11</time>
   <time name="total">    1.00    0.42</time>
   <energy>
    <i name="alphaZ">     -0.53451638 </i>
    <i name="ewald">   -221.91894414 </i>
    <i name="hartreedc">     -3.69237640 </i>
    <i name="XCdc">    -77.76393126 </i>
    <i name="pawpsdc">    116.62862481 </i>
    <i name="pawaedc">    -20.94306817 </i>
    <i name="eentropy">      0.02407791 </i>
    <i name="bandstr">     40.03815064 </i>
    <i name="atom">    161.07115403 </i>
    <i name="e_fr_energy">     -7.09082896 </i>
    <i name="e_wo_entrp">     -7.11490687 </i>
    <i name="e_0_energy">     -7.09885493 </i>
   </energy>
  </scstep>
  <scstep>
   <time name="dav">    0.73    0.19</time>
   <time name="total">    1.22    0.51</time>
   <energy>
    <i name="e_fr_energy">     -7.09080449 </i>
    <i name="e_wo_entrp">     -7.11488106 </i>
    <i name="e_0_energy">     -7.09883002 </i>
   </energy>
  </scstep>
  <scstep>
   <time name="dav">    0.58    0.15</time>
   <time name="total">    1.05    0.47</time>
   <energy>
    <i name="e_fr_energy">     -7.09079756 </i>
    <i name="e_wo_entrp">     -7.11487294 </i>
    <i name="e_0_energy">     -7.09882268 </i>
   </energy>
  </scstep>
  <scstep>
   <time name="dav">    0.57    0.15</time>
   <time name="total">    0.93    0.42</time>
   <energy>
    <i name="alphaZ">     -0.53451638 </i>
    <i name="ewald">   -221.91894414 </i>
    <i name="hartreedc">     -3.69254949 </i>
    <i name="XCdc">    -77.76391061 </i>
    <i name="pawpsdc">    116.62707392 </i>
    <i name="pawaedc">    -20.94146925 </i>
    <i name="eentropy">      0.02407532 </i>
    <i name="bandstr">     40.03828885 </i>
    <i name="atom">    161.07115403 </i>
    <i name="e_fr_energy">     -7.09079775 </i>
    <i name="e_wo_entrp">     -7.11487307 </i>
    <i name="e_0_energy">     -7.09882286 </i>
   </energy>
  </scstep>
  <structure>
   <crystal>
    <varray name="basis" >
     <v>       3.50000000       0.00000000       0.00000000 </v>
     <v>       0.00000000       3.50000000       0.00000000 </v>
     <v>       0.00000000       0.00000000       3.50000000 </v>
    </varray>
    <i name="volume">     42.87500000 </i>
    <varray name="rec_basis" >
     <v>       0.28571429       0.00000000       0.00000000 </v>
     <v>       0.00000000       0.28571429       0.00000000 </v>
     <v>       0.00000000       0.00000000       0.28571429 </v>
    </varray>
   </crystal>
   <varray name="positions" >
    <v>       0.25285714       0.25000000       0.00000000 </v>
    <v>       0.96804500       0.53195500       0.50000000 </v>
    <v>       0.53195500       0.96804500       0.50000000 </v>
   </varray>
  </structure>
  <varray name="forces" >
   <v>      -0.06466627       0.12053231       0.00000000 </v>
   <v>       0.02956331      -0.05694249       0.00000000 </v>
   <v>       0.03510296      -0.06358982       0.00000000 </v>
  </varray>
  <varray name="stress" >
   <v>     568.17617817    -285.44836139       0.00000000 </v>
   <v>    -285.44837824     568.24338493       0.00000000 </v>
   <v>       0.00000000       0.00000000     693.62278253 </v>
  </varray>
  <energy>
   <i name="e_fr_energy">     -7.09079775 </i>
   <i name="e_wo_entrp">     -7.09882286 </i>
   <i name="e_0_energy">      0.02407532 </i>
  </energy>
  <kpoints>
   <generation param="Monkhorst-Pack">
    <v type="int" name="divisions">       2        2        2 </v>
    <v name="usershift">      0.00000000       0.00000000       0.00000000 </v>
    <v name="genvec1">      0.50000000       0.00000000       0.00000000 </v>
    <v name="genvec2">      0.00000000       0.50000000       0.00000000 </v>
    <v name="genvec3">      0.00000000       0.00000000       0.50000000 </v>
    <v name="shift">      0.50000000       0.50000000       0.50000000 </v>
   </generation>
   <varray name="kpointlist" >
    <v>       0.25000000       0.25000000       0.25000000 </v>
    <v>      -0.25000000       0.25000000       0.25000000 </v>
   </varray>
   <varray name="weights" >
    <v>       0.50000000 </v>
    <v>       0.50000000 </v>
   </varray>
  </kpoints>
  <time name="totalsc">    5.75    2.88</time>
 </calculation>
 <calculation>
  <scstep>
   <time name="dav">    0.41    0.11</time>
   <time name="total">    1.00    0.42</time>
   <energy>
    <i name="alphaZ">     -0.53451638 </i>
    <i name="ewald">   -221.91894414 </i>
    <i name="hartreedc">     -3.69220882 </i>
    <i name="XCdc">    -77.76398749 </i>
    <i name="pawpsdc">    116.62689601 </i>
    <i name="pawaedc">    -20.94128541 </i>
    <i name="eentropy">      0.02407219 </i>
    <i name="bandstr">     40.03789732 </i>
    <i name="atom">    161.07115403 </i>
    <i name="e_fr_energy">     -7.09092269 </i>
    <i name="e_wo_entrp">     -7.11499487 </i>
    <i name="e_0_energy">     -7.09894675 </i>
   </energy>
  </scstep>
  <scstep>
   <time name="dav">    0.74    0.19</time>
   <time name="total">    1.22    0.51</time>
   <energy>
    <i name="e_fr_energy">     -7.09082464 </i>
    <i name="e_wo_entrp">     -7.11489955 </i>
    <i name="e_0_energy">     -7.09884961 </i>
   </energy>
  </scstep>
  <scstep>
   <time name="dav">    0.57    0.15</time>
   <time name="total">    1.05    0.49</time>
   <energy>
    <i name="e_fr_energy">     -7.09079683 </i>
    <i name="e_wo_entrp">     -7.11487242 </i>
    <i name="e_0_energy">     -7.09882203 </i>
   </energy>
  </scstep>
  <scstep>
   <time name="dav">    0.57    0.15</time>
   <time name="total">    1.09    0.47</time>
   <energy>
    <i name="e_fr_energy">     -7.09079762 </i>
    <i name="e_wo_entrp">     -7.11487266 </i>
    <i name="e_0_energy">     -7.09882263 </i>
   </energy>
  </scstep>
  <scstep>
   <time name="dav">    0.65    0.17</time>
   <time name="total">    1.04    0.44</time>
   <energy>
    <i name="alphaZ">     -0.53451638 </i>
    <i name="ewald">   -221.91894414 </i>
    <i name="hartreedc">     -3.69256471 </i>
    <i name="XCdc">    -77.76390967 </i>
    <i name="pawpsdc">    116.62685357 </i>
    <i name="pawaedc">    -20.94124242 </i>
    <i name="eentropy">      0.02407508 </i>
    <i name="bandstr">     40.03829685 </i>
    <i name="atom">    161.07115403 </i>
    <i name="e_fr_energy">     -7.09079779 </i>
    <i name="e_wo_entrp">     -7.11487287 </i>
    <i name="e_0_energy">     -7.09882282 </i>
   </energy>
  </scstep>
  <structure>
   <crystal>
    <varray name="basis" >
     <v>       3.50000000       0.00000000       0.00000000 </v>
     <v>       0.00000000       3.50000000       0.00000000 </v>
     <v>       0.00000000       0.00000000       3.50000000 </v>
    </varray>
    <i name="volume">     42.87500000 </i>
    <varray name="rec_basis" >
     <v>       0.28571429       0.00000000       0.00000000 </v>
     <v>       0.00000000       0.28571429       0.00000000 </v>
     <v>       0.00000000       0.00000000       0.28571429 </v>
    </varray>
   </crystal>
   <varray name="positions" >
    <v>       0.24714286       0.25000000       0.00000000 </v>
    <v>       0.96804500       0.53195500       0.50000000 </v>
    <v>       0.53195500       0.96804500       0.50000000 </v>
   </varray>
  </structure>
  <varray name="forces" >
   <v>       0.06470617      -0.12047607       0.00000000 </v>
   <v>      -0.03511911       0.06355193       0.00000000 </v>
   <v>      -0.02958706       0.05692414       0.00000000 </v>
  </varray>
  <varray name="stress" >
   <v>     568.17612762    -285.44766013       0.00000000 </v>
   <v>    -285.44764636     568.24398290       0.00000000 </v>
   <v>       0.00000000       0.00000000     693.62122597 </v>
  </varray>
  <energy>
   <i name="e_fr_energy">     -7.09079779 </i>
   <i name="e_wo_entrp">     -7.09882282 </i>
   <i name="e_0_energy">      0.02407508 </i>
  </energy>
  <dynmat>
   <varray name="hessian" >
    <v>      -0.23973843 </v>
   </varray>
   <v name="eigenvalues"> -2.39738431E-01</v>
   <varray name="eigenvectors" >
    <v>   1.00000000E+00</v>
   </varray>
  </dynmat>
  <kpoints>
   <generation param="Monkhorst-Pack">
    <v type="int" name="divisions">       2        2        2 </v>
    <v name="usershift">      0.00000000       0.00000000       0.00000000 </v>
    <v name="genvec1">      0.50000000       0.00000000       0.00000000 </v>
    <v name="genvec2">      0.00000000       0.50000000       0.00000000 </v>
    <v name="genvec3">      0.00000000       0.00000000       0.50000000 </v>
    <v name="shift">      0.50000000       0.50000000       0.50000000 </v>
   </generation>
   <varray name="kpointlist" >
    <v>       0.25000000       0.25000000       0.25000000 </v>
    <v>      -0.25000000       0.25000000       0.25000000 </v>
   </varray>
   <varray name="weights" >
    <v>       0.50000000 </v>
    <v>       0.50000000 </v>
   </varray>
  </kpoints>
  <time name="totalsc">    6.96    3.30</time>
  <eigenvalues>
   <array>
    <dimension dim="1">band</dimension>
    <dimension dim="2">kpoint</dimension>
    <dimension dim="3">spin</dimension>
    <field>eigene</field>
    <field>occ</field>
    <set>
     <set comment="spin 1">
      <set comment="kpoint 1">
       <r>   -0.6255    1.0000 </r>
       <r>    5.0707    1.0000 </r>
       <r>    5.2206    1.0000 </r>
       <r>    5.2826    1.0000 </r>
       <r>   10.5024   -0.0303 </r>
       <r>   10.7778   -0.0015 </r>
       <r>   11.4213    0.0000 </r>
       <r>   15.8798    0.0000 </r>
      </set>
      <set comment="kpoint 2">
       <r>   -0.6279    1.0000 </r>
       <r>    5.1011    1.0000 </r>
       <r>    5.2357    1.0000 </r>
       <r>    5.3221    1.0000 </r>
       <r>   10.0730    1.0319 </r>
       <r>   10.9148    0.0000 </r>
       <r>   11.3567    0.0000 </r>
       <r>   15.8628    0.0000 </r>
      </set>
     </set>
    </set>
   </array>
  </eigenvalues>
  <separator name="orbital magnetization" >
   <v name="MAGDIPOLOUT">      0.00000000      0.00000000      0.00000000</v>
  </separator>
  <dos>
   <i name="efermi">     10.29027320 </i>
   <total>
    <array>
     <dimension dim="1">gridpoints</dimension>
     <dimension dim="2">spin</dimension>
     <field>energy</field>
     <field>total</field>
     <field>integrated</field>
     <set>
      <set comment="spin 1">
       <r>  -2.6279   0.0000   0.0000 </r>
       <r>  -2.5596   0.0000   0.0000 </r>
       <r>  -2.4912   0.0000   0.0000 </r>
       <r>  -2.4228   0.0000   0.0000 </r>
       <r>  -2.3545   0.0000   0.0000 </r>
       <r>  -2.2861   0.0000   0.0000 </r>
       <r>  -2.2178   0.0000   0.0000 </r>
       <r>  -2.1494   0.0000   0.0000 </r>
       <r>  -2.0810   0.0000   0.0000 </r>
       <r>  -2.0127   0.0000   0.0000 </r>
       <r>  -1.9443   0.0000   0.0000 </r>
       <r>  -1.8760   0.0000   0.0000 </r>
       <r>  -1.8076   0.0000   0.0000 </r>
       <r>  -1.7392   0.0000   0.0000 </r>
       <r>  -1.6709   0.0000   0.0000 </r>
       <r>  -1.6025   0.0000   0.0000 </r>
       <r>  -1.5342   0.0000   0.0000 </r>
       <r>  -1.4658   0.0000   0.0000 </r>
       <r>  -1.3975   0.0000   0.0000 </r>
       <r>  -1.3291  -0.0001   0.0000 </r>
       <r>  -1.2607  -0.0009  -0.0001 </r>
       <r>  -1.1924  -0.0059  -0.0005 </r>
       <r>  -1.1240  -0.0291  -0.0025 </r>
       <r>  -1.0557  -0.1065  -0.0097 </r>
       <r>  -0.9873  -0.2763  -0.0286 </r>
       <r>  -0.9189  -0.4395  -0.0587 </r>
       <r>  -0.8506  -0.1215  -0.0670 </r>
       <r>  -0.7822   1.4449   0.0318 </r>
       <r>  -0.7139   4.4245   0.3343 </r>
       <r>  -0.6455   7.4204   0.8415 </r>
       <r>  -0.5771   8.2472   1.4053 </r>
       <r>  -0.5088   6.2196   1.8304 </r>
       <r>  -0.4404   2.9613   2.0329 </r>
       <r>  -0.3721   0.5466   2.0702 </r>
       <r>  -0.3037  -0.3726   2.0448 </r>
       <r>  -0.2353  -0.3864   2.0183 </r>
       <r>  -0.1670  -0.1889   2.0054 </r>
       <r>  -0.0986  -0.0618   2.0012 </r>
       <r>  -0.0303  -0.0147   2.0002 </r>
       <r>   0.0381  -0.0026   2.0000 </r>
       <r>   0.1064  -0.0004   2.0000 </r>
       <r>   0.1748   0.0000   2.0000 </r>
       <r>   0.2432   0.0000   2.0000 </r>
       <r>   0.3115   0.0000   2.0000 </r>
       <r>   0.3799   0.0000   2.0000 </r>
       <r>   0.4482   0.0000   2.0000 </r>
       <r>   0.5166   0.0000   2.0000 </r>
       <r>   0.5850   0.0000   2.0000 </r>
       <r>   0.6533   0.0000   2.0000 </r>
       <r>   0.7217   0.0000   2.0000 </r>
       <r>   0.7900   0.0000   2.0000 </r>
       <r>   0.8584   0.0000   2.0000 </r>
       <r>   0.9268   0.0000   2.0000 </r>
       <r>   0.9951   0.0000   2.0000 </r>
       <r>   1.0635   0.0000   2.0000 </r>
       <r>   1.1318   0.0000   2.0000 </r>
       <r>   1.2002   0.0000   2.0000 </r>
       <r>   1.2685   0.0000   2.0000 </r>
       <r>   1.3369   0.0000   2.0000 </r>
       <r>   1.4053   0.0000   2.0000 </r>
       <r>   1.4736   0.0000   2.0000 </r>
       <r>   1.5420   0.0000   2.0000 </r>
       <r>   1.6103   0.0000   2.0000 </r>
       <r>   1.6787   0.0000   2.0000 </r>
       <r>   1.7471   0.0000   2.0000 </r>
       <r>   1.8154   0.0000   2.0000 </r>
       <r>   1.8838   0.0000   2.0000 </r>
       <r>   1.9521   0.0000   2.0000 </r>
       <r>   2.0205   0.0000   2.0000 </r>
       <r>   2.0889   0.0000   2.0000 </r>
       <r>   2.1572   0.0000   2.0000 </r>
       <r>   2.2256   0.0000   2.0000 </r>
       <r>   2.2939   0.0000   2.0000 </r>
       <r>   2.3623   0.0000   2.0000 </r>
       <r>   2.4306   0.0000   2.0000 </r>
       <r>   2.4990   0.0000   2.0000 </r>
       <r>   2.5674   0.0000   2.0000 </r>
       <r>   2.6357   0.0000   2.0000 </r>
       <r>   2.7041   0.0000   2.0000 </r>
       <r>   2.7724   0.0000   2.0000 </r>
       <r>   2.8408   0.0000   2.0000 </r>
       <r>   2.9092   0.0000   2.0000 </r>
       <r>   2.9775   0.0000   2.0000 </r>
       <r>   3.0459   0.0000   2.0000 </r>
       <r>   3.1142   0.0000   2.0000 </r>
       <r>   3.1826   0.0000   2.0000 </r>
       <r>   3.2510   0.0000   2.0000 </r>
       <r>   3.3193   0.0000   2.0000 </r>
       <r>   3.3877   0.0000   2.0000 </r>
       <r>   3.4560   0.0000   2.0000 </r>
       <r>   3.5244   0.0000   2.0000 </r>
       <r>   3.5927   0.0000   2.0000 </r>
       <r>   3.6611   0.0000   2.0000 </r>
       <r>   3.7295   0.0000   2.0000 </r>
       <r>   3.7978   0.0000   2.0000 </r>
       <r>   3.8662   0.0000   2.0000 </r>
       <r>   3.9345   0.0000   2.0000 </r>
       <r>   4.0029   0.0000   2.0000 </r>
       <r>   4.0713   0.0000   2.0000 </r>
       <r>   4.1396   0.0000   2.0000 </r>
       <r>   4.2080   0.0000   2.0000 </r>
       <r>   4.2763   0.0000   2.0000 </r>
       <r>   4.3447   0.0000   2.0000 </r>
       <r>   4.4131  -0.0003   2.0000 </r>
       <r>   4.4814  -0.0023   1.9998 </r>
       <r>   4.5498  -0.0131   1.9989 </r>
       <r>   4.6181  -0.0569   1.9950 </r>
       <r>   4.6865  -0.1836   1.9825 </r>
       <r>   4.7549  -0.4200   1.9538 </r>
       <r>   4.8232  -0.5868   1.9137 </r>
       <r>   4.8916  -0.0921   1.9074 </r>
       <r>   4.9599   1.8858   2.0363 </r>
       <r>   5.0283   5.6861   2.4250 </r>
       <r>   5.0966  10.6518   3.1531 </r>
       <r>   5.1650  15.3767   4.2042 </r>
       <r>   5.2334  18.1368   5.4441 </r>
       <r>   5.3017  17.3799   6.6321 </r>
       <r>   5.3701  12.9436   7.5169 </r>
       <r>   5.4384   6.8743   7.9869 </r>
       <r>   5.5068   2.0093   8.1242 </r>
       <r>   5.5752  -0.3290   8.1017 </r>
       <r>   5.6435  -0.7556   8.0501 </r>
       <r>   5.7119  -0.4738   8.0177 </r>
       <r>   5.7802  -0.1897   8.0047 </r>
       <r>   5.8486  -0.0548   8.0010 </r>
       <r>   5.9170  -0.0119   8.0002 </r>
       <r>   5.9853  -0.0020   8.0000 </r>
       <r>   6.0537  -0.0003   8.0000 </r>
       <r>   6.1220   0.0000   8.0000 </r>
       <r>   6.1904   0.0000   8.0000 </r>
       <r>   6.2587   0.0000   8.0000 </r>
       <r>   6.3271   0.0000   8.0000 </r>
       <r>   6.3955   0.0000   8.0000 </r>
       <r>   6.4638   0.0000   8.0000 </r>
       <r>   6.5322   0.0000   8.0000 </r>
       <r>   6.6005   0.0000   8.0000 </r>
       <r>   6.6689   0.0000   8.0000 </r>
       <r>   6.7373   0.0000   8.0000 </r>
       <r>   6.8056   0.0000   8.0000 </r>
       <r>   6.8740   0.0000   8.0000 </r>
       <r>   6.9423   0.0000   8.0000 </r>
       <r>   7.0107   0.0000   8.0000 </r>
       <r>   7.0791   0.0000   8.0000 </r>
       <r>   7.1474   0.0000   8.0000 </r>
       <r>   7.2158   0.0000   8.0000 </r>
       <r>   7.2841   0.0000   8.0000 </r>
       <r>   7.3525   0.0000   8.0000 </r>
       <r>   7.4208   0.0000   8.0000 </r>
       <r>   7.4892   0.0000   8.0000 </r>
       <r>   7.5576   0.0000   8.0000 </r>
       <r>   7.6259   0.0000   8.0000 </r>
       <r>   7.6943   0.0000   8.0000 </r>
       <r>   7.7626   0.0000   8.0000 </r>
       <r>   7.8310   0.0000   8.0000 </r>
       <r>   7.8994   0.0000   8.0000 </r>
       <r>   7.9677   0.0000   8.0000 </r>
       <r>   8.0361   0.0000   8.0000 </r>
       <r>   8.1044   0.0000   8.0000 </r>
       <r>   8.1728   0.0000   8.0000 </r>
       <r>   8.2412   0.0000   8.0000 </r>
       <r>   8.3095   0.0000   8.0000 </r>
       <r>   8.3779   0.0000   8.0000 </r>
       <r>   8.4462   0.0000   8.0000 </r>
       <r>   8.5146   0.0000   8.0000 </r>
       <r>   8.5830   0.0000   8.0000 </r>
       <r>   8.6513   0.0000   8.0000 </r>
       <r>   8.7197   0.0000   8.0000 </r>
       <r>   8.7880   0.0000   8.0000 </r>
       <r>   8.8564   0.0000   8.0000 </r>
       <r>   8.9247   0.0000   8.0000 </r>
       <r>   8.9931   0.0000   8.0000 </r>
       <r>   9.0615   0.0000   8.0000 </r>
       <r>   9.1298   0.0000   8.0000 </r>
       <r>   9.1982   0.0000   8.0000 </r>
       <r>   9.2665   0.0000   8.0000 </r>
       <r>   9.3349   0.0000   8.0000 </r>
       <r>   9.4033  -0.0002   8.0000 </r>
       <r>   9.4716  -0.0011   7.9999 </r>
       <r>   9.5400  -0.0065   7.9995 </r>
       <r>   9.6083  -0.0281   7.9975 </r>
       <r>   9.6767  -0.0881   7.9915 </r>
       <r>   9.7451  -0.1866   7.9788 </r>
       <r>   9.8134  -0.1972   7.9653 </r>
       <r>   9.8818   0.2148   7.9800 </r>
       <r>   9.9501   1.3644   8.0732 </r>
       <r>  10.0185   2.9776   8.2768 </r>
       <r>  10.0868   4.0277   8.5521 </r>
       <r>  10.1552   3.6297   8.8002 </r>
       <r>  10.2236   2.1122   8.9446 </r>
       <r>  10.2919   0.8243   9.0010 </r>
       <r>  10.3603   0.8709   9.0605 </r>
       <r>  10.4286   2.1453   9.2072 </r>
       <r>  10.4970   3.4755   9.4447 </r>
       <r>  10.5654   3.8302   9.7066 </r>
       <r>  10.6337   3.4966   9.9456 </r>
       <r>  10.7021   3.6924  10.1980 </r>
       <r>  10.7704   4.9306  10.5350 </r>
       <r>  10.8388   6.3073  10.9662 </r>
       <r>  10.9072   6.5012  11.4106 </r>
       <r>  10.9755   5.0495  11.7558 </r>
       <r>  11.0439   2.6601  11.9376 </r>
       <r>  11.1122   0.6567  11.9825 </r>
       <r>  11.1806   0.2316  11.9984 </r>
       <r>  11.2489   1.8821  12.1270 </r>
       <r>  11.3173   4.9275  12.4639 </r>
       <r>  11.3857   7.4761  12.9749 </r>
       <r>  11.4540   7.6711  13.4993 </r>
       <r>  11.5224   5.4221  13.8699 </r>
       <r>  11.5907   2.4304  14.0361 </r>
       <r>  11.6591   0.3845  14.0624 </r>
       <r>  11.7275  -0.3459  14.0387 </r>
       <r>  11.7958  -0.3346  14.0159 </r>
       <r>  11.8642  -0.1624  14.0047 </r>
       <r>  11.9325  -0.0537  14.0011 </r>
       <r>  12.0009  -0.0130  14.0002 </r>
       <r>  12.0693  -0.0024  14.0000 </r>
       <r>  12.1376  -0.0003  14.0000 </r>
       <r>  12.2060   0.0000  14.0000 </r>
       <r>  12.2743   0.0000  14.0000 </r>
       <r>  12.3427   0.0000  14.0000 </r>
       <r>  12.4110   0.0000  14.0000 </r>
       <r>  12.4794   0.0000  14.0000 </r>
       <r>  12.5478   0.0000  14.0000 </r>
       <r>  12.6161   0.0000  14.0000 </r>
       <r>  12.6845   0.0000  14.0000 </r>
       <r>  12.7528   0.0000  14.0000 </r>
       <r>  12.8212   0.0000  14.0000 </r>
       <r>  12.8896   0.0000  14.0000 </r>
       <r>  12.9579   0.0000  14.0000 </r>
       <r>  13.0263   0.0000  14.0000 </r>
       <r>  13.0946   0.0000  14.0000 </r>
       <r>  13.1630   0.0000  14.0000 </r>
       <r>  13.2314   0.0000  14.0000 </r>
       <r>  13.2997   0.0000  14.0000 </r>
       <r>  13.3681   0.0000  14.0000 </r>
       <r>  13.4364   0.0000  14.0000 </r>
       <r>  13.5048   0.0000  14.0000 </r>
       <r>  13.5732   0.0000  14.0000 </r>
       <r>  13.6415   0.0000  14.0000 </r>
       <r>  13.7099   0.0000  14.0000 </r>
       <r>  13.7782   0.0000  14.0000 </r>
       <r>  13.8466   0.0000  14.0000 </r>
       <r>  13.9149   0.0000  14.0000 </r>
       <r>  13.9833   0.0000  14.0000 </r>
       <r>  14.0517   0.0000  14.0000 </r>
       <r>  14.1200   0.0000  14.0000 </r>
       <r>  14.1884   0.0000  14.0000 </r>
       <r>  14.2567   0.0000  14.0000 </r>
       <r>  14.3251   0.0000  14.0000 </r>
       <r>  14.3935   0.0000  14.0000 </r>
       <r>  14.4618   0.0000  14.0000 </r>
       <r>  14.5302   0.0000  14.0000 </r>
       <r>  14.5985   0.0000  14.0000 </r>
       <r>  14.6669   0.0000  14.0000 </r>
       <r>  14.7353   0.0000  14.0000 </r>
       <r>  14.8036   0.0000  14.0000 </r>
       <r>  14.8720   0.0000  14.0000 </r>
       <r>  14.9403   0.0000  14.0000 </r>
       <r>  15.0087   0.0000  14.0000 </r>
       <r>  15.0770   0.0000  14.0000 </r>
       <r>  15.1454  -0.0001  14.0000 </r>
       <r>  15.2138  -0.0005  14.0000 </r>
       <r>  15.2821  -0.0033  13.9997 </r>
       <r>  15.3505  -0.0176  13.9985 </r>
       <r>  15.4188  -0.0713  13.9937 </r>
       <r>  15.4872  -0.2089  13.9794 </r>
       <r>  15.5556  -0.4022  13.9519 </r>
       <r>  15.6239  -0.3252  13.9297 </r>
       <r>  15.6923   0.7414  13.9803 </r>
       <r>  15.7606   3.3009  14.2060 </r>
       <r>  15.8290   6.5229  14.6519 </r>
       <r>  15.8974   8.2808  15.2180 </r>
       <r>  15.9657   7.1558  15.7071 </r>
       <r>  16.0341   4.0724  15.9855 </r>
       <r>  16.1024   1.2154  16.0686 </r>
       <r>  16.1708  -0.1924  16.0554 </r>
       <r>  16.2391  -0.4300  16.0260 </r>
       <r>  16.3075  -0.2549  16.0086 </r>
       <r>  16.3759  -0.0950  16.0021 </r>
       <r>  16.4442  -0.0252  16.0004 </r>
       <r>  16.5126  -0.0050  16.0001 </r>
       <r>  16.5809  -0.0008  16.0000 </r>
       <r>  16.6493  -0.0001  16.0000 </r>
       <r>  16.7177   0.0000  16.0000 </r>
       <r>  16.7860   0.0000  16.0000 </r>
       <r>  16.8544   0.0000  16.0000 </r>
       <r>  16.9227   0.0000  16.0000 </r>
       <r>  16.9911   0.0000  16.0000 </r>
       <r>  17.0595   0.0000  16.0000 </r>
       <r>  17.1278   0.0000  16.0000 </r>
       <r>  17.1962   0.0000  16.0000 </r>
       <r>  17.2645   0.0000  16.0000 </r>
       <r>  17.3329   0.0000  16.0000 </r>
       <r>  17.4013   0.0000  16.0000 </r>
       <r>  17.4696   0.0000  16.0000 </r>
       <r>  17.5380   0.0000  16.0000 </r>
       <r>  17.6063   0.0000  16.0000 </r>
       <r>  17.6747   0.0000  16.0000 </r>
       <r>  17.7430   0.0000  16.0000 </r>
       <r>  17.8114   0.0000  16.0000 </r>
       <r>  17.8798   0.0000  16.0000 </r>
      </set>
     </set>
    </array>
   </total>
  </dos>
 </calculation>
 <structure name="finalpos" >
  <crystal>
   <varray name="basis" >
    <v>       3.50000000       0.00000000       0.00000000 </v>
    <v>       0.00000000       3.50000000       0.00000000 </v>
    <v>       0.00000000       0.00000000       3.50000000 </v>
   </varray>
   <i name="volume">     42.87500000 </i>
   <varray name="rec_basis" >
    <v>       0.28571429       0.00000000       0.00000000 </v>
    <v>       0.00000000       0.28571429       0.00000000 </v>
    <v>       0.00000000       0.00000000       0.28571429 </v>
   </varray>
  </crystal>
  <varray name="positions" >
   <v>       0.24714286       0.25000000       0.00000000 </v>
   <v>       0.96804500       0.53195500       0.50000000 </v>
   <v>       0.53195500       0.96804500       0.50000000 </v>
  </varray>
  <varray name="selective"  type="logical" >
   <v type="logical" >  T  F  F </v>
   <v type="logical" >  F  F  F </v>
   <v type="logical" >  F  F  F </v>
  </varray>
  <nose>
   <v>      -3.00000000       0.00000000       0.00010000       0.00010000 </v>
  </nose>
 </structure>
</modeling>
