   3   3   0   0
  0.1535906E+02  0.3585051E-09  0.3585051E-09  0.3585051E-09  0.5000000E-15
  1.000000000000000E-004
  CAR 
 unknown system                          
      7.16831657     -5.45300766  301      4.02935748      1.00000000
     -5.453  0.0000E+00  0.0000E+00
     -5.411  0.0000E+00  0.0000E+00
     -5.369  0.0000E+00  0.0000E+00
     -5.327  0.0000E+00  0.0000E+00
     -5.285  0.0000E+00  0.0000E+00
     -5.243  0.0000E+00  0.0000E+00
     -5.201  0.0000E+00  0.0000E+00
     -5.159  0.0000E+00  0.0000E+00
     -5.116  0.0000E+00  0.0000E+00
     -5.074 -0.3121E-26 -0.1313E-27
     -5.032 -0.8497E-25 -0.3706E-26
     -4.990 -0.2186E-23 -0.9567E-25
     -4.948 -0.5141E-22 -0.2259E-23
     -4.906 -0.1105E-20 -0.4877E-22
     -4.864 -0.2173E-19 -0.9630E-21
     -4.822 -0.3905E-18 -0.1739E-19
     -4.780 -0.6412E-17 -0.2872E-18
     -4.738 -0.9624E-16 -0.4336E-17
     -4.696 -0.1320E-14 -0.5986E-16
     -4.654 -0.1654E-13 -0.7556E-15
     -4.612 -0.1840E-12 -0.8496E-14
     -4.570 -0.1915E-11 -0.8907E-13
     -4.527 -0.1824E-10 -0.8563E-12
     -4.485 -0.1585E-09 -0.7523E-11
     -4.443 -0.1256E-08 -0.6037E-10
     -4.401 -0.9081E-08 -0.4424E-09
     -4.359 -0.5984E-07 -0.2960E-08
     -4.317 -0.3593E-06 -0.1808E-07
     -4.275 -0.1965E-05 -0.1007E-06
     -4.233 -0.9775E-05 -0.5120E-06
     -4.191 -0.4421E-04 -0.2372E-05
     -4.149 -0.1816E-03 -0.1001E-04
     -4.107 -0.6762E-03 -0.3846E-04
     -4.065 -0.2279E-02 -0.1344E-03
     -4.023 -0.6937E-02 -0.4262E-03
     -3.981 -0.1900E-01 -0.1226E-02
     -3.938 -0.4660E-01 -0.3186E-02
     -3.896 -0.1016E+00 -0.7462E-02
     -3.854 -0.1948E+00 -0.1566E-01
     -3.812 -0.3210E+00 -0.2916E-01
     -3.770 -0.4347E+00 -0.4745E-01
     -3.728 -0.4235E+00 -0.6526E-01
     -3.686 -0.1061E+00 -0.6973E-01
     -3.644  0.7177E+00 -0.3953E-01
     -3.602  0.2156E+01  0.5117E-01
     -3.560  0.4098E+01  0.2236E+00
     -3.518  0.6159E+01  0.4827E+00
     -3.476  0.7770E+01  0.8096E+00
     -3.434  0.8410E+01  0.1163E+01
     -3.392  0.7859E+01  0.1494E+01
     -3.349  0.6307E+01  0.1759E+01
     -3.307  0.4260E+01  0.1939E+01
     -3.265  0.2291E+01  0.2035E+01
     -3.223  0.8066E+00  0.2069E+01
     -3.181 -0.6283E-01  0.2066E+01
     -3.139 -0.4126E+00  0.2049E+01
     -3.097 -0.4402E+00  0.2030E+01
     -3.055 -0.3312E+00  0.2016E+01
     -3.013 -0.2036E+00  0.2008E+01
     -2.971 -0.1074E+00  0.2003E+01
     -2.929 -0.4971E-01  0.2001E+01
     -2.887 -0.2044E-01  0.2000E+01
     -2.845 -0.7527E-02  0.2000E+01
     -2.803 -0.2493E-02  0.2000E+01
     -2.760 -0.7453E-03  0.2000E+01
     -2.718 -0.2017E-03  0.2000E+01
     -2.676 -0.4947E-04  0.2000E+01
     -2.634 -0.1102E-04  0.2000E+01
     -2.592 -0.2231E-05  0.2000E+01
     -2.550 -0.4111E-06  0.2000E+01
     -2.508 -0.6895E-07  0.2000E+01
     -2.466 -0.1054E-07  0.2000E+01
     -2.424 -0.1468E-08  0.2000E+01
     -2.382 -0.1865E-09  0.2000E+01
     -2.340 -0.2163E-10  0.2000E+01
     -2.298 -0.2280E-11  0.2000E+01
     -2.256 -0.2217E-12  0.2000E+01
     -2.214 -0.2111E-13  0.2000E+01
     -2.171  0.0000E+00  0.2000E+01
     -2.129  0.0000E+00  0.2000E+01
     -2.087  0.0000E+00  0.2000E+01
     -2.045  0.0000E+00  0.2000E+01
     -2.003  0.0000E+00  0.2000E+01
     -1.961  0.0000E+00  0.2000E+01
     -1.919  0.0000E+00  0.2000E+01
     -1.877  0.0000E+00  0.2000E+01
     -1.835  0.0000E+00  0.2000E+01
     -1.793  0.0000E+00  0.2000E+01
     -1.751  0.0000E+00  0.2000E+01
     -1.709  0.0000E+00  0.2000E+01
     -1.667  0.0000E+00  0.2000E+01
     -1.625 -0.1017E-26  0.2000E+01
     -1.582 -0.2854E-25  0.2000E+01
     -1.540 -0.7561E-24  0.2000E+01
     -1.498 -0.1832E-22  0.2000E+01
     -1.456 -0.4057E-21  0.2000E+01
     -1.414 -0.8214E-20  0.2000E+01
     -1.372 -0.1520E-18  0.2000E+01
     -1.330 -0.2572E-17  0.2000E+01
     -1.288 -0.3977E-16  0.2000E+01
     -1.246 -0.5619E-15  0.2000E+01
     -1.204 -0.7253E-14  0.2000E+01
     -1.162 -0.8289E-13  0.2000E+01
     -1.120 -0.8923E-12  0.2000E+01
     -1.078 -0.8759E-11  0.2000E+01
     -1.036 -0.7843E-10  0.2000E+01
     -0.993 -0.6409E-09  0.2000E+01
     -0.951 -0.4776E-08  0.2000E+01
     -0.909 -0.3245E-07  0.2000E+01
     -0.867 -0.2010E-06  0.2000E+01
     -0.825 -0.1133E-05  0.2000E+01
     -0.783 -0.5818E-05  0.2000E+01
     -0.741 -0.2716E-04  0.2000E+01
     -0.699 -0.1152E-03  0.2000E+01
     -0.657 -0.4430E-03  0.2000E+01
     -0.615 -0.1544E-02  0.2000E+01
     -0.573 -0.4861E-02  0.2000E+01
     -0.531 -0.1379E-01  0.1999E+01
     -0.489 -0.3511E-01  0.1998E+01
     -0.447 -0.7969E-01  0.1994E+01
     -0.404 -0.1597E+00  0.1988E+01
     -0.362 -0.2779E+00  0.1976E+01
     -0.320 -0.4057E+00  0.1959E+01
     -0.278 -0.4565E+00  0.1940E+01
     -0.236 -0.2730E+00  0.1928E+01
     -0.194  0.3411E+00  0.1942E+01
     -0.152  0.1528E+01  0.2007E+01
     -0.110  0.3249E+01  0.2143E+01
     -0.068  0.5207E+01  0.2363E+01
     -0.026  0.6909E+01  0.2653E+01
      0.016  0.7883E+01  0.2985E+01
      0.058  0.7957E+01  0.3320E+01
      0.100  0.7390E+01  0.3631E+01
      0.142  0.6745E+01  0.3914E+01
      0.185  0.6550E+01  0.4190E+01
      0.227  0.6957E+01  0.4483E+01
      0.269  0.7645E+01  0.4804E+01
      0.311  0.8027E+01  0.5142E+01
      0.353  0.7621E+01  0.5463E+01
      0.395  0.6330E+01  0.5729E+01
      0.437  0.4461E+01  0.5917E+01
      0.479  0.2522E+01  0.6023E+01
      0.521  0.9387E+00  0.6062E+01
      0.563 -0.1016E+00  0.6058E+01
      0.605 -0.6467E+00  0.6031E+01
      0.647 -0.8484E+00  0.5995E+01
      0.689 -0.8144E+00  0.5961E+01
      0.731 -0.5218E+00  0.5939E+01
      0.774  0.1698E+00  0.5946E+01
      0.816  0.1410E+01  0.6005E+01
      0.858  0.3200E+01  0.6140E+01
      0.900  0.5279E+01  0.6362E+01
      0.942  0.7137E+01  0.6662E+01
      0.984  0.8193E+01  0.7007E+01
      1.026  0.8065E+01  0.7346E+01
      1.068  0.6770E+01  0.7631E+01
      1.110  0.4737E+01  0.7830E+01
      1.152  0.2640E+01  0.7941E+01
      1.194  0.1148E+01  0.7990E+01
      1.236  0.7129E+00  0.8020E+01
      1.278  0.1464E+01  0.8081E+01
      1.320  0.3177E+01  0.8215E+01
      1.363  0.5327E+01  0.8439E+01
      1.405  0.7220E+01  0.8743E+01
      1.447  0.8225E+01  0.9089E+01
      1.489  0.8014E+01  0.9426E+01
      1.531  0.6691E+01  0.9707E+01
      1.573  0.4722E+01  0.9906E+01
      1.615  0.2699E+01  0.1002E+02
      1.657  0.1086E+01  0.1007E+02
      1.699  0.7711E-01  0.1007E+02
      1.741 -0.3827E+00  0.1005E+02
      1.783 -0.4877E+00  0.1003E+02
      1.825 -0.4480E+00  0.1001E+02
      1.867 -0.4203E+00  0.9995E+01
      1.909 -0.4882E+00  0.9975E+01
      1.952 -0.6598E+00  0.9947E+01
      1.994 -0.8513E+00  0.9911E+01
      2.036 -0.8598E+00  0.9875E+01
      2.078 -0.3618E+00  0.9860E+01
      2.120  0.1009E+01  0.9902E+01
      2.162  0.3487E+01  0.1005E+02
      2.204  0.6972E+01  0.1034E+02
      2.246  0.1093E+02  0.1080E+02
      2.288  0.1451E+02  0.1141E+02
      2.330  0.1691E+02  0.1212E+02
      2.372  0.1773E+02  0.1287E+02
      2.414  0.1713E+02  0.1359E+02
      2.456  0.1571E+02  0.1425E+02
      2.498  0.1416E+02  0.1485E+02
      2.540  0.1293E+02  0.1539E+02
      2.583  0.1209E+02  0.1590E+02
      2.625  0.1142E+02  0.1638E+02
      2.667  0.1055E+02  0.1682E+02
      2.709  0.9247E+01  0.1721E+02
      2.751  0.7564E+01  0.1753E+02
      2.793  0.5869E+01  0.1778E+02
      2.835  0.4689E+01  0.1798E+02
      2.877  0.4432E+01  0.1816E+02
      2.919  0.5147E+01  0.1838E+02
      2.961  0.6507E+01  0.1865E+02
      3.003  0.7996E+01  0.1899E+02
      3.045  0.9198E+01  0.1938E+02
      3.087  0.9947E+01  0.1979E+02
      3.129  0.1027E+02  0.2023E+02
      3.172  0.1018E+02  0.2065E+02
      3.214  0.9637E+01  0.2106E+02
      3.256  0.8509E+01  0.2142E+02
      3.298  0.6813E+01  0.2170E+02
      3.340  0.4773E+01  0.2191E+02
      3.382  0.2767E+01  0.2202E+02
      3.424  0.1150E+01  0.2207E+02
      3.466  0.9652E-01  0.2207E+02
      3.508 -0.4296E+00  0.2206E+02
      3.550 -0.6084E+00  0.2203E+02
      3.592 -0.6506E+00  0.2200E+02
      3.634 -0.7076E+00  0.2197E+02
      3.676 -0.8185E+00  0.2194E+02
      3.718 -0.8803E+00  0.2190E+02
      3.761 -0.6406E+00  0.2188E+02
      3.803  0.2580E+00  0.2189E+02
      3.845  0.2147E+01  0.2198E+02
      3.887  0.5126E+01  0.2219E+02
      3.929  0.8868E+01  0.2257E+02
      3.971  0.1259E+02  0.2309E+02
      4.013  0.1526E+02  0.2374E+02
      4.055  0.1602E+02  0.2441E+02
      4.097  0.1459E+02  0.2502E+02
      4.139  0.1138E+02  0.2550E+02
      4.181  0.7323E+01  0.2581E+02
      4.223  0.3529E+01  0.2596E+02
      4.265  0.9093E+00  0.2600E+02
      4.307  0.2158E-01  0.2600E+02
      4.350  0.1046E+01  0.2604E+02
      4.392  0.3792E+01  0.2620E+02
      4.434  0.7677E+01  0.2653E+02
      4.476  0.1175E+02  0.2702E+02
      4.518  0.1489E+02  0.2765E+02
      4.560  0.1615E+02  0.2833E+02
      4.602  0.1517E+02  0.2896E+02
      4.644  0.1231E+02  0.2948E+02
      4.686  0.8465E+01  0.2984E+02
      4.728  0.4671E+01  0.3003E+02
      4.770  0.1677E+01  0.3010E+02
      4.812 -0.2250E+00  0.3010E+02
      4.854 -0.1120E+01  0.3005E+02
      4.896 -0.1230E+01  0.3000E+02
      4.939 -0.7157E+00  0.2997E+02
      4.981  0.3861E+00  0.2998E+02
      5.023  0.2060E+01  0.3007E+02
      5.065  0.4148E+01  0.3024E+02
      5.107  0.6259E+01  0.3051E+02
      5.149  0.7840E+01  0.3084E+02
      5.191  0.8404E+01  0.3119E+02
      5.233  0.7768E+01  0.3152E+02
      5.275  0.6159E+01  0.3178E+02
      5.317  0.4098E+01  0.3195E+02
      5.359  0.2156E+01  0.3204E+02
      5.401  0.7176E+00  0.3207E+02
      5.443 -0.1061E+00  0.3207E+02
      5.485 -0.4235E+00  0.3205E+02
      5.528 -0.4347E+00  0.3203E+02
      5.570 -0.3210E+00  0.3202E+02
      5.612 -0.1948E+00  0.3201E+02
      5.654 -0.1016E+00  0.3200E+02
      5.696 -0.4660E-01  0.3200E+02
      5.738 -0.1900E-01  0.3200E+02
      5.780 -0.6937E-02  0.3200E+02
      5.822 -0.2279E-02  0.3200E+02
      5.864 -0.6762E-03  0.3200E+02
      5.906 -0.1816E-03  0.3200E+02
      5.948 -0.4421E-04  0.3200E+02
      5.990 -0.9775E-05  0.3200E+02
      6.032 -0.1965E-05  0.3200E+02
      6.074 -0.3593E-06  0.3200E+02
      6.117 -0.5984E-07  0.3200E+02
      6.159 -0.9081E-08  0.3200E+02
      6.201 -0.1256E-08  0.3200E+02
      6.243 -0.1585E-09  0.3200E+02
      6.285 -0.1823E-10  0.3200E+02
      6.327 -0.1921E-11  0.3200E+02
      6.369 -0.1794E-12  0.3200E+02
      6.411 -0.2111E-13  0.3200E+02
      6.453  0.0000E+00  0.3200E+02
      6.495  0.0000E+00  0.3200E+02
      6.537  0.0000E+00  0.3200E+02
      6.579  0.0000E+00  0.3200E+02
      6.621  0.0000E+00  0.3200E+02
      6.663  0.0000E+00  0.3200E+02
      6.706  0.0000E+00  0.3200E+02
      6.748  0.0000E+00  0.3200E+02
      6.790  0.0000E+00  0.3200E+02
      6.832  0.0000E+00  0.3200E+02
      6.874  0.0000E+00  0.3200E+02
      6.916  0.0000E+00  0.3200E+02
      6.958  0.0000E+00  0.3200E+02
      7.000  0.0000E+00  0.3200E+02
      7.042  0.0000E+00  0.3200E+02
      7.084  0.0000E+00  0.3200E+02
      7.126  0.0000E+00  0.3200E+02
      7.168  0.0000E+00  0.3200E+02
