   7   7   0   0
  0.2544720E+02  0.5626600E-09  0.5626600E-09  0.5626600E-09  0.5000000E-15
  1.000000000000000E-004
  CAR 
 unknown system                          
      9.75394515    -14.51430497  301      2.30747845      1.00000000
    -14.514  0.0000E+00  0.0000E+00  0.0000E+00  0.0000E+00
    -14.433  0.0000E+00  0.0000E+00  0.0000E+00  0.0000E+00
    -14.353  0.0000E+00  0.0000E+00  0.0000E+00  0.0000E+00
    -14.272  0.0000E+00  0.0000E+00  0.0000E+00  0.0000E+00
    -14.191 -0.8961E-31  0.0000E+00 -0.7249E-32  0.0000E+00
    -14.110 -0.7873E-28 -0.2701E-28 -0.6376E-29 -0.2185E-29
    -14.029 -0.4125E-25 -0.1500E-25 -0.3343E-26 -0.1215E-26
    -13.948 -0.1557E-22 -0.5994E-23 -0.1263E-23 -0.4861E-24
    -13.867 -0.4238E-20 -0.1726E-20 -0.3441E-21 -0.1401E-21
    -13.786 -0.8309E-18 -0.3584E-18 -0.6756E-19 -0.2913E-19
    -13.705 -0.1174E-15 -0.5362E-16 -0.9565E-17 -0.4366E-17
    -13.624 -0.1158E-13 -0.5601E-14 -0.9463E-15 -0.4575E-15
    -13.544 -0.8445E-12 -0.4330E-12 -0.6926E-13 -0.3549E-13
    -13.463 -0.4431E-10 -0.2408E-10 -0.3654E-11 -0.1984E-11
    -13.382 -0.1671E-08 -0.9630E-09 -0.1389E-09 -0.7989E-10
    -13.301 -0.4526E-07 -0.2767E-07 -0.3800E-08 -0.2318E-08
    -13.220 -0.8788E-06 -0.5702E-06 -0.7489E-07 -0.4844E-07
    -13.139 -0.1220E-04 -0.8410E-05 -0.1062E-05 -0.7288E-06
    -13.058 -0.1205E-03 -0.8838E-04 -0.1081E-04 -0.7878E-05
    -12.977 -0.8399E-03 -0.6562E-03 -0.7875E-04 -0.6096E-04
    -12.896 -0.4050E-02 -0.3383E-02 -0.4064E-03 -0.3346E-03
    -12.816 -0.1288E-01 -0.1160E-01 -0.1448E-02 -0.1273E-02
    -12.735 -0.2296E-01 -0.2314E-01 -0.3305E-02 -0.3145E-02
    -12.654 -0.8490E-03 -0.8576E-02 -0.3374E-02 -0.3838E-02
    -12.573  0.1157E+00  0.9578E-01  0.5984E-02  0.3910E-02
    -12.492  0.3382E+00  0.3148E+00  0.3334E-01  0.2937E-01
    -12.411  0.5364E+00  0.5290E+00  0.7673E-01  0.7217E-01
    -12.330  0.5322E+00  0.5482E+00  0.1198E+00  0.1165E+00
    -12.249  0.3253E+00  0.3496E+00  0.1461E+00  0.1448E+00
    -12.168  0.9970E-01  0.1148E+00  0.1542E+00  0.1541E+00
    -12.087 -0.1060E-01 -0.6995E-02  0.1533E+00  0.1535E+00
    -12.007 -0.2498E-01 -0.2602E-01  0.1513E+00  0.1514E+00
    -11.926 -0.1194E-01 -0.1304E-01  0.1503E+00  0.1504E+00
    -11.845 -0.3268E-02 -0.3676E-02  0.1501E+00  0.1501E+00
    -11.764 -0.5855E-03 -0.6741E-03  0.1500E+00  0.1500E+00
    -11.683 -0.7177E-04 -0.8439E-04  0.1500E+00  0.1500E+00
    -11.602 -0.6146E-05 -0.7370E-05  0.1500E+00  0.1500E+00
    -11.521 -0.3719E-06 -0.4543E-06  0.1500E+00  0.1500E+00
    -11.440 -0.1600E-07 -0.1990E-07  0.1500E+00  0.1500E+00
    -11.359 -0.4914E-09 -0.6221E-09  0.1500E+00  0.1500E+00
    -11.279 -0.1081E-10 -0.1392E-10  0.1500E+00  0.1500E+00
    -11.198 -0.1706E-12 -0.2233E-12  0.1500E+00  0.1500E+00
    -11.117 -0.1921E-14 -0.2635E-14  0.1500E+00  0.1500E+00
    -11.036  0.0000E+00  0.0000E+00  0.1500E+00  0.1500E+00
    -10.955 -0.7688E-30  0.0000E+00  0.1500E+00  0.1500E+00
    -10.874 -0.4913E-27  0.0000E+00  0.1500E+00  0.1500E+00
    -10.793 -0.2260E-24 -0.4078E-30  0.1500E+00  0.1500E+00
    -10.712 -0.7468E-22 -0.2689E-27  0.1500E+00  0.1500E+00
    -10.631 -0.1773E-19 -0.1276E-24  0.1500E+00  0.1500E+00
    -10.550 -0.3022E-17 -0.4354E-22  0.1500E+00  0.1500E+00
    -10.470 -0.3558E-15 -0.1067E-19  0.1500E+00  0.1500E+00
    -10.389 -0.3131E-13 -0.1877E-17  0.1500E+00  0.1500E+00
    -10.308 -0.1953E-11 -0.2301E-15  0.1500E+00  0.1500E+00
    -10.227 -0.8700E-10 -0.2073E-13  0.1500E+00  0.1500E+00
    -10.146 -0.2759E-08 -0.1336E-11  0.1500E+00  0.1500E+00
    -10.065 -0.6203E-07 -0.6145E-10  0.1500E+00  0.1500E+00
     -9.984 -0.9836E-06 -0.2013E-08  0.1500E+00  0.1500E+00
     -9.903 -0.1090E-04 -0.4678E-07  0.1500E+00  0.1500E+00
     -9.822 -0.8319E-04 -0.7671E-06  0.1500E+00  0.1500E+00
     -9.742 -0.4248E-03 -0.8802E-05  0.1500E+00  0.1500E+00
     -9.661 -0.1358E-02 -0.6968E-04  0.1498E+00  0.1500E+00
     -9.580 -0.2153E-02 -0.3704E-03  0.1497E+00  0.1500E+00
     -9.499  0.1323E-02 -0.1245E-02  0.1498E+00  0.1499E+00
     -9.418  0.1449E-01 -0.2165E-02  0.1510E+00  0.1497E+00
     -9.337  0.3327E-01  0.6284E-03  0.1536E+00  0.1497E+00
     -9.256  0.4126E-01  0.1281E-01  0.1570E+00  0.1508E+00
     -9.175  0.2985E-01  0.3165E-01  0.1594E+00  0.1533E+00
     -9.094  0.1111E-01  0.4137E-01  0.1603E+00  0.1567E+00
     -9.014 -0.5450E-05  0.3156E-01  0.1603E+00  0.1592E+00
     -8.933 -0.2145E-02  0.1272E-01  0.1601E+00  0.1603E+00
     -8.852 -0.1130E-02  0.5923E-03  0.1600E+00  0.1603E+00
     -8.771 -0.3310E-03 -0.2165E-02  0.1600E+00  0.1601E+00
     -8.690 -0.1581E-03 -0.1239E-02  0.1600E+00  0.1600E+00
     -8.609 -0.5809E-03 -0.3734E-03  0.1599E+00  0.1600E+00
     -8.528 -0.2105E-02 -0.1246E-03  0.1598E+00  0.1600E+00
     -8.447 -0.4255E-02 -0.3665E-03  0.1594E+00  0.1600E+00
     -8.366 -0.9675E-03 -0.1509E-02  0.1594E+00  0.1598E+00
     -8.285  0.1918E-01 -0.3746E-02  0.1609E+00  0.1595E+00
     -8.205  0.5521E-01 -0.3148E-02  0.1654E+00  0.1593E+00
     -8.124  0.8067E-01  0.1117E-01  0.1719E+00  0.1602E+00
     -8.043  0.7495E-01  0.4441E-01  0.1780E+00  0.1638E+00
     -7.962  0.5500E-01  0.7599E-01  0.1824E+00  0.1699E+00
     -7.881  0.4316E-01  0.7744E-01  0.1859E+00  0.1762E+00
     -7.800  0.3375E-01  0.5602E-01  0.1886E+00  0.1807E+00
     -7.719  0.1794E-01  0.4179E-01  0.1901E+00  0.1841E+00
     -7.638  0.3601E-02  0.3793E-01  0.1904E+00  0.1872E+00
     -7.557 -0.1972E-02  0.2764E-01  0.1902E+00  0.1894E+00
     -7.477 -0.1782E-02  0.1100E-01  0.1901E+00  0.1903E+00
     -7.396 -0.6665E-03  0.1461E-03  0.1900E+00  0.1903E+00
     -7.315 -0.1506E-03 -0.2211E-02  0.1900E+00  0.1901E+00
     -7.234 -0.2247E-04 -0.1221E-02  0.1900E+00  0.1900E+00
     -7.153 -0.2292E-05 -0.3576E-03  0.1900E+00  0.1900E+00
     -7.072 -0.1628E-06 -0.6652E-04  0.1900E+00  0.1900E+00
     -6.991 -0.8130E-08 -0.8324E-05  0.1900E+00  0.1900E+00
     -6.910 -0.2875E-09 -0.7189E-06  0.1900E+00  0.1900E+00
     -6.829 -0.7231E-11 -0.4345E-07  0.1900E+00  0.1900E+00
     -6.748 -0.1297E-12 -0.1854E-08  0.1900E+00  0.1900E+00
     -6.668 -0.1647E-14 -0.5612E-10  0.1900E+00  0.1900E+00
     -6.587 -0.2745E-16 -0.1210E-11  0.1900E+00  0.1900E+00
     -6.506  0.0000E+00 -0.1861E-13  0.1900E+00  0.1900E+00
     -6.425  0.0000E+00 -0.2196E-15  0.1900E+00  0.1900E+00
     -6.344  0.0000E+00  0.0000E+00  0.1900E+00  0.1900E+00
     -6.263  0.0000E+00  0.0000E+00  0.1900E+00  0.1900E+00
     -6.182  0.0000E+00  0.0000E+00  0.1900E+00  0.1900E+00
     -6.101  0.0000E+00  0.0000E+00  0.1900E+00  0.1900E+00
     -6.020  0.0000E+00  0.0000E+00  0.1900E+00  0.1900E+00
     -5.940  0.0000E+00  0.0000E+00  0.1900E+00  0.1900E+00
     -5.859  0.0000E+00  0.0000E+00  0.1900E+00  0.1900E+00
     -5.778  0.0000E+00  0.0000E+00  0.1900E+00  0.1900E+00
     -5.697  0.0000E+00  0.0000E+00  0.1900E+00  0.1900E+00
     -5.616  0.0000E+00  0.0000E+00  0.1900E+00  0.1900E+00
     -5.535  0.0000E+00  0.0000E+00  0.1900E+00  0.1900E+00
     -5.454  0.0000E+00  0.0000E+00  0.1900E+00  0.1900E+00
     -5.373  0.0000E+00  0.0000E+00  0.1900E+00  0.1900E+00
     -5.292 -0.7342E-29  0.0000E+00  0.1900E+00  0.1900E+00
     -5.211 -0.4338E-26 -0.2435E-29  0.1900E+00  0.1900E+00
     -5.131 -0.1845E-23 -0.1520E-26  0.1900E+00  0.1900E+00
     -5.050 -0.5636E-21 -0.6834E-24  0.1900E+00  0.1900E+00
     -4.969 -0.1237E-18 -0.2208E-21  0.1900E+00  0.1900E+00
     -4.888 -0.1949E-16 -0.5122E-19  0.1900E+00  0.1900E+00
     -4.807 -0.2134E-14 -0.8531E-17  0.1900E+00  0.1900E+00
     -4.726 -0.1721E-12 -0.9919E-15  0.1900E+00  0.1900E+00
     -4.645 -0.9917E-11 -0.8434E-13  0.1900E+00  0.1900E+00
     -4.564 -0.4076E-09 -0.5142E-11  0.1900E+00  0.1900E+00
     -4.483 -0.1192E-07 -0.2237E-09  0.1900E+00  0.1900E+00
     -4.403 -0.2468E-06 -0.6926E-08  0.1900E+00  0.1900E+00
     -4.322 -0.3598E-05 -0.1520E-06  0.1900E+00  0.1900E+00
     -4.241 -0.3656E-04 -0.2352E-05  0.1900E+00  0.1900E+00
     -4.160 -0.2545E-03 -0.2542E-04  0.1900E+00  0.1900E+00
     -4.079 -0.1173E-02 -0.1889E-03  0.1899E+00  0.1900E+00
     -3.998 -0.3287E-02 -0.9362E-03  0.1896E+00  0.1899E+00
     -3.917 -0.3904E-02 -0.2884E-02  0.1893E+00  0.1897E+00
     -3.836  0.6948E-02 -0.4244E-02  0.1899E+00  0.1893E+00
     -3.755  0.3786E-01  0.3779E-02  0.1929E+00  0.1896E+00
     -3.674  0.7357E-01  0.3152E-01  0.1989E+00  0.1922E+00
     -3.594  0.8032E-01  0.6875E-01  0.2054E+00  0.1977E+00
     -3.513  0.5072E-01  0.8213E-01  0.2095E+00  0.2044E+00
     -3.432  0.1499E-01  0.5714E-01  0.2107E+00  0.2090E+00
     -3.351 -0.2251E-02  0.1999E-01  0.2105E+00  0.2106E+00
     -3.270 -0.3985E-02 -0.7707E-03  0.2102E+00  0.2106E+00
     -3.189 -0.1752E-02 -0.4226E-02  0.2100E+00  0.2102E+00
     -3.108 -0.4414E-03 -0.2103E-02  0.2100E+00  0.2101E+00
     -3.027 -0.7230E-04 -0.5744E-03  0.2100E+00  0.2100E+00
     -2.946 -0.8677E-05 -0.1007E-03  0.2100E+00  0.2100E+00
     -2.866 -0.8169E-05 -0.1198E-04  0.2100E+00  0.2100E+00
     -2.785 -0.6135E-04 -0.1909E-05  0.2100E+00  0.2100E+00
     -2.704 -0.3353E-03 -0.1046E-04  0.2100E+00  0.2100E+00
     -2.623 -0.1167E-02 -0.8005E-04  0.2099E+00  0.2100E+00
     -2.542 -0.2155E-02 -0.4124E-03  0.2097E+00  0.2100E+00
     -2.461  0.1921E-03 -0.1333E-02  0.2097E+00  0.2099E+00
     -2.380  0.1166E-01 -0.2159E-02  0.2107E+00  0.2097E+00
     -2.299  0.3046E-01  0.1163E-02  0.2131E+00  0.2098E+00
     -2.218  0.4132E-01  0.1412E-01  0.2165E+00  0.2109E+00
     -2.137  0.3272E-01  0.3292E-01  0.2191E+00  0.2136E+00
     -2.057  0.1390E-01  0.4130E-01  0.2202E+00  0.2169E+00
     -1.976  0.1071E-02  0.3023E-01  0.2203E+00  0.2194E+00
     -1.895 -0.2161E-02  0.1146E-01  0.2201E+00  0.2203E+00
     -1.814 -0.1319E-02  0.1180E-03  0.2200E+00  0.2203E+00
     -1.733 -0.4053E-03 -0.2151E-02  0.2200E+00  0.2201E+00
     -1.652 -0.7825E-04 -0.1153E-02  0.2200E+00  0.2200E+00
     -1.571 -0.1012E-04 -0.3293E-03  0.2200E+00  0.2200E+00
     -1.490 -0.9062E-06 -0.5990E-04  0.2200E+00  0.2200E+00
     -1.409 -0.1435E-06 -0.7342E-05  0.2200E+00  0.2200E+00
     -1.329 -0.1459E-05 -0.6457E-06  0.2200E+00  0.2200E+00
     -1.248 -0.1706E-04 -0.5008E-06  0.2200E+00  0.2200E+00
     -1.167 -0.1388E-03 -0.6248E-05  0.2200E+00  0.2200E+00
     -1.086 -0.7662E-03 -0.5847E-04  0.2199E+00  0.2200E+00
     -1.005 -0.2735E-02 -0.3733E-03  0.2197E+00  0.2200E+00
     -0.924 -0.5435E-02 -0.1564E-02  0.2193E+00  0.2198E+00
     -0.843 -0.1261E-02 -0.3886E-02  0.2192E+00  0.2195E+00
     -0.762  0.2454E-01 -0.3433E-02  0.2211E+00  0.2192E+00
     -0.681  0.7314E-01  0.1068E-01  0.2271E+00  0.2201E+00
     -0.601  0.1123E+00  0.4451E-01  0.2361E+00  0.2237E+00
     -0.520  0.1053E+00  0.8077E-01  0.2447E+00  0.2302E+00
     -0.439  0.5997E-01  0.9252E-01  0.2495E+00  0.2377E+00
     -0.358  0.1637E-01  0.7682E-01  0.2508E+00  0.2439E+00
     -0.277 -0.2876E-02  0.5019E-01  0.2506E+00  0.2480E+00
     -0.196 -0.4697E-02  0.2442E-01  0.2502E+00  0.2500E+00
     -0.115 -0.2182E-02  0.5955E-02  0.2501E+00  0.2505E+00
     -0.034 -0.8106E-03 -0.1902E-02  0.2500E+00  0.2503E+00
      0.047 -0.1047E-02 -0.2496E-02  0.2499E+00  0.2501E+00
      0.128 -0.2346E-02 -0.1541E-02  0.2497E+00  0.2500E+00
      0.208 -0.2275E-02 -0.1744E-02  0.2495E+00  0.2498E+00
      0.289  0.5409E-02 -0.2202E-02  0.2500E+00  0.2497E+00
      0.370  0.2565E-01  0.1766E-02  0.2520E+00  0.2498E+00
      0.451  0.5187E-01  0.1509E-01  0.2562E+00  0.2510E+00
      0.532  0.6715E-01  0.3256E-01  0.2617E+00  0.2537E+00
      0.613  0.5987E-01  0.4024E-01  0.2665E+00  0.2569E+00
      0.694  0.3482E-01  0.3703E-01  0.2693E+00  0.2599E+00
      0.775  0.8453E-02  0.3662E-01  0.2700E+00  0.2629E+00
      0.856 -0.4210E-02  0.3923E-01  0.2697E+00  0.2660E+00
      0.936  0.5924E-02  0.3042E-01  0.2702E+00  0.2685E+00
      1.017  0.3950E-01  0.1204E-01  0.2733E+00  0.2695E+00
      1.098  0.7513E-01  0.7159E-02  0.2794E+00  0.2701E+00
      1.179  0.7898E-01  0.3166E-01  0.2858E+00  0.2726E+00
      1.260  0.4760E-01  0.6903E-01  0.2897E+00  0.2782E+00
      1.341  0.1282E-01  0.8109E-01  0.2907E+00  0.2848E+00
      1.422 -0.2790E-02  0.5475E-01  0.2905E+00  0.2892E+00
      1.503 -0.3837E-02  0.1811E-01  0.2902E+00  0.2907E+00
      1.584 -0.1598E-02 -0.1360E-02  0.2900E+00  0.2905E+00
      1.665 -0.3959E-03 -0.4153E-02  0.2900E+00  0.2902E+00
      1.745 -0.1322E-03 -0.1973E-02  0.2900E+00  0.2901E+00
      1.826 -0.4404E-03 -0.5235E-03  0.2900E+00  0.2900E+00
      1.907 -0.1731E-02 -0.9324E-04  0.2898E+00  0.2900E+00
      1.988 -0.3966E-02 -0.4839E-04  0.2895E+00  0.2900E+00
      2.069 -0.2330E-02 -0.2636E-03  0.2893E+00  0.2900E+00
      2.150  0.1468E-01 -0.1201E-02  0.2905E+00  0.2899E+00
      2.231  0.5029E-01 -0.3331E-02  0.2946E+00  0.2896E+00
      2.312  0.8016E-01 -0.3848E-02  0.3011E+00  0.2893E+00
      2.393  0.7386E-01  0.7337E-02  0.3070E+00  0.2899E+00
      2.473  0.3828E-01  0.3858E-01  0.3101E+00  0.2930E+00
      2.554  0.7174E-02  0.7406E-01  0.3107E+00  0.2990E+00
      2.635 -0.3872E-02  0.8004E-01  0.3104E+00  0.3055E+00
      2.716 -0.3313E-02  0.4999E-01  0.3101E+00  0.3095E+00
      2.797 -0.1189E-02  0.1447E-01  0.3100E+00  0.3107E+00
      2.878 -0.2593E-03 -0.2386E-02  0.3100E+00  0.3105E+00
      2.959 -0.3741E-04 -0.3952E-02  0.3100E+00  0.3102E+00
      3.040 -0.3696E-05 -0.1715E-02  0.3100E+00  0.3100E+00
      3.121 -0.2545E-06 -0.4284E-03  0.3100E+00  0.3100E+00
      3.202 -0.1234E-07 -0.6961E-04  0.3100E+00  0.3100E+00
      3.282 -0.4236E-09 -0.7686E-05  0.3100E+00  0.3100E+00
      3.363 -0.1160E-10 -0.5890E-06  0.3100E+00  0.3100E+00
      3.444 -0.5828E-10 -0.3169E-07  0.3100E+00  0.3100E+00
      3.525 -0.1913E-08 -0.1219E-08  0.3100E+00  0.3100E+00
      3.606 -0.4470E-07 -0.5378E-09  0.3100E+00  0.3100E+00
      3.687 -0.7370E-06 -0.1351E-07  0.3100E+00  0.3100E+00
      3.768 -0.8504E-05 -0.2557E-06  0.3100E+00  0.3100E+00
      3.849 -0.6770E-04 -0.3399E-05  0.3100E+00  0.3100E+00
      3.930 -0.3622E-03 -0.3137E-04  0.3100E+00  0.3100E+00
      4.010 -0.1227E-02 -0.1971E-03  0.3099E+00  0.3100E+00
      4.091 -0.2165E-02 -0.8080E-03  0.3097E+00  0.3099E+00
      4.172  0.5220E-03 -0.1928E-02  0.3097E+00  0.3098E+00
      4.253  0.1251E-01 -0.1368E-02  0.3107E+00  0.3096E+00
      4.334  0.3112E-01  0.6509E-02  0.3133E+00  0.3102E+00
      4.415  0.4015E-01  0.2378E-01  0.3165E+00  0.3121E+00
      4.496  0.2847E-01  0.3857E-01  0.3188E+00  0.3152E+00
      4.577  0.9167E-02  0.3459E-01  0.3196E+00  0.3180E+00
      4.658  0.8260E-02  0.1617E-01  0.3202E+00  0.3193E+00
      4.739  0.3683E-01  0.9415E-02  0.3232E+00  0.3201E+00
      4.819  0.7307E-01  0.3263E-01  0.3291E+00  0.3227E+00
      4.900  0.7951E-01  0.6939E-01  0.3355E+00  0.3283E+00
      4.981  0.4951E-01  0.8078E-01  0.3395E+00  0.3349E+00
      5.062  0.1417E-01  0.5401E-01  0.3407E+00  0.3392E+00
      5.143 -0.2461E-02  0.1755E-01  0.3405E+00  0.3407E+00
      5.224 -0.3933E-02 -0.1528E-02  0.3402E+00  0.3405E+00
      5.305 -0.1694E-02 -0.4127E-02  0.3400E+00  0.3402E+00
      5.386 -0.4211E-03 -0.1934E-02  0.3400E+00  0.3400E+00
      5.467 -0.6815E-04 -0.5083E-03  0.3400E+00  0.3400E+00
      5.547 -0.7729E-05 -0.8628E-04  0.3400E+00  0.3400E+00
      5.628 -0.3734E-05 -0.1000E-04  0.3400E+00  0.3400E+00
      5.709 -0.2954E-04 -0.2090E-05  0.3400E+00  0.3400E+00
      5.790 -0.1876E-03 -0.1389E-04  0.3400E+00  0.3400E+00
      5.871 -0.7800E-03 -0.1013E-03  0.3399E+00  0.3400E+00
      5.952 -0.1898E-02 -0.4939E-03  0.3398E+00  0.3400E+00
      6.033 -0.1456E-02 -0.1489E-02  0.3396E+00  0.3398E+00
      6.114  0.6147E-02 -0.2095E-02  0.3401E+00  0.3397E+00
      6.195  0.2341E-01  0.2231E-02  0.3420E+00  0.3398E+00
      6.275  0.3935E-01  0.1649E-01  0.3452E+00  0.3412E+00
      6.356  0.3802E-01  0.3497E-01  0.3483E+00  0.3440E+00
      6.437  0.2087E-01  0.4091E-01  0.3500E+00  0.3473E+00
      6.518  0.4538E-02  0.2783E-01  0.3504E+00  0.3496E+00
      6.599 -0.1975E-02  0.9372E-02  0.3502E+00  0.3503E+00
      6.680 -0.2726E-02 -0.6890E-03  0.3500E+00  0.3503E+00
      6.761 -0.3608E-02 -0.2702E-02  0.3497E+00  0.3500E+00
      6.842 -0.4364E-02 -0.3204E-02  0.3493E+00  0.3498E+00
      6.923  0.4167E-02 -0.4537E-02  0.3497E+00  0.3494E+00
      7.004  0.3239E-01 -0.3736E-03  0.3523E+00  0.3494E+00
      7.084  0.6941E-01  0.2131E-01  0.3579E+00  0.3511E+00
      7.165  0.8152E-01  0.5866E-01  0.3645E+00  0.3559E+00
      7.246  0.5455E-01  0.8218E-01  0.3689E+00  0.3625E+00
      7.327  0.1531E-01  0.6643E-01  0.3701E+00  0.3679E+00
      7.408 -0.3467E-02  0.2698E-01  0.3699E+00  0.3701E+00
      7.489  0.9993E-02 -0.1073E-02  0.3707E+00  0.3700E+00
      7.570  0.4755E-01  0.4816E-03  0.3745E+00  0.3700E+00
      7.651  0.7934E-01  0.3082E-01  0.3809E+00  0.3725E+00
      7.732  0.7422E-01  0.6957E-01  0.3869E+00  0.3781E+00
      7.812  0.3896E-01  0.8148E-01  0.3901E+00  0.3847E+00
      7.893  0.7550E-02  0.5500E-01  0.3907E+00  0.3892E+00
      7.974 -0.3817E-02  0.1825E-01  0.3904E+00  0.3907E+00
      8.055 -0.3354E-02 -0.1319E-02  0.3901E+00  0.3905E+00
      8.136 -0.1217E-02 -0.4159E-02  0.3900E+00  0.3902E+00
      8.217 -0.2674E-03 -0.1982E-02  0.3900E+00  0.3901E+00
      8.298 -0.3885E-04 -0.5267E-03  0.3900E+00  0.3900E+00
      8.379 -0.3864E-05 -0.9023E-04  0.3900E+00  0.3900E+00
      8.460 -0.2677E-06 -0.1046E-04  0.3900E+00  0.3900E+00
      8.541 -0.1306E-07 -0.8401E-06  0.3900E+00  0.3900E+00
      8.621 -0.4511E-09 -0.4731E-07  0.3900E+00  0.3900E+00
      8.702 -0.1108E-10 -0.1883E-08  0.3900E+00  0.3900E+00
      8.783 -0.1942E-12 -0.5322E-10  0.3900E+00  0.3900E+00
      8.864 -0.2470E-14 -0.1072E-11  0.3900E+00  0.3900E+00
      8.945  0.0000E+00 -0.1543E-13  0.3900E+00  0.3900E+00
      9.026  0.0000E+00 -0.1647E-15  0.3900E+00  0.3900E+00
      9.107  0.0000E+00  0.0000E+00  0.3900E+00  0.3900E+00
      9.188  0.0000E+00  0.0000E+00  0.3900E+00  0.3900E+00
      9.269  0.0000E+00  0.0000E+00  0.3900E+00  0.3900E+00
      9.349  0.0000E+00  0.0000E+00  0.3900E+00  0.3900E+00
      9.430  0.0000E+00  0.0000E+00  0.3900E+00  0.3900E+00
      9.511  0.0000E+00  0.0000E+00  0.3900E+00  0.3900E+00
      9.592  0.0000E+00  0.0000E+00  0.3900E+00  0.3900E+00
      9.673  0.0000E+00  0.0000E+00  0.3900E+00  0.3900E+00
      9.754  0.0000E+00  0.0000E+00  0.3900E+00  0.3900E+00
