<?xml version="1.0" encoding="ISO-8859-1"?>
<modeling>
 <generator>
  <i name="program" type="string">vasp </i>
  <i name="version" type="string">5.2.2  </i>
  <i name="subversion" type="string">15Apr09 complex  parallel </i>
  <i name="platform" type="string">LinuxIFC </i>
  <i name="date" type="string">2013 11 25 </i>
  <i name="time" type="string">22:21:42 </i>
 </generator>
 <incar>
  <i type="string" name="PREC">normal</i>
  <i type="int" name="ISPIN">     2</i>
  <i type="int" name="IBRION">     2</i>
  <i type="int" name="NSW">   100</i>
  <i name="ENCUT">    313.00000000</i>
  <i name="NELECT">     59.00000000</i>
  <i type="logical" name="LWAVE"> F  </i>
  <i type="logical" name="LCHARG"> F  </i>
  <i type="logical" name="LPEAD"> F  </i>
  <i type="logical" name="LCALCPOL"> F  </i>
  <i type="logical" name="LCALCEPS"> F  </i>
  <v name="EFIELD_PEAD">      0.00000000      0.00000000      0.00000000</v>
  <i type="logical" name="LEFG"> F  </i>
 </incar>
 <kpoints>
  <generation param="Monkhorst-Pack">
   <v type="int" name="divisions">       2        2        2 </v>
   <v name="usershift">      0.00000000       0.00000000       0.00000000 </v>
   <v name="genvec1">      0.50000000       0.00000000       0.00000000 </v>
   <v name="genvec2">      0.00000000       0.50000000       0.00000000 </v>
   <v name="genvec3">      0.00000000       0.00000000       0.50000000 </v>
   <v name="shift">      0.50000000       0.50000000       0.50000000 </v>
  </generation>
  <varray name="kpointlist" >
   <v>       0.25000000       0.25000000       0.25000000 </v>
  </varray>
  <varray name="weights" >
   <v>       1.00000000 </v>
  </varray>
 </kpoints>
 <parameters>
  <separator name="general" >
   <i type="string" name="SYSTEM">unknown system</i>
   <i type="logical" name="LCOMPAT"> F  </i>
  </separator>
  <separator name="electronic" >
   <i type="string" name="PREC">normal</i>
   <i name="ENMAX">    313.00000000</i>
   <i name="ENAUG">    490.69000000</i>
   <i name="EDIFF">      0.00010000</i>
   <i type="int" name="IALGO">    38</i>
   <i type="int" name="IWAVPR">    11</i>
   <i type="int" name="NBANDS">    39</i>
   <i name="NELECT">     59.00000000</i>
   <separator name="electronic smearing" >
    <i type="int" name="ISMEAR">     1</i>
    <i name="SIGMA">      0.20000000</i>
   </separator>
   <separator name="electronic projectors" >
    <i type="logical" name="LREAL"> F  </i>
    <v name="ROPT">      0.00000000      0.00000000</v>
    <i type="int" name="LMAXPAW">  -100</i>
    <i type="int" name="LMAXMIX">     2</i>
   </separator>
   <separator name="electronic startup" >
    <i type="int" name="ISTART">     0</i>
    <i type="int" name="ICHARG">     2</i>
    <i type="int" name="INIWAV">     1</i>
   </separator>
   <separator name="electronic spin" >
    <i type="int" name="ISPIN">     2</i>
    <i type="logical" name="LNONCOLLINEAR"> F  </i>
    <v name="MAGMOM">      1.00000000      1.00000000      1.00000000      1.00000000      1.00000000      1.00000000      1.00000000</v>
    <i name="NUPDOWN">     -1.00000000</i>
    <i type="logical" name="LSORBIT"> F  </i>
    <v name="SAXIS">      0.00000000      0.00000000      1.00000000</v>
    <i type="logical" name="LSPIRAL"> F  </i>
    <v name="QSPIRAL">      0.00000000      0.00000000      0.00000000</v>
    <i type="logical" name="LZEROZ"> F  </i>
   </separator>
   <separator name="electronic exchange-correlation" >
    <i type="logical" name="LASPH"> F  </i>
    <i type="logical" name="LMETAGGA"> F  </i>
   </separator>
   <separator name="electronic convergence" >
    <i type="int" name="NELM">    60</i>
    <i type="int" name="NELMDL">    -5</i>
    <i type="int" name="NELMIN">     2</i>
    <i name="ENINI">    313.00000000</i>
    <separator name="electronic convergence detail" >
     <i type="logical" name="LDIAG"> T  </i>
     <i name="WEIMIN">      0.00100000</i>
     <i name="EBREAK">      0.00000064</i>
     <i name="DEPER">      0.30000000</i>
     <i type="int" name="NRMM">     4</i>
     <i name="TIME">      0.40000000</i>
    </separator>
   </separator>
   <separator name="electronic mixer" >
    <i name="AMIX">      0.40000000</i>
    <i name="BMIX">      1.00000000</i>
    <i name="AMIN">      0.10000000</i>
    <i name="AMIX_MAG">      1.60000000</i>
    <i name="BMIX_MAG">      1.00000000</i>
    <separator name="electronic mixer details" >
     <i type="int" name="IMIX">     4</i>
     <i type="int" name="MAXMIX">   -45</i>
     <i name="WC">    100.00000000</i>
     <i type="int" name="INIMIX">     1</i>
     <i type="int" name="MIXPRE">     1</i>
     <i type="int" name="MREMOVE">     5</i>
    </separator>
   </separator>
   <separator name="electronic dipolcorrection" >
    <i type="logical" name="LDIPOL"> F  </i>
    <i type="logical" name="LMONO"> F  </i>
    <i type="int" name="IDIPOL">     0</i>
    <i name="EPSILON">      1.00000000</i>
    <v name="DIPOL">   -100.00000000   -100.00000000   -100.00000000</v>
    <i name="EFIELD">      0.00000000</i>
   </separator>
  </separator>
  <separator name="grids" >
   <i type="int" name="NGX">    24</i>
   <i type="int" name="NGY">    24</i>
   <i type="int" name="NGZ">    24</i>
   <i type="int" name="NGXF">    48</i>
   <i type="int" name="NGYF">    48</i>
   <i type="int" name="NGZF">    48</i>
   <i type="logical" name="ADDGRID"> F  </i>
  </separator>
  <separator name="ionic" >
   <i type="int" name="NSW">   100</i>
   <i type="int" name="IBRION">     2</i>
   <i type="int" name="ISIF">     2</i>
   <i name="PSTRESS">      0.00000000</i>
   <i name="EDIFFG">      0.00100000</i>
   <i type="int" name="NFREE">     1</i>
   <i name="POTIM">      0.50000000</i>
   <i name="SMASS">     -3.00000000</i>
  </separator>
  <separator name="ionic md" >
   <i name="TEBEG">      0.00010000</i>
   <i name="TEEND">      0.00010000</i>
   <i type="int" name="NBLOCK">     1</i>
   <i type="int" name="KBLOCK">   100</i>
   <i type="int" name="NPACO">   256</i>
   <i name="APACO">     16.00000000</i>
  </separator>
  <separator name="symmetry" >
   <i type="int" name="ISYM">     2</i>
   <i name="SYMPREC">      0.00001000</i>
  </separator>
  <separator name="dos" >
   <i type="logical" name="LORBIT"> F  </i>
   <v name="RWIGS">     -1.00000000     -1.00000000</v>
   <i type="int" name="NEDOS">   301</i>
   <i name="EMIN">     10.00000000</i>
   <i name="EMAX">    -10.00000000</i>
   <i name="EFERMI">      0.00000000</i>
  </separator>
  <separator name="writing" >
   <i type="int" name="NWRITE">     2</i>
   <i type="logical" name="LWAVE"> F  </i>
   <i type="logical" name="LCHARG"> F  </i>
   <i type="logical" name="LPARD"> F  </i>
   <i type="logical" name="LVTOT"> F  </i>
   <i type="logical" name="LELF"> F  </i>
   <i type="logical" name="LOPTICS"> F  </i>
   <v name="STM">      0.00000000      0.00000000      0.00000000      0.00000000      0.00000000</v>
  </separator>
  <separator name="performance" >
   <i type="int" name="NPAR">     1</i>
   <i type="int" name="NSIM">     4</i>
   <i type="int" name="NBLK">    32</i>
   <i type="logical" name="LPLANE"> T  </i>
   <i type="logical" name="LSCALAPACK"> F  </i>
   <i type="logical" name="LSCAAWARE"> F  </i>
   <i type="logical" name="LSCALU"> F  </i>
   <i type="logical" name="LASYNC"> F  </i>
  </separator>
  <separator name="miscellaneous" >
   <i type="int" name="IDIOT">     3</i>
   <i type="logical" name="LMUSIC"> F  </i>
   <v name="POMASS">     69.72300000     74.92200000</v>
   <i type="logical" name="LCORR"> T  </i>
  </separator>
  <i type="logical" name="LREAL_COMPAT"> F  </i>
  <i type="logical" name="GGA_COMPAT"> T  </i>
  <i type="logical" name="LBERRY"> F  </i>
  <i type="int" name="ICORELEVEL">     0</i>
  <i type="logical" name="LDAU"> F  </i>
  <i type="int" name="I_CONSTRAINED_M">     0</i>
  <separator name="electronic exchange-correlation" >
   <i type="string" name="GGA">--</i>
   <i type="int" name="VOSKOWN">     0</i>
   <i type="logical" name="LHFCALC"> F  </i>
   <i type="logical" name="LHFONE"> F  </i>
   <i type="logical" name="LRHFCALC"> F  </i>
   <i type="logical" name="LTHOMAS"> F  </i>
   <i type="logical" name="LMODELHF"> F  </i>
   <i name="ENCUTFOCK">      0.00000000</i>
   <i name="ENCUT4O">     -1.00000000</i>
   <i type="int" name="EXXOEP">     0</i>
   <i type="int" name="FOURORBIT">     0</i>
   <i name="AEXX">      0.00000000</i>
   <i name="HFALPHA">      0.00000000</i>
   <i name="ALDAX">      1.00000000</i>
   <i name="AGGAX">      1.00000000</i>
   <i name="ALDAC">      1.00000000</i>
   <i name="AGGAC">      1.00000000</i>
   <i type="int" name="NKREDX">     1</i>
   <i type="int" name="NKREDY">     1</i>
   <i type="int" name="NKREDZ">     1</i>
   <i type="logical" name="SHIFTRED"> F  </i>
   <i type="logical" name="ODDONLY"> F  </i>
   <i type="logical" name="EVENONLY"> F  </i>
   <i type="int" name="LMAXFOCK">     0</i>
   <i type="int" name="NMAXFOCKAE">     0</i>
   <i name="HFSCREEN">      0.00000000</i>
   <i name="HFSCREENC">      0.00000000</i>
  </separator>
  <separator name="model GW" >
   <i type="int" name="MODEL_GW">     0</i>
   <i name="MODEL_EPS0">     15.26832290</i>
   <i name="MODEL_ALPHA">      1.00000000</i>
  </separator>
  <separator name="linear response parameters" >
   <i type="logical" name="LEPSILON"> F  </i>
   <i type="logical" name="LRPA"> F  </i>
   <i type="logical" name="LNABLA"> F  </i>
   <i type="logical" name="LVEL"> F  </i>
   <i type="int" name="KINTER">     0</i>
   <i name="CSHIFT">      0.10000000</i>
   <i name="OMEGAMAX">     -1.00000000</i>
  </separator>
  <separator name="orbital magnetization" >
   <i type="logical" name="ORBITALMAG"> F  </i>
   <i type="logical" name="LMAGBLOCH"> F  </i>
   <i type="logical" name="LCHIMAG"> F  </i>
   <i type="logical" name="LGAUGE"> T  </i>
   <i type="int" name="MAGATOM">     0</i>
   <v name="MAGDIPOL">      0.00000000      0.00000000      0.00000000</v>
   <v name="AVECCONST">      0.00000000      0.00000000      0.00000000</v>
  </separator>
  <separator name="response functions" >
   <i type="logical" name="LRPA"> T  </i>
   <i type="logical" name="LTCTE"> F  </i>
   <i type="logical" name="LTETE"> F  </i>
   <i type="logical" name="L2ORDER"> F  </i>
   <i type="logical" name="LGWLF"> F  </i>
   <i name="ENCUTGW">    208.66666667</i>
   <i name="ENCUTGWSOFT">     -2.00000000</i>
   <i name="ENCUTLF">     -1.00000000</i>
   <i type="int" name="LMAXMP2">    -1</i>
   <i name="SCISSOR">      0.00000000</i>
   <i type="int" name="NOMEGA">     0</i>
   <i type="int" name="NOMEGAR">     0</i>
   <i type="int" name="NBANDSGW">    -1</i>
   <i type="int" name="NBANDSLF">    -1</i>
   <i type="int" name="NELM">     1</i>
   <i type="int" name="DIM">     3</i>
   <i type="int" name="ANTIRES">     0</i>
   <i type="logical" name="LUSEW"> F  </i>
   <i name="OMEGAMAX">    -30.00000000</i>
   <i name="OMEGATL">   -200.00000000</i>
   <i type="int" name="OMEGAGRID">     0</i>
   <i name="CSHIFT">     -0.10000000</i>
   <i type="logical" name="SELFENERGY"> F  </i>
   <i type="logical" name="LSPECTRAL"> F  </i>
   <i type="logical" name="ODDONLYGW"> F  </i>
   <i type="logical" name="EVENONLYGW"> F  </i>
   <i type="int" name="NKREDLFX">     1</i>
   <i type="int" name="NKREDLFY">     1</i>
   <i type="int" name="NKREDLFZ">     1</i>
   <i type="int" name="MAXMEM">  1024</i>
   <i type="int" name="TELESCOPE">     0</i>
  </separator>
 </parameters>
 <atominfo>
  <atoms>       7 </atoms>
  <types>       2 </types>
  <array name="atoms" >
   <dimension dim="1">ion</dimension>
   <field type="string">element</field>
   <field type="int">atomtype</field>
   <set>
    <rc><c>Ga</c><c>   1</c></rc>
    <rc><c>Ga</c><c>   1</c></rc>
    <rc><c>Ga</c><c>   1</c></rc>
    <rc><c>As</c><c>   2</c></rc>
    <rc><c>As</c><c>   2</c></rc>
    <rc><c>As</c><c>   2</c></rc>
    <rc><c>As</c><c>   2</c></rc>
   </set>
  </array>
  <array name="atomtypes" >
   <dimension dim="1">type</dimension>
   <field type="int">atomspertype</field>
   <field type="string">element</field>
   <field>mass</field>
   <field>valence</field>
   <field type="string">pseudopotential</field>
   <set>
    <rc><c>   3</c><c>Ga</c><c>     69.72300000</c><c>     13.00000000</c><c> PAW_PBE Ga_d 06Sep2000                 </c></rc>
    <rc><c>   4</c><c>As</c><c>     74.92200000</c><c>      5.00000000</c><c> PAW_PBE As 06Sep2000                   </c></rc>
   </set>
  </array>
 </atominfo>
 <structure name="initialpos" >
  <crystal>
   <varray name="basis" >
    <v>       5.62660000       0.00000000       0.00000000 </v>
    <v>       0.00000000       5.62660000       0.00000000 </v>
    <v>       0.00000000       0.00000000       5.62660000 </v>
   </varray>
   <i name="volume">    178.13043383 </i>
   <varray name="rec_basis" >
    <v>       0.17772722       0.00000000       0.00000000 </v>
    <v>       0.00000000       0.17772722       0.00000000 </v>
    <v>       0.00000000       0.00000000       0.17772722 </v>
   </varray>
  </crystal>
  <varray name="positions" >
   <v>       0.50000000       0.50000000       0.00000000 </v>
   <v>       0.00000000       0.50000000       0.50000000 </v>
   <v>       0.50000000       0.00000000       0.50000000 </v>
   <v>       0.25000000       0.25000000       0.25000000 </v>
   <v>       0.75000000       0.75000000       0.25000000 </v>
   <v>       0.25000000       0.75000000       0.75000000 </v>
   <v>       0.75000000       0.25000000       0.75000000 </v>
  </varray>
 </structure>
 <calculation>
  <scstep>
   <time name="dav">    5.34    1.35</time>
   <time name="total">    6.25    2.09</time>
   <energy>
    <i name="alphaZ">    204.23112898 </i>
    <i name="ewald">  -3583.47555494 </i>
    <i name="hartreedc">  -2490.52185602 </i>
    <i name="XCdc">    141.24592053 </i>
    <i name="pawpsdc">   4537.24972380 </i>
    <i name="pawaedc">  -5510.40829286 </i>
    <i name="eentropy">      0.02701115 </i>
    <i name="bandstr">     -2.76037623 </i>
    <i name="atom">   7127.40138498 </i>
    <i name="e_fr_energy">    422.98908937 </i>
    <i name="e_wo_entrp">    422.96207822 </i>
    <i name="e_0_energy">    422.98008566 </i>
   </energy>
  </scstep>
  <scstep>
   <time name="dav">    4.83    1.21</time>
   <time name="total">    4.84    1.22</time>
   <energy>
    <i name="e_fr_energy">     36.43957884 </i>
    <i name="e_wo_entrp">     36.42717984 </i>
    <i name="e_0_energy">     36.43544584 </i>
   </energy>
  </scstep>
  <scstep>
   <time name="dav">    5.06    1.28</time>
   <time name="total">    5.07    1.29</time>
   <energy>
    <i name="e_fr_energy">    -23.69834703 </i>
    <i name="e_wo_entrp">    -23.65193039 </i>
    <i name="e_0_energy">    -23.68287482 </i>
   </energy>
  </scstep>
  <scstep>
   <time name="dav">    5.16    1.30</time>
   <time name="total">    5.17    1.30</time>
   <energy>
    <i name="e_fr_energy">    -26.45949334 </i>
    <i name="e_wo_entrp">    -26.40314983 </i>
    <i name="e_0_energy">    -26.44071217 </i>
   </energy>
  </scstep>
  <scstep>
   <time name="dav">    5.03    1.26</time>
   <time name="total">    5.27    1.39</time>
   <energy>
    <i name="e_fr_energy">    -26.51159075 </i>
    <i name="e_wo_entrp">    -26.45522733 </i>
    <i name="e_0_energy">    -26.49280294 </i>
   </energy>
  </scstep>
  <scstep>
   <time name="dav">    5.49    1.39</time>
   <time name="total">    6.35    2.15</time>
   <energy>
    <i name="e_fr_energy">    -27.10846659 </i>
    <i name="e_wo_entrp">    -27.06672372 </i>
    <i name="e_0_energy">    -27.09455230 </i>
   </energy>
  </scstep>
  <scstep>
   <time name="dav">    5.45    1.38</time>
   <time name="total">    6.31    2.13</time>
   <energy>
    <i name="e_fr_energy">    -27.23914660 </i>
    <i name="e_wo_entrp">    -27.20659014 </i>
    <i name="e_0_energy">    -27.22829445 </i>
   </energy>
  </scstep>
  <scstep>
   <time name="dav">    5.33    1.35</time>
   <time name="total">    6.24    2.10</time>
   <energy>
    <i name="e_fr_energy">    -27.22625022 </i>
    <i name="e_wo_entrp">    -27.18899150 </i>
    <i name="e_0_energy">    -27.21383064 </i>
   </energy>
  </scstep>
  <scstep>
   <time name="dav">    4.87    1.23</time>
   <time name="total">    5.81    1.98</time>
   <energy>
    <i name="e_fr_energy">    -27.23163076 </i>
    <i name="e_wo_entrp">    -27.19690284 </i>
    <i name="e_0_energy">    -27.22005479 </i>
   </energy>
  </scstep>
  <scstep>
   <time name="dav">    5.21    1.32</time>
   <time name="total">    6.19    2.08</time>
   <energy>
    <i name="e_fr_energy">    -27.23265003 </i>
    <i name="e_wo_entrp">    -27.19769198 </i>
    <i name="e_0_energy">    -27.22099735 </i>
   </energy>
  </scstep>
  <scstep>
   <time name="dav">    4.57    1.15</time>
   <time name="total">    5.55    1.91</time>
   <energy>
    <i name="e_fr_energy">    -27.23289090 </i>
    <i name="e_wo_entrp">    -27.19765622 </i>
    <i name="e_0_energy">    -27.22114601 </i>
   </energy>
  </scstep>
  <scstep>
   <time name="dav">    4.38    1.11</time>
   <time name="total">    5.09    1.73</time>
   <energy>
    <i name="alphaZ">    204.23112898 </i>
    <i name="ewald">  -3583.47555494 </i>
    <i name="hartreedc">  -2477.23787664 </i>
    <i name="XCdc">    140.74227909 </i>
    <i name="pawpsdc">   4729.50055579 </i>
    <i name="pawaedc">  -5710.27540752 </i>
    <i name="eentropy">     -0.03498859 </i>
    <i name="bandstr">   -458.08449433 </i>
    <i name="atom">   7127.40138498 </i>
    <i name="e_fr_energy">    -27.23297319 </i>
    <i name="e_wo_entrp">    -27.19798460 </i>
    <i name="e_0_energy">    -27.22131033 </i>
   </energy>
  </scstep>
  <structure>
   <crystal>
    <varray name="basis" >
     <v>       5.62660000       0.00000000       0.00000000 </v>
     <v>       0.00000000       5.62660000       0.00000000 </v>
     <v>       0.00000000       0.00000000       5.62660000 </v>
    </varray>
    <i name="volume">    178.13043383 </i>
    <varray name="rec_basis" >
     <v>       0.17772722       0.00000000       0.00000000 </v>
     <v>       0.00000000       0.17772722       0.00000000 </v>
     <v>       0.00000000       0.00000000       0.17772722 </v>
    </varray>
   </crystal>
   <varray name="positions" >
    <v>       0.50000000       0.50000000       0.00000000 </v>
    <v>       0.00000000       0.50000000       0.50000000 </v>
    <v>       0.50000000       0.00000000       0.50000000 </v>
    <v>       0.25000000       0.25000000       0.25000000 </v>
    <v>       0.75000000       0.75000000       0.25000000 </v>
    <v>       0.25000000       0.75000000       0.75000000 </v>
    <v>       0.75000000       0.25000000       0.75000000 </v>
   </varray>
  </structure>
  <varray name="forces" >
   <v>       0.00000000       0.00000000       0.00000000 </v>
   <v>       0.00000000       0.00000000       0.00000000 </v>
   <v>       0.00000000       0.00000000       0.00000000 </v>
   <v>      -0.29634886      -0.29634886      -0.29634886 </v>
   <v>       0.29634886       0.29634886      -0.29634886 </v>
   <v>      -0.29634886       0.29634886       0.29634886 </v>
   <v>       0.29634886      -0.29634886       0.29634886 </v>
  </varray>
  <varray name="stress" >
   <v>      13.75785021       0.00000000       0.00000000 </v>
   <v>       0.00000000      13.75785021       0.00000000 </v>
   <v>       0.00000000       0.00000000      13.75785021 </v>
  </varray>
  <energy>
   <i name="e_fr_energy">    -27.23297319 </i>
   <i name="e_wo_entrp">    -27.22131033 </i>
   <i name="e_0_energy">     -0.03498859 </i>
  </energy>
  <time name="totalsc">   74.20   24.71</time>
 </calculation>
 <calculation>
  <scstep>
   <time name="dav">    5.52    1.40</time>
   <time name="total">    6.55    2.16</time>
   <energy>
    <i name="alphaZ">    204.23112898 </i>
    <i name="ewald">  -3595.40872759 </i>
    <i name="hartreedc">  -2466.64105954 </i>
    <i name="XCdc">    140.62904003 </i>
    <i name="pawpsdc">   4728.97273665 </i>
    <i name="pawaedc">  -5709.72794492 </i>
    <i name="eentropy">     -0.03430161 </i>
    <i name="bandstr">   -456.69562161 </i>
    <i name="atom">   7127.40138498 </i>
    <i name="e_fr_energy">    -27.27336462 </i>
    <i name="e_wo_entrp">    -27.23906301 </i>
    <i name="e_0_energy">    -27.26193075 </i>
   </energy>
  </scstep>
  <scstep>
   <time name="dav">    5.24    1.33</time>
   <time name="total">    6.11    2.09</time>
   <energy>
    <i name="e_fr_energy">    -27.27914539 </i>
    <i name="e_wo_entrp">    -27.24473033 </i>
    <i name="e_0_energy">    -27.26767370 </i>
   </energy>
  </scstep>
  <scstep>
   <time name="dav">    4.91    1.24</time>
   <time name="total">    5.54    1.87</time>
   <energy>
    <i name="alphaZ">    204.23112898 </i>
    <i name="ewald">  -3595.40872759 </i>
    <i name="hartreedc">  -2466.70279679 </i>
    <i name="XCdc">    140.64323997 </i>
    <i name="pawpsdc">   4725.13912981 </i>
    <i name="pawaedc">  -5705.80846911 </i>
    <i name="eentropy">     -0.03439038 </i>
    <i name="bandstr">   -456.73960828 </i>
    <i name="atom">   7127.40138498 </i>
    <i name="e_fr_energy">    -27.27910843 </i>
    <i name="e_wo_entrp">    -27.24471805 </i>
    <i name="e_0_energy">    -27.26764497 </i>
   </energy>
  </scstep>
  <structure>
   <crystal>
    <varray name="basis" >
     <v>       5.62660000       0.00000000       0.00000000 </v>
     <v>       0.00000000       5.62660000       0.00000000 </v>
     <v>       0.00000000       0.00000000       5.62660000 </v>
    </varray>
    <i name="volume">    178.13043383 </i>
    <varray name="rec_basis" >
     <v>       0.17772722       0.00000000       0.00000000 </v>
     <v>       0.00000000       0.17772722       0.00000000 </v>
     <v>       0.00000000       0.00000000       0.17772722 </v>
    </varray>
   </crystal>
   <varray name="positions" >
    <v>       0.50000000       0.50000000       0.00000000 </v>
    <v>       0.00000000       0.50000000       0.50000000 </v>
    <v>       0.50000000       0.00000000       0.50000000 </v>
    <v>       0.24745910       0.24745910       0.24745910 </v>
    <v>       0.75254090       0.75254090       0.24745910 </v>
    <v>       0.24745910       0.75254090       0.75254090 </v>
    <v>       0.75254090       0.24745910       0.75254090 </v>
   </varray>
  </structure>
  <varray name="forces" >
   <v>       0.00000000       0.00000000       0.00000000 </v>
   <v>       0.00000000       0.00000000       0.00000000 </v>
   <v>       0.00000000       0.00000000       0.00000000 </v>
   <v>      -0.24157928      -0.24157928      -0.24157928 </v>
   <v>       0.24157928       0.24157928      -0.24157928 </v>
   <v>      -0.24157928       0.24157928       0.24157928 </v>
   <v>       0.24157928      -0.24157928       0.24157928 </v>
  </varray>
  <varray name="stress" >
   <v>       6.93719825       0.00000000       0.00000000 </v>
   <v>       0.00000000       6.93719825       0.00000000 </v>
   <v>       0.00000000       0.00000000       6.93719825 </v>
  </varray>
  <energy>
   <i name="e_fr_energy">    -27.27910843 </i>
   <i name="e_wo_entrp">    -27.26764497 </i>
   <i name="e_0_energy">     -0.03439038 </i>
  </energy>
  <time name="totalsc">   23.60    9.32</time>
 </calculation>
 <calculation>
  <scstep>
   <time name="dav">    5.54    1.41</time>
   <time name="total">    6.57    2.17</time>
   <energy>
    <i name="alphaZ">    204.23112898 </i>
    <i name="ewald">  -3630.76233561 </i>
    <i name="hartreedc">  -2435.05274055 </i>
    <i name="XCdc">    140.29913261 </i>
    <i name="pawpsdc">   4723.31718317 </i>
    <i name="pawaedc">  -5703.90641322 </i>
    <i name="eentropy">     -0.03236299 </i>
    <i name="bandstr">   -452.80346920 </i>
    <i name="atom">   7127.40138498 </i>
    <i name="e_fr_energy">    -27.30849184 </i>
    <i name="e_wo_entrp">    -27.27612885 </i>
    <i name="e_0_energy">    -27.29770417 </i>
   </energy>
  </scstep>
  <scstep>
   <time name="dav">    5.45    1.38</time>
   <time name="total">    6.33    2.16</time>
   <energy>
    <i name="e_fr_energy">    -27.36413910 </i>
    <i name="e_wo_entrp">    -27.33155504 </i>
    <i name="e_0_energy">    -27.35327775 </i>
   </energy>
  </scstep>
  <scstep>
   <time name="dav">    5.07    1.28</time>
   <time name="total">    5.94    2.04</time>
   <energy>
    <i name="e_fr_energy">    -27.36370095 </i>
    <i name="e_wo_entrp">    -27.33120163 </i>
    <i name="e_0_energy">    -27.35286784 </i>
   </energy>
  </scstep>
  <scstep>
   <time name="dav">    4.40    1.11</time>
   <time name="total">    5.31    1.87</time>
   <energy>
    <i name="e_fr_energy">    -27.36330423 </i>
    <i name="e_wo_entrp">    -27.33073117 </i>
    <i name="e_0_energy">    -27.35244654 </i>
   </energy>
  </scstep>
  <scstep>
   <time name="dav">    5.04    1.27</time>
   <time name="total">    5.73    1.90</time>
   <energy>
    <i name="alphaZ">    204.23112898 </i>
    <i name="ewald">  -3630.76233561 </i>
    <i name="hartreedc">  -2434.84921955 </i>
    <i name="XCdc">    140.34973598 </i>
    <i name="pawpsdc">   4704.66797197 </i>
    <i name="pawaedc">  -5684.74424915 </i>
    <i name="eentropy">     -0.03249922 </i>
    <i name="bandstr">   -453.62531402 </i>
    <i name="atom">   7127.40138498 </i>
    <i name="e_fr_energy">    -27.36339564 </i>
    <i name="e_wo_entrp">    -27.33089641 </i>
    <i name="e_0_energy">    -27.35256256 </i>
   </energy>
  </scstep>
  <structure>
   <crystal>
    <varray name="basis" >
     <v>       5.62660000       0.00000000       0.00000000 </v>
     <v>       0.00000000       5.62660000       0.00000000 </v>
     <v>       0.00000000       0.00000000       5.62660000 </v>
    </varray>
    <i name="volume">    178.13043383 </i>
    <varray name="rec_basis" >
     <v>       0.17772722       0.00000000       0.00000000 </v>
     <v>       0.00000000       0.17772722       0.00000000 </v>
     <v>       0.00000000       0.00000000       0.17772722 </v>
    </varray>
   </crystal>
   <varray name="positions" >
    <v>       0.50000000       0.50000000       0.00000000 </v>
    <v>       0.00000000       0.50000000       0.50000000 </v>
    <v>       0.50000000       0.00000000       0.50000000 </v>
    <v>       0.23983638       0.23983638       0.23983638 </v>
    <v>       0.76016362       0.76016362       0.23983638 </v>
    <v>       0.23983638       0.76016362       0.76016362 </v>
    <v>       0.76016362       0.23983638       0.76016362 </v>
   </varray>
  </structure>
  <varray name="forces" >
   <v>       0.00000000       0.00000000       0.00000000 </v>
   <v>       0.00000000       0.00000000       0.00000000 </v>
   <v>       0.00000000       0.00000000       0.00000000 </v>
   <v>      -0.09101036      -0.09101036      -0.09101036 </v>
   <v>       0.09101036       0.09101036      -0.09101036 </v>
   <v>      -0.09101036       0.09101036       0.09101036 </v>
   <v>       0.09101036      -0.09101036       0.09101036 </v>
  </varray>
  <varray name="stress" >
   <v>      -3.98860474       0.00000000       0.00000000 </v>
   <v>       0.00000000      -3.98860474       0.00000000 </v>
   <v>       0.00000000       0.00000000      -3.98860474 </v>
  </varray>
  <energy>
   <i name="e_fr_energy">    -27.36339564 </i>
   <i name="e_wo_entrp">    -27.35256256 </i>
   <i name="e_0_energy">     -0.03249922 </i>
  </energy>
  <time name="totalsc">   35.94   13.46</time>
 </calculation>
 <calculation>
  <scstep>
   <time name="dav">    5.58    1.42</time>
   <time name="total">    6.61    2.18</time>
   <energy>
    <i name="alphaZ">    204.23112898 </i>
    <i name="ewald">  -3698.45826967 </i>
    <i name="hartreedc">  -2374.30322964 </i>
    <i name="XCdc">    139.69160000 </i>
    <i name="pawpsdc">   4703.55858731 </i>
    <i name="pawaedc">  -5683.60974558 </i>
    <i name="eentropy">     -0.03103133 </i>
    <i name="bandstr">   -445.55876848 </i>
    <i name="atom">   7127.40138498 </i>
    <i name="e_fr_energy">    -27.07834344 </i>
    <i name="e_wo_entrp">    -27.04731211 </i>
    <i name="e_0_energy">    -27.06799966 </i>
   </energy>
  </scstep>
  <scstep>
   <time name="dav">    5.19    1.32</time>
   <time name="total">    6.05    2.07</time>
   <energy>
    <i name="e_fr_energy">    -27.34109507 </i>
    <i name="e_wo_entrp">    -27.31004564 </i>
    <i name="e_0_energy">    -27.33074526 </i>
   </energy>
  </scstep>
  <scstep>
   <time name="dav">    4.89    1.24</time>
   <time name="total">    5.75    1.99</time>
   <energy>
    <i name="e_fr_energy">    -27.33753671 </i>
    <i name="e_wo_entrp">    -27.30638553 </i>
    <i name="e_0_energy">    -27.32715298 </i>
   </energy>
  </scstep>
  <scstep>
   <time name="dav">    5.20    1.32</time>
   <time name="total">    6.10    2.08</time>
   <energy>
    <i name="e_fr_energy">    -27.33594241 </i>
    <i name="e_wo_entrp">    -27.30482505 </i>
    <i name="e_0_energy">    -27.32556995 </i>
   </energy>
  </scstep>
  <scstep>
   <time name="dav">    4.57    1.15</time>
   <time name="total">    5.50    1.92</time>
   <energy>
    <i name="e_fr_energy">    -27.33629887 </i>
    <i name="e_wo_entrp">    -27.30510672 </i>
    <i name="e_0_energy">    -27.32590149 </i>
   </energy>
  </scstep>
  <scstep>
   <time name="dav">    4.18    1.06</time>
   <time name="total">    4.90    1.69</time>
   <energy>
    <i name="alphaZ">    204.23112898 </i>
    <i name="ewald">  -3698.45826967 </i>
    <i name="hartreedc">  -2373.04880143 </i>
    <i name="XCdc">    139.79050772 </i>
    <i name="pawpsdc">   4665.19069014 </i>
    <i name="pawaedc">  -5644.27671459 </i>
    <i name="eentropy">     -0.03116972 </i>
    <i name="bandstr">   -448.13509252 </i>
    <i name="atom">   7127.40138498 </i>
    <i name="e_fr_energy">    -27.33633611 </i>
    <i name="e_wo_entrp">    -27.30516639 </i>
    <i name="e_0_energy">    -27.32594621 </i>
   </energy>
  </scstep>
  <structure>
   <crystal>
    <varray name="basis" >
     <v>       5.62660000       0.00000000       0.00000000 </v>
     <v>       0.00000000       5.62660000       0.00000000 </v>
     <v>       0.00000000       0.00000000       5.62660000 </v>
    </varray>
    <i name="volume">    178.13043383 </i>
    <varray name="rec_basis" >
     <v>       0.17772722       0.00000000       0.00000000 </v>
     <v>       0.00000000       0.17772722       0.00000000 </v>
     <v>       0.00000000       0.00000000       0.17772722 </v>
    </varray>
   </crystal>
   <varray name="positions" >
    <v>       0.50000000       0.50000000       0.00000000 </v>
    <v>       0.00000000       0.50000000       0.50000000 </v>
    <v>       0.50000000       0.00000000       0.50000000 </v>
    <v>       0.22459095       0.22459095       0.22459095 </v>
    <v>       0.77540905       0.77540905       0.22459095 </v>
    <v>       0.22459095       0.77540905       0.77540905 </v>
    <v>       0.77540905       0.22459095       0.77540905 </v>
   </varray>
  </structure>
  <varray name="forces" >
   <v>       0.00000000       0.00000000       0.00000000 </v>
   <v>       0.00000000       0.00000000       0.00000000 </v>
   <v>       0.00000000       0.00000000       0.00000000 </v>
   <v>       0.12222848       0.12222848       0.12222848 </v>
   <v>      -0.12222848      -0.12222848       0.12222848 </v>
   <v>       0.12222848      -0.12222848      -0.12222848 </v>
   <v>      -0.12222848       0.12222848      -0.12222848 </v>
  </varray>
  <varray name="stress" >
   <v>     -30.10075087       0.00000000       0.00000000 </v>
   <v>       0.00000000     -30.10075087       0.00000000 </v>
   <v>       0.00000000       0.00000000     -30.10075087 </v>
  </varray>
  <energy>
   <i name="e_fr_energy">    -27.33633611 </i>
   <i name="e_wo_entrp">    -27.32594621 </i>
   <i name="e_0_energy">     -0.03116972 </i>
  </energy>
  <time name="totalsc">   41.00   15.26</time>
 </calculation>
 <calculation>
  <scstep>
   <time name="dav">    5.95    1.53</time>
   <time name="total">    6.95    2.29</time>
   <energy>
    <i name="alphaZ">    204.23112898 </i>
    <i name="ewald">  -3660.24127668 </i>
    <i name="hartreedc">  -2407.17204946 </i>
    <i name="XCdc">    140.15197483 </i>
    <i name="pawpsdc">   4664.82276647 </i>
    <i name="pawaedc">  -5643.87298811 </i>
    <i name="eentropy">     -0.03102004 </i>
    <i name="bandstr">   -452.60310976 </i>
    <i name="atom">   7127.40138498 </i>
    <i name="e_fr_energy">    -27.31318879 </i>
    <i name="e_wo_entrp">    -27.28216875 </i>
    <i name="e_0_energy">    -27.30284878 </i>
   </energy>
  </scstep>
  <scstep>
   <time name="dav">    5.54    1.40</time>
   <time name="total">    6.39    2.16</time>
   <energy>
    <i name="e_fr_energy">    -27.38029369 </i>
    <i name="e_wo_entrp">    -27.34901268 </i>
    <i name="e_0_energy">    -27.36986669 </i>
   </energy>
  </scstep>
  <scstep>
   <time name="dav">    5.27    1.33</time>
   <time name="total">    6.13    2.09</time>
   <energy>
    <i name="e_fr_energy">    -27.37920527 </i>
    <i name="e_wo_entrp">    -27.34791563 </i>
    <i name="e_0_energy">    -27.36877539 </i>
   </energy>
  </scstep>
  <scstep>
   <time name="dav">    4.92    1.24</time>
   <time name="total">    5.81    2.00</time>
   <energy>
    <i name="e_fr_energy">    -27.37864989 </i>
    <i name="e_wo_entrp">    -27.34735728 </i>
    <i name="e_0_energy">    -27.36821902 </i>
   </energy>
  </scstep>
  <scstep>
   <time name="dav">    5.21    1.32</time>
   <time name="total">    6.14    2.08</time>
   <energy>
    <i name="e_fr_energy">    -27.37877905 </i>
    <i name="e_wo_entrp">    -27.34748882 </i>
    <i name="e_0_energy">    -27.36834898 </i>
   </energy>
  </scstep>
  <scstep>
   <time name="dav">    3.18    0.81</time>
   <time name="total">    3.90    1.43</time>
   <energy>
    <i name="alphaZ">    204.23112898 </i>
    <i name="ewald">  -3660.24127668 </i>
    <i name="hartreedc">  -2408.11336523 </i>
    <i name="XCdc">    140.10409271 </i>
    <i name="pawpsdc">   4686.79376387 </i>
    <i name="pawaedc">  -5666.39370738 </i>
    <i name="eentropy">     -0.03129128 </i>
    <i name="bandstr">   -451.12952474 </i>
    <i name="atom">   7127.40138498 </i>
    <i name="e_fr_energy">    -27.37879478 </i>
    <i name="e_wo_entrp">    -27.34750350 </i>
    <i name="e_0_energy">    -27.36836436 </i>
   </energy>
  </scstep>
  <structure>
   <crystal>
    <varray name="basis" >
     <v>       5.62660000       0.00000000       0.00000000 </v>
     <v>       0.00000000       5.62660000       0.00000000 </v>
     <v>       0.00000000       0.00000000       5.62660000 </v>
    </varray>
    <i name="volume">    178.13043383 </i>
    <varray name="rec_basis" >
     <v>       0.17772722       0.00000000       0.00000000 </v>
     <v>       0.00000000       0.17772722       0.00000000 </v>
     <v>       0.00000000       0.00000000       0.17772722 </v>
    </varray>
   </crystal>
   <varray name="positions" >
    <v>       0.50000000       0.50000000       0.00000000 </v>
    <v>       0.00000000       0.50000000       0.50000000 </v>
    <v>       0.50000000       0.00000000       0.50000000 </v>
    <v>       0.23332963       0.23332963       0.23332963 </v>
    <v>       0.76667037       0.76667037       0.23332963 </v>
    <v>       0.23332963       0.76667037       0.76667037 </v>
    <v>       0.76667037       0.23332963       0.76667037 </v>
   </varray>
  </structure>
  <varray name="forces" >
   <v>       0.00000000       0.00000000       0.00000000 </v>
   <v>       0.00000000       0.00000000       0.00000000 </v>
   <v>       0.00000000       0.00000000       0.00000000 </v>
   <v>       0.01527205       0.01527205       0.01527205 </v>
   <v>      -0.01527205      -0.01527205       0.01527205 </v>
   <v>       0.01527205      -0.01527205      -0.01527205 </v>
   <v>      -0.01527205       0.01527205      -0.01527205 </v>
  </varray>
  <varray name="stress" >
   <v>     -15.09064331       0.00000000       0.00000000 </v>
   <v>       0.00000000     -15.09064331       0.00000000 </v>
   <v>       0.00000000       0.00000000     -15.09064331 </v>
  </varray>
  <energy>
   <i name="e_fr_energy">    -27.37879478 </i>
   <i name="e_wo_entrp">    -27.36836436 </i>
   <i name="e_0_energy">     -0.03129128 </i>
  </energy>
  <time name="totalsc">   41.07   15.24</time>
  <eigenvalues>
   <array>
    <dimension dim="1">band</dimension>
    <dimension dim="2">kpoint</dimension>
    <dimension dim="3">spin</dimension>
    <field>eigene</field>
    <field>occ</field>
    <set>
     <set comment="spin 1">
      <set comment="kpoint 1">
       <r>  -12.5143    1.0000 </r>
       <r>  -12.4870    1.0000 </r>
       <r>  -12.4870    1.0000 </r>
       <r>  -12.4555    1.0000 </r>
       <r>  -12.4292    1.0000 </r>
       <r>  -12.4292    1.0000 </r>
       <r>  -12.4038    1.0000 </r>
       <r>  -12.4038    1.0000 </r>
       <r>  -12.3989    1.0000 </r>
       <r>  -12.3841    1.0000 </r>
       <r>  -12.3841    1.0000 </r>
       <r>  -12.3713    1.0000 </r>
       <r>  -12.3683    1.0000 </r>
       <r>  -12.3548    1.0000 </r>
       <r>  -12.3548    1.0000 </r>
       <r>   -9.3046    1.0000 </r>
       <r>   -8.1505    1.0000 </r>
       <r>   -8.1505    1.0000 </r>
       <r>   -7.8864    1.0000 </r>
       <r>   -3.6612    1.0000 </r>
       <r>   -3.6612    1.0000 </r>
       <r>   -2.2536    1.0000 </r>
       <r>   -0.6389    1.0000 </r>
       <r>   -0.6389    1.0000 </r>
       <r>   -0.5508    1.0000 </r>
       <r>    0.4374    1.0000 </r>
       <r>    0.5776    1.0000 </r>
       <r>    1.1051    1.0000 </r>
       <r>    1.1051    1.0000 </r>
       <r>    2.2992    0.5348 </r>
       <r>    2.2992    0.5348 </r>
       <r>    4.3755    0.0000 </r>
       <r>    4.8303    0.0000 </r>
       <r>    4.8303    0.0000 </r>
       <r>    6.2703    0.0000 </r>
       <r>    7.1094    0.0000 </r>
       <r>    7.1094    0.0000 </r>
       <r>    7.6397    0.0000 </r>
       <r>    7.6397    0.0000 </r>
      </set>
     </set>
     <set comment="spin 2">
      <set comment="kpoint 1">
       <r>  -12.5006    1.0000 </r>
       <r>  -12.4746    1.0000 </r>
       <r>  -12.4746    1.0000 </r>
       <r>  -12.4450    1.0000 </r>
       <r>  -12.4206    1.0000 </r>
       <r>  -12.4206    1.0000 </r>
       <r>  -12.3963    1.0000 </r>
       <r>  -12.3963    1.0000 </r>
       <r>  -12.3914    1.0000 </r>
       <r>  -12.3777    1.0000 </r>
       <r>  -12.3777    1.0000 </r>
       <r>  -12.3652    1.0000 </r>
       <r>  -12.3637    1.0000 </r>
       <r>  -12.3506    1.0000 </r>
       <r>  -12.3506    1.0000 </r>
       <r>   -9.1351    1.0000 </r>
       <r>   -7.9648    1.0000 </r>
       <r>   -7.9648    1.0000 </r>
       <r>   -7.6805    1.0000 </r>
       <r>   -3.5667    1.0000 </r>
       <r>   -3.5667    1.0000 </r>
       <r>   -2.1033    1.0000 </r>
       <r>   -0.5244    1.0000 </r>
       <r>   -0.5244    1.0000 </r>
       <r>   -0.3336    1.0000 </r>
       <r>    0.5576    1.0000 </r>
       <r>    0.8351    1.0000 </r>
       <r>    1.2821    1.0000 </r>
       <r>    1.2821    1.0000 </r>
       <r>    2.5662   -0.0348 </r>
       <r>    2.5662   -0.0348 </r>
       <r>    4.4882    0.0000 </r>
       <r>    4.9208    0.0000 </r>
       <r>    4.9208    0.0000 </r>
       <r>    6.3801    0.0000 </r>
       <r>    7.2160    0.0000 </r>
       <r>    7.2160    0.0000 </r>
       <r>    7.7539    0.0000 </r>
       <r>    7.7539    0.0000 </r>
      </set>
     </set>
    </set>
   </array>
  </eigenvalues>
  <separator name="orbital magnetization" >
   <v name="MAGDIPOLOUT">      0.00000000      0.00000000      0.00000000</v>
  </separator>
  <dos>
   <i name="efermi">      2.30747845 </i>
   <total>
    <array>
     <dimension dim="1">gridpoints</dimension>
     <dimension dim="2">spin</dimension>
     <field>energy</field>
     <field>total</field>
     <field>integrated</field>
     <set>
      <set comment="spin 1">
       <r> -14.5143   0.0000   0.0000 </r>
       <r> -14.4334   0.0000   0.0000 </r>
       <r> -14.3525   0.0000   0.0000 </r>
       <r> -14.2716   0.0000   0.0000 </r>
       <r> -14.1907   0.0000   0.0000 </r>
       <r> -14.1098   0.0000   0.0000 </r>
       <r> -14.0289   0.0000   0.0000 </r>
       <r> -13.9480   0.0000   0.0000 </r>
       <r> -13.8672   0.0000   0.0000 </r>
       <r> -13.7863   0.0000   0.0000 </r>
       <r> -13.7054   0.0000   0.0000 </r>
       <r> -13.6245   0.0000   0.0000 </r>
       <r> -13.5436   0.0000   0.0000 </r>
       <r> -13.4627   0.0000   0.0000 </r>
       <r> -13.3818   0.0000   0.0000 </r>
       <r> -13.3009   0.0000   0.0000 </r>
       <r> -13.2200  -0.0001   0.0000 </r>
       <r> -13.1391  -0.0012  -0.0001 </r>
       <r> -13.0582  -0.0121  -0.0011 </r>
       <r> -12.9773  -0.0840  -0.0079 </r>
       <r> -12.8964  -0.4050  -0.0406 </r>
       <r> -12.8155  -1.2879  -0.1448 </r>
       <r> -12.7346  -2.2958  -0.3305 </r>
       <r> -12.6537  -0.0849  -0.3374 </r>
       <r> -12.5728  11.5687   0.5984 </r>
       <r> -12.4920  33.8188   3.3342 </r>
       <r> -12.4111  53.6416   7.6735 </r>
       <r> -12.3302  53.2156  11.9783 </r>
       <r> -12.2493  32.5293  14.6097 </r>
       <r> -12.1684   9.9695  15.4162 </r>
       <r> -12.0875  -1.0603  15.3304 </r>
       <r> -12.0066  -2.4980  15.1284 </r>
       <r> -11.9257  -1.1936  15.0318 </r>
       <r> -11.8448  -0.3268  15.0054 </r>
       <r> -11.7639  -0.0585  15.0006 </r>
       <r> -11.6830  -0.0072  15.0001 </r>
       <r> -11.6021  -0.0006  15.0000 </r>
       <r> -11.5212   0.0000  15.0000 </r>
       <r> -11.4403   0.0000  15.0000 </r>
       <r> -11.3594   0.0000  15.0000 </r>
       <r> -11.2785   0.0000  15.0000 </r>
       <r> -11.1976   0.0000  15.0000 </r>
       <r> -11.1167   0.0000  15.0000 </r>
       <r> -11.0359   0.0000  15.0000 </r>
       <r> -10.9550   0.0000  15.0000 </r>
       <r> -10.8741   0.0000  15.0000 </r>
       <r> -10.7932   0.0000  15.0000 </r>
       <r> -10.7123   0.0000  15.0000 </r>
       <r> -10.6314   0.0000  15.0000 </r>
       <r> -10.5505   0.0000  15.0000 </r>
       <r> -10.4696   0.0000  15.0000 </r>
       <r> -10.3887   0.0000  15.0000 </r>
       <r> -10.3078   0.0000  15.0000 </r>
       <r> -10.2269   0.0000  15.0000 </r>
       <r> -10.1460   0.0000  15.0000 </r>
       <r> -10.0651   0.0000  15.0000 </r>
       <r>  -9.9842  -0.0001  15.0000 </r>
       <r>  -9.9033  -0.0011  14.9999 </r>
       <r>  -9.8224  -0.0083  14.9992 </r>
       <r>  -9.7415  -0.0425  14.9958 </r>
       <r>  -9.6607  -0.1358  14.9848 </r>
       <r>  -9.5798  -0.2153  14.9674 </r>
       <r>  -9.4989   0.1323  14.9781 </r>
       <r>  -9.4180   1.4494  15.0953 </r>
       <r>  -9.3371   3.3266  15.3644 </r>
       <r>  -9.2562   4.1264  15.6982 </r>
       <r>  -9.1753   2.9855  15.9398 </r>
       <r>  -9.0944   1.1111  16.0296 </r>
       <r>  -9.0135  -0.0005  16.0296 </r>
       <r>  -8.9326  -0.2145  16.0122 </r>
       <r>  -8.8517  -0.1130  16.0031 </r>
       <r>  -8.7708  -0.0331  16.0004 </r>
       <r>  -8.6899  -0.0158  15.9991 </r>
       <r>  -8.6090  -0.0581  15.9944 </r>
       <r>  -8.5281  -0.2105  15.9774 </r>
       <r>  -8.4472  -0.4255  15.9430 </r>
       <r>  -8.3663  -0.0967  15.9352 </r>
       <r>  -8.2855   1.9180  16.0903 </r>
       <r>  -8.2046   5.5208  16.5369 </r>
       <r>  -8.1237   8.0673  17.1895 </r>
       <r>  -8.0428   7.4952  17.7958 </r>
       <r>  -7.9619   5.5004  18.2408 </r>
       <r>  -7.8810   4.3161  18.5899 </r>
       <r>  -7.8001   3.3746  18.8629 </r>
       <r>  -7.7192   1.7939  19.0080 </r>
       <r>  -7.6383   0.3601  19.0372 </r>
       <r>  -7.5574  -0.1972  19.0212 </r>
       <r>  -7.4765  -0.1782  19.0068 </r>
       <r>  -7.3956  -0.0666  19.0014 </r>
       <r>  -7.3147  -0.0151  19.0002 </r>
       <r>  -7.2338  -0.0022  19.0000 </r>
       <r>  -7.1529  -0.0002  19.0000 </r>
       <r>  -7.0720   0.0000  19.0000 </r>
       <r>  -6.9911   0.0000  19.0000 </r>
       <r>  -6.9103   0.0000  19.0000 </r>
       <r>  -6.8294   0.0000  19.0000 </r>
       <r>  -6.7485   0.0000  19.0000 </r>
       <r>  -6.6676   0.0000  19.0000 </r>
       <r>  -6.5867   0.0000  19.0000 </r>
       <r>  -6.5058   0.0000  19.0000 </r>
       <r>  -6.4249   0.0000  19.0000 </r>
       <r>  -6.3440   0.0000  19.0000 </r>
       <r>  -6.2631   0.0000  19.0000 </r>
       <r>  -6.1822   0.0000  19.0000 </r>
       <r>  -6.1013   0.0000  19.0000 </r>
       <r>  -6.0204   0.0000  19.0000 </r>
       <r>  -5.9395   0.0000  19.0000 </r>
       <r>  -5.8586   0.0000  19.0000 </r>
       <r>  -5.7777   0.0000  19.0000 </r>
       <r>  -5.6968   0.0000  19.0000 </r>
       <r>  -5.6159   0.0000  19.0000 </r>
       <r>  -5.5351   0.0000  19.0000 </r>
       <r>  -5.4542   0.0000  19.0000 </r>
       <r>  -5.3733   0.0000  19.0000 </r>
       <r>  -5.2924   0.0000  19.0000 </r>
       <r>  -5.2115   0.0000  19.0000 </r>
       <r>  -5.1306   0.0000  19.0000 </r>
       <r>  -5.0497   0.0000  19.0000 </r>
       <r>  -4.9688   0.0000  19.0000 </r>
       <r>  -4.8879   0.0000  19.0000 </r>
       <r>  -4.8070   0.0000  19.0000 </r>
       <r>  -4.7261   0.0000  19.0000 </r>
       <r>  -4.6452   0.0000  19.0000 </r>
       <r>  -4.5643   0.0000  19.0000 </r>
       <r>  -4.4834   0.0000  19.0000 </r>
       <r>  -4.4025   0.0000  19.0000 </r>
       <r>  -4.3216  -0.0004  19.0000 </r>
       <r>  -4.2407  -0.0037  18.9997 </r>
       <r>  -4.1599  -0.0254  18.9976 </r>
       <r>  -4.0790  -0.1173  18.9881 </r>
       <r>  -3.9981  -0.3287  18.9615 </r>
       <r>  -3.9172  -0.3904  18.9300 </r>
       <r>  -3.8363   0.6948  18.9862 </r>
       <r>  -3.7554   3.7865  19.2925 </r>
       <r>  -3.6745   7.3574  19.8876 </r>
       <r>  -3.5936   8.0317  20.5373 </r>
       <r>  -3.5127   5.0716  20.9476 </r>
       <r>  -3.4318   1.4986  21.0688 </r>
       <r>  -3.3509  -0.2251  21.0506 </r>
       <r>  -3.2700  -0.3985  21.0184 </r>
       <r>  -3.1891  -0.1752  21.0042 </r>
       <r>  -3.1082  -0.0441  21.0007 </r>
       <r>  -3.0273  -0.0072  21.0001 </r>
       <r>  -2.9464  -0.0009  21.0000 </r>
       <r>  -2.8655  -0.0008  20.9999 </r>
       <r>  -2.7847  -0.0061  20.9994 </r>
       <r>  -2.7038  -0.0335  20.9967 </r>
       <r>  -2.6229  -0.1167  20.9873 </r>
       <r>  -2.5420  -0.2155  20.9699 </r>
       <r>  -2.4611   0.0192  20.9714 </r>
       <r>  -2.3802   1.1660  21.0657 </r>
       <r>  -2.2993   3.0456  21.3121 </r>
       <r>  -2.2184   4.1323  21.6464 </r>
       <r>  -2.1375   3.2717  21.9110 </r>
       <r>  -2.0566   1.3901  22.0235 </r>
       <r>  -1.9757   0.1071  22.0322 </r>
       <r>  -1.8948  -0.2161  22.0147 </r>
       <r>  -1.8139  -0.1319  22.0040 </r>
       <r>  -1.7330  -0.0405  22.0007 </r>
       <r>  -1.6521  -0.0078  22.0001 </r>
       <r>  -1.5712  -0.0010  22.0000 </r>
       <r>  -1.4903  -0.0001  22.0000 </r>
       <r>  -1.4094   0.0000  22.0000 </r>
       <r>  -1.3286  -0.0001  22.0000 </r>
       <r>  -1.2477  -0.0017  21.9998 </r>
       <r>  -1.1668  -0.0139  21.9987 </r>
       <r>  -1.0859  -0.0766  21.9925 </r>
       <r>  -1.0050  -0.2735  21.9704 </r>
       <r>  -0.9241  -0.5435  21.9264 </r>
       <r>  -0.8432  -0.1261  21.9162 </r>
       <r>  -0.7623   2.4536  22.1147 </r>
       <r>  -0.6814   7.3140  22.7064 </r>
       <r>  -0.6005  11.2271  23.6146 </r>
       <r>  -0.5196  10.5334  24.4667 </r>
       <r>  -0.4387   5.9966  24.9518 </r>
       <r>  -0.3578   1.6375  25.0842 </r>
       <r>  -0.2769  -0.2876  25.0610 </r>
       <r>  -0.1960  -0.4697  25.0230 </r>
       <r>  -0.1151  -0.2182  25.0053 </r>
       <r>  -0.0342  -0.0811  24.9988 </r>
       <r>   0.0466  -0.1047  24.9903 </r>
       <r>   0.1275  -0.2346  24.9713 </r>
       <r>   0.2084  -0.2275  24.9529 </r>
       <r>   0.2893   0.5409  24.9967 </r>
       <r>   0.3702   2.5654  25.2042 </r>
       <r>   0.4511   5.1865  25.6237 </r>
       <r>   0.5320   6.7150  26.1670 </r>
       <r>   0.6129   5.9868  26.6512 </r>
       <r>   0.6938   3.4824  26.9330 </r>
       <r>   0.7747   0.8453  27.0013 </r>
       <r>   0.8556  -0.4210  26.9673 </r>
       <r>   0.9365   0.5924  27.0152 </r>
       <r>   1.0174   3.9503  27.3348 </r>
       <r>   1.0983   7.5135  27.9426 </r>
       <r>   1.1792   7.8978  28.5814 </r>
       <r>   1.2601   4.7601  28.9665 </r>
       <r>   1.3410   1.2823  29.0702 </r>
       <r>   1.4218  -0.2790  29.0477 </r>
       <r>   1.5027  -0.3837  29.0166 </r>
       <r>   1.5836  -0.1598  29.0037 </r>
       <r>   1.6645  -0.0396  29.0005 </r>
       <r>   1.7454  -0.0132  28.9994 </r>
       <r>   1.8263  -0.0440  28.9959 </r>
       <r>   1.9072  -0.1731  28.9819 </r>
       <r>   1.9881  -0.3966  28.9498 </r>
       <r>   2.0690  -0.2330  28.9309 </r>
       <r>   2.1499   1.4683  29.0497 </r>
       <r>   2.2308   5.0295  29.4566 </r>
       <r>   2.3117   8.0160  30.1050 </r>
       <r>   2.3926   7.3857  30.7025 </r>
       <r>   2.4735   3.8282  31.0121 </r>
       <r>   2.5544   0.7174  31.0702 </r>
       <r>   2.6353  -0.3872  31.0388 </r>
       <r>   2.7162  -0.3313  31.0121 </r>
       <r>   2.7970  -0.1189  31.0024 </r>
       <r>   2.8779  -0.0259  31.0003 </r>
       <r>   2.9588  -0.0037  31.0000 </r>
       <r>   3.0397  -0.0004  31.0000 </r>
       <r>   3.1206   0.0000  31.0000 </r>
       <r>   3.2015   0.0000  31.0000 </r>
       <r>   3.2824   0.0000  31.0000 </r>
       <r>   3.3633   0.0000  31.0000 </r>
       <r>   3.4442   0.0000  31.0000 </r>
       <r>   3.5251   0.0000  31.0000 </r>
       <r>   3.6060   0.0000  31.0000 </r>
       <r>   3.6869  -0.0001  31.0000 </r>
       <r>   3.7678  -0.0009  30.9999 </r>
       <r>   3.8487  -0.0068  30.9994 </r>
       <r>   3.9296  -0.0362  30.9964 </r>
       <r>   4.0105  -0.1227  30.9865 </r>
       <r>   4.0914  -0.2165  30.9690 </r>
       <r>   4.1722   0.0522  30.9732 </r>
       <r>   4.2531   1.2507  31.0744 </r>
       <r>   4.3340   3.1118  31.3261 </r>
       <r>   4.4149   4.0149  31.6509 </r>
       <r>   4.4958   2.8469  31.8812 </r>
       <r>   4.5767   0.9167  31.9554 </r>
       <r>   4.6576   0.8260  32.0222 </r>
       <r>   4.7385   3.6827  32.3201 </r>
       <r>   4.8194   7.3070  32.9112 </r>
       <r>   4.9003   7.9507  33.5544 </r>
       <r>   4.9812   4.9507  33.9549 </r>
       <r>   5.0621   1.4167  34.0695 </r>
       <r>   5.1430  -0.2461  34.0495 </r>
       <r>   5.2239  -0.3933  34.0177 </r>
       <r>   5.3048  -0.1694  34.0040 </r>
       <r>   5.3857  -0.0421  34.0006 </r>
       <r>   5.4666  -0.0068  34.0001 </r>
       <r>   5.5474  -0.0008  34.0000 </r>
       <r>   5.6283  -0.0004  34.0000 </r>
       <r>   5.7092  -0.0030  33.9997 </r>
       <r>   5.7901  -0.0188  33.9982 </r>
       <r>   5.8710  -0.0780  33.9919 </r>
       <r>   5.9519  -0.1898  33.9766 </r>
       <r>   6.0328  -0.1456  33.9648 </r>
       <r>   6.1137   0.6147  34.0145 </r>
       <r>   6.1946   2.3407  34.2038 </r>
       <r>   6.2755   3.9348  34.5221 </r>
       <r>   6.3564   3.8015  34.8297 </r>
       <r>   6.4373   2.0868  34.9985 </r>
       <r>   6.5182   0.4538  35.0352 </r>
       <r>   6.5991  -0.1975  35.0192 </r>
       <r>   6.6800  -0.2726  34.9972 </r>
       <r>   6.7609  -0.3608  34.9680 </r>
       <r>   6.8418  -0.4364  34.9327 </r>
       <r>   6.9226   0.4167  34.9664 </r>
       <r>   7.0035   3.2392  35.2284 </r>
       <r>   7.0844   6.9414  35.7899 </r>
       <r>   7.1653   8.1522  36.4494 </r>
       <r>   7.2462   5.4550  36.8907 </r>
       <r>   7.3271   1.5311  37.0145 </r>
       <r>   7.4080  -0.3467  36.9865 </r>
       <r>   7.4889   0.9993  37.0673 </r>
       <r>   7.5698   4.7550  37.4520 </r>
       <r>   7.6507   7.9339  38.0938 </r>
       <r>   7.7316   7.4216  38.6941 </r>
       <r>   7.8125   3.8958  39.0093 </r>
       <r>   7.8934   0.7550  39.0704 </r>
       <r>   7.9743  -0.3817  39.0395 </r>
       <r>   8.0552  -0.3354  39.0124 </r>
       <r>   8.1361  -0.1217  39.0025 </r>
       <r>   8.2170  -0.0267  39.0003 </r>
       <r>   8.2979  -0.0039  39.0000 </r>
       <r>   8.3787  -0.0004  39.0000 </r>
       <r>   8.4596   0.0000  39.0000 </r>
       <r>   8.5405   0.0000  39.0000 </r>
       <r>   8.6214   0.0000  39.0000 </r>
       <r>   8.7023   0.0000  39.0000 </r>
       <r>   8.7832   0.0000  39.0000 </r>
       <r>   8.8641   0.0000  39.0000 </r>
       <r>   8.9450   0.0000  39.0000 </r>
       <r>   9.0259   0.0000  39.0000 </r>
       <r>   9.1068   0.0000  39.0000 </r>
       <r>   9.1877   0.0000  39.0000 </r>
       <r>   9.2686   0.0000  39.0000 </r>
       <r>   9.3495   0.0000  39.0000 </r>
       <r>   9.4304   0.0000  39.0000 </r>
       <r>   9.5113   0.0000  39.0000 </r>
       <r>   9.5922   0.0000  39.0000 </r>
       <r>   9.6731   0.0000  39.0000 </r>
       <r>   9.7539   0.0000  39.0000 </r>
      </set>
      <set comment="spin 2">
       <r> -14.5143   0.0000   0.0000 </r>
       <r> -14.4334   0.0000   0.0000 </r>
       <r> -14.3525   0.0000   0.0000 </r>
       <r> -14.2716   0.0000   0.0000 </r>
       <r> -14.1907   0.0000   0.0000 </r>
       <r> -14.1098   0.0000   0.0000 </r>
       <r> -14.0289   0.0000   0.0000 </r>
       <r> -13.9480   0.0000   0.0000 </r>
       <r> -13.8672   0.0000   0.0000 </r>
       <r> -13.7863   0.0000   0.0000 </r>
       <r> -13.7054   0.0000   0.0000 </r>
       <r> -13.6245   0.0000   0.0000 </r>
       <r> -13.5436   0.0000   0.0000 </r>
       <r> -13.4627   0.0000   0.0000 </r>
       <r> -13.3818   0.0000   0.0000 </r>
       <r> -13.3009   0.0000   0.0000 </r>
       <r> -13.2200  -0.0001   0.0000 </r>
       <r> -13.1391  -0.0008  -0.0001 </r>
       <r> -13.0582  -0.0088  -0.0008 </r>
       <r> -12.9773  -0.0656  -0.0061 </r>
       <r> -12.8964  -0.3383  -0.0335 </r>
       <r> -12.8155  -1.1597  -0.1273 </r>
       <r> -12.7346  -2.3138  -0.3145 </r>
       <r> -12.6537  -0.8576  -0.3838 </r>
       <r> -12.5728   9.5785   0.3910 </r>
       <r> -12.4920  31.4750   2.9372 </r>
       <r> -12.4111  52.9035   7.2168 </r>
       <r> -12.3302  54.8234  11.6516 </r>
       <r> -12.2493  34.9644  14.4801 </r>
       <r> -12.1684  11.4774  15.4085 </r>
       <r> -12.0875  -0.6995  15.3519 </r>
       <r> -12.0066  -2.6021  15.1414 </r>
       <r> -11.9257  -1.3042  15.0359 </r>
       <r> -11.8448  -0.3676  15.0062 </r>
       <r> -11.7639  -0.0674  15.0007 </r>
       <r> -11.6830  -0.0084  15.0001 </r>
       <r> -11.6021  -0.0007  15.0000 </r>
       <r> -11.5212   0.0000  15.0000 </r>
       <r> -11.4403   0.0000  15.0000 </r>
       <r> -11.3594   0.0000  15.0000 </r>
       <r> -11.2785   0.0000  15.0000 </r>
       <r> -11.1976   0.0000  15.0000 </r>
       <r> -11.1167   0.0000  15.0000 </r>
       <r> -11.0359   0.0000  15.0000 </r>
       <r> -10.9550   0.0000  15.0000 </r>
       <r> -10.8741   0.0000  15.0000 </r>
       <r> -10.7932   0.0000  15.0000 </r>
       <r> -10.7123   0.0000  15.0000 </r>
       <r> -10.6314   0.0000  15.0000 </r>
       <r> -10.5505   0.0000  15.0000 </r>
       <r> -10.4696   0.0000  15.0000 </r>
       <r> -10.3887   0.0000  15.0000 </r>
       <r> -10.3078   0.0000  15.0000 </r>
       <r> -10.2269   0.0000  15.0000 </r>
       <r> -10.1460   0.0000  15.0000 </r>
       <r> -10.0651   0.0000  15.0000 </r>
       <r>  -9.9842   0.0000  15.0000 </r>
       <r>  -9.9033   0.0000  15.0000 </r>
       <r>  -9.8224  -0.0001  15.0000 </r>
       <r>  -9.7415  -0.0009  14.9999 </r>
       <r>  -9.6607  -0.0070  14.9994 </r>
       <r>  -9.5798  -0.0370  14.9964 </r>
       <r>  -9.4989  -0.1245  14.9863 </r>
       <r>  -9.4180  -0.2165  14.9688 </r>
       <r>  -9.3371   0.0628  14.9739 </r>
       <r>  -9.2562   1.2809  15.0775 </r>
       <r>  -9.1753   3.1653  15.3335 </r>
       <r>  -9.0944   4.1369  15.6682 </r>
       <r>  -9.0135   3.1560  15.9235 </r>
       <r>  -8.9326   1.2717  16.0264 </r>
       <r>  -8.8517   0.0592  16.0311 </r>
       <r>  -8.7708  -0.2165  16.0136 </r>
       <r>  -8.6899  -0.1239  16.0036 </r>
       <r>  -8.6090  -0.0373  16.0006 </r>
       <r>  -8.5281  -0.0125  15.9996 </r>
       <r>  -8.4472  -0.0367  15.9966 </r>
       <r>  -8.3663  -0.1509  15.9844 </r>
       <r>  -8.2855  -0.3746  15.9541 </r>
       <r>  -8.2046  -0.3148  15.9286 </r>
       <r>  -8.1237   1.1174  16.0190 </r>
       <r>  -8.0428   4.4412  16.3783 </r>
       <r>  -7.9619   7.5989  16.9930 </r>
       <r>  -7.8810   7.7440  17.6194 </r>
       <r>  -7.8001   5.6017  18.0726 </r>
       <r>  -7.7192   4.1793  18.4107 </r>
       <r>  -7.6383   3.7932  18.7175 </r>
       <r>  -7.5574   2.7636  18.9411 </r>
       <r>  -7.4765   1.1003  19.0301 </r>
       <r>  -7.3956   0.0146  19.0313 </r>
       <r>  -7.3147  -0.2211  19.0134 </r>
       <r>  -7.2338  -0.1221  19.0035 </r>
       <r>  -7.1529  -0.0358  19.0006 </r>
       <r>  -7.0720  -0.0067  19.0001 </r>
       <r>  -6.9911  -0.0008  19.0000 </r>
       <r>  -6.9103  -0.0001  19.0000 </r>
       <r>  -6.8294   0.0000  19.0000 </r>
       <r>  -6.7485   0.0000  19.0000 </r>
       <r>  -6.6676   0.0000  19.0000 </r>
       <r>  -6.5867   0.0000  19.0000 </r>
       <r>  -6.5058   0.0000  19.0000 </r>
       <r>  -6.4249   0.0000  19.0000 </r>
       <r>  -6.3440   0.0000  19.0000 </r>
       <r>  -6.2631   0.0000  19.0000 </r>
       <r>  -6.1822   0.0000  19.0000 </r>
       <r>  -6.1013   0.0000  19.0000 </r>
       <r>  -6.0204   0.0000  19.0000 </r>
       <r>  -5.9395   0.0000  19.0000 </r>
       <r>  -5.8586   0.0000  19.0000 </r>
       <r>  -5.7777   0.0000  19.0000 </r>
       <r>  -5.6968   0.0000  19.0000 </r>
       <r>  -5.6159   0.0000  19.0000 </r>
       <r>  -5.5351   0.0000  19.0000 </r>
       <r>  -5.4542   0.0000  19.0000 </r>
       <r>  -5.3733   0.0000  19.0000 </r>
       <r>  -5.2924   0.0000  19.0000 </r>
       <r>  -5.2115   0.0000  19.0000 </r>
       <r>  -5.1306   0.0000  19.0000 </r>
       <r>  -5.0497   0.0000  19.0000 </r>
       <r>  -4.9688   0.0000  19.0000 </r>
       <r>  -4.8879   0.0000  19.0000 </r>
       <r>  -4.8070   0.0000  19.0000 </r>
       <r>  -4.7261   0.0000  19.0000 </r>
       <r>  -4.6452   0.0000  19.0000 </r>
       <r>  -4.5643   0.0000  19.0000 </r>
       <r>  -4.4834   0.0000  19.0000 </r>
       <r>  -4.4025   0.0000  19.0000 </r>
       <r>  -4.3216   0.0000  19.0000 </r>
       <r>  -4.2407  -0.0002  19.0000 </r>
       <r>  -4.1599  -0.0025  18.9998 </r>
       <r>  -4.0790  -0.0189  18.9982 </r>
       <r>  -3.9981  -0.0936  18.9907 </r>
       <r>  -3.9172  -0.2884  18.9673 </r>
       <r>  -3.8363  -0.4244  18.9330 </r>
       <r>  -3.7554   0.3779  18.9636 </r>
       <r>  -3.6745   3.1521  19.2186 </r>
       <r>  -3.5936   6.8750  19.7747 </r>
       <r>  -3.5127   8.2128  20.4391 </r>
       <r>  -3.4318   5.7140  20.9013 </r>
       <r>  -3.3509   1.9988  21.0630 </r>
       <r>  -3.2700  -0.0771  21.0568 </r>
       <r>  -3.1891  -0.4226  21.0226 </r>
       <r>  -3.1082  -0.2103  21.0056 </r>
       <r>  -3.0273  -0.0574  21.0009 </r>
       <r>  -2.9464  -0.0101  21.0001 </r>
       <r>  -2.8655  -0.0012  21.0000 </r>
       <r>  -2.7847  -0.0002  21.0000 </r>
       <r>  -2.7038  -0.0010  20.9999 </r>
       <r>  -2.6229  -0.0080  20.9993 </r>
       <r>  -2.5420  -0.0412  20.9959 </r>
       <r>  -2.4611  -0.1333  20.9851 </r>
       <r>  -2.3802  -0.2159  20.9677 </r>
       <r>  -2.2993   0.1163  20.9771 </r>
       <r>  -2.2184   1.4119  21.0913 </r>
       <r>  -2.1375   3.2921  21.3576 </r>
       <r>  -2.0566   4.1304  21.6917 </r>
       <r>  -1.9757   3.0235  21.9363 </r>
       <r>  -1.8948   1.1456  22.0290 </r>
       <r>  -1.8139   0.0118  22.0299 </r>
       <r>  -1.7330  -0.2151  22.0125 </r>
       <r>  -1.6521  -0.1153  22.0032 </r>
       <r>  -1.5712  -0.0329  22.0005 </r>
       <r>  -1.4903  -0.0060  22.0001 </r>
       <r>  -1.4094  -0.0007  22.0000 </r>
       <r>  -1.3286  -0.0001  22.0000 </r>
       <r>  -1.2477  -0.0001  22.0000 </r>
       <r>  -1.1668  -0.0006  21.9999 </r>
       <r>  -1.0859  -0.0058  21.9995 </r>
       <r>  -1.0050  -0.0373  21.9965 </r>
       <r>  -0.9241  -0.1564  21.9838 </r>
       <r>  -0.8432  -0.3886  21.9524 </r>
       <r>  -0.7623  -0.3433  21.9246 </r>
       <r>  -0.6814   1.0676  22.0110 </r>
       <r>  -0.6005   4.4508  22.3710 </r>
       <r>  -0.5196   8.0772  23.0244 </r>
       <r>  -0.4387   9.2515  23.7728 </r>
       <r>  -0.3578   7.6820  24.3942 </r>
       <r>  -0.2769   5.0186  24.8002 </r>
       <r>  -0.1960   2.4423  24.9978 </r>
       <r>  -0.1151   0.5955  25.0459 </r>
       <r>  -0.0342  -0.1902  25.0306 </r>
       <r>   0.0466  -0.2496  25.0104 </r>
       <r>   0.1275  -0.1541  24.9979 </r>
       <r>   0.2084  -0.1744  24.9838 </r>
       <r>   0.2893  -0.2202  24.9660 </r>
       <r>   0.3702   0.1766  24.9803 </r>
       <r>   0.4511   1.5086  25.1023 </r>
       <r>   0.5320   3.2555  25.3657 </r>
       <r>   0.6129   4.0239  25.6912 </r>
       <r>   0.6938   3.7029  25.9907 </r>
       <r>   0.7747   3.6615  26.2869 </r>
       <r>   0.8556   3.9230  26.6043 </r>
       <r>   0.9365   3.0422  26.8504 </r>
       <r>   1.0174   1.2042  26.9478 </r>
       <r>   1.0983   0.7159  27.0057 </r>
       <r>   1.1792   3.1660  27.2618 </r>
       <r>   1.2601   6.9034  27.8202 </r>
       <r>   1.3410   8.1091  28.4762 </r>
       <r>   1.4218   5.4751  28.9191 </r>
       <r>   1.5027   1.8109  29.0656 </r>
       <r>   1.5836  -0.1360  29.0546 </r>
       <r>   1.6645  -0.4153  29.0210 </r>
       <r>   1.7454  -0.1973  29.0050 </r>
       <r>   1.8263  -0.0524  29.0008 </r>
       <r>   1.9072  -0.0093  29.0001 </r>
       <r>   1.9881  -0.0048  28.9997 </r>
       <r>   2.0690  -0.0264  28.9975 </r>
       <r>   2.1499  -0.1201  28.9878 </r>
       <r>   2.2308  -0.3331  28.9609 </r>
       <r>   2.3117  -0.3848  28.9297 </r>
       <r>   2.3926   0.7337  28.9891 </r>
       <r>   2.4735   3.8582  29.3012 </r>
       <r>   2.5544   7.4057  29.9003 </r>
       <r>   2.6353   8.0045  30.5478 </r>
       <r>   2.7162   4.9992  30.9522 </r>
       <r>   2.7970   1.4468  31.0692 </r>
       <r>   2.8779  -0.2386  31.0499 </r>
       <r>   2.9588  -0.3952  31.0180 </r>
       <r>   3.0397  -0.1715  31.0041 </r>
       <r>   3.1206  -0.0428  31.0006 </r>
       <r>   3.2015  -0.0070  31.0001 </r>
       <r>   3.2824  -0.0008  31.0000 </r>
       <r>   3.3633  -0.0001  31.0000 </r>
       <r>   3.4442   0.0000  31.0000 </r>
       <r>   3.5251   0.0000  31.0000 </r>
       <r>   3.6060   0.0000  31.0000 </r>
       <r>   3.6869   0.0000  31.0000 </r>
       <r>   3.7678   0.0000  31.0000 </r>
       <r>   3.8487  -0.0003  31.0000 </r>
       <r>   3.9296  -0.0031  30.9997 </r>
       <r>   4.0105  -0.0197  30.9981 </r>
       <r>   4.0914  -0.0808  30.9916 </r>
       <r>   4.1722  -0.1928  30.9760 </r>
       <r>   4.2531  -0.1368  30.9649 </r>
       <r>   4.3340   0.6509  31.0176 </r>
       <r>   4.4149   2.3777  31.2099 </r>
       <r>   4.4958   3.8569  31.5219 </r>
       <r>   4.5767   3.4590  31.8017 </r>
       <r>   4.6576   1.6166  31.9325 </r>
       <r>   4.7385   0.9415  32.0087 </r>
       <r>   4.8194   3.2629  32.2726 </r>
       <r>   4.9003   6.9391  32.8340 </r>
       <r>   4.9812   8.0783  33.4874 </r>
       <r>   5.0621   5.4010  33.9244 </r>
       <r>   5.1430   1.7546  34.0663 </r>
       <r>   5.2239  -0.1528  34.0539 </r>
       <r>   5.3048  -0.4127  34.0205 </r>
       <r>   5.3857  -0.1934  34.0049 </r>
       <r>   5.4666  -0.0508  34.0008 </r>
       <r>   5.5474  -0.0086  34.0001 </r>
       <r>   5.6283  -0.0010  34.0000 </r>
       <r>   5.7092  -0.0002  34.0000 </r>
       <r>   5.7901  -0.0014  33.9999 </r>
       <r>   5.8710  -0.0101  33.9991 </r>
       <r>   5.9519  -0.0494  33.9951 </r>
       <r>   6.0328  -0.1489  33.9830 </r>
       <r>   6.1137  -0.2095  33.9661 </r>
       <r>   6.1946   0.2231  33.9841 </r>
       <r>   6.2755   1.6487  34.1175 </r>
       <r>   6.3564   3.4973  34.4004 </r>
       <r>   6.4373   4.0906  34.7313 </r>
       <r>   6.5182   2.7831  34.9564 </r>
       <r>   6.5991   0.9372  35.0323 </r>
       <r>   6.6800  -0.0689  35.0267 </r>
       <r>   6.7609  -0.2702  35.0048 </r>
       <r>   6.8418  -0.3204  34.9789 </r>
       <r>   6.9226  -0.4537  34.9422 </r>
       <r>   7.0035  -0.0374  34.9392 </r>
       <r>   7.0844   2.1306  35.1115 </r>
       <r>   7.1653   5.8656  35.5860 </r>
       <r>   7.2462   8.2184  36.2508 </r>
       <r>   7.3271   6.6426  36.7882 </r>
       <r>   7.4080   2.6978  37.0064 </r>
       <r>   7.4889  -0.1073  36.9978 </r>
       <r>   7.5698   0.0482  37.0016 </r>
       <r>   7.6507   3.0824  37.2510 </r>
       <r>   7.7316   6.9567  37.8137 </r>
       <r>   7.8125   8.1479  38.4729 </r>
       <r>   7.8934   5.5000  38.9178 </r>
       <r>   7.9743   1.8252  39.0654 </r>
       <r>   8.0552  -0.1319  39.0548 </r>
       <r>   8.1361  -0.4159  39.0211 </r>
       <r>   8.2170  -0.1982  39.0051 </r>
       <r>   8.2979  -0.0527  39.0008 </r>
       <r>   8.3787  -0.0090  39.0001 </r>
       <r>   8.4596  -0.0010  39.0000 </r>
       <r>   8.5405  -0.0001  39.0000 </r>
       <r>   8.6214   0.0000  39.0000 </r>
       <r>   8.7023   0.0000  39.0000 </r>
       <r>   8.7832   0.0000  39.0000 </r>
       <r>   8.8641   0.0000  39.0000 </r>
       <r>   8.9450   0.0000  39.0000 </r>
       <r>   9.0259   0.0000  39.0000 </r>
       <r>   9.1068   0.0000  39.0000 </r>
       <r>   9.1877   0.0000  39.0000 </r>
       <r>   9.2686   0.0000  39.0000 </r>
       <r>   9.3495   0.0000  39.0000 </r>
       <r>   9.4304   0.0000  39.0000 </r>
       <r>   9.5113   0.0000  39.0000 </r>
       <r>   9.5922   0.0000  39.0000 </r>
       <r>   9.6731   0.0000  39.0000 </r>
       <r>   9.7539   0.0000  39.0000 </r>
      </set>
     </set>
    </array>
   </total>
  </dos>
 </calculation>
 <structure name="finalpos" >
  <crystal>
   <varray name="basis" >
    <v>       5.62660000       0.00000000       0.00000000 </v>
    <v>       0.00000000       5.62660000       0.00000000 </v>
    <v>       0.00000000       0.00000000       5.62660000 </v>
   </varray>
   <i name="volume">    178.13043383 </i>
   <varray name="rec_basis" >
    <v>       0.17772722       0.00000000       0.00000000 </v>
    <v>       0.00000000       0.17772722       0.00000000 </v>
    <v>       0.00000000       0.00000000       0.17772722 </v>
   </varray>
  </crystal>
  <varray name="positions" >
   <v>       0.50000000       0.50000000       0.00000000 </v>
   <v>       0.00000000       0.50000000       0.50000000 </v>
   <v>       0.50000000       0.00000000       0.50000000 </v>
   <v>       0.23332963       0.23332963       0.23332963 </v>
   <v>       0.76667037       0.76667037       0.23332963 </v>
   <v>       0.23332963       0.76667037       0.76667037 </v>
   <v>       0.76667037       0.23332963       0.76667037 </v>
  </varray>
 </structure>
</modeling>
