 108 108   0   0
  0.1201212E+02  0.1090639E-08  0.1090639E-08  0.1090639E-08  0.5000000E-15
  1.000000000000000E-004
  CAR 
 unknown system                          
     27.05430642     -7.52093660  301      3.77314421      1.00000000
     -7.521  0.0000E+00  0.0000E+00  0.0000E+00  0.0000E+00
     -7.406  0.0000E+00  0.0000E+00  0.0000E+00  0.0000E+00
     -7.290  0.0000E+00  0.0000E+00  0.0000E+00  0.0000E+00
     -7.175  0.0000E+00  0.0000E+00  0.0000E+00  0.0000E+00
     -7.060  0.0000E+00  0.0000E+00  0.0000E+00  0.0000E+00
     -6.945  0.0000E+00  0.0000E+00  0.0000E+00  0.0000E+00
     -6.829  0.0000E+00  0.0000E+00  0.0000E+00  0.0000E+00
     -6.714  0.0000E+00  0.0000E+00  0.0000E+00  0.0000E+00
     -6.599  0.0000E+00  0.0000E+00  0.0000E+00  0.0000E+00
     -6.484  0.0000E+00  0.0000E+00  0.0000E+00  0.0000E+00
     -6.368  0.0000E+00  0.0000E+00  0.0000E+00  0.0000E+00
     -6.253  0.0000E+00  0.0000E+00  0.0000E+00  0.0000E+00
     -6.138  0.0000E+00  0.0000E+00  0.0000E+00  0.0000E+00
     -6.023  0.0000E+00  0.0000E+00  0.0000E+00  0.0000E+00
     -5.907  0.0000E+00  0.0000E+00  0.0000E+00  0.0000E+00
     -5.792  0.0000E+00  0.0000E+00  0.0000E+00  0.0000E+00
     -5.677  0.0000E+00  0.0000E+00  0.0000E+00  0.0000E+00
     -5.562  0.0000E+00  0.0000E+00  0.0000E+00  0.0000E+00
     -5.446  0.1328E+01  0.1333E+01  0.8639E-01  0.8695E-01
     -5.331  0.3216E+01  0.3218E+01  0.3899E+00  0.3913E+00
     -5.216  0.2422E+01  0.2415E+01  0.8031E+00  0.8041E+00
     -5.101  0.7783E+00  0.7736E+00  0.9807E+00  0.9810E+00
     -4.985  0.4199E+01  0.4212E+01  0.1163E+01  0.1165E+01
     -4.870  0.3366E+01  0.3354E+01  0.1734E+01  0.1736E+01
     -4.755  0.2884E+01  0.2884E+01  0.2082E+01  0.2083E+01
     -4.640  0.2847E+01  0.2849E+01  0.2425E+01  0.2427E+01
     -4.524  0.4748E+01  0.4758E+01  0.2897E+01  0.2899E+01
     -4.409  0.4153E+01  0.4152E+01  0.3670E+01  0.3672E+01
     -4.294  0.1901E+01  0.1906E+01  0.4167E+01  0.4168E+01
     -4.179  0.4854E+01  0.4861E+01  0.4585E+01  0.4587E+01
     -4.063  0.4165E+01  0.4150E+01  0.5213E+01  0.5215E+01
     -3.948  0.3994E+01  0.3985E+01  0.6081E+01  0.6083E+01
     -3.833  0.1444E+02  0.1444E+02  0.6754E+01  0.6760E+01
     -3.718  0.1262E+01  0.1264E+01  0.7236E+01  0.7237E+01
     -3.602  0.0000E+00  0.0000E+00  0.8000E+01  0.8000E+01
     -3.487  0.3090E+01  0.3098E+01  0.8874E+01  0.8876E+01
     -3.372  0.8839E+01  0.8833E+01  0.9641E+01  0.9645E+01
     -3.257  0.3629E+01  0.3623E+01  0.1039E+02  0.1039E+02
     -3.141  0.1047E+02  0.1048E+02  0.1108E+02  0.1108E+02
     -3.026  0.6183E+01  0.6066E+01  0.1231E+02  0.1232E+02
     -2.911  0.7171E+01  0.7181E+01  0.1363E+02  0.1363E+02
     -2.796  0.7247E+01  0.7248E+01  0.1455E+02  0.1455E+02
     -2.680  0.6317E+01  0.6304E+01  0.1583E+02  0.1583E+02
     -2.565  0.2889E+01  0.2888E+01  0.1647E+02  0.1647E+02
     -2.450  0.7672E+01  0.7702E+01  0.1700E+02  0.1700E+02
     -2.335  0.1987E+02  0.1988E+02  0.1894E+02  0.1894E+02
     -2.219  0.6229E+01  0.6238E+01  0.2077E+02  0.2077E+02
     -2.104  0.1184E+02  0.1184E+02  0.2193E+02  0.2194E+02
     -1.989  0.1458E+02  0.1463E+02  0.2299E+02  0.2299E+02
     -1.874  0.2746E+02  0.2742E+02  0.2478E+02  0.2479E+02
     -1.758  0.6780E+01  0.6812E+01  0.2651E+02  0.2651E+02
     -1.643  0.2196E+02  0.2195E+02  0.2906E+02  0.2907E+02
     -1.528  0.3856E+01  0.3855E+01  0.3101E+02  0.3101E+02
     -1.413  0.4734E+01  0.4726E+01  0.3259E+02  0.3260E+02
     -1.297  0.3122E+02  0.3119E+02  0.3672E+02  0.3672E+02
     -1.182  0.2912E+02  0.2911E+02  0.4124E+02  0.4124E+02
     -1.067  0.4539E+02  0.4538E+02  0.4644E+02  0.4644E+02
     -0.952  0.7362E+01  0.7314E+01  0.5396E+02  0.5396E+02
     -0.836  0.3615E+02  0.3617E+02  0.6126E+02  0.6126E+02
     -0.721  0.4871E+02  0.4870E+02  0.6864E+02  0.6864E+02
     -0.606  0.8474E+02  0.8472E+02  0.7780E+02  0.7780E+02
     -0.491  0.3791E+02  0.3797E+02  0.8896E+02  0.8895E+02
     -0.375  0.1181E+03  0.1180E+03  0.1018E+03  0.1018E+03
     -0.260  0.8921E+02  0.8942E+02  0.1178E+03  0.1177E+03
     -0.145  0.1049E+03  0.1071E+03  0.1317E+03  0.1317E+03
     -0.030  0.8555E+02  0.8283E+02  0.1445E+03  0.1445E+03
      0.086  0.2133E+03  0.2150E+03  0.1585E+03  0.1585E+03
      0.201  0.8992E+02  0.8991E+02  0.1715E+03  0.1715E+03
      0.316  0.1026E+03  0.1037E+03  0.1872E+03  0.1872E+03
      0.431  0.1728E+03  0.1726E+03  0.2063E+03  0.2063E+03
      0.547  0.1579E+03  0.1575E+03  0.2253E+03  0.2252E+03
      0.662  0.1492E+03  0.1495E+03  0.2487E+03  0.2487E+03
      0.777  0.1923E+03  0.1920E+03  0.2729E+03  0.2729E+03
      0.892  0.2068E+03  0.2065E+03  0.2995E+03  0.2995E+03
      1.008  0.1496E+03  0.1495E+03  0.3252E+03  0.3252E+03
      1.123  0.1596E+03  0.1598E+03  0.3441E+03  0.3441E+03
      1.238  0.9435E+02  0.9457E+02  0.3604E+03  0.3604E+03
      1.353  0.2061E+03  0.2070E+03  0.3792E+03  0.3791E+03
      1.469  0.1659E+03  0.1681E+03  0.4036E+03  0.4036E+03
      1.584  0.2251E+03  0.2251E+03  0.4257E+03  0.4256E+03
      1.699  0.1580E+03  0.1614E+03  0.4468E+03  0.4467E+03
      1.814  0.1072E+03  0.1092E+03  0.4672E+03  0.4671E+03
      1.930  0.1575E+03  0.1562E+03  0.4898E+03  0.4898E+03
      2.045  0.3047E+03  0.3044E+03  0.5187E+03  0.5186E+03
      2.160  0.2390E+03  0.2563E+03  0.5507E+03  0.5506E+03
      2.275  0.2926E+02  0.2931E+02  0.5618E+03  0.5618E+03
      2.391  0.1554E+02  0.1553E+02  0.5643E+03  0.5643E+03
      2.506  0.1712E+02  0.1708E+02  0.5676E+03  0.5676E+03
      2.621  0.1373E+02  0.1373E+02  0.5693E+03  0.5693E+03
      2.736  0.5713E+01  0.5715E+01  0.5713E+03  0.5713E+03
      2.852  0.1545E+02  0.1547E+02  0.5738E+03  0.5738E+03
      2.967  0.1517E+02  0.1517E+02  0.5768E+03  0.5768E+03
      3.082  0.5749E+01  0.5750E+01  0.5779E+03  0.5779E+03
      3.197  0.2624E+02  0.2624E+02  0.5804E+03  0.5804E+03
      3.313  0.1160E+02  0.1160E+02  0.5828E+03  0.5828E+03
      3.428  0.1712E+02  0.1713E+02  0.5852E+03  0.5852E+03
      3.543  0.1274E+02  0.1274E+02  0.5870E+03  0.5870E+03
      3.658  0.1103E+02  0.1103E+02  0.5886E+03  0.5886E+03
      3.774  0.1348E+02  0.1348E+02  0.5900E+03  0.5900E+03
      3.889  0.1439E+02  0.1437E+02  0.5922E+03  0.5922E+03
      4.004  0.1564E+02  0.1565E+02  0.5935E+03  0.5935E+03
      4.119  0.8662E+01  0.8669E+01  0.5968E+03  0.5968E+03
      4.235  0.1122E+02  0.1125E+02  0.5986E+03  0.5986E+03
      4.350  0.4383E+01  0.4386E+01  0.5994E+03  0.5994E+03
      4.465  0.1229E+02  0.1230E+02  0.6004E+03  0.6004E+03
      4.580  0.1540E+02  0.1540E+02  0.6023E+03  0.6023E+03
      4.696  0.1090E+02  0.1090E+02  0.6040E+03  0.6040E+03
      4.811  0.1794E+02  0.1795E+02  0.6060E+03  0.6060E+03
      4.926  0.1530E+02  0.1531E+02  0.6082E+03  0.6083E+03
      5.041  0.1169E+02  0.1169E+02  0.6101E+03  0.6101E+03
      5.157  0.1244E+02  0.1244E+02  0.6116E+03  0.6116E+03
      5.272  0.7209E+01  0.7209E+01  0.6131E+03  0.6131E+03
      5.387  0.1171E+02  0.1171E+02  0.6145E+03  0.6145E+03
      5.502  0.6719E+01  0.6717E+01  0.6157E+03  0.6157E+03
      5.618  0.9541E+01  0.9521E+01  0.6174E+03  0.6174E+03
      5.733  0.5245E+01  0.5243E+01  0.6182E+03  0.6182E+03
      5.848  0.1805E+02  0.1806E+02  0.6199E+03  0.6199E+03
      5.963  0.9021E+01  0.9017E+01  0.6224E+03  0.6224E+03
      6.079  0.9131E+01  0.9130E+01  0.6235E+03  0.6235E+03
      6.194  0.6472E+01  0.6467E+01  0.6246E+03  0.6246E+03
      6.309  0.1059E+02  0.1059E+02  0.6261E+03  0.6261E+03
      6.424  0.2684E+01  0.2683E+01  0.6272E+03  0.6272E+03
      6.540  0.8754E+01  0.8756E+01  0.6283E+03  0.6283E+03
      6.655  0.1019E+02  0.1018E+02  0.6294E+03  0.6294E+03
      6.770  0.7374E+01  0.7371E+01  0.6307E+03  0.6307E+03
      6.885  0.4364E+01  0.4360E+01  0.6315E+03  0.6315E+03
      7.001  0.1037E+02  0.1035E+02  0.6328E+03  0.6328E+03
      7.116  0.1130E+02  0.1134E+02  0.6340E+03  0.6340E+03
      7.231  0.1283E+02  0.1283E+02  0.6355E+03  0.6355E+03
      7.346  0.9331E+01  0.9325E+01  0.6368E+03  0.6368E+03
      7.462  0.7707E+01  0.7702E+01  0.6381E+03  0.6381E+03
      7.577  0.5308E+01  0.5306E+01  0.6389E+03  0.6389E+03
      7.692  0.1573E+02  0.1572E+02  0.6403E+03  0.6403E+03
      7.807  0.2721E+02  0.2721E+02  0.6422E+03  0.6422E+03
      7.923  0.1677E+02  0.1676E+02  0.6447E+03  0.6447E+03
      8.038  0.1965E+02  0.1971E+02  0.6467E+03  0.6467E+03
      8.153  0.8003E+01  0.8002E+01  0.6478E+03  0.6478E+03
      8.268  0.1782E+02  0.1782E+02  0.6495E+03  0.6495E+03
      8.384  0.1697E+02  0.1696E+02  0.6516E+03  0.6516E+03
      8.499  0.1175E+02  0.1175E+02  0.6533E+03  0.6533E+03
      8.614  0.1850E+02  0.1852E+02  0.6553E+03  0.6553E+03
      8.729  0.3051E+02  0.3045E+02  0.6574E+03  0.6574E+03
      8.845  0.2592E+02  0.2580E+02  0.6584E+03  0.6584E+03
      8.960  0.1321E+02  0.1329E+02  0.6604E+03  0.6604E+03
      9.075  0.4827E+01  0.4836E+01  0.6623E+03  0.6623E+03
      9.190  0.9076E+01  0.9080E+01  0.6633E+03  0.6633E+03
      9.306  0.1350E+02  0.1351E+02  0.6646E+03  0.6646E+03
      9.421  0.1196E+02  0.1197E+02  0.6668E+03  0.6668E+03
      9.536  0.1322E+02  0.1323E+02  0.6682E+03  0.6682E+03
      9.651  0.2320E+02  0.2317E+02  0.6707E+03  0.6707E+03
      9.767  0.4460E+01  0.4461E+01  0.6723E+03  0.6723E+03
      9.882  0.1086E+02  0.1087E+02  0.6732E+03  0.6732E+03
      9.997  0.1355E+02  0.1356E+02  0.6747E+03  0.6747E+03
     10.112  0.1606E+02  0.1605E+02  0.6767E+03  0.6767E+03
     10.228  0.7174E+01  0.7174E+01  0.6781E+03  0.6781E+03
     10.343  0.8200E+01  0.8199E+01  0.6790E+03  0.6790E+03
     10.458  0.1286E+02  0.1286E+02  0.6806E+03  0.6806E+03
     10.573  0.1016E+02  0.1016E+02  0.6821E+03  0.6821E+03
     10.689  0.1167E+02  0.1168E+02  0.6840E+03  0.6840E+03
     10.804  0.1556E+02  0.1556E+02  0.6856E+03  0.6856E+03
     10.919  0.1559E+02  0.1559E+02  0.6875E+03  0.6875E+03
     11.034  0.1254E+02  0.1254E+02  0.6893E+03  0.6893E+03
     11.150  0.1778E+02  0.1778E+02  0.6914E+03  0.6914E+03
     11.265  0.1725E+02  0.1724E+02  0.6938E+03  0.6938E+03
     11.380  0.1103E+02  0.1115E+02  0.6952E+03  0.6952E+03
     11.495  0.1793E+02  0.1793E+02  0.6972E+03  0.6973E+03
     11.611  0.1111E+02  0.1111E+02  0.6990E+03  0.6990E+03
     11.726  0.1585E+02  0.1584E+02  0.7007E+03  0.7007E+03
     11.841  0.1774E+02  0.1773E+02  0.7027E+03  0.7027E+03
     11.956  0.1414E+02  0.1414E+02  0.7048E+03  0.7048E+03
     12.072  0.1880E+02  0.1880E+02  0.7070E+03  0.7070E+03
     12.187  0.2359E+02  0.2359E+02  0.7097E+03  0.7097E+03
     12.302  0.2286E+02  0.2285E+02  0.7127E+03  0.7127E+03
     12.417  0.1280E+02  0.1278E+02  0.7152E+03  0.7152E+03
     12.533  0.1313E+02  0.1313E+02  0.7170E+03  0.7170E+03
     12.648  0.1186E+02  0.1187E+02  0.7189E+03  0.7190E+03
     12.763  0.1691E+02  0.1692E+02  0.7207E+03  0.7207E+03
     12.878  0.2411E+02  0.2413E+02  0.7237E+03  0.7237E+03
     12.994  0.1695E+02  0.1695E+02  0.7264E+03  0.7264E+03
     13.109  0.1553E+02  0.1553E+02  0.7285E+03  0.7285E+03
     13.224  0.1382E+02  0.1382E+02  0.7304E+03  0.7304E+03
     13.339  0.1110E+02  0.1110E+02  0.7322E+03  0.7322E+03
     13.455  0.1320E+02  0.1320E+02  0.7339E+03  0.7339E+03
     13.570  0.9761E+01  0.9779E+01  0.7354E+03  0.7355E+03
     13.685  0.2167E+02  0.2167E+02  0.7386E+03  0.7386E+03
     13.800  0.1498E+02  0.1499E+02  0.7405E+03  0.7405E+03
     13.916  0.1195E+02  0.1194E+02  0.7437E+03  0.7437E+03
     14.031  0.1183E+02  0.1183E+02  0.7464E+03  0.7464E+03
     14.146  0.1035E+02  0.1034E+02  0.7485E+03  0.7485E+03
     14.261  0.8547E+01  0.8526E+01  0.7513E+03  0.7513E+03
     14.377  0.2056E+02  0.2053E+02  0.7531E+03  0.7531E+03
     14.492  0.1456E+02  0.1454E+02  0.7549E+03  0.7549E+03
     14.607  0.1366E+02  0.1368E+02  0.7572E+03  0.7572E+03
     14.722  0.2043E+02  0.2047E+02  0.7602E+03  0.7602E+03
     14.838  0.1894E+02  0.1893E+02  0.7628E+03  0.7629E+03
     14.953  0.1431E+02  0.1432E+02  0.7648E+03  0.7648E+03
     15.068  0.3022E+02  0.3015E+02  0.7673E+03  0.7673E+03
     15.183  0.2421E+02  0.2417E+02  0.7702E+03  0.7702E+03
     15.299  0.1296E+02  0.1299E+02  0.7727E+03  0.7727E+03
     15.414  0.7935E+01  0.7943E+01  0.7746E+03  0.7746E+03
     15.529  0.1536E+02  0.1540E+02  0.7767E+03  0.7767E+03
     15.644  0.3671E+02  0.3641E+02  0.7802E+03  0.7802E+03
     15.760  0.1071E+02  0.1071E+02  0.7817E+03  0.7817E+03
     15.875  0.1749E+02  0.1749E+02  0.7835E+03  0.7835E+03
     15.990  0.2425E+02  0.2422E+02  0.7867E+03  0.7867E+03
     16.105  0.2212E+02  0.2207E+02  0.7896E+03  0.7896E+03
     16.221  0.1707E+02  0.1706E+02  0.7923E+03  0.7923E+03
     16.336  0.2203E+02  0.2164E+02  0.7946E+03  0.7946E+03
     16.451  0.2445E+02  0.2447E+02  0.7970E+03  0.7970E+03
     16.566  0.1060E+02  0.1060E+02  0.7998E+03  0.7998E+03
     16.682  0.1254E+02  0.1254E+02  0.8018E+03  0.8018E+03
     16.797  0.2190E+02  0.2190E+02  0.8052E+03  0.8052E+03
     16.912  0.2774E+02  0.2774E+02  0.8085E+03  0.8085E+03
     17.027  0.1996E+02  0.1994E+02  0.8119E+03  0.8119E+03
     17.143  0.3877E+02  0.3847E+02  0.8148E+03  0.8148E+03
     17.258  0.2094E+02  0.1924E+02  0.8171E+03  0.8171E+03
     17.373  0.1948E+02  0.1948E+02  0.8196E+03  0.8196E+03
     17.488  0.4198E+02  0.4205E+02  0.8230E+03  0.8230E+03
     17.604  0.2051E+02  0.1208E+02  0.8257E+03  0.8257E+03
     17.719  0.1153E+02  0.1154E+02  0.8272E+03  0.8272E+03
     17.834  0.2506E+02  0.2505E+02  0.8296E+03  0.8296E+03
     17.949  0.2381E+02  0.2377E+02  0.8321E+03  0.8321E+03
     18.065  0.3471E+02  0.3481E+02  0.8346E+03  0.8346E+03
     18.180  0.2829E+02  0.2829E+02  0.8385E+03  0.8385E+03
     18.295  0.1749E+02  0.1751E+02  0.8409E+03  0.8410E+03
     18.410  0.1957E+02  0.1953E+02  0.8438E+03  0.8438E+03
     18.526  0.1330E+02  0.1329E+02  0.8458E+03  0.8459E+03
     18.641  0.1466E+02  0.1465E+02  0.8476E+03  0.8476E+03
     18.756  0.1853E+02  0.1853E+02  0.8500E+03  0.8500E+03
     18.871  0.2304E+02  0.2307E+02  0.8527E+03  0.8528E+03
     18.987  0.1751E+02  0.1750E+02  0.8558E+03  0.8558E+03
     19.102  0.1457E+02  0.1456E+02  0.8579E+03  0.8579E+03
     19.217  0.1913E+02  0.1920E+02  0.8595E+03  0.8595E+03
     19.333  0.2424E+02  0.2417E+02  0.8621E+03  0.8621E+03
     19.448  0.2315E+02  0.2317E+02  0.8648E+03  0.8649E+03
     19.563  0.2466E+02  0.2466E+02  0.8678E+03  0.8679E+03
     19.678  0.1694E+02  0.1694E+02  0.8704E+03  0.8704E+03
     19.794  0.1366E+02  0.1367E+02  0.8725E+03  0.8725E+03
     19.909  0.2373E+02  0.2375E+02  0.8747E+03  0.8747E+03
     20.024  0.1650E+02  0.1660E+02  0.8768E+03  0.8768E+03
     20.139  0.1288E+02  0.1286E+02  0.8785E+03  0.8785E+03
     20.255  0.1615E+02  0.1615E+02  0.8800E+03  0.8800E+03
     20.370  0.1407E+02  0.1407E+02  0.8818E+03  0.8818E+03
     20.485  0.2172E+02  0.2171E+02  0.8843E+03  0.8843E+03
     20.600  0.1522E+02  0.1522E+02  0.8864E+03  0.8864E+03
     20.716  0.1466E+02  0.1466E+02  0.8884E+03  0.8884E+03
     20.831  0.1396E+02  0.1396E+02  0.8902E+03  0.8902E+03
     20.946  0.1785E+02  0.1785E+02  0.8921E+03  0.8922E+03
     21.061  0.1614E+02  0.1613E+02  0.8943E+03  0.8943E+03
     21.177  0.1644E+02  0.1644E+02  0.8964E+03  0.8964E+03
     21.292  0.1686E+02  0.1687E+02  0.8986E+03  0.8986E+03
     21.407  0.1567E+02  0.1567E+02  0.9008E+03  0.9008E+03
     21.522  0.1604E+02  0.1604E+02  0.9028E+03  0.9028E+03
     21.638  0.1690E+02  0.1690E+02  0.9049E+03  0.9049E+03
     21.753  0.2739E+02  0.2702E+02  0.9075E+03  0.9075E+03
     21.868  0.1530E+02  0.1530E+02  0.9098E+03  0.9098E+03
     21.983  0.1538E+02  0.1537E+02  0.9118E+03  0.9118E+03
     22.099  0.1493E+02  0.1494E+02  0.9136E+03  0.9136E+03
     22.214  0.1545E+02  0.1545E+02  0.9156E+03  0.9156E+03
     22.329  0.1671E+02  0.1672E+02  0.9176E+03  0.9176E+03
     22.444  0.1662E+02  0.1661E+02  0.9199E+03  0.9199E+03
     22.560  0.1465E+02  0.1464E+02  0.9219E+03  0.9219E+03
     22.675  0.1589E+02  0.1589E+02  0.9240E+03  0.9240E+03
     22.790  0.1908E+02  0.1909E+02  0.9263E+03  0.9263E+03
     22.905  0.2265E+02  0.2266E+02  0.9291E+03  0.9291E+03
     23.021  0.2162E+02  0.2161E+02  0.9322E+03  0.9322E+03
     23.136  0.1972E+02  0.1968E+02  0.9355E+03  0.9356E+03
     23.251  0.1144E+02  0.1145E+02  0.9375E+03  0.9375E+03
     23.366  0.1600E+02  0.1602E+02  0.9395E+03  0.9395E+03
     23.482  0.2813E+02  0.2813E+02  0.9427E+03  0.9428E+03
     23.597  0.2412E+02  0.2413E+02  0.9457E+03  0.9457E+03
     23.712  0.1670E+02  0.1668E+02  0.9486E+03  0.9486E+03
     23.827  0.1985E+02  0.1986E+02  0.9507E+03  0.9507E+03
     23.943  0.4881E+02  0.4860E+02  0.9541E+03  0.9541E+03
     24.058  0.2650E+02  0.2650E+02  0.9574E+03  0.9574E+03
     24.173  0.2442E+02  0.2443E+02  0.9607E+03  0.9607E+03
     24.288  0.1813E+02  0.1815E+02  0.9633E+03  0.9633E+03
     24.404  0.3222E+02  0.3224E+02  0.9663E+03  0.9663E+03
     24.519  0.2154E+02  0.2156E+02  0.9707E+03  0.9707E+03
     24.634  0.1142E+02  0.1136E+02  0.9729E+03  0.9729E+03
     24.749  0.2956E+02  0.2928E+02  0.9751E+03  0.9751E+03
     24.865  0.1092E+02  0.1562E+02  0.9782E+03  0.9781E+03
     24.980  0.7016E+01  0.7433E+01  0.9796E+03  0.9797E+03
     25.095  0.0000E+00  0.0000E+00  0.9800E+03  0.9800E+03
     25.210  0.0000E+00  0.0000E+00  0.9800E+03  0.9800E+03
     25.326  0.0000E+00  0.0000E+00  0.9800E+03  0.9800E+03
     25.441  0.0000E+00  0.0000E+00  0.9800E+03  0.9800E+03
     25.556  0.0000E+00  0.0000E+00  0.9800E+03  0.9800E+03
     25.671  0.0000E+00  0.0000E+00  0.9800E+03  0.9800E+03
     25.787  0.0000E+00  0.0000E+00  0.9800E+03  0.9800E+03
     25.902  0.0000E+00  0.0000E+00  0.9800E+03  0.9800E+03
     26.017  0.0000E+00  0.0000E+00  0.9800E+03  0.9800E+03
     26.132  0.0000E+00  0.0000E+00  0.9800E+03  0.9800E+03
     26.248  0.0000E+00  0.0000E+00  0.9800E+03  0.9800E+03
     26.363  0.0000E+00  0.0000E+00  0.9800E+03  0.9800E+03
     26.478  0.0000E+00  0.0000E+00  0.9800E+03  0.9800E+03
     26.593  0.0000E+00  0.0000E+00  0.9800E+03  0.9800E+03
     26.709  0.0000E+00  0.0000E+00  0.9800E+03  0.9800E+03
     26.824  0.0000E+00  0.0000E+00  0.9800E+03  0.9800E+03
     26.939  0.0000E+00  0.0000E+00  0.9800E+03  0.9800E+03
     27.054  0.0000E+00  0.0000E+00  0.9800E+03  0.9800E+03
