Automatically generated mesh
       4
Reciprocal lattice
    0.12500000000000    0.12500000000000    0.12500000000000             8
    0.37500000000000    0.12500000000000    0.12500000000000            24
    0.37500000000000    0.37500000000000    0.12500000000000            24
    0.37500000000000    0.37500000000000    0.37500000000000             8
Tetrahedra
        20    0.00260416666667
        24         1         2         2         3
        48         2         2         3         3
        24         2         3         3         4
        36         2         3         3         3
        24         3         3         3         4
        18         3         3         4         4
        18         1         1         2         2
        24         1         2         2         2
        36         2         2         2         3
        12         3         4         4         4
        12         2         2         3         4
        12         2         3         4         4
        12         1         2         3         4
        12         1         1         2         3
        12         1         2         3         3
        12         1         1         1         2
         6         4         4         4         4
        18         3         3         3         3
        18         2         2         2         2
         6         1         1         1         1
