Processors received = 1
script running on host compute-0-1.local
PBS_NODEFILE
compute-0-1
 running on    1 nodes
 each image running on    1 nodes
 distr:  one band on    1 nodes,    1 groups
 vasp.5.2.2 15Apr09 complex 
 POSCAR found type information on POSCAR  Al
 01/POSCAR found :  1 types and    3 ions
 LDA part: xc-table for Ceperly-Alder, standard interpolation
 POSCAR found type information on POSCAR  Al
 00/POSCAR found :  1 types and    3 ions
 POSCAR found type information on POSCAR  Al
 02/POSCAR found :  1 types and    3 ions
 POSCAR, INCAR and KPOINTS ok, starting setup
 FFT: planning ...(           1 )
 reading WAVECAR
 entering main loop
       N       E                     dE             d eps       ncg     rms          rms(c)
DAV:   1     0.184921605499E+02    0.18492E+02   -0.26884E+03    16   0.567E+02
DAV:   2     0.486751597290E+01   -0.13625E+02   -0.13636E+02    16   0.693E+01
DAV:   3     0.457510481692E+01   -0.29241E+00   -0.28564E+00    32   0.127E+01
DAV:   4     0.457479750338E+01   -0.30731E-03   -0.30730E-03    24   0.440E-01
DAV:   5     0.457479740673E+01   -0.96646E-07   -0.96928E-07    32   0.863E-03    0.502E+00
DAV:   6     0.521626358107E+01    0.64147E+00   -0.13928E+00    16   0.599E+00    0.276E+00
DAV:   7     0.530710379954E+01    0.90840E-01   -0.48235E-01    16   0.392E+00    0.109E+00
DAV:   8     0.529114764116E+01   -0.15956E-01   -0.25507E-02    16   0.137E+00    0.399E-01
DAV:   9     0.528418827497E+01   -0.69594E-02   -0.48143E-03    16   0.649E-01    0.846E-02
DAV:  10     0.528386727245E+01   -0.32100E-03   -0.86534E-04    16   0.216E-01    0.155E-02
DAV:  11     0.528386859968E+01    0.13272E-05   -0.16027E-05     8   0.292E-02
   1 F= 0.52838686E+01 E0= 0.52941253E+01  d E =0.528387E+01
 BRION: g(F)=  0.193E+01 g(S)=  0.000E+00
 bond charge predicted
       N       E                     dE             d eps       ncg     rms          rms(c)
DAV:   1     0.464340612494E+01   -0.64046E+00   -0.23782E+01    16   0.289E+01    0.272E+00
DAV:   2     0.492158797889E+01    0.27818E+00   -0.11947E+00    16   0.664E+00    0.967E-01
DAV:   3     0.493888652932E+01    0.17299E-01   -0.19890E-01    16   0.203E+00    0.281E-01
DAV:   4     0.493775111961E+01   -0.11354E-02   -0.12209E-02    16   0.630E-01    0.173E-01
DAV:   5     0.493818063952E+01    0.42952E-03   -0.34393E-03    16   0.297E-01    0.861E-02
DAV:   6     0.493805554217E+01   -0.12510E-03   -0.25437E-04    16   0.143E-01    0.754E-03
DAV:   7     0.493805618455E+01    0.64238E-06   -0.17772E-05     8   0.221E-02
   2 F= 0.49380562E+01 E0= 0.49530722E+01  d E =-.345812E+00
 BRION: g(F)=  0.158E+01 g(S)=  0.000E+00 retain N=  1 mean eig= 0.52
 eig:   0.525
 bond charge predicted
       N       E                     dE             d eps       ncg     rms          rms(c)
DAV:   1     0.459939269784E+01   -0.33866E+00   -0.52963E+00    16   0.144E+01    0.132E+00
DAV:   2     0.465652995542E+01    0.57137E-01   -0.32948E-01    16   0.315E+00    0.409E-01
DAV:   3     0.465831623511E+01    0.17863E-02   -0.23766E-02    16   0.758E-01    0.151E-01
DAV:   4     0.465808624162E+01   -0.22999E-03   -0.77019E-04    16   0.205E-01    0.662E-02
DAV:   5     0.465800872862E+01   -0.77513E-04   -0.15841E-04    16   0.104E-01
   3 F= 0.46580087E+01 E0= 0.46696753E+01  d E =-.280047E+00
 BRION: g(F)=  0.786E-01 g(S)=  0.000E+00 retain N=  1 mean eig= 0.43
 eig:   0.429
 bond charge predicted
       N       E                     dE             d eps       ncg     rms          rms(c)
DAV:   1     0.463556882420E+01   -0.22517E-01   -0.18092E-01    16   0.258E+00    0.255E-01
DAV:   2     0.463783800831E+01    0.22692E-02   -0.11969E-02    16   0.595E-01    0.766E-02
DAV:   3     0.463791389266E+01    0.75884E-04   -0.97037E-04    16   0.145E-01
   4 F= 0.46379139E+01 E0= 0.46501692E+01  d E =-.200948E-01
 BRION: g(F)=  0.259E-02 g(S)=  0.000E+00 retain N=  1 mean eig= 0.52
 eig:   0.524
 bond charge predicted
       N       E                     dE             d eps       ncg     rms          rms(c)
DAV:   1     0.463710764337E+01   -0.73036E-03   -0.94638E-03    16   0.589E-01    0.631E-02
DAV:   2     0.463721585554E+01    0.10821E-03   -0.60402E-04    16   0.135E-01    0.237E-02
DAV:   3     0.463721720824E+01    0.13527E-05   -0.48478E-05     8   0.358E-02
   5 F= 0.46372172E+01 E0= 0.46495583E+01  d E =-.696684E-03
 BRION: g(F)=  0.283E-06 g(S)=  0.000E+00 retain N=  1 mean eig= 0.52
 eig:   0.519
 reached required accuracy - stopping structural energy minimisation
