       N       E                     dE             d eps       ncg     rms          rms(c)
RMM:   1     0.297243792127E+03    0.29724E+03   -0.18209E+04   144   0.608E+02
RMM:   2    -0.297502885197E+02   -0.32699E+03   -0.31816E+03   144   0.134E+02
RMM:   3    -0.919940841496E+02   -0.62244E+02   -0.62501E+02   144   0.480E+01
RMM:   4    -0.106370293392E+03   -0.14376E+02   -0.13397E+02   144   0.469E+01
RMM:   5    -0.113475581376E+03   -0.71053E+01   -0.58769E+01   144   0.230E+01
RMM:   6    -0.116613404377E+03   -0.31378E+01   -0.25459E+01   144   0.215E+01
RMM:   7    -0.118048589112E+03   -0.14352E+01   -0.12753E+01   144   0.105E+01
RMM:   8    -0.118785822455E+03   -0.73723E+00   -0.63867E+00   144   0.946E+00
RMM:   9    -0.119499463168E+03   -0.71364E+00   -0.68564E+00   431   0.482E+00
RMM:  10    -0.119560797273E+03   -0.61334E-01   -0.26574E-01   365   0.426E-01
RMM:  11    -0.119562896888E+03   -0.20996E-02   -0.10501E-02   297   0.120E-01
RMM:  12    -0.119563089487E+03   -0.19260E-03   -0.16706E-03   259   0.324E-02    0.261E+01
RMM:  13    -0.145314916804E+03   -0.25752E+02   -0.31862E+02   448   0.514E+01    0.219E+01
RMM:  14    -0.120756372331E+03    0.24559E+02   -0.55579E+01   302   0.251E+01    0.118E+01
RMM:  15    -0.115556610512E+03    0.51998E+01   -0.32025E+01   293   0.201E+01    0.722E+00
RMM:  16    -0.115418593922E+03    0.13802E+00   -0.18160E+00   322   0.489E+00    0.257E+00
RMM:  17    -0.115300043029E+03    0.11855E+00   -0.14527E-01   347   0.128E+00    0.146E+00
RMM:  18    -0.115298321254E+03    0.17218E-02   -0.13446E-02   353   0.299E-01    0.136E+00
RMM:  19    -0.115258852093E+03    0.39469E-01   -0.18308E-01   323   0.150E+00    0.106E-01
RMM:  20    -0.115259303034E+03   -0.45094E-03   -0.70028E-03   314   0.157E-01    0.831E-02
RMM:  21    -0.115259231376E+03    0.71657E-04   -0.18476E-03   288   0.193E-01    0.417E-02
RMM:  22    -0.115259343515E+03   -0.11214E-03   -0.11124E-03   272   0.140E-01    0.809E-02
RMM:  23    -0.115259206578E+03    0.13694E-03   -0.32550E-04   220   0.827E-02    0.109E-02
RMM:  24    -0.115259205640E+03    0.93797E-06   -0.21229E-05   151   0.123E-02
   1 F= -.11525921E+03 E0= -.11525299E+03  d E =-.186499E-01
