    7    7    1    2
  0.2544720E+02  0.5626600E-09  0.5626600E-09  0.5626600E-09  0.5000000E-15
  1.000000000000000E-004
  CAR 
 unknown system                          
   69    2   45
 
  0.2500000E+00  0.2500000E+00  0.2500000E+00  0.2500000E+00
   1      -19.434232    -19.429030
   2      -19.423676    -19.417709
   3      -19.423676    -19.417709
   4      -19.368760    -19.357427
   5      -19.368760    -19.357427
   6      -11.425928    -11.423316
   7      -11.411919    -11.409855
   8      -11.411919    -11.409855
   9      -11.363037    -11.361366
  10      -11.348716    -11.346561
  11      -11.348716    -11.346561
  12      -11.337713    -11.336230
  13      -11.337713    -11.336230
  14      -11.316166    -11.314586
  15      -11.308343    -11.306740
  16      -11.303485    -11.302042
  17      -11.303485    -11.302042
  18      -11.290772    -11.289413
  19      -11.290772    -11.289412
  20      -11.288739    -11.287414
  21       -8.386558     -8.362312
  22       -7.065286     -7.046816
  23       -7.065285     -7.046816
  24       -6.795214     -6.764725
  25       -2.252018     -2.232594
  26       -2.252018     -2.232594
  27       -1.530886     -1.513672
  28        0.096111      0.116787
  29        0.096111      0.116787
  30        0.439847      0.458050
  31        1.399259      1.414328
  32        1.491963      1.512595
  33        2.518315      2.548023
  34        2.518315      2.548024
  35        3.845516      3.882265
  36        3.845516      3.882265
  37        5.986379      6.005879
  38        5.986379      6.005879
  39        6.093029      6.102649
  40        7.062290      7.078142
  41        8.146172      8.169317
  42        8.146172      8.169317
  43        8.529278      8.554096
  44        8.529278      8.554096
  45        9.192284      9.206441
 
 -0.2500000E+00  0.2500000E+00  0.2500000E+00  0.7500000E+00
   1      -19.434276    -19.429074
   2      -19.423911    -19.417942
   3      -19.423743    -19.417775
   4      -19.368664    -19.357331
   5      -19.368547    -19.357215
   6      -11.435002    -11.432667
   7      -11.413194    -11.411141
   8      -11.401071    -11.398792
   9      -11.362957    -11.360686
  10      -11.354796    -11.353228
  11      -11.348710    -11.346535
  12      -11.335956    -11.334396
  13      -11.335145    -11.333672
  14      -11.313645    -11.312066
  15      -11.313288    -11.311765
  16      -11.302074    -11.300638
  17      -11.299431    -11.297921
  18      -11.295815    -11.294393
  19      -11.294848    -11.293519
  20      -11.281065    -11.279771
  21       -8.411649     -8.388127
  22       -7.212977     -7.189371
  23       -7.055034     -7.036580
  24       -6.504834     -6.477573
  25       -2.807839     -2.795479
  26       -2.393666     -2.373746
  27       -1.480829     -1.461054
  28        0.344877      0.364889
  29        0.417454      0.439931
  30        0.711834      0.738401
  31        1.626352      1.653898
  32        1.824883      1.840411
  33        2.091299      2.122003
  34        2.419413      2.435322
  35        4.013152      4.059069
  36        4.185753      4.207088
  37        5.305666      5.321242
  38        5.485638      5.503111
  39        5.656170      5.677288
  40        6.789800      6.809877
  41        8.051602      8.069273
  42        8.139959      8.158536
  43        8.583605      8.603770
  44        8.748189      8.765444
  45        9.203350      9.224304
