   4   4   0   0
  0.1151930E+02  0.3585051E-09  0.3585051E-09  0.3585051E-09  0.5000000E-15
  1.000000000000000E-004
  CAR 
 unknown system                          
     11.06629202     -4.46996142  301      9.00545891      1.00000000
     -4.470  0.0000E+00  0.0000E+00
     -4.418  0.0000E+00  0.0000E+00
     -4.366  0.0000E+00  0.0000E+00
     -4.315  0.0000E+00  0.0000E+00
     -4.263  0.0000E+00  0.0000E+00
     -4.211  0.0000E+00  0.0000E+00
     -4.159  0.0000E+00  0.0000E+00
     -4.107 -0.6883E-27 -0.3565E-28
     -4.056 -0.4258E-25 -0.2241E-26
     -4.004 -0.2333E-23 -0.1230E-24
     -3.952 -0.1116E-21 -0.5902E-23
     -3.900 -0.4660E-20 -0.2473E-21
     -3.849 -0.1699E-18 -0.9047E-20
     -3.797 -0.5407E-17 -0.2891E-18
     -3.745 -0.1501E-15 -0.8065E-17
     -3.693 -0.3638E-14 -0.1964E-15
     -3.641 -0.7472E-13 -0.4066E-14
     -3.590 -0.1371E-11 -0.7508E-13
     -3.538 -0.2196E-10 -0.1212E-11
     -3.486 -0.3061E-09 -0.1706E-10
     -3.434 -0.3714E-08 -0.2094E-09
     -3.382 -0.3919E-07 -0.2239E-08
     -3.331 -0.3593E-06 -0.2085E-07
     -3.279 -0.2860E-05 -0.1689E-06
     -3.227 -0.1973E-04 -0.1190E-05
     -3.175 -0.1177E-03 -0.7288E-05
     -3.123 -0.6065E-03 -0.3870E-04
     -3.072 -0.2688E-02 -0.1779E-03
     -3.020 -0.1020E-01 -0.7064E-03
     -2.968 -0.3295E-01 -0.2413E-02
     -2.916 -0.8949E-01 -0.7047E-02
     -2.865 -0.2006E+00 -0.1743E-01
     -2.813 -0.3563E+00 -0.3588E-01
     -2.761 -0.4503E+00 -0.5920E-01
     -2.709 -0.2211E+00 -0.7065E-01
     -2.657  0.6954E+00 -0.3464E-01
     -2.606  0.2521E+01  0.9590E-01
     -2.554  0.4998E+01  0.3548E+00
     -2.502  0.7292E+01  0.7324E+00
     -2.450  0.8371E+01  0.1166E+01
     -2.398  0.7693E+01  0.1564E+01
     -2.347  0.5603E+01  0.1855E+01
     -2.295  0.3076E+01  0.2014E+01
     -2.243  0.1048E+01  0.2068E+01
     -2.191 -0.7805E-01  0.2064E+01
     -2.140 -0.4380E+00  0.2041E+01
     -2.088 -0.3914E+00  0.2021E+01
     -2.036 -0.2355E+00  0.2009E+01
     -1.984 -0.1105E+00  0.2003E+01
     -1.932 -0.4251E-01  0.2001E+01
     -1.881 -0.1370E-01  0.2000E+01
     -1.829 -0.3750E-02  0.2000E+01
     -1.777 -0.8774E-03  0.2000E+01
     -1.725 -0.1765E-03  0.2000E+01
     -1.673 -0.3062E-04  0.2000E+01
     -1.622 -0.4594E-05  0.2000E+01
     -1.570 -0.5972E-06  0.2000E+01
     -1.518 -0.6736E-07  0.2000E+01
     -1.466 -0.6601E-08  0.2000E+01
     -1.414 -0.5624E-09  0.2000E+01
     -1.363 -0.4170E-10  0.2000E+01
     -1.311 -0.2693E-11  0.2000E+01
     -1.259 -0.1544E-12  0.2000E+01
     -1.207 -0.8575E-14  0.2000E+01
     -1.156  0.0000E+00  0.2000E+01
     -1.104  0.0000E+00  0.2000E+01
     -1.052  0.0000E+00  0.2000E+01
     -1.000  0.0000E+00  0.2000E+01
     -0.948  0.0000E+00  0.2000E+01
     -0.897  0.0000E+00  0.2000E+01
     -0.845  0.0000E+00  0.2000E+01
     -0.793  0.0000E+00  0.2000E+01
     -0.741  0.0000E+00  0.2000E+01
     -0.689  0.0000E+00  0.2000E+01
     -0.638  0.0000E+00  0.2000E+01
     -0.586  0.0000E+00  0.2000E+01
     -0.534  0.0000E+00  0.2000E+01
     -0.482  0.0000E+00  0.2000E+01
     -0.431  0.0000E+00  0.2000E+01
     -0.379  0.0000E+00  0.2000E+01
     -0.327  0.0000E+00  0.2000E+01
     -0.275  0.0000E+00  0.2000E+01
     -0.223  0.0000E+00  0.2000E+01
     -0.172  0.0000E+00  0.2000E+01
     -0.120  0.0000E+00  0.2000E+01
     -0.068  0.0000E+00  0.2000E+01
     -0.016  0.0000E+00  0.2000E+01
      0.036  0.0000E+00  0.2000E+01
      0.087  0.0000E+00  0.2000E+01
      0.139  0.0000E+00  0.2000E+01
      0.191  0.0000E+00  0.2000E+01
      0.243  0.0000E+00  0.2000E+01
      0.294  0.0000E+00  0.2000E+01
      0.346  0.0000E+00  0.2000E+01
      0.398  0.0000E+00  0.2000E+01
      0.450  0.0000E+00  0.2000E+01
      0.502  0.0000E+00  0.2000E+01
      0.553  0.0000E+00  0.2000E+01
      0.605  0.0000E+00  0.2000E+01
      0.657  0.0000E+00  0.2000E+01
      0.709  0.0000E+00  0.2000E+01
      0.761  0.0000E+00  0.2000E+01
      0.812  0.0000E+00  0.2000E+01
      0.864  0.0000E+00  0.2000E+01
      0.916  0.0000E+00  0.2000E+01
      0.968 -0.2736E-26  0.2000E+01
      1.020 -0.1677E-24  0.2000E+01
      1.071 -0.9105E-23  0.2000E+01
      1.123 -0.4316E-21  0.2000E+01
      1.175 -0.1786E-19  0.2000E+01
      1.227 -0.6454E-18  0.2000E+01
      1.278 -0.2035E-16  0.2000E+01
      1.330 -0.5600E-15  0.2000E+01
      1.382 -0.1344E-13  0.2000E+01
      1.434 -0.2750E-12  0.2000E+01
      1.486 -0.4971E-11  0.2000E+01
      1.537 -0.7891E-10  0.2000E+01
      1.589 -0.1090E-08  0.2000E+01
      1.641 -0.1310E-07  0.2000E+01
      1.693 -0.1370E-06  0.2000E+01
      1.745 -0.1244E-05  0.2000E+01
      1.796 -0.9807E-05  0.2000E+01
      1.848 -0.6700E-04  0.2000E+01
      1.900 -0.3960E-03  0.2000E+01
      1.952 -0.2020E-02  0.2000E+01
      2.003 -0.8862E-02  0.1999E+01
      2.055 -0.3328E-01  0.1998E+01
      2.107 -0.1063E+00  0.1992E+01
      2.159 -0.2852E+00  0.1977E+01
      2.211 -0.6302E+00  0.1945E+01
      2.262 -0.1099E+01  0.1888E+01
      2.314 -0.1347E+01  0.1818E+01
      2.366 -0.5557E+00  0.1789E+01
      2.418  0.2366E+01  0.1912E+01
      2.470  0.8018E+01  0.2327E+01
      2.521  0.1551E+02  0.3130E+01
      2.573  0.2224E+02  0.4282E+01
      2.625  0.2515E+02  0.5584E+01
      2.677  0.2277E+02  0.6763E+01
      2.729  0.1631E+02  0.7608E+01
      2.780  0.8750E+01  0.8061E+01
      2.832  0.2831E+01  0.8207E+01
      2.884 -0.3681E+00  0.8188E+01
      2.936 -0.1334E+01  0.8119E+01
      2.987 -0.1159E+01  0.8059E+01
      3.039 -0.7243E+00  0.8022E+01
      3.091 -0.4587E+00  0.7998E+01
      3.143 -0.4889E+00  0.7973E+01
      3.195 -0.8042E+00  0.7931E+01
      3.246 -0.1235E+01  0.7867E+01
      3.298 -0.1269E+01  0.7801E+01
      3.350  0.5332E-01  0.7804E+01
      3.402  0.3786E+01  0.8000E+01
      3.454  0.1017E+02  0.8527E+01
      3.505  0.1776E+02  0.9447E+01
      3.557  0.2363E+02  0.1067E+02
      3.609  0.2498E+02  0.1196E+02
      3.661  0.2113E+02  0.1306E+02
      3.712  0.1400E+02  0.1378E+02
      3.764  0.6708E+01  0.1413E+02
      3.816  0.1580E+01  0.1421E+02
      3.868 -0.8454E+00  0.1417E+02
      3.920 -0.1347E+01  0.1410E+02
      3.971 -0.1008E+01  0.1405E+02
      4.023 -0.5485E+00  0.1402E+02
      4.075 -0.2383E+00  0.1401E+02
      4.127 -0.8573E-01  0.1400E+02
      4.179 -0.2599E-01  0.1400E+02
      4.230 -0.6709E-02  0.1400E+02
      4.282 -0.1484E-02  0.1400E+02
      4.334 -0.2826E-03  0.1400E+02
      4.386 -0.4646E-04  0.1400E+02
      4.437 -0.6611E-05  0.1400E+02
      4.489 -0.8156E-06  0.1400E+02
      4.541 -0.8734E-07  0.1400E+02
      4.593 -0.8128E-08  0.1400E+02
      4.645 -0.6580E-09  0.1400E+02
      4.696 -0.4633E-10  0.1400E+02
      4.748 -0.2856E-11  0.1400E+02
      4.800 -0.1544E-12  0.1400E+02
      4.852 -0.6314E-17  0.1400E+02
      4.904 -0.1821E-15  0.1400E+02
      4.955 -0.4581E-14  0.1400E+02
      5.007 -0.1005E-12  0.1400E+02
      5.059 -0.1860E-11  0.1400E+02
      5.111 -0.3101E-10  0.1400E+02
      5.163 -0.4492E-09  0.1400E+02
      5.214 -0.5664E-08  0.1400E+02
      5.266 -0.6212E-07  0.1400E+02
      5.318 -0.5923E-06  0.1400E+02
      5.370 -0.4902E-05  0.1400E+02
      5.421 -0.3519E-04  0.1400E+02
      5.473 -0.2186E-03  0.1400E+02
      5.525 -0.1174E-02  0.1400E+02
      5.577 -0.5424E-02  0.1400E+02
      5.629 -0.2151E-01  0.1400E+02
      5.680 -0.7268E-01  0.1399E+02
      5.732 -0.2074E+00  0.1398E+02
      5.784 -0.4915E+00  0.1396E+02
      5.836 -0.9368E+00  0.1391E+02
      5.888 -0.1327E+01  0.1384E+02
      5.939 -0.1013E+01  0.1379E+02
      5.991  0.1063E+01  0.1384E+02
      6.043  0.5784E+01  0.1414E+02
      6.095  0.1286E+02  0.1481E+02
      6.146  0.2022E+02  0.1586E+02
      6.198  0.2472E+02  0.1714E+02
      6.250  0.2416E+02  0.1839E+02
      6.302  0.1881E+02  0.1936E+02
      6.354  0.1127E+02  0.1995E+02
      6.405  0.4573E+01  0.2018E+02
      6.457  0.4316E+00  0.2021E+02
      6.509 -0.1185E+01  0.2014E+02
      6.561 -0.1275E+01  0.2008E+02
      6.613 -0.8362E+00  0.2003E+02
      6.664 -0.4175E+00  0.2001E+02
      6.716 -0.1692E+00  0.2000E+02
      6.768 -0.5718E-01  0.2000E+02
      6.820 -0.1636E-01  0.2000E+02
      6.872 -0.3995E-02  0.2000E+02
      6.923 -0.8375E-03  0.2000E+02
      6.975 -0.1516E-03  0.2000E+02
      7.027 -0.2566E-04  0.2000E+02
      7.079 -0.1825E-04  0.2000E+02
      7.130 -0.9713E-04  0.2000E+02
      7.182 -0.5374E-03  0.2000E+02
      7.234 -0.2572E-02  0.2000E+02
      7.286 -0.1057E-01  0.2000E+02
      7.338 -0.3709E-01  0.2000E+02
      7.389 -0.1102E+00  0.1999E+02
      7.441 -0.2732E+00  0.1998E+02
      7.493 -0.5500E+00  0.1995E+02
      7.545 -0.8452E+00  0.1991E+02
      7.597 -0.8001E+00  0.1986E+02
      7.648  0.2453E+00  0.1988E+02
      7.700  0.2963E+01  0.2003E+02
      7.752  0.7397E+01  0.2041E+02
      7.804  0.1243E+02  0.2106E+02
      7.855  0.1606E+02  0.2189E+02
      7.907  0.1651E+02  0.2274E+02
      7.959  0.1358E+02  0.2345E+02
      8.011  0.8694E+01  0.2390E+02
      8.063  0.3952E+01  0.2410E+02
      8.114  0.7605E+00  0.2414E+02
      8.166 -0.6594E+00  0.2411E+02
      8.218 -0.8888E+00  0.2406E+02
      8.270 -0.6369E+00  0.2403E+02
      8.322 -0.3527E+00  0.2401E+02
      8.373 -0.2075E+00  0.2400E+02
      8.425 -0.2433E+00  0.2399E+02
      8.477 -0.4903E+00  0.2396E+02
      8.529 -0.9631E+00  0.2391E+02
      8.580 -0.1520E+01  0.2383E+02
      8.632 -0.1653E+01  0.2375E+02
      8.684 -0.4172E+00  0.2373E+02
      8.736  0.3261E+01  0.2389E+02
      8.788  0.9942E+01  0.2441E+02
      8.839  0.1920E+02  0.2540E+02
      8.891  0.2973E+02  0.2694E+02
      8.943  0.3982E+02  0.2901E+02
      8.995  0.4748E+02  0.3146E+02
      9.047  0.5046E+02  0.3408E+02
      9.098  0.4697E+02  0.3651E+02
      9.150  0.3717E+02  0.3843E+02
      9.202  0.2388E+02  0.3967E+02
      9.254  0.1130E+02  0.4026E+02
      9.306  0.2595E+01  0.4039E+02
      9.357 -0.1556E+01  0.4031E+02
      9.409 -0.2437E+01  0.4018E+02
      9.461 -0.1845E+01  0.4009E+02
      9.513 -0.1021E+01  0.4004E+02
      9.564 -0.4521E+00  0.4001E+02
      9.616 -0.1657E+00  0.4000E+02
      9.668 -0.5120E-01  0.4000E+02
      9.720 -0.1347E-01  0.4000E+02
      9.772 -0.3036E-02  0.4000E+02
      9.823 -0.5891E-03  0.4000E+02
      9.875 -0.9867E-04  0.4000E+02
      9.927 -0.1430E-04  0.4000E+02
      9.979 -0.1797E-05  0.4000E+02
     10.031 -0.1960E-06  0.4000E+02
     10.082 -0.1857E-07  0.4000E+02
     10.134 -0.1530E-08  0.4000E+02
     10.186 -0.1098E-09  0.4000E+02
     10.238 -0.6860E-11  0.4000E+02
     10.289 -0.3859E-12  0.4000E+02
     10.341  0.0000E+00  0.4000E+02
     10.393  0.0000E+00  0.4000E+02
     10.445  0.0000E+00  0.4000E+02
     10.497  0.0000E+00  0.4000E+02
     10.548  0.0000E+00  0.4000E+02
     10.600  0.0000E+00  0.4000E+02
     10.652  0.0000E+00  0.4000E+02
     10.704  0.0000E+00  0.4000E+02
     10.756  0.0000E+00  0.4000E+02
     10.807  0.0000E+00  0.4000E+02
     10.859  0.0000E+00  0.4000E+02
     10.911  0.0000E+00  0.4000E+02
     10.963  0.0000E+00  0.4000E+02
     11.015  0.0000E+00  0.4000E+02
     11.066  0.0000E+00  0.4000E+02
