    4    4    1    1
  0.1151930E+02  0.3585051E-09  0.3585051E-09  0.3585051E-09  0.5000000E-15
  1.000000000000000E-004
  CAR 
 unknown system                          
   32    1   20
 
  0.0000000E+00  0.0000000E+00  0.0000000E+00  0.1000000E+01
   1       -2.469961
   2        2.601748
   3        2.601748
   4        2.601748
   5        3.570111
   6        3.570111
   7        3.570111
   8        6.192879
   9        6.192879
  10        6.192879
  11        7.862064
  12        7.862064
  13        8.890747
  14        8.890747
  15        8.890747
  16        9.066289
  17        9.066292
  18        9.066292
  19        9.066292
  20        9.066292
