       N       E                     dE             d eps       ncg     rms          rms(c)
RMM:   1     0.166499984701E+03    0.16650E+03   -0.14636E+04    96   0.402E+02
RMM:   2    -0.634363787253E+02   -0.22994E+03   -0.21335E+03    96   0.808E+01
RMM:   3    -0.104969487175E+03   -0.41533E+02   -0.35257E+02    96   0.251E+01
RMM:   4    -0.114739995770E+03   -0.97705E+01   -0.64937E+01    96   0.129E+01
RMM:   5    -0.116942171534E+03   -0.22022E+01   -0.13267E+01    96   0.561E+00
RMM:   6    -0.117354293755E+03   -0.41212E+00   -0.28614E+00    96   0.269E+00
RMM:   7    -0.117435782193E+03   -0.81488E-01   -0.63716E-01    96   0.131E+00
RMM:   8    -0.117453899361E+03   -0.18117E-01   -0.15431E-01    96   0.678E-01
RMM:   9    -0.117459449920E+03   -0.55506E-02   -0.51459E-02   241   0.364E-01
RMM:  10    -0.117460011313E+03   -0.56139E-03   -0.45377E-03   226   0.108E-01
RMM:  11    -0.117460034329E+03   -0.23015E-04   -0.20418E-04   190   0.272E-02
RMM:  12    -0.117460037728E+03   -0.33991E-05   -0.32518E-05   142   0.141E-02    0.582E+00
RMM:  13    -0.116613441982E+03    0.84660E+00   -0.62049E-01   208   0.989E-01    0.347E+00
RMM:  14    -0.116313027405E+03    0.30041E+00   -0.21420E-01   215   0.706E-01    0.109E+00
RMM:  15    -0.116274737926E+03    0.38289E-01   -0.22612E-02   221   0.273E-01    0.110E-01
RMM:  16    -0.116274116165E+03    0.62176E-03   -0.14690E-03   224   0.692E-02    0.353E-02
RMM:  17    -0.116274117532E+03   -0.13664E-05   -0.73992E-05   153   0.207E-02
   1 F= -.11627412E+03 E0= -.11627019E+03  d E =-.117784E-01
