Disk quotas for user tam (uid 511): none
Processors received = 1
script running on host korczak.msae.wisc.edu
PBS_NODEFILE
korczak.local
 running on    1 nodes
 distr:  one band on    1 nodes,    1 groups
 vasp.5.2.2 15Apr09 complex 
 POSCAR found type information on POSCAR  Al
 POSCAR found :  1 types and    3 ions
 LDA part: xc-table for Ceperly-Alder, standard interpolation
 POSCAR, INCAR and KPOINTS ok, starting setup
 FFT: planning ...(           1 )
 reading WAVECAR
 WARNING: chargedensity file is incomplete
 WARNING: random wavefunctions but no delay for mixing, default for NELMDL
 entering main loop
       N       E                     dE             d eps       ncg     rms          rms(c)
DAV:   1     0.928653852790E+01    0.92865E+01   -0.29631E+03    32   0.668E+02
DAV:   2    -0.719987200598E+01   -0.16486E+02   -0.16486E+02    40   0.752E+01
DAV:   3    -0.739375191994E+01   -0.19388E+00   -0.19399E+00    48   0.112E+01
DAV:   4    -0.739394025270E+01   -0.18833E-03   -0.18892E-03    48   0.408E-01
DAV:   5    -0.739394047125E+01   -0.21854E-06   -0.21846E-06    56   0.118E-02    0.278E+00
DAV:   6    -0.717640049625E+01    0.21754E+00   -0.21819E-01    56   0.258E+00    0.162E+00
DAV:   7    -0.709226693306E+01    0.84134E-01   -0.21692E-01    56   0.274E+00    0.292E-01
DAV:   8    -0.709114491807E+01    0.11220E-02   -0.12208E-02    32   0.823E-01    0.517E-02
DAV:   9    -0.709113608603E+01    0.88320E-05   -0.47689E-04    64   0.159E-01    0.169E-02
DAV:  10    -0.709112239785E+01    0.13688E-04   -0.39170E-05    40   0.390E-02    0.429E-03
DAV:  11    -0.709112178006E+01    0.61779E-06   -0.39927E-06    64   0.126E-02
   1 F= -.70911218E+01 E0= -.70991454E+01  d E =0.240707E-01
 Finite differences POTIM= 0.01000 DOF=   1
 bond charge predicted
       N       E                     dE             d eps       ncg     rms          rms(c)
DAV:   1    -0.708982205692E+01    0.13003E-02   -0.19909E-02    32   0.999E-01    0.582E-02
DAV:   2    -0.708971929830E+01    0.10276E-03   -0.70866E-04    32   0.200E-01    0.268E-02
DAV:   3    -0.708970198145E+01    0.17317E-04   -0.16251E-04    64   0.660E-02    0.703E-03
DAV:   4    -0.708970189957E+01    0.81884E-07   -0.14518E-05    32   0.270E-02    0.332E-03
DAV:   5    -0.708970169877E+01    0.20080E-06   -0.14452E-06    40   0.696E-03
   2 F= -.70897017E+01 E0= -.70977308E+01  d E =0.240873E-01
 Finite differences progress:
  Degree of freedom:   1/  1
  Displacement:        1/  2
  Total:               1/  2
 bond charge predicted
       N       E                     dE             d eps       ncg     rms          rms(c)
DAV:   1    -0.709018638989E+01   -0.48449E-03   -0.79656E-02    32   0.200E+00    0.116E-01
DAV:   2    -0.708977230066E+01    0.41409E-03   -0.28398E-03    32   0.399E-01    0.536E-02
DAV:   3    -0.708970279982E+01    0.69501E-04   -0.65114E-04    64   0.132E-01    0.141E-02
DAV:   4    -0.708970250031E+01    0.29952E-06   -0.58274E-05    32   0.542E-02    0.663E-03
DAV:   5    -0.708970168992E+01    0.81039E-06   -0.58929E-06    48   0.139E-02
   3 F= -.70897017E+01 E0= -.70977308E+01  d E =0.240873E-01
 Finite differences progress:
  Degree of freedom:   1/  1
  Displacement:        2/  2
  Total:               2/  2
 Finite differences POTIM=  1.000000000000000E-002
