  33  33   0   0
  0.1602710E+02  0.8087040E-09  0.8087040E-09  0.8087040E-09  0.5000000E-15
  1.000000000000000E-004
  CAR 
 unknown system                          
     17.37905227     -5.14999349  301      8.44455289      1.00000000
     -5.150  0.0000E+00  0.0000E+00
     -5.075  0.0000E+00  0.0000E+00
     -5.000  0.0000E+00  0.0000E+00
     -4.925  0.0000E+00  0.0000E+00
     -4.850  0.0000E+00  0.0000E+00
     -4.775 -0.7101E-29 -0.5333E-30
     -4.699 -0.2615E-26 -0.1969E-27
     -4.624 -0.7260E-24 -0.5472E-25
     -4.549 -0.1516E-21 -0.1144E-22
     -4.474 -0.2380E-19 -0.1798E-20
     -4.399 -0.2807E-17 -0.2126E-18
     -4.324 -0.2410E-15 -0.1831E-16
     -4.249 -0.1599E-13 -0.1219E-14
     -4.174 -0.7935E-12 -0.6081E-13
     -4.099 -0.2944E-10 -0.2272E-11
     -4.024 -0.8153E-09 -0.6350E-10
     -3.948 -0.1681E-07 -0.1326E-08
     -3.873 -0.2570E-06 -0.2063E-07
     -3.798 -0.2897E-05 -0.2382E-06
     -3.723 -0.2387E-04 -0.2030E-05
     -3.648 -0.1415E-03 -0.1266E-04
     -3.573 -0.5873E-03 -0.5676E-04
     -3.498 -0.1596E-02 -0.1766E-03
     -3.423 -0.2251E-02 -0.3456E-03
     -3.348  0.1273E-02 -0.2500E-03
     -3.273  0.1369E-01  0.7778E-03
     -3.197  0.3220E-01  0.3196E-02
     -3.122  0.4328E-01  0.6446E-02
     -3.047  0.3651E-01  0.9188E-02
     -2.972  0.1841E-01  0.1057E-01
     -2.897  0.3594E-02  0.1084E-01
     -2.822 -0.1952E-02  0.1069E-01
     -2.747 -0.1900E-02  0.1055E-01
     -2.672 -0.8008E-03  0.1049E-01
     -2.597 -0.2139E-03  0.1047E-01
     -2.522 -0.3950E-04  0.1047E-01
     -2.447 -0.5221E-05  0.1047E-01
     -2.371 -0.5026E-06  0.1047E-01
     -2.296 -0.3561E-07  0.1047E-01
     -2.221 -0.1915E-08  0.1047E-01
     -2.146 -0.1373E-08  0.1047E-01
     -2.071 -0.2739E-07  0.1047E-01
     -1.996 -0.4277E-06  0.1047E-01
     -1.921 -0.4928E-05  0.1047E-01
     -1.846 -0.4153E-04  0.1047E-01
     -1.771 -0.2523E-03  0.1045E-01
     -1.696 -0.1075E-02  0.1037E-01
     -1.620 -0.3024E-02  0.1014E-01
     -1.545 -0.4557E-02  0.9799E-02
     -1.470  0.1531E-02  0.9914E-02
     -1.395  0.2499E-01  0.1179E-01
     -1.320  0.6184E-01  0.1643E-01
     -1.245  0.8579E-01  0.2288E-01
     -1.170  0.7362E-01  0.2841E-01
     -1.095  0.3482E-01  0.3102E-01
     -1.020 -0.1910E-03  0.3101E-01
     -0.945 -0.7189E-02  0.3047E-01
     -0.869  0.2766E-01  0.3254E-01
     -0.794  0.9931E-01  0.4000E-01
     -0.719  0.1634E+00  0.5227E-01
     -0.644  0.1643E+00  0.6461E-01
     -0.569  0.1021E+00  0.7228E-01
     -0.494  0.3238E-01  0.7471E-01
     -0.419 -0.3330E-02  0.7446E-01
     -0.344 -0.8897E-02  0.7379E-01
     -0.269 -0.4710E-02  0.7344E-01
     -0.194 -0.1470E-02  0.7333E-01
     -0.119 -0.3100E-03  0.7330E-01
     -0.043 -0.4653E-04  0.7330E-01
      0.032 -0.7538E-05  0.7330E-01
      0.107 -0.2367E-04  0.7330E-01
      0.182 -0.1556E-03  0.7328E-01
      0.257 -0.7373E-03  0.7323E-01
      0.332 -0.2360E-02  0.7305E-01
      0.407 -0.4452E-02  0.7272E-01
      0.482 -0.1647E-02  0.7259E-01
      0.557  0.1625E-01  0.7381E-01
      0.632  0.5111E-01  0.7765E-01
      0.708  0.8194E-01  0.8381E-01
      0.783  0.8051E-01  0.8985E-01
      0.858  0.4632E-01  0.9333E-01
      0.933  0.8863E-02  0.9400E-01
      1.008 -0.1851E-02  0.9386E-01
      1.083  0.2684E-01  0.9587E-01
      1.158  0.8191E-01  0.1020E+00
      1.233  0.1207E+00  0.1111E+00
      1.308  0.1066E+00  0.1191E+00
      1.383  0.6173E-01  0.1237E+00
      1.459  0.5293E-01  0.1277E+00
      1.534  0.1144E+00  0.1363E+00
      1.609  0.2044E+00  0.1516E+00
      1.684  0.2476E+00  0.1702E+00
      1.759  0.2111E+00  0.1861E+00
      1.834  0.1281E+00  0.1957E+00
      1.909  0.5152E-01  0.1996E+00
      1.984  0.8078E-02  0.2002E+00
      2.059 -0.6122E-02  0.1997E+00
      2.134 -0.6065E-02  0.1993E+00
      2.209 -0.2962E-02  0.1990E+00
      2.285 -0.9670E-03  0.1990E+00
      2.360 -0.2251E-03  0.1990E+00
      2.435 -0.3873E-04  0.1990E+00
      2.510 -0.1072E-04  0.1990E+00
      2.585 -0.4464E-04  0.1989E+00
      2.660 -0.2344E-03  0.1989E+00
      2.735 -0.8563E-03  0.1989E+00
      2.810 -0.1964E-02  0.1987E+00
      2.885 -0.1834E-02  0.1986E+00
      2.960  0.4214E-02  0.1989E+00
      3.036  0.1944E-01  0.2004E+00
      3.111  0.3680E-01  0.2031E+00
      3.186  0.4065E-01  0.2062E+00
      3.261  0.2432E-01  0.2080E+00
      3.336  0.1882E-02  0.2081E+00
      3.411  0.1076E-02  0.2082E+00
      3.486  0.4682E-01  0.2117E+00
      3.561  0.1356E+00  0.2219E+00
      3.636  0.2177E+00  0.2383E+00
      3.711  0.2332E+00  0.2558E+00
      3.787  0.1774E+00  0.2691E+00
      3.862  0.1026E+00  0.2768E+00
      3.937  0.5166E-01  0.2807E+00
      4.012  0.2483E-01  0.2826E+00
      4.087  0.8644E-02  0.2832E+00
      4.162 -0.5280E-03  0.2832E+00
      4.237 -0.2951E-02  0.2829E+00
      4.312 -0.1960E-02  0.2828E+00
      4.387 -0.7451E-03  0.2827E+00
      4.462 -0.1918E-03  0.2827E+00
      4.537 -0.6400E-04  0.2827E+00
      4.613 -0.2124E-03  0.2827E+00
      4.688 -0.1010E-02  0.2826E+00
      4.763 -0.3325E-02  0.2824E+00
      4.838 -0.6555E-02  0.2819E+00
      4.913 -0.3274E-02  0.2816E+00
      4.988  0.2171E-01  0.2833E+00
      5.063  0.7296E-01  0.2887E+00
      5.138  0.1214E+00  0.2979E+00
      5.213  0.1246E+00  0.3072E+00
      5.288  0.7940E-01  0.3132E+00
      5.364  0.2636E-01  0.3152E+00
      5.439 -0.1838E-02  0.3150E+00
      5.514 -0.6759E-02  0.3145E+00
      5.589 -0.3764E-02  0.3142E+00
      5.664 -0.1506E-02  0.3141E+00
      5.739 -0.1341E-02  0.3140E+00
      5.814 -0.2211E-02  0.3139E+00
      5.889 -0.1185E-02  0.3138E+00
      5.964  0.6860E-02  0.3143E+00
      6.039  0.2335E-01  0.3160E+00
      6.115  0.3816E-01  0.3189E+00
      6.190  0.3691E-01  0.3217E+00
      6.265  0.2175E-01  0.3233E+00
      6.340  0.1555E-01  0.3245E+00
      6.415  0.3813E-01  0.3273E+00
      6.490  0.8520E-01  0.3337E+00
      6.565  0.1346E+00  0.3439E+00
      6.640  0.1624E+00  0.3560E+00
      6.715  0.1500E+00  0.3673E+00
      6.790  0.9744E-01  0.3746E+00
      6.865  0.3418E-01  0.3772E+00
      6.941 -0.3054E-02  0.3770E+00
      7.016  0.3484E-02  0.3772E+00
      7.091  0.4724E-01  0.3808E+00
      7.166  0.9659E-01  0.3880E+00
      7.241  0.1177E+00  0.3969E+00
      7.316  0.1268E+00  0.4064E+00
      7.391  0.1787E+00  0.4198E+00
      7.466  0.2696E+00  0.4401E+00
      7.541  0.3126E+00  0.4635E+00
      7.616  0.2501E+00  0.4823E+00
      7.692  0.1287E+00  0.4920E+00
      7.767  0.3177E-01  0.4944E+00
      7.842 -0.8731E-02  0.4937E+00
      7.917 -0.1310E-01  0.4927E+00
      7.992 -0.8671E-02  0.4921E+00
      8.067 -0.6589E-02  0.4916E+00
      8.142 -0.3801E-02  0.4913E+00
      8.217  0.9723E-02  0.4920E+00
      8.292  0.4304E-01  0.4953E+00
      8.367  0.9317E-01  0.5023E+00
      8.443  0.1401E+00  0.5128E+00
      8.518  0.1631E+00  0.5250E+00
      8.593  0.1626E+00  0.5372E+00
      8.668  0.1495E+00  0.5485E+00
      8.743  0.1255E+00  0.5579E+00
      8.818  0.1021E+00  0.5656E+00
      8.893  0.1033E+00  0.5733E+00
      8.968  0.1276E+00  0.5829E+00
      9.043  0.1481E+00  0.5940E+00
      9.118  0.1525E+00  0.6055E+00
      9.193  0.1497E+00  0.6167E+00
      9.269  0.1558E+00  0.6284E+00
      9.344  0.1810E+00  0.6420E+00
      9.419  0.2011E+00  0.6571E+00
      9.494  0.1761E+00  0.6703E+00
      9.569  0.1206E+00  0.6794E+00
      9.644  0.9853E-01  0.6868E+00
      9.719  0.1279E+00  0.6964E+00
      9.794  0.1551E+00  0.7080E+00
      9.869  0.1410E+00  0.7186E+00
      9.944  0.1098E+00  0.7269E+00
     10.020  0.9203E-01  0.7338E+00
     10.095  0.7653E-01  0.7395E+00
     10.170  0.4707E-01  0.7431E+00
     10.245  0.1526E-01  0.7442E+00
     10.320 -0.1986E-02  0.7441E+00
     10.395 -0.5537E-02  0.7436E+00
     10.470 -0.6064E-02  0.7432E+00
     10.545 -0.1040E-01  0.7424E+00
     10.620 -0.1420E-01  0.7413E+00
     10.695  0.4543E-02  0.7417E+00
     10.771  0.7409E-01  0.7472E+00
     10.846  0.1860E+00  0.7612E+00
     10.921  0.2771E+00  0.7820E+00
     10.996  0.2908E+00  0.8039E+00
     11.071  0.2342E+00  0.8215E+00
     11.146  0.1498E+00  0.8327E+00
     11.221  0.7048E-01  0.8380E+00
     11.296  0.1624E-01  0.8392E+00
     11.371 -0.6419E-02  0.8387E+00
     11.446 -0.8178E-02  0.8381E+00
     11.522 -0.4079E-02  0.8378E+00
     11.597 -0.1347E-02  0.8377E+00
     11.672 -0.6553E-03  0.8377E+00
     11.747 -0.1257E-02  0.8376E+00
     11.822 -0.2248E-02  0.8374E+00
     11.897 -0.6804E-03  0.8373E+00
     11.972  0.8579E-02  0.8380E+00
     12.047  0.2619E-01  0.8400E+00
     12.122  0.4141E-01  0.8431E+00
     12.197  0.4063E-01  0.8461E+00
     12.272  0.2460E-01  0.8480E+00
     12.348  0.7429E-02  0.8485E+00
     12.423 -0.1035E-02  0.8484E+00
     12.498 -0.2195E-02  0.8483E+00
     12.573 -0.1124E-02  0.8482E+00
     12.648 -0.3443E-03  0.8482E+00
     12.723 -0.8019E-04  0.8482E+00
     12.798 -0.8445E-04  0.8482E+00
     12.873 -0.4375E-03  0.8481E+00
     12.948 -0.1801E-02  0.8480E+00
     13.023 -0.4869E-02  0.8476E+00
     13.099 -0.6877E-02  0.8471E+00
     13.174  0.3406E-02  0.8474E+00
     13.249  0.3911E-01  0.8503E+00
     13.324  0.9129E-01  0.8572E+00
     13.399  0.1247E+00  0.8665E+00
     13.474  0.1227E+00  0.8757E+00
     13.549  0.1132E+00  0.8842E+00
     13.624  0.1189E+00  0.8932E+00
     13.699  0.1235E+00  0.9024E+00
     13.774  0.1183E+00  0.9113E+00
     13.850  0.1218E+00  0.9205E+00
     13.925  0.1287E+00  0.9301E+00
     14.000  0.1077E+00  0.9382E+00
     14.075  0.5776E-01  0.9426E+00
     14.150  0.1322E-01  0.9436E+00
     14.225 -0.5409E-02  0.9431E+00
     14.300 -0.6130E-02  0.9427E+00
     14.375 -0.2748E-02  0.9425E+00
     14.450 -0.7698E-03  0.9424E+00
     14.525 -0.1489E-03  0.9424E+00
     14.600 -0.2827E-04  0.9424E+00
     14.676 -0.6821E-04  0.9424E+00
     14.751 -0.4038E-03  0.9424E+00
     14.826 -0.1755E-02  0.9422E+00
     14.901 -0.5200E-02  0.9419E+00
     14.976 -0.9206E-02  0.9412E+00
     15.051 -0.3262E-02  0.9409E+00
     15.126  0.3192E-01  0.9433E+00
     15.201  0.1043E+00  0.9511E+00
     15.276  0.1856E+00  0.9651E+00
     15.351  0.2235E+00  0.9819E+00
     15.427  0.1891E+00  0.9961E+00
     15.502  0.1082E+00  0.1004E+01
     15.577  0.3399E-01  0.1007E+01
     15.652 -0.2910E-02  0.1007E+01
     15.727 -0.9439E-02  0.1006E+01
     15.802 -0.5390E-02  0.1005E+01
     15.877 -0.1823E-02  0.1005E+01
     15.952 -0.4191E-03  0.1005E+01
     16.027 -0.6848E-04  0.1005E+01
     16.102 -0.8124E-05  0.1005E+01
     16.178 -0.7078E-06  0.1005E+01
     16.253 -0.4560E-07  0.1005E+01
     16.328 -0.2182E-08  0.1005E+01
     16.403 -0.7783E-10  0.1005E+01
     16.478 -0.2074E-11  0.1005E+01
     16.553 -0.4130E-13  0.1005E+01
     16.628 -0.6192E-15  0.1005E+01
     16.703  0.0000E+00  0.1005E+01
     16.778  0.0000E+00  0.1005E+01
     16.853  0.0000E+00  0.1005E+01
     16.928  0.0000E+00  0.1005E+01
     17.004  0.0000E+00  0.1005E+01
     17.079  0.0000E+00  0.1005E+01
     17.154  0.0000E+00  0.1005E+01
     17.229  0.0000E+00  0.1005E+01
     17.304  0.0000E+00  0.1005E+01
     17.379  0.0000E+00  0.1005E+01
