   33   33  191    1
  0.1602710E+02  0.8087040E-09  0.8087040E-09  0.8087040E-09  0.5000000E-15
  1.000000000000000E-004
  CAR 
 unknown system                          
   98    1   96
 
  0.0000000E+00  0.0000000E+00  0.0000000E+00  0.1000000E+01
   1       -3.149993
   2       -1.267239
   3       -1.267239
   4       -0.721393
   5       -0.717878
   6       -0.717878
   7       -0.717877
   8        0.706840
   9        0.706840
  10        1.220038
  11        1.220038
  12        1.220038
  13        1.583733
  14        1.583733
  15        1.583733
  16        1.679645
  17        1.679645
  18        1.679645
  19        1.801303
  20        3.133705
  21        3.598143
  22        3.598143
  23        3.598143
  24        3.692916
  25        3.692916
  26        3.692916
  27        3.902378
  28        5.142491
  29        5.142491
  30        5.142491
  31        6.120214
  32        6.501659
  33        6.501659
  34        6.673131
  35        6.673131
  36        6.673131
  37        7.188414
  38        7.188414
  39        7.188414
  40        7.461964
  41        7.461964
  42        7.461964
  43        7.491422
  44        7.491423
  45        7.491423
  46        7.579718
  47        7.579718
  48        8.327808
  49        8.468920
  50        8.468920
  51        8.468920
  52        8.663548
  53        8.684162
  54        8.684162
  55        8.955563
  56        8.955563
  57        8.955563
  58        9.161055
  59        9.161055
  60        9.161055
  61        9.367271
  62        9.367271
  63        9.434543
  64        9.434543
  65        9.434543
  66        9.737453
  67        9.737453
  68        9.737453
  69        9.807766
  70       10.025317
  71       10.025317
  72       10.879113
  73       10.879113
  74       10.879113
  75       10.910875
  76       10.910875
  77       10.910875
  78       11.077435
  79       11.077435
  80       11.077435
  81       12.119149
  82       13.370044
  83       13.370045
  84       13.370045
  85       13.641138
  86       13.641138
  87       13.641138
  88       13.906114
  89       13.906114
  90       13.906114
  91       15.242601
  92       15.249068
  93       15.271824
  94       15.374642
  95       15.374782
  96       15.379052
