       N       E                     dE             d eps       ncg     rms          rms(c)
RMM:   1     0.179689736636E+03    0.17969E+03   -0.14536E+04    96   0.401E+02
RMM:   2    -0.394076860534E+02   -0.21910E+03   -0.20193E+03    96   0.802E+01
RMM:   3    -0.773793185108E+02   -0.37972E+02   -0.32807E+02    96   0.248E+01
RMM:   4    -0.904761766485E+02   -0.13097E+02   -0.73723E+01    96   0.132E+01
RMM:   5    -0.935242784769E+02   -0.30481E+01   -0.17498E+01    96   0.611E+00
RMM:   6    -0.941763089736E+02   -0.65203E+00   -0.39447E+00    96   0.293E+00
RMM:   7    -0.942908724344E+02   -0.11456E+00   -0.80431E-01    96   0.133E+00
RMM:   8    -0.943100951209E+02   -0.19223E-01   -0.15666E-01    96   0.612E-01
RMM:   9    -0.943141716170E+02   -0.40765E-02   -0.37441E-02   190   0.287E-01
RMM:  10    -0.943145098036E+02   -0.33819E-03   -0.31301E-03   172   0.836E-02
RMM:  11    -0.943145197987E+02   -0.99951E-05   -0.89855E-05   140   0.224E-02
RMM:  12    -0.943145226644E+02   -0.28657E-05   -0.28478E-05   121   0.137E-02    0.770E+00
RMM:  13    -0.922345009260E+02    0.20800E+01   -0.30827E+00   192   0.207E+00    0.451E+00
RMM:  14    -0.914898897783E+02    0.74461E+00   -0.34106E-01   192   0.696E-01    0.302E+00
RMM:  15    -0.912115419186E+02    0.27835E+00   -0.94872E-02   192   0.605E-01    0.918E-01
RMM:  16    -0.911784273411E+02    0.33115E-01   -0.18749E-02   192   0.260E-01    0.103E-01
RMM:  17    -0.911779155691E+02    0.51177E-03   -0.95261E-04   192   0.582E-02    0.469E-02
RMM:  18    -0.911778944976E+02    0.21071E-04   -0.11496E-04   111   0.226E-02
   1 F= -.91177894E+02 E0= -.91081276E+02  d E =-.911779E+02
       N       E                     dE             d eps       ncg     rms          rms(c)
RMM:   1    -0.100628883130E+03   -0.94510E+01   -0.61482E+01   192   0.147E+01    0.412E+00
RMM:   2    -0.998547813193E+02    0.77410E+00   -0.23701E+00   192   0.251E+00    0.265E+00
RMM:   3    -0.991445363888E+02    0.71024E+00   -0.39906E-01   193   0.768E-01    0.948E-01
RMM:   4    -0.991095373904E+02    0.34999E-01   -0.63255E-02   192   0.360E-01    0.441E-01
RMM:   5    -0.991060643543E+02    0.34730E-02   -0.72845E-03   192   0.148E-01    0.164E-01
RMM:   6    -0.991055718123E+02    0.49254E-03   -0.13883E-03   175   0.624E-02    0.477E-02
RMM:   7    -0.991053620978E+02    0.20971E-03   -0.10111E-04   113   0.178E-02    0.142E-02
RMM:   8    -0.991053527124E+02    0.93853E-05   -0.28144E-05   101   0.959E-03
   2 F= -.99105353E+02 E0= -.99062553E+02  d E =-.792746E+01
       N       E                     dE             d eps       ncg     rms          rms(c)
RMM:   1    -0.996447860307E+02   -0.53942E+00   -0.79062E+00   192   0.550E+00    0.100E+00
RMM:   2    -0.995764170210E+02    0.68369E-01   -0.16216E-01   193   0.729E-01    0.587E-01
RMM:   3    -0.995445221805E+02    0.31895E-01   -0.23507E-02   192   0.199E-01    0.206E-01
RMM:   4    -0.995431245683E+02    0.13976E-02   -0.34145E-03   186   0.853E-02    0.967E-02
RMM:   5    -0.995430893274E+02    0.35241E-04   -0.20609E-04   136   0.310E-02
   3 F= -.99543089E+02 E0= -.99513048E+02  d E =-.836519E+01
       N       E                     dE             d eps       ncg     rms          rms(c)
RMM:   1    -0.998576283052E+02   -0.31450E+00   -0.17917E+00   192   0.270E+00    0.793E-01
RMM:   2    -0.998177499680E+02    0.39878E-01   -0.10769E-01   192   0.455E-01    0.463E-01
RMM:   3    -0.997937896433E+02    0.23960E-01   -0.13618E-02   192   0.133E-01    0.994E-02
RMM:   4    -0.997934376625E+02    0.35198E-03   -0.87878E-04   182   0.438E-02    0.390E-02
RMM:   5    -0.997934388175E+02   -0.11550E-05   -0.36269E-05   111   0.135E-02
   4 F= -.99793439E+02 E0= -.99765587E+02  d E =-.250349E+00
       N       E                     dE             d eps       ncg     rms          rms(c)
RMM:   1    -0.100498793622E+03   -0.70536E+00   -0.10919E+01   192   0.663E+00    0.197E+00
RMM:   2    -0.100227165094E+03    0.27163E+00   -0.66967E-01   192   0.113E+00    0.118E+00
RMM:   3    -0.100088399926E+03    0.13877E+00   -0.85597E-02   192   0.331E-01    0.268E-01
RMM:   4    -0.100085423171E+03    0.29768E-02   -0.48955E-03   191   0.105E-01    0.104E-01
RMM:   5    -0.100085393772E+03    0.29400E-04   -0.34265E-04   154   0.327E-02
   5 F= -.10008539E+03 E0= -.10006865E+03  d E =-.542304E+00
       N       E                     dE             d eps       ncg     rms          rms(c)
RMM:   1    -0.100411153351E+03   -0.32573E+00   -0.24992E+00   192   0.351E+00    0.109E+00
RMM:   2    -0.100368565049E+03    0.42588E-01   -0.22629E-01   192   0.619E-01    0.960E-01
RMM:   3    -0.100291773580E+03    0.76791E-01   -0.42413E-02   192   0.214E-01    0.146E-01
RMM:   4    -0.100291337403E+03    0.43618E-03   -0.66680E-04   173   0.467E-02    0.816E-02
RMM:   5    -0.100291371467E+03   -0.34065E-04   -0.94964E-05   116   0.219E-02
   6 F= -.10029137E+03 E0= -.10026409E+03  d E =-.205978E+00
       N       E                     dE             d eps       ncg     rms          rms(c)
RMM:   1    -0.101375293425E+03   -0.10840E+01   -0.17301E+01   192   0.906E+00    0.285E+00
RMM:   2    -0.100926529939E+03    0.44876E+00   -0.13967E+00   192   0.159E+00    0.252E+00
RMM:   3    -0.100583484580E+03    0.34305E+00   -0.24677E-01   192   0.533E-01    0.581E-01
RMM:   4    -0.100562053544E+03    0.21431E-01   -0.11033E-02   192   0.156E-01    0.240E-01
RMM:   5    -0.100561718101E+03    0.33544E-03   -0.12226E-03   189   0.551E-02    0.143E-01
RMM:   6    -0.100561767551E+03   -0.49450E-04   -0.41950E-04   155   0.393E-02
   7 F= -.10056177E+03 E0= -.10048865E+03  d E =-.476374E+00
       N       E                     dE             d eps       ncg     rms          rms(c)
RMM:   1    -0.101033006592E+03   -0.47129E+00   -0.46220E+00   192   0.436E+00    0.164E+00
RMM:   2    -0.100782694632E+03    0.25031E+00   -0.47288E-01   192   0.843E-01    0.638E-01
RMM:   3    -0.100752619148E+03    0.30075E-01   -0.32119E-02   192   0.214E-01    0.291E-01
RMM:   4    -0.100747992731E+03    0.46264E-02   -0.22949E-03   192   0.710E-02    0.119E-01
RMM:   5    -0.100747786194E+03    0.20654E-03   -0.85754E-04   189   0.463E-02    0.370E-02
RMM:   6    -0.100747754489E+03    0.31705E-04   -0.60366E-05   110   0.114E-02
   8 F= -.10074775E+03 E0= -.10069354E+03  d E =-.185987E+00
       N       E                     dE             d eps       ncg     rms          rms(c)
RMM:   1    -0.100950610400E+03   -0.20282E+00   -0.42869E+00   192   0.415E+00    0.104E+00
RMM:   2    -0.100817359128E+03    0.13325E+00   -0.20217E-01   192   0.637E-01    0.417E-01
RMM:   3    -0.100806320400E+03    0.11039E-01   -0.15128E-02   192   0.170E-01    0.194E-01
RMM:   4    -0.100804806350E+03    0.15141E-02   -0.22790E-03   189   0.677E-02    0.886E-02
RMM:   5    -0.100804689477E+03    0.11687E-03   -0.44841E-04   166   0.341E-02    0.274E-02
RMM:   6    -0.100804700872E+03   -0.11395E-04   -0.83266E-05   113   0.145E-02
   9 F= -.10080470E+03 E0= -.10078229E+03  d E =-.242933E+00
       N       E                     dE             d eps       ncg     rms          rms(c)
RMM:   1    -0.100882554050E+03   -0.77865E-01   -0.20780E+00   192   0.300E+00    0.900E-01
RMM:   2    -0.100838725353E+03    0.43829E-01   -0.96482E-02   192   0.474E-01    0.245E-01
RMM:   3    -0.100832446756E+03    0.62786E-02   -0.75335E-03   192   0.121E-01    0.879E-02
RMM:   4    -0.100832162377E+03    0.28438E-03   -0.93086E-04   180   0.432E-02    0.375E-02
RMM:   5    -0.100832144718E+03    0.17659E-04   -0.36163E-05   111   0.122E-02
  10 F= -.10083214E+03 E0= -.10079374E+03  d E =-.274438E-01
       N       E                     dE             d eps       ncg     rms          rms(c)
RMM:   1    -0.100846950488E+03   -0.14788E-01   -0.24130E-01   192   0.102E+00    0.283E-01
RMM:   2    -0.100841053752E+03    0.58967E-02   -0.98206E-03   192   0.155E-01    0.722E-02
RMM:   3    -0.100840678229E+03    0.37552E-03   -0.49063E-04   165   0.378E-02    0.333E-02
RMM:   4    -0.100840635486E+03    0.42743E-04   -0.89946E-05   108   0.165E-02
  11 F= -.10084064E+03 E0= -.10080811E+03  d E =-.359346E-01
