 vasp.5.2.2 15Apr09 complex 
 executed on             LinuxIFC date 2016.12.16  16:00:01
 running on   32 nodes
 distr:  one band on    1 nodes,   32 groups


--------------------------------------------------------------------------------------------------------


 INCAR:
 POTCAR:   PAW_PBE Al 04Jan2001                   
 POTCAR:   PAW_PBE Mg 05Jan2001                   
 POTCAR:   PAW_PBE Al 04Jan2001                   
   VRHFIN =Al: s2p1                                                             
   LEXCH  = PE                                                                  
   EATOM  =    53.5387 eV,    3.9350 Ry                                         
                                                                                
   TITEL  = PAW_PBE Al 04Jan2001                                                
   LULTRA =        F    use ultrasoft PP ?                                      
   IUNSCR =        1    unscreen: 0-lin 1-nonlin 2-no                           
   RPACOR =    1.500    partial core radius                                     
   POMASS =   26.982; ZVAL   =    3.000    mass and valenz                      
   RCORE  =    1.900    outmost cutoff radius                                   
   RWIGS  =    2.650; RWIGS  =    1.402    wigner-seitz radius (au A)           
   ENMAX  =  240.300; ENMIN  =  180.225 eV                                      
   ICORE  =        2    local potential                                         
   LCOR   =        T    correct aug charges                                     
   LPAW   =        T    paw PP                                                  
   EAUG   =  291.052                                                            
   DEXC   =    -.041                                                            
   RMAX   =    2.974    core radius for proj-oper                               
   RAUG   =    1.300    factor for augmentation sphere                          
   RDEP   =    1.966    radius for radial grids                                 
   QCUT   =   -4.203; QGAM   =    8.405    optimization parameters              
                                                                                
   Description                                                                  
     l     E      TYP  RCUT    TYP  RCUT                                        
     0   .000     23  1.900                                                     
     0   .000     23  1.900                                                     
     1   .000     23  1.900                                                     
     1  1.000     23  1.900                                                     
     2   .000      7  1.900                                                     
  local pseudopotential read in
  partial core-charges read in
  atomic valenz-charges read in
  non local Contribution for L=           0  read in
    real space projection operators read in
  non local Contribution for L=           0  read in
    real space projection operators read in
  non local Contribution for L=           1  read in
    real space projection operators read in
  non local Contribution for L=           1  read in
    real space projection operators read in
    PAW grid and wavefunctions read in
 
   number of l-projection  operators is LMAX  =           4
   number of lm-projection operators is LMMAX =           8
 
 POTCAR:   PAW_PBE Mg 05Jan2001                   
   VRHFIN =Mg: s2p0                                                             
   LEXCH  = PE                                                                  
   EATOM  =    23.0029 eV,    1.6907 Ry                                         
                                                                                
   TITEL  = PAW_PBE Mg 05Jan2001                                                
   LULTRA =        F    use ultrasoft PP ?                                      
   IUNSCR =        1    unscreen: 0-lin 1-nonlin 2-no                           
   RPACOR =    2.000    partial core radius                                     
   POMASS =   24.305; ZVAL   =    2.000    mass and valenz                      
   RCORE  =    2.000    outmost cutoff radius                                   
   RWIGS  =    2.880; RWIGS  =    1.524    wigner-seitz radius (au A)           
   ENMAX  =  210.012; ENMIN  =  157.509 eV                                      
   ICORE  =        2    local potential                                         
   LCOR   =        T    correct aug charges                                     
   LPAW   =        T    paw PP                                                  
   EAUG   =  274.554                                                            
   DEXC   =    -.136                                                            
   RMAX   =    3.182    core radius for proj-oper                               
   RAUG   =    1.300    factor for augmentation sphere                          
   RDEP   =    2.025    radius for radial grids                                 
   QCUT   =   -3.929; QGAM   =    7.858    optimization parameters              
                                                                                
   Description                                                                  
     l     E      TYP  RCUT    TYP  RCUT                                        
     0   .000     23  2.000                                                     
     0  2.000     23  2.000                                                     
     1   .000     23  2.000                                                     
     1  2.000     23  2.000                                                     
     2   .000     23  2.000                                                     
  local pseudopotential read in
  partial core-charges read in
  atomic valenz-charges read in
  non local Contribution for L=           0  read in
    real space projection operators read in
  non local Contribution for L=           0  read in
    real space projection operators read in
  non local Contribution for L=           1  read in
    real space projection operators read in
  non local Contribution for L=           1  read in
    real space projection operators read in
    PAW grid and wavefunctions read in
 
   number of l-projection  operators is LMAX  =           4
   number of lm-projection operators is LMMAX =           8
 

 ----------------------------------------------------------------------------- 
|                                                                             |
|  ADVICE TO THIS USER RUNNING 'VASP/VAMP'   (HEAR YOUR MASTER'S VOICE ...):  |
|                                                                             |
|      You have a (more or less) 'large supercell' and for larger cells       |
|      it might be more efficient to use real space projection operators      |
|      So try LREAL= Auto  in the INCAR   file.                               |
|      Mind: If you want to do a very accurate calculations keep the          |
|      reciprocal projection scheme          (i.e. LREAL=.FALSE.)             |
|                                                                             |
 ----------------------------------------------------------------------------- 

 PAW_PBE Al 04Jan2001                   :
 energy of atom  1       EATOM=  -53.5387
 kinetic energy error for atom=    0.0011 (will be added to EATOM!!)
 PAW_PBE Mg 05Jan2001                   :
 energy of atom  2       EATOM=  -23.0029
 kinetic energy error for atom=    0.0002 (will be added to EATOM!!)
 
 
 POSCAR: Mg1 Al32                                
  positions in direct lattice
  velocities in cartesian coordinates
 exchange correlation table for  LEXCH =        8
   RHO(1)=    0.500       N(1)  =     2000
   RHO(2)=  100.500       N(2)  =     4000

 VTST: version 2.03d, (02/18/09)

 CHAIN: initializing optimizer
 
 OPT: Using VASP Conjugate-Gradient optimizer
 CHAIN: Read ICHAIN            0
 


--------------------------------------------------------------------------------------------------------


 ion  position               nearest neighbor table
   1  0.000  0.000  0.000-   2 2.86   3 2.86   4 2.86   6 2.86   7 2.86  11 2.86  12 2.86  15 2.86
                            18 2.86  20 2.86  22 2.86  28 2.86
   2  0.250  0.000  0.250-   1 2.86   3 2.86   4 2.86   5 2.86   8 2.86  11 2.86  12 2.86  16 2.86
                            17 2.86  19 2.86  21 2.86  27 2.86
   3  0.250  0.250  0.000-   1 2.86   2 2.86   4 2.86   5 2.86   8 2.86   9 2.86  10 2.86  13 2.86
                            18 2.86  20 2.86  24 2.86  26 2.86  33 3.50
   4  0.000  0.250  0.250-   1 2.86   2 2.86   3 2.86   6 2.86   7 2.86   9 2.86  10 2.86  14 2.86
                            17 2.86  19 2.86  23 2.86  25 2.86
   5  0.500  0.000  0.000-   2 2.86   3 2.86   6 2.86   7 2.86   8 2.86  11 2.86  15 2.86  16 2.86
                            18 2.86  22 2.86  24 2.86  32 2.86
   6  0.750  0.000  0.250-   1 2.86   4 2.86   5 2.86   7 2.86   8 2.86  12 2.86  15 2.86  16 2.86
                            17 2.86  21 2.86  23 2.86  31 2.86
   7  0.750  0.250  0.000-   1 2.86   4 2.86   5 2.86   6 2.86   8 2.86   9 2.86  13 2.86  14 2.86
                            20 2.86  22 2.86  24 2.86  30 2.86  33 3.50
   8  0.500  0.250  0.250-   2 2.86   3 2.86   5 2.86   6 2.86   7 2.86  10 2.86  13 2.86  14 2.86
                            19 2.86  21 2.86  23 2.86  29 2.86
   9  0.000  0.500  0.000-   3 2.86   4 2.86   7 2.86  10 2.86  11 2.86  12 2.86  14 2.86  15 2.86
                            20 2.86  26 2.86  28 2.86  30 2.86
  10  0.250  0.500  0.250-   3 2.86   4 2.86   8 2.86   9 2.86  11 2.86  12 2.86  13 2.86  16 2.86
                            19 2.86  25 2.86  27 2.86  29 2.86
  11  0.250  0.750  0.000-   1 2.86   2 2.86   5 2.86   9 2.86  10 2.86  12 2.86  13 2.86  16 2.86
                            18 2.86  26 2.86  28 2.86  32 2.86  33 3.50
  12  0.000  0.750  0.250-   1 2.86   2 2.86   6 2.86   9 2.86  10 2.86  11 2.86  14 2.86  15 2.86
                            17 2.86  25 2.86  27 2.86  31 2.86
  13  0.500  0.500  0.000-  33 2.02   7 2.86   8 2.86  10 2.86  11 2.86  14 2.86  15 2.86  16 2.86
                            24 2.86  26 2.86  30 2.86  32 2.86   3 2.86
  14  0.750  0.500  0.250-   4 2.86   7 2.86   8 2.86   9 2.86  12 2.86  13 2.86  15 2.86  16 2.86
                            23 2.86  25 2.86  29 2.86  31 2.86
  15  0.750  0.750  0.000-   1 2.86   5 2.86   6 2.86   9 2.86  12 2.86  13 2.86  14 2.86  16 2.86
                            22 2.86  28 2.86  30 2.86  32 2.86  33 3.50
  16  0.500  0.750  0.250-   2 2.86   5 2.86   6 2.86  10 2.86  11 2.86  13 2.86  14 2.86  15 2.86
                            21 2.86  27 2.86  29 2.86  31 2.86
  17  0.000  0.000  0.500-   2 2.86   4 2.86   6 2.86  12 2.86  18 2.86  19 2.86  20 2.86  22 2.86
                            23 2.86  27 2.86  28 2.86  31 2.86
  18  0.250  0.000  0.750-   1 2.86   3 2.86   5 2.86  11 2.86  17 2.86  19 2.86  20 2.86  21 2.86
                            24 2.86  27 2.86  28 2.86  32 2.86
  19  0.250  0.250  0.500-   2 2.86   4 2.86   8 2.86  10 2.86  17 2.86  18 2.86  20 2.86  21 2.86
                            24 2.86  25 2.86  26 2.86  29 2.86  33 3.50
  20  0.000  0.250  0.750-   1 2.86   3 2.86   7 2.86   9 2.86  17 2.86  18 2.86  19 2.86  22 2.86
                            23 2.86  25 2.86  26 2.86  30 2.86
  21  0.500  0.000  0.500-   2 2.86   6 2.86   8 2.86  16 2.86  18 2.86  19 2.86  22 2.86  23 2.86
                            24 2.86  27 2.86  31 2.86  32 2.86
  22  0.750  0.000  0.750-   1 2.86   5 2.86   7 2.86  15 2.86  17 2.86  20 2.86  21 2.86  23 2.86
                            24 2.86  28 2.86  31 2.86  32 2.86
  23  0.750  0.250  0.500-   4 2.86   6 2.86   8 2.86  14 2.86  17 2.86  20 2.86  21 2.86  22 2.86
                            24 2.86  25 2.86  29 2.86  30 2.86  33 3.50
  24  0.500  0.250  0.750-  33 2.02   5 2.86   7 2.86  13 2.86  18 2.86  19 2.86  21 2.86  22 2.86
                            23 2.86  26 2.86  29 2.86  30 2.86   3 2.86
  25  0.000  0.500  0.500-   4 2.86  10 2.86  12 2.86  14 2.86  19 2.86  20 2.86  23 2.86  26 2.86
                            27 2.86  28 2.86  30 2.86  31 2.86
  26  0.250  0.500  0.750-  33 2.02   9 2.86  11 2.86  13 2.86  19 2.86  20 2.86  24 2.86  25 2.86
                            27 2.86  28 2.86  29 2.86  32 2.86   3 2.86
  27  0.250  0.750  0.500-   2 2.86  10 2.86  12 2.86  16 2.86  17 2.86  18 2.86  21 2.86  25 2.86
                            26 2.86  28 2.86  29 2.86  32 2.86  33 3.50
  28  0.000  0.750  0.750-   1 2.86   9 2.86  11 2.86  15 2.86  17 2.86  18 2.86  22 2.86  25 2.86
                            26 2.86  27 2.86  30 2.86  31 2.86
  29  0.500  0.500  0.500-  33 2.02  10 2.86  14 2.86  16 2.86  19 2.86  23 2.86  24 2.86  26 2.86
                            27 2.86  30 2.86  31 2.86  32 2.86   8 2.86
  30  0.750  0.500  0.750-  33 2.02   9 2.86  13 2.86  15 2.86  20 2.86  23 2.86  24 2.86  25 2.86
                            28 2.86  29 2.86  31 2.86  32 2.86   7 2.86
  31  0.750  0.750  0.500-   6 2.86  12 2.86  14 2.86  16 2.86  17 2.86  21 2.86  22 2.86  25 2.86
                            28 2.86  29 2.86  30 2.86  32 2.86  33 3.50
  32  0.500  0.750  0.750-  33 2.02  11 2.86  13 2.86  15 2.86  18 2.86  21 2.86  22 2.86  26 2.86
                            27 2.86  29 2.86  30 2.86  31 2.86   5 2.86
  33  0.500  0.500  0.750-  13 2.02  24 2.02  26 2.02  29 2.02  30 2.02  32 2.02  23 3.50   7 3.50
                            11 3.50  27 3.50   3 3.50  15 3.50  31 3.50  19 3.50
 
  LATTYP: Found a simple cubic cell.
 ALAT       =     8.0870400000
  
  Lattice vectors:
  
 A1 = (   8.0870400000,   0.0000000000,   0.0000000000)
 A2 = (   0.0000000000,   8.0870400000,   0.0000000000)
 A3 = (   0.0000000000,   0.0000000000,   8.0870400000)
 Subroutine PRICEL returns:
 Original cell was already a primitive cell.
 

Analysis of symmetry for initial positions (statically):

 Routine SETGRP: Setting up the symmetry group for a 
 simple cubic supercell.


 Subroutine GETGRP returns: Found 48 space group operations
 (whereof  8 operations were pure point group operations)
 out of a pool of 48 trial point group operations.


The static configuration has the point symmetry C_4v.
 The point group associated with its full space group is O_h .

Analysis of symmetry for dynamics (positions and initial velocities):

 Subroutine DYNSYM returns: Found 48 space group operations
 (whereof  8 operations were pure point group operations)
 out of a pool of 48 trial space group operations
 (whereof  8 operations were pure point group operations)
 and found also     1 'primitive' translations


The dynamic configuration has the point symmetry C_4v.
 The point group associated with its full space group is O_h .
 
 
 KPOINTS: Automatic kpoint scheme                 

Automatic generation of k-mesh.
 
 Subroutine IBZKPT returns following result:
 ===========================================
 
 Found      1 irreducible k-points:
 
 Following reciprocal coordinates:
            Coordinates               Weight
  0.000000  0.000000  0.000000      1.000000
 
 Following cartesian coordinates:
            Coordinates               Weight
  0.000000  0.000000  0.000000      1.000000
 


--------------------------------------------------------------------------------------------------------




 Dimension of arrays:
   k-points           NKPTS =      1   k-points in BZ     NKDIM =      1   number of bands    NBANDS=     96
   number of dos      NEDOS =    301   number of ions     NIONS =     33
   non local maximal  LDIM  =      4   non local SUM 2l+1 LMDIM =      8
   total plane-waves  NPLWV = 110592
   max r-space proj   IRMAX =      1   max aug-charges    IRDMAX=   9081
   dimension x,y,z NGX =    48 NGY =   48 NGZ =   48
   dimension x,y,z NGXF=    96 NGYF=   96 NGZF=   96
   support grid    NGXF=    96 NGYF=   96 NGZF=   96
   ions per type =              32   1
 NGX,Y,Z   is equivalent  to a cutoff of   9.87,  9.87,  9.87 a.u.
 NGXF,Y,Z  is equivalent  to a cutoff of  19.73, 19.73, 19.73 a.u.


 I would recommend the setting:
   dimension x,y,z NGX =    46 NGY =   46 NGZ =   46
 SYSTEM =  unknown system                          
 POSCAR =  Mg1 Al32                                

 Startparameter for this run:
   NWRITE =      2    write-flag & timer
   PREC   = accura    medium, high low
   ISTART =      0    job   : 0-new  1-cont  2-samecut
   ICHARG =      2    charge: 1-file 2-atom 10-const
   ISPIN  =      1    spin polarized calculation?
   LNONCOLLINEAR =      F non collinear calculations
   LSORBIT =      F    spin-orbit coupling
   INIWAV =      1    electr: 0-lowe 1-rand  2-diag
   LASPH  =      F    aspherical Exc in radial PAW
   METAGGA=      F    non-selfconsistent MetaGGA calc.

 Electronic Relaxation 1
   ENCUT  =  300.0 eV  22.05 Ry    4.70 a.u.  11.42 11.42 11.42*2*pi/ulx,y,z
   ENINI  =  300.0     initial cutoff
   ENAUG  =  291.1 eV  augmentation charge cutoff
   NELM   =     60;   NELMIN=  2; NELMDL=-12     # of ELM steps 
   EDIFF  = 0.1E-03   stopping-criterion for ELM
   LREAL  =      F    real-space projection
   LCOMPAT=      F    compatible to vasp.4.4
   LREAL_COMPAT= F    compatible to vasp.4.5.1-3
   GGA_COMPAT  = T    GGA compatible to vasp.4.4-vasp.4.6
   LMAXPAW     = -100 max onsite density
   LMAXMIX     =    2 max onsite mixed and CHGCAR
   VOSKOWN=      0    Vosko Wilk Nusair interpolation
   ROPT   =    0.00000   0.00000
 Ionic relaxation
   EDIFFG = 0.5E-01   stopping-criterion for IOM
   NSW    =    191    number of steps for IOM
   NBLOCK =      1;   KBLOCK =    191    inner block; outer block 
   IBRION =      2    ionic relax: 0-MD 1-quasi-New 2-CG
   NFREE  =      1    steps in history (QN), initial steepest desc. (CG)
   ISIF   =      2    stress and relaxation
   IWAVPR =     11    prediction:  0-non 1-charg 2-wave 3-comb
   ISYM   =      2    0-nonsym 1-usesym 2-fastsym
   LCORR  =      T    Harris-Foulkes like correction to forces

   POTIM  = 0.5000    time-step for ionic-motion
   TEIN   =    0.0    initial temperature
   TEBEG  =    0.0;   TEEND  =   0.0 temperature during run
   SMASS  =  -3.00    Nose mass-parameter (am)
   estimated Nose-frequenzy (Omega)   =  0.10E-29 period in steps =****** mass=  -0.149E-26a.u.
   NPACO  =    256;   APACO  = 16.0  distance and # of slots for P.C.
   PSTRESS=    0.0 pullay stress

  Mass of Ions in am
   POMASS =  26.98 24.30
  Ionic Valenz
   ZVAL   =   3.00  2.00
  Atomic Wigner-Seitz radii
   RWIGS  =  -1.00 -1.00
   NELECT =      98.0000    total number of electrons
   NUPDOWN=      -1.0000    fix difference up-down

 DOS related values:
   EMIN   =  10.00;   EMAX   =-10.00  energy-range for DOS
   EFERMI =   0.00
   ISMEAR =     1;   SIGMA  =   0.20  broadening in eV -4-tet -1-fermi 0-gaus

 Electronic relaxation 2 (details)
   IALGO  =     48    algorithm
   LDIAG  =      T    sub-space diagonalisation
   IMIX   =      4    mixing-type and parameters
     AMIX     =   0.40;   BMIX     =  1.00
     AMIX_MAG =   1.60;   BMIX_MAG =  1.00
     AMIN     =   0.10
     WC   =   100.;   INIMIX=   1;  MIXPRE=   1

 Intra band minimization:
   WEIMIN = 0.0010     energy-eigenvalue tresh-hold
   EBREAK =  0.38E-06  absolut break condition
   DEPER  =   0.30     relativ break condition  

   TIME   =   0.40     timestep for ELM

  volume/ion in A,a.u.               =      16.03       108.16
  Fermi-wavevector in a.u.,A,eV,Ry     =   0.933313  1.763706 11.851667  0.871073
  Thomas-Fermi vector in A             =   2.060001
 
 Write flags
   LWAVE  =      F    write WAVECAR
   LCHARG =      F    write CHGCAR
   LVTOT  =      F    write LOCPOT, local potential
   LELF   =      F    write electronic localiz. function (ELF)
   LORBIT =      0    0 simple, 1 ext, 2 COOP (PROOUT)


 Dipole corrections
   LMONO  =      F    monopole corrections only (constant potential shift)
   LDIPOL =      F    correct potential (dipole corrections)
   IDIPOL =      0    1-x, 2-y, 3-z, 4-all directions 
   EPSILON=  1.0000000 bulk dielectric constant

 Exchange correlation treatment:
   GGA     =    --    GGA type
   LEXCH   =     8    internal setting for exchange type
   VOSKOWN=      0    Vosko Wilk Nusair interpolation
   LHFCALC =     F    Hartree Fock is set to
   LHFONE  =     F    Hartree Fock one center treatment
   AEXX    =    0.0000 exact exchange contribution

 Linear response parameters
   LEPSILON=     F    determine dielectric tensor
   LRPA    =     F    only Hartree local field effects (RPA)
   LNABLA  =     F    use nabla operator in PAW spheres
   LVEL    =     F    velocity operator in full k-point grid
   LINTERFAST=   F  fast interpolation
   KINTER  =     0    interpolate to denser k-point grid
   CSHIFT  =0.1000    complex shift for real part using Kramers Kronig
   OMEGAMAX=  -1.0    maximum frequency

 Orbital magnetization related:
   ORBITALMAG=     F  switch on orbital magnetization
   LCHIMAG   =     F  perturbation theory with respect to B field



--------------------------------------------------------------------------------------------------------


 conjugate gradient relaxation of ions
 charge density and potential will be updated during run
 non-spin polarized calculation
 RMM-DIIS sequential band-by-band
 perform sub-space diagonalisation
    before iterative eigenvector-optimisation
 modified Broyden-mixing scheme, WC =      100.0
 initial mixing is a Kerker type mixing with AMIX =  0.4000 and BMIX =      1.0000
 Hartree-type preconditioning will be used
 using additional bands           47
 reciprocal scheme for non local part
 use partial core corrections
 calculate Harris-corrections to forces 
   (improved forces if not selfconsistent)
 use gradient corrections 
 use of overlap-Matrix (Vanderbilt PP)
 Methfessel and Paxton  Order N= 1 SIGMA  =   0.20


--------------------------------------------------------------------------------------------------------


  energy-cutoff  :      300.00
  volume of cell :      528.89
      direct lattice vectors                 reciprocal lattice vectors
     8.087040000  0.000000000  0.000000000     0.123654638  0.000000000  0.000000000
     0.000000000  8.087040000  0.000000000     0.000000000  0.123654638  0.000000000
     0.000000000  0.000000000  8.087040000     0.000000000  0.000000000  0.123654638

  length of vectors
     8.087040000  8.087040000  8.087040000     0.123654638  0.123654638  0.123654638


 
 k-points in units of 2pi/SCALE and weight: Automatic kpoint scheme                 
   0.00000000  0.00000000  0.00000000       1.000
 
 k-points in reciprocal lattice and weights: Automatic kpoint scheme                 
   0.00000000  0.00000000  0.00000000       1.000
 
 position of ions in fractional coordinates (direct lattice) 
   0.00000000  0.00000000  0.00000000
   0.25000000  0.00000000  0.25000000
   0.25000000  0.25000000  0.00000000
   0.00000000  0.25000000  0.25000000
   0.50000000  0.00000000  0.00000000
   0.75000000  0.00000000  0.25000000
   0.75000000  0.25000000  0.00000000
   0.50000000  0.25000000  0.25000000
   0.00000000  0.50000000  0.00000000
   0.25000000  0.50000000  0.25000000
   0.25000000  0.75000000  0.00000000
   0.00000000  0.75000000  0.25000000
   0.50000000  0.50000000  0.00000000
   0.75000000  0.50000000  0.25000000
   0.75000000  0.75000000  0.00000000
   0.50000000  0.75000000  0.25000000
   0.00000000  0.00000000  0.50000000
   0.25000000  0.00000000  0.75000000
   0.25000000  0.25000000  0.50000000
   0.00000000  0.25000000  0.75000000
   0.50000000  0.00000000  0.50000000
   0.75000000  0.00000000  0.75000000
   0.75000000  0.25000000  0.50000000
   0.50000000  0.25000000  0.75000000
   0.00000000  0.50000000  0.50000000
   0.25000000  0.50000000  0.75000000
   0.25000000  0.75000000  0.50000000
   0.00000000  0.75000000  0.75000000
   0.50000000  0.50000000  0.50000000
   0.75000000  0.50000000  0.75000000
   0.75000000  0.75000000  0.50000000
   0.50000000  0.75000000  0.75000000
   0.50000000  0.50000000  0.75000000
 
 position of ions in cartesian coordinates  (Angst):
   0.00000000  0.00000000  0.00000000
   2.02176000  0.00000000  2.02176000
   2.02176000  2.02176000  0.00000000
   0.00000000  2.02176000  2.02176000
   4.04352000  0.00000000  0.00000000
   6.06528000  0.00000000  2.02176000
   6.06528000  2.02176000  0.00000000
   4.04352000  2.02176000  2.02176000
   0.00000000  4.04352000  0.00000000
   2.02176000  4.04352000  2.02176000
   2.02176000  6.06528000  0.00000000
   0.00000000  6.06528000  2.02176000
   4.04352000  4.04352000  0.00000000
   6.06528000  4.04352000  2.02176000
   6.06528000  6.06528000  0.00000000
   4.04352000  6.06528000  2.02176000
   0.00000000  0.00000000  4.04352000
   2.02176000  0.00000000  6.06528000
   2.02176000  2.02176000  4.04352000
   0.00000000  2.02176000  6.06528000
   4.04352000  0.00000000  4.04352000
   6.06528000  0.00000000  6.06528000
   6.06528000  2.02176000  4.04352000
   4.04352000  2.02176000  6.06528000
   0.00000000  4.04352000  4.04352000
   2.02176000  4.04352000  6.06528000
   2.02176000  6.06528000  4.04352000
   0.00000000  6.06528000  6.06528000
   4.04352000  4.04352000  4.04352000
   6.06528000  4.04352000  6.06528000
   6.06528000  6.06528000  4.04352000
   4.04352000  6.06528000  6.06528000
   4.04352000  4.04352000  6.06528000
 


--------------------------------------------------------------------------------------------------------


 k-point  1 :  0.00000.00000.0000  plane waves:    6235

 maximum and minimum number of plane-waves per node :    6235   6235

 maximum number of plane-waves:    6235
 maximal index in each direction: 
   IXMAX= 11   IYMAX= 11   IZMAX= 11
   IXMIN=-11   IYMIN=-11   IZMIN=-11

 NGX is ok and might be reduce to  46
 NGY is ok and might be reduce to  46
 NGZ is ok and might be reduce to  46

 serial   3D FFT for wavefunctions
 parallel 3D FFT for charge:
    minimum data exchange during FFTs selected (reduces bandwidth)


 total amount of memory used by VASP on root node  55665. kBytes
========================================================================

   base      :    30000. kBytes
   nonl-proj :     4093. kBytes
   fftplans  :     1413. kBytes
   grid      :    19745. kBytes
   one-center:      101. kBytes
   wavefun   :      313. kBytes
 
 Broyden mixing: mesh for mixing (old mesh)
   NGX = 23   NGY = 23   NGZ = 23
  (NGX  = 96   NGY  = 96   NGZ  = 96)
  gives a total of  12167 points

 initial charge density was supplied:
 charge density of overlapping atoms calculated
 number of electron   98.0000000 magnetization 
 keeping initial charge density in first step


--------------------------------------------------------------------------------------------------------


 Maximum index for augmentation-charges          481 (set IRDMAX)


--------------------------------------------------------------------------------------------------------


 First call to EWALD:  gamma=   0.219
 Maximum number of real-space cells 3x 3x 3
 Maximum number of reciprocal cells 3x 3x 3

    FEWALD:  cpu time    0.02: real time    0.02
   RESPFUN:  cpu time    0.00: real time    0.00


----------------------------------------- Iteration    1(   1)  ---------------------------------------


    POTLOK:  cpu time    0.10: real time    0.10
    SETDIJ:  cpu time    0.01: real time    0.01
    EDDIAG:  cpu time    0.09: real time    0.09
  RMM-DIIS:  cpu time    0.18: real time    0.18
    ORTHCH:  cpu time    0.01: real time    0.01
       DOS:  cpu time    0.00: real time    0.00
    --------------------------------------------
      LOOP:  cpu time    0.39: real time    0.41

 eigenvalue-minimisations  :    96
 total energy-change (2. order) : 0.1796897E+03  (-0.1453559E+04)
 number of electron   98.0000000 magnetization 
 augmentation part    98.0000000 magnetization 

 Free energy of the ion-electron system (eV)
  ---------------------------------------------------
  alpha Z        PSCENC =        -8.27958290
  Ewald energy   TEWEN  =     -2384.56558862
  -1/2 Hartree   DENC   =        -9.58186620
  -exchange  EXHF       =         0.00000000
  -V(xc)+E(xc)   XCENC  =      -846.10174034
  PAW double counting   =      1149.32568210     -115.70169129
  entropy T*S    EENTRO =         0.01990384
  eigenvalues    EBANDS =       658.36793097
  atomic energy  EATOM  =      1736.20668909
  ---------------------------------------------------
  free energy    TOTEN  =       179.68973664 eV

  energy without entropy =      179.66983280  energy(sigma->0) =      179.68310202


--------------------------------------------------------------------------------------------------------




----------------------------------------- Iteration    1(   2)  ---------------------------------------


    EDDIAG:  cpu time    0.09: real time    0.09
  RMM-DIIS:  cpu time    0.17: real time    0.17
    ORTHCH:  cpu time    0.01: real time    0.01
       DOS:  cpu time    0.00: real time    0.00
    --------------------------------------------
      LOOP:  cpu time    0.27: real time    0.28

 eigenvalue-minimisations  :    96
 total energy-change (2. order) :-0.2190974E+03  (-0.2019289E+03)
 number of electron   98.0000000 magnetization 
 augmentation part    98.0000000 magnetization 

 Free energy of the ion-electron system (eV)
  ---------------------------------------------------
  alpha Z        PSCENC =        -8.27958290
  Ewald energy   TEWEN  =     -2384.56558862
  -1/2 Hartree   DENC   =        -9.58186620
  -exchange  EXHF       =         0.00000000
  -V(xc)+E(xc)   XCENC  =      -846.10174034
  PAW double counting   =      1149.32568210     -115.70169129
  entropy T*S    EENTRO =        -0.04532634
  eigenvalues    EBANDS =       439.33573845
  atomic energy  EATOM  =      1736.20668909
  ---------------------------------------------------
  free energy    TOTEN  =       -39.40768605 eV

  energy without entropy =      -39.36235971  energy(sigma->0) =      -39.39257727


--------------------------------------------------------------------------------------------------------




----------------------------------------- Iteration    1(   3)  ---------------------------------------


    EDDIAG:  cpu time    0.09: real time    0.09
  RMM-DIIS:  cpu time    0.17: real time    0.18
    ORTHCH:  cpu time    0.01: real time    0.01
       DOS:  cpu time    0.00: real time    0.00
    --------------------------------------------
      LOOP:  cpu time    0.27: real time    0.28

 eigenvalue-minimisations  :    96
 total energy-change (2. order) :-0.3797163E+02  (-0.3280713E+02)
 number of electron   98.0000000 magnetization 
 augmentation part    98.0000000 magnetization 

 Free energy of the ion-electron system (eV)
  ---------------------------------------------------
  alpha Z        PSCENC =        -8.27958290
  Ewald energy   TEWEN  =     -2384.56558862
  -1/2 Hartree   DENC   =        -9.58186620
  -exchange  EXHF       =         0.00000000
  -V(xc)+E(xc)   XCENC  =      -846.10174034
  PAW double counting   =      1149.32568210     -115.70169129
  entropy T*S    EENTRO =        -0.07698906
  eigenvalues    EBANDS =       401.39576871
  atomic energy  EATOM  =      1736.20668909
  ---------------------------------------------------
  free energy    TOTEN  =       -77.37931851 eV

  energy without entropy =      -77.30232945  energy(sigma->0) =      -77.35365549


--------------------------------------------------------------------------------------------------------




----------------------------------------- Iteration    1(   4)  ---------------------------------------


    EDDIAG:  cpu time    0.09: real time    0.09
  RMM-DIIS:  cpu time    0.17: real time    0.17
    ORTHCH:  cpu time    0.01: real time    0.01
       DOS:  cpu time    0.00: real time    0.00
    --------------------------------------------
      LOOP:  cpu time    0.27: real time    0.28

 eigenvalue-minimisations  :    96
 total energy-change (2. order) :-0.1309686E+02  (-0.7372252E+01)
 number of electron   98.0000000 magnetization 
 augmentation part    98.0000000 magnetization 

 Free energy of the ion-electron system (eV)
  ---------------------------------------------------
  alpha Z        PSCENC =        -8.27958290
  Ewald energy   TEWEN  =     -2384.56558862
  -1/2 Hartree   DENC   =        -9.58186620
  -exchange  EXHF       =         0.00000000
  -V(xc)+E(xc)   XCENC  =      -846.10174034
  PAW double counting   =      1149.32568210     -115.70169129
  entropy T*S    EENTRO =        -0.15590851
  eigenvalues    EBANDS =       388.37783003
  atomic energy  EATOM  =      1736.20668909
  ---------------------------------------------------
  free energy    TOTEN  =       -90.47617665 eV

  energy without entropy =      -90.32026814  energy(sigma->0) =      -90.42420714


--------------------------------------------------------------------------------------------------------




----------------------------------------- Iteration    1(   5)  ---------------------------------------


    EDDIAG:  cpu time    0.09: real time    0.09
  RMM-DIIS:  cpu time    0.18: real time    0.18
    ORTHCH:  cpu time    0.01: real time    0.01
       DOS:  cpu time    0.00: real time    0.00
    --------------------------------------------
      LOOP:  cpu time    0.28: real time    0.28

 eigenvalue-minimisations  :    96
 total energy-change (2. order) :-0.3048102E+01  (-0.1749771E+01)
 number of electron   98.0000000 magnetization 
 augmentation part    98.0000000 magnetization 

 Free energy of the ion-electron system (eV)
  ---------------------------------------------------
  alpha Z        PSCENC =        -8.27958290
  Ewald energy   TEWEN  =     -2384.56558862
  -1/2 Hartree   DENC   =        -9.58186620
  -exchange  EXHF       =         0.00000000
  -V(xc)+E(xc)   XCENC  =      -846.10174034
  PAW double counting   =      1149.32568210     -115.70169129
  entropy T*S    EENTRO =        -0.24050074
  eigenvalues    EBANDS =       385.41432043
  atomic energy  EATOM  =      1736.20668909
  ---------------------------------------------------
  free energy    TOTEN  =       -93.52427848 eV

  energy without entropy =      -93.28377774  energy(sigma->0) =      -93.44411156


--------------------------------------------------------------------------------------------------------




----------------------------------------- Iteration    1(   6)  ---------------------------------------


    EDDIAG:  cpu time    0.09: real time    0.09
  RMM-DIIS:  cpu time    0.17: real time    0.17
    ORTHCH:  cpu time    0.01: real time    0.01
       DOS:  cpu time    0.00: real time    0.00
    --------------------------------------------
      LOOP:  cpu time    0.27: real time    0.28

 eigenvalue-minimisations  :    96
 total energy-change (2. order) :-0.6520305E+00  (-0.3944683E+00)
 number of electron   98.0000000 magnetization 
 augmentation part    98.0000000 magnetization 

 Free energy of the ion-electron system (eV)
  ---------------------------------------------------
  alpha Z        PSCENC =        -8.27958290
  Ewald energy   TEWEN  =     -2384.56558862
  -1/2 Hartree   DENC   =        -9.58186620
  -exchange  EXHF       =         0.00000000
  -V(xc)+E(xc)   XCENC  =      -846.10174034
  PAW double counting   =      1149.32568210     -115.70169129
  entropy T*S    EENTRO =        -0.25093506
  eigenvalues    EBANDS =       384.77272425
  atomic energy  EATOM  =      1736.20668909
  ---------------------------------------------------
  free energy    TOTEN  =       -94.17630897 eV

  energy without entropy =      -93.92537392  energy(sigma->0) =      -94.09266395


--------------------------------------------------------------------------------------------------------




----------------------------------------- Iteration    1(   7)  ---------------------------------------


    EDDIAG:  cpu time    0.09: real time    0.09
  RMM-DIIS:  cpu time    0.17: real time    0.17
    ORTHCH:  cpu time    0.01: real time    0.01
       DOS:  cpu time    0.00: real time    0.00
    --------------------------------------------
      LOOP:  cpu time    0.27: real time    0.28

 eigenvalue-minimisations  :    96
 total energy-change (2. order) :-0.1145635E+00  (-0.8043057E-01)
 number of electron   98.0000000 magnetization 
 augmentation part    98.0000000 magnetization 

 Free energy of the ion-electron system (eV)
  ---------------------------------------------------
  alpha Z        PSCENC =        -8.27958290
  Ewald energy   TEWEN  =     -2384.56558862
  -1/2 Hartree   DENC   =        -9.58186620
  -exchange  EXHF       =         0.00000000
  -V(xc)+E(xc)   XCENC  =      -846.10174034
  PAW double counting   =      1149.32568210     -115.70169129
  entropy T*S    EENTRO =        -0.25162065
  eigenvalues    EBANDS =       384.65884638
  atomic energy  EATOM  =      1736.20668909
  ---------------------------------------------------
  free energy    TOTEN  =       -94.29087243 eV

  energy without entropy =      -94.03925178  energy(sigma->0) =      -94.20699888


--------------------------------------------------------------------------------------------------------




----------------------------------------- Iteration    1(   8)  ---------------------------------------


    EDDIAG:  cpu time    0.09: real time    0.09
  RMM-DIIS:  cpu time    0.17: real time    0.17
    ORTHCH:  cpu time    0.01: real time    0.01
       DOS:  cpu time    0.00: real time    0.00
    --------------------------------------------
      LOOP:  cpu time    0.27: real time    0.28

 eigenvalue-minimisations  :    96
 total energy-change (2. order) :-0.1922269E-01  (-0.1566633E-01)
 number of electron   98.0000000 magnetization 
 augmentation part    98.0000000 magnetization 

 Free energy of the ion-electron system (eV)
  ---------------------------------------------------
  alpha Z        PSCENC =        -8.27958290
  Ewald energy   TEWEN  =     -2384.56558862
  -1/2 Hartree   DENC   =        -9.58186620
  -exchange  EXHF       =         0.00000000
  -V(xc)+E(xc)   XCENC  =      -846.10174034
  PAW double counting   =      1149.32568210     -115.70169129
  entropy T*S    EENTRO =        -0.25163150
  eigenvalues    EBANDS =       384.63963454
  atomic energy  EATOM  =      1736.20668909
  ---------------------------------------------------
  free energy    TOTEN  =       -94.31009512 eV

  energy without entropy =      -94.05846362  energy(sigma->0) =      -94.22621796


--------------------------------------------------------------------------------------------------------




----------------------------------------- Iteration    1(   9)  ---------------------------------------


    EDDIAG:  cpu time    0.09: real time    0.09
  RMM-DIIS:  cpu time    0.31: real time    0.31
    ORTHCH:  cpu time    0.01: real time    0.01
       DOS:  cpu time    0.00: real time    0.00
    --------------------------------------------
      LOOP:  cpu time    0.41: real time    0.41

 eigenvalue-minimisations  :   190
 total energy-change (2. order) :-0.4076496E-02  (-0.3744135E-02)
 number of electron   98.0000000 magnetization 
 augmentation part    98.0000000 magnetization 

 Free energy of the ion-electron system (eV)
  ---------------------------------------------------
  alpha Z        PSCENC =        -8.27958290
  Ewald energy   TEWEN  =     -2384.56558862
  -1/2 Hartree   DENC   =        -9.58186620
  -exchange  EXHF       =         0.00000000
  -V(xc)+E(xc)   XCENC  =      -846.10174034
  PAW double counting   =      1149.32568210     -115.70169129
  entropy T*S    EENTRO =        -0.25162705
  eigenvalues    EBANDS =       384.63555360
  atomic energy  EATOM  =      1736.20668909
  ---------------------------------------------------
  free energy    TOTEN  =       -94.31417162 eV

  energy without entropy =      -94.06254457  energy(sigma->0) =      -94.23029593


--------------------------------------------------------------------------------------------------------




----------------------------------------- Iteration    1(  10)  ---------------------------------------


    EDDIAG:  cpu time    0.09: real time    0.09
  RMM-DIIS:  cpu time    0.30: real time    0.34
    ORTHCH:  cpu time    0.01: real time    0.01
       DOS:  cpu time    0.00: real time    0.00
    --------------------------------------------
      LOOP:  cpu time    0.40: real time    0.45

 eigenvalue-minimisations  :   172
 total energy-change (2. order) :-0.3381866E-03  (-0.3130113E-03)
 number of electron   98.0000000 magnetization 
 augmentation part    98.0000000 magnetization 

 Free energy of the ion-electron system (eV)
  ---------------------------------------------------
  alpha Z        PSCENC =        -8.27958290
  Ewald energy   TEWEN  =     -2384.56558862
  -1/2 Hartree   DENC   =        -9.58186620
  -exchange  EXHF       =         0.00000000
  -V(xc)+E(xc)   XCENC  =      -846.10174034
  PAW double counting   =      1149.32568210     -115.70169129
  entropy T*S    EENTRO =        -0.25162526
  eigenvalues    EBANDS =       384.63521363
  atomic energy  EATOM  =      1736.20668909
  ---------------------------------------------------
  free energy    TOTEN  =       -94.31450980 eV

  energy without entropy =      -94.06288454  energy(sigma->0) =      -94.23063472


--------------------------------------------------------------------------------------------------------




----------------------------------------- Iteration    1(  11)  ---------------------------------------


    EDDIAG:  cpu time    0.09: real time    0.09
  RMM-DIIS:  cpu time    0.24: real time    0.30
    ORTHCH:  cpu time    0.01: real time    0.01
       DOS:  cpu time    0.00: real time    0.00
    --------------------------------------------
      LOOP:  cpu time    0.34: real time    0.40

 eigenvalue-minimisations  :   140
 total energy-change (2. order) :-0.9995056E-05  (-0.8985532E-05)
 number of electron   98.0000000 magnetization 
 augmentation part    98.0000000 magnetization 

 Free energy of the ion-electron system (eV)
  ---------------------------------------------------
  alpha Z        PSCENC =        -8.27958290
  Ewald energy   TEWEN  =     -2384.56558862
  -1/2 Hartree   DENC   =        -9.58186620
  -exchange  EXHF       =         0.00000000
  -V(xc)+E(xc)   XCENC  =      -846.10174034
  PAW double counting   =      1149.32568210     -115.70169129
  entropy T*S    EENTRO =        -0.25162513
  eigenvalues    EBANDS =       384.63520349
  atomic energy  EATOM  =      1736.20668909
  ---------------------------------------------------
  free energy    TOTEN  =       -94.31451980 eV

  energy without entropy =      -94.06289467  energy(sigma->0) =      -94.23064476


--------------------------------------------------------------------------------------------------------




----------------------------------------- Iteration    1(  12)  ---------------------------------------


    EDDIAG:  cpu time    0.09: real time    0.09
  RMM-DIIS:  cpu time    0.23: real time    0.23
    ORTHCH:  cpu time    0.01: real time    0.01
       DOS:  cpu time    0.00: real time    0.00
    CHARGE:  cpu time    0.13: real time    0.13
    MIXING:  cpu time    0.00: real time    0.00
    --------------------------------------------
      LOOP:  cpu time    0.46: real time    0.46

 eigenvalue-minimisations  :   121
 total energy-change (2. order) :-0.2865666E-05  (-0.2847780E-05)
 number of electron   97.9999992 magnetization 
 augmentation part    -0.9039942 magnetization 

 Broyden mixing:
  rms(total) = 0.77012E+00    rms(broyden)= 0.77010E+00
  rms(prec ) = 0.17167E+01
  weight for this iteration     100.00

 Free energy of the ion-electron system (eV)
  ---------------------------------------------------
  alpha Z        PSCENC =        -8.27958290
  Ewald energy   TEWEN  =     -2384.56558862
  -1/2 Hartree   DENC   =        -9.58186620
  -exchange  EXHF       =         0.00000000
  -V(xc)+E(xc)   XCENC  =      -846.10174034
  PAW double counting   =      1149.32568210     -115.70169129
  entropy T*S    EENTRO =        -0.25162512
  eigenvalues    EBANDS =       384.63520063
  atomic energy  EATOM  =      1736.20668909
  ---------------------------------------------------
  free energy    TOTEN  =       -94.31452266 eV

  energy without entropy =      -94.06289754  energy(sigma->0) =      -94.23064762


--------------------------------------------------------------------------------------------------------




----------------------------------------- Iteration    1(  13)  ---------------------------------------


    POTLOK:  cpu time    0.06: real time    0.06
    SETDIJ:  cpu time    0.01: real time    0.01
    EDDIAG:  cpu time    0.09: real time    0.09
  RMM-DIIS:  cpu time    0.31: real time    0.31
    ORTHCH:  cpu time    0.01: real time    0.01
       DOS:  cpu time    0.00: real time    0.00
    CHARGE:  cpu time    0.11: real time    0.11
    MIXING:  cpu time    0.00: real time    0.00
    --------------------------------------------
      LOOP:  cpu time    0.59: real time    0.59

 eigenvalue-minimisations  :   192
 total energy-change (2. order) : 0.2080022E+01  (-0.3082694E+00)
 number of electron   97.9999993 magnetization 
 augmentation part    -0.9126796 magnetization 

 Broyden mixing:
  rms(total) = 0.45136E+00    rms(broyden)= 0.45135E+00
  rms(prec ) = 0.10843E+01
  weight for this iteration     100.00

 eigenvalues of (default mixing * dielectric matrix)
  average eigenvalue GAMMA=   1.1467
  1.1467

 Free energy of the ion-electron system (eV)
  ---------------------------------------------------
  alpha Z        PSCENC =        -8.27958290
  Ewald energy   TEWEN  =     -2384.56558862
  -1/2 Hartree   DENC   =       -12.97550211
  -exchange  EXHF       =         0.00000000
  -V(xc)+E(xc)   XCENC  =      -844.68814294
  PAW double counting   =      1151.80333852     -118.49562560
  entropy T*S    EENTRO =        -0.29585459
  eigenvalues    EBANDS =       389.05576821
  atomic energy  EATOM  =      1736.20668909
  ---------------------------------------------------
  free energy    TOTEN  =       -92.23450093 eV

  energy without entropy =      -91.93864634  energy(sigma->0) =      -92.13588273


--------------------------------------------------------------------------------------------------------




----------------------------------------- Iteration    1(  14)  ---------------------------------------


    POTLOK:  cpu time    0.06: real time    0.06
    SETDIJ:  cpu time    0.01: real time    0.01
    EDDIAG:  cpu time    0.09: real time    0.09
  RMM-DIIS:  cpu time    0.31: real time    0.31
    ORTHCH:  cpu time    0.01: real time    0.01
       DOS:  cpu time    0.00: real time    0.00
    CHARGE:  cpu time    0.10: real time    0.10
    MIXING:  cpu time    0.00: real time    0.00
    --------------------------------------------
      LOOP:  cpu time    0.58: real time    0.59

 eigenvalue-minimisations  :   192
 total energy-change (2. order) : 0.7446111E+00  (-0.3410642E-01)
 number of electron   97.9999993 magnetization 
 augmentation part    -0.9224923 magnetization 

 Broyden mixing:
  rms(total) = 0.30213E+00    rms(broyden)= 0.30213E+00
  rms(prec ) = 0.44970E+00
  weight for this iteration     100.00

 eigenvalues of (default mixing * dielectric matrix)
  average eigenvalue GAMMA=   1.5291
  0.6376  2.4207

 Free energy of the ion-electron system (eV)
  ---------------------------------------------------
  alpha Z        PSCENC =        -8.27958290
  Ewald energy   TEWEN  =     -2384.56558862
  -1/2 Hartree   DENC   =       -11.59392055
  -exchange  EXHF       =         0.00000000
  -V(xc)+E(xc)   XCENC  =      -844.08145848
  PAW double counting   =      1151.75184864     -118.50107987
  entropy T*S    EENTRO =        -0.29270800
  eigenvalues    EBANDS =       387.86591090
  atomic energy  EATOM  =      1736.20668909
  ---------------------------------------------------
  free energy    TOTEN  =       -91.48988978 eV

  energy without entropy =      -91.19718178  energy(sigma->0) =      -91.39232044


--------------------------------------------------------------------------------------------------------




----------------------------------------- Iteration    1(  15)  ---------------------------------------


    POTLOK:  cpu time    0.06: real time    0.06
    SETDIJ:  cpu time    0.01: real time    0.01
    EDDIAG:  cpu time    0.09: real time    0.09
  RMM-DIIS:  cpu time    0.31: real time    0.31
    ORTHCH:  cpu time    0.01: real time    0.01
       DOS:  cpu time    0.00: real time    0.00
    CHARGE:  cpu time    0.10: real time    0.10
    MIXING:  cpu time    0.00: real time    0.00
    --------------------------------------------
      LOOP:  cpu time    0.58: real time    0.59

 eigenvalue-minimisations  :   192
 total energy-change (2. order) : 0.2783479E+00  (-0.9487233E-02)
 number of electron   97.9999992 magnetization 
 augmentation part    -0.9428067 magnetization 

 Broyden mixing:
  rms(total) = 0.91790E-01    rms(broyden)= 0.91790E-01
  rms(prec ) = 0.14030E+00
  weight for this iteration     100.00

 eigenvalues of (default mixing * dielectric matrix)
  average eigenvalue GAMMA=   1.3782
  2.5963  0.9410  0.5971

 Free energy of the ion-electron system (eV)
  ---------------------------------------------------
  alpha Z        PSCENC =        -8.27958290
  Ewald energy   TEWEN  =     -2384.56558862
  -1/2 Hartree   DENC   =       -12.16036597
  -exchange  EXHF       =         0.00000000
  -V(xc)+E(xc)   XCENC  =      -842.59371199
  PAW double counting   =      1152.74449566     -119.69958506
  entropy T*S    EENTRO =        -0.28780824
  eigenvalues    EBANDS =       387.42391611
  atomic energy  EATOM  =      1736.20668909
  ---------------------------------------------------
  free energy    TOTEN  =       -91.21154192 eV

  energy without entropy =      -90.92373368  energy(sigma->0) =      -91.11560584


--------------------------------------------------------------------------------------------------------




----------------------------------------- Iteration    1(  16)  ---------------------------------------


    POTLOK:  cpu time    0.06: real time    0.06
    SETDIJ:  cpu time    0.01: real time    0.01
    EDDIAG:  cpu time    0.09: real time    0.09
  RMM-DIIS:  cpu time    0.31: real time    0.31
    ORTHCH:  cpu time    0.01: real time    0.01
       DOS:  cpu time    0.00: real time    0.00
    CHARGE:  cpu time    0.10: real time    0.10
    MIXING:  cpu time    0.00: real time    0.00
    --------------------------------------------
      LOOP:  cpu time    0.58: real time    0.59

 eigenvalue-minimisations  :   192
 total energy-change (2. order) : 0.3311458E-01  (-0.1874901E-02)
 number of electron   97.9999992 magnetization 
 augmentation part    -0.9523128 magnetization 

 Broyden mixing:
  rms(total) = 0.10281E-01    rms(broyden)= 0.10281E-01
  rms(prec ) = 0.16405E-01
  weight for this iteration     100.00

 eigenvalues of (default mixing * dielectric matrix)
  average eigenvalue GAMMA=   1.3655
  2.6088  0.5965  1.3634  0.8932

 Free energy of the ion-electron system (eV)
  ---------------------------------------------------
  alpha Z        PSCENC =        -8.27958290
  Ewald energy   TEWEN  =     -2384.56558862
  -1/2 Hartree   DENC   =       -12.61092874
  -exchange  EXHF       =         0.00000000
  -V(xc)+E(xc)   XCENC  =      -841.87533940
  PAW double counting   =      1153.55856718     -120.63046998
  entropy T*S    EENTRO =        -0.29025154
  eigenvalues    EBANDS =       387.30847755
  atomic energy  EATOM  =      1736.20668909
  ---------------------------------------------------
  free energy    TOTEN  =       -91.17842734 eV

  energy without entropy =      -90.88817580  energy(sigma->0) =      -91.08167683


--------------------------------------------------------------------------------------------------------




----------------------------------------- Iteration    1(  17)  ---------------------------------------


    POTLOK:  cpu time    0.06: real time    0.06
    SETDIJ:  cpu time    0.01: real time    0.01
    EDDIAG:  cpu time    0.09: real time    0.09
  RMM-DIIS:  cpu time    0.31: real time    0.31
    ORTHCH:  cpu time    0.01: real time    0.01
       DOS:  cpu time    0.00: real time    0.00
    CHARGE:  cpu time    0.10: real time    0.10
    MIXING:  cpu time    0.00: real time    0.00
    --------------------------------------------
      LOOP:  cpu time    0.58: real time    0.58

 eigenvalue-minimisations  :   192
 total energy-change (2. order) : 0.5117721E-03  (-0.9526066E-04)
 number of electron   97.9999992 magnetization 
 augmentation part    -0.9543903 magnetization 

 Broyden mixing:
  rms(total) = 0.46912E-02    rms(broyden)= 0.46912E-02
  rms(prec ) = 0.62277E-02
  weight for this iteration     100.00

 eigenvalues of (default mixing * dielectric matrix)
  average eigenvalue GAMMA=   1.4819
  2.6450  2.1407  0.5972  1.1545  0.8721

 Free energy of the ion-electron system (eV)
  ---------------------------------------------------
  alpha Z        PSCENC =        -8.27958290
  Ewald energy   TEWEN  =     -2384.56558862
  -1/2 Hartree   DENC   =       -12.64228090
  -exchange  EXHF       =         0.00000000
  -V(xc)+E(xc)   XCENC  =      -841.81369122
  PAW double counting   =      1153.86832117     -120.96409703
  entropy T*S    EENTRO =        -0.28999531
  eigenvalues    EBANDS =       387.30231015
  atomic energy  EATOM  =      1736.20668909
  ---------------------------------------------------
  free energy    TOTEN  =       -91.17791557 eV

  energy without entropy =      -90.88792026  energy(sigma->0) =      -91.08125046


--------------------------------------------------------------------------------------------------------




----------------------------------------- Iteration    1(  18)  ---------------------------------------


    POTLOK:  cpu time    0.06: real time    0.06
    SETDIJ:  cpu time    0.01: real time    0.01
    EDDIAG:  cpu time    0.09: real time    0.09
  RMM-DIIS:  cpu time    0.23: real time    0.23
    ORTHCH:  cpu time    0.01: real time    0.01
       DOS:  cpu time    0.00: real time    0.00
    --------------------------------------------
      LOOP:  cpu time    0.40: real time    0.40

 eigenvalue-minimisations  :   111
 total energy-change (2. order) : 0.2107149E-04  (-0.1149647E-04)
 number of electron   97.9999992 magnetization 
 augmentation part    -0.9543903 magnetization 

 Free energy of the ion-electron system (eV)
  ---------------------------------------------------
  alpha Z        PSCENC =        -8.27958290
  Ewald energy   TEWEN  =     -2384.56558862
  -1/2 Hartree   DENC   =       -12.66280444
  -exchange  EXHF       =         0.00000000
  -V(xc)+E(xc)   XCENC  =      -841.78499605
  PAW double counting   =      1154.05731444     -121.16953651
  entropy T*S    EENTRO =        -0.28985505
  eigenvalues    EBANDS =       387.31046553
  atomic energy  EATOM  =      1736.20668909
  ---------------------------------------------------
  free energy    TOTEN  =       -91.17789450 eV

  energy without entropy =      -90.88803945  energy(sigma->0) =      -91.08127615


--------------------------------------------------------------------------------------------------------




 average (electrostatic) potential at core
  the test charge radii are     1.0406  1.0714
  (the norm of the test charge is              1.0000)
       1 -72.7304       2 -72.7304       3 -72.5702       4 -72.7304       5 -72.5399
       6 -72.7304       7 -72.5702       8 -72.5399       9 -72.5399      10 -72.5399
      11 -72.5702      12 -72.7304      13 -72.5641      14 -72.5399      15 -72.5702
      16 -72.5399      17 -72.7304      18 -72.5399      19 -72.5702      20 -72.5399
      21 -72.5399      22 -72.5399      23 -72.5702      24 -72.5641      25 -72.5399
      26 -72.5641      27 -72.5702      28 -72.5399      29 -72.5641      30 -72.5641
      31 -72.5702      32 -72.5641      33 -50.4582
 
 
 
 E-fermi :   8.4060     XC(G=0): -10.2705     alpha+bet :-15.2356
   add alpha+bet to get absolut eigen values

 k-point   1 :       0.0000    0.0000    0.0000
  band No.  band energies     occupation 
      1      -3.0468      2.00000
      2      -1.1951      2.00000
      3      -0.7352      2.00000
      4      -0.7352      2.00000
      5      -0.7352      2.00000
      6      -0.6391      2.00000
      7      -0.6391      2.00000
      8       1.0658      2.00000
      9       1.2852      2.00000
     10       1.2852      2.00000
     11       1.2852      2.00000
     12       1.5144      2.00000
     13       1.5144      2.00000
     14       1.5144      2.00000
     15       1.5654      2.00000
     16       1.5654      2.00000
     17       1.5799      2.00000
     18       1.5799      2.00000
     19       1.5799      2.00000
     20       3.4921      2.00000
     21       3.5667      2.00000
     22       3.5667      2.00000
     23       3.5667      2.00000
     24       3.6350      2.00000
     25       3.6350      2.00000
     26       3.6350      2.00000
     27       3.8338      2.00000
     28       5.1631      2.00000
     29       5.1631      2.00000
     30       5.1631      2.00000
     31       6.4940      2.00000
     32       6.4940      2.00000
     33       6.5760      2.00000
     34       6.9370      2.00000
     35       6.9370      2.00000
     36       6.9370      2.00000
     37       7.1450      2.00000
     38       7.1450      2.00000
     39       7.1450      2.00000
     40       7.3924      2.00000
     41       7.3924      2.00000
     42       7.3924      2.00000
     43       7.3956      2.00000
     44       7.3956      2.00000
     45       7.3956      2.00000
     46       8.3242      1.63251
     47       8.3679      1.31624
     48       8.3679      1.31624
     49       8.3766      1.24572
     50       8.3766      1.24572
     51       8.3766      1.24572
     52       8.9491     -0.00084
     53       8.9491     -0.00084
     54       9.0142     -0.00015
     55       9.0142     -0.00015
     56       9.0142     -0.00015
     57       9.1109     -0.00001
     58       9.1109     -0.00001
     59       9.1109     -0.00001
     60       9.3368      0.00000
     61       9.3617      0.00000
     62       9.3617      0.00000
     63       9.3617      0.00000
     64       9.3675      0.00000
     65       9.4721      0.00000
     66       9.4721      0.00000
     67       9.4721      0.00000
     68       9.4786      0.00000
     69       9.4786      0.00000
     70      10.7863      0.00000
     71      10.7863      0.00000
     72      10.7957      0.00000
     73      10.7957      0.00000
     74      10.7957      0.00000
     75      10.9257      0.00000
     76      10.9257      0.00000
     77      10.9257      0.00000
     78      10.9322      0.00000
     79      10.9322      0.00000
     80      10.9322      0.00000
     81      11.0173      0.00000
     82      13.2248      0.00000
     83      13.2248      0.00000
     84      13.2248      0.00000
     85      13.6346      0.00000
     86      13.6346      0.00000
     87      13.6346      0.00000
     88      13.7209      0.00000
     89      13.7209      0.00000
     90      13.7210      0.00000
     91      15.1165      0.00000
     92      15.1225      0.00000
     93      15.1955      0.00000
     94      15.5086      0.00000
     95      15.5711      0.00000
     96      15.6053      0.00000


--------------------------------------------------------------------------------------------------------


 soft charge-density along one line, spin component           1
         0         1         2         3         4         5         6         7         8         9
 total charge-density along one line
 
 pseudopotential strength for first ion, spin component:           1
  8.441  -0.006   0.000   0.001   0.000   0.000   0.000   0.000
 -0.006   0.000   0.000   0.000   0.000   0.000   0.000   0.000
  0.000   0.000   1.985   0.000   0.000  -0.026   0.000   0.000
  0.001   0.000   0.000   1.985   0.000   0.000  -0.026   0.000
  0.000   0.000   0.000   0.000   1.985   0.000   0.000  -0.026
  0.000   0.000  -0.026   0.000   0.000  -0.012   0.000   0.000
  0.000   0.000   0.000  -0.026   0.000   0.000  -0.012   0.000
  0.000   0.000   0.000   0.000  -0.026   0.000   0.000  -0.012
 total augmentation occupancy for first ion, spin component:           1
  1.123  -0.552   0.000   0.025   0.000   0.000  -0.003   0.000
 -0.552   0.453   0.000   0.007   0.000   0.000   0.000   0.000
  0.000   0.000   0.799   0.000   0.000  -0.178   0.000   0.000
  0.025   0.007   0.000   0.749   0.000   0.000  -0.172   0.000
  0.000   0.000   0.000   0.000   0.799   0.000   0.000  -0.178
  0.000   0.000  -0.178   0.000   0.000   0.047   0.000   0.000
 -0.003   0.000   0.000  -0.172   0.000   0.000   0.047   0.000
  0.000   0.000   0.000   0.000  -0.178   0.000   0.000   0.047


------------------------ aborting loop because EDIFF is reached ----------------------------------------




--------------------------------------------------------------------------------------------------------



  FREE ENERGIE OF THE ION-ELECTRON SYSTEM (eV)
  ---------------------------------------------------
  free  energy   TOTEN  =       -91.177894 eV

  energy  without entropy=      -90.888039  energy(sigma->0) =      -91.081276
 
    CHARGE:  cpu time    0.09: real time    0.10
    FORLOC:  cpu time    0.02: real time    0.02
    FORNL :  cpu time    0.15: real time    0.15
    STRESS:  cpu time    0.27: real time    0.27
    FORCOR:  cpu time    0.07: real time    0.07
    FORHAR:  cpu time    0.03: real time    0.03
    MIXING:  cpu time    0.00: real time    0.00

  FORCE on cell =-STRESS in cart. coord.  units (eV):
  Direction    XX          YY          ZZ          XY          YZ          ZX
  --------------------------------------------------------------------------------------
  Alpha Z    -8.27958    -8.27958    -8.27958
  Ewald    -794.85856  -794.85856  -794.85856     0.00000     0.00000     0.00000
  Hartree     4.22600     4.22600     4.22600     0.00000     0.00000     0.00000
  E(xc)    -281.65694  -281.65694  -281.65694     0.00000     0.00000     0.00000
  Local      11.82063    11.82063    11.82063     0.00000     0.00000     0.00000
  n-local   595.73242   595.73233   595.73250     0.00003     0.00000    -0.00001
  augment   -25.85731   -25.85731   -25.85732     0.00001    -0.00001    -0.00001
  Kinetic   514.40975   514.40972   514.40976     0.00001     0.00001     0.00000
  Fock        0.00000     0.00000     0.00000     0.00000     0.00000     0.00000
  -------------------------------------------------------------------------------------
  Total      15.53639    15.53639    15.53639     0.00000     0.00000     0.00000
  in kB      47.06433    47.06433    47.06433     0.00000     0.00000     0.00000
  external pressure =       47.06 kB  Pullay stress =        0.00 kB


 VOLUME and BASIS-vectors are now :
 -----------------------------------------------------------------------------
  energy-cutoff  :      300.00
  volume of cell :      528.89
      direct lattice vectors                 reciprocal lattice vectors
     8.087040000  0.000000000  0.000000000     0.123654638  0.000000000  0.000000000
     0.000000000  8.087040000  0.000000000     0.000000000  0.123654638  0.000000000
     0.000000000  0.000000000  8.087040000     0.000000000  0.000000000  0.123654638

  length of vectors
     8.087040000  8.087040000  8.087040000     0.123654638  0.123654638  0.123654638


 FORCES acting on ions
    electron-ion (+dipol)            ewald-force                    non-local-force                 convergence-correction
 -----------------------------------------------------------------------------------------------
   -.553E-14 0.258E-14 -.912E+00   -.527E-14 0.160E-14 0.910E+00   0.265E-22 0.265E-22 -.343E+00   0.223E-13 -.836E-14 -.227E-02
   0.912E+00 -.641E-13 0.627E-13   -.910E+00 0.239E-14 -.472E-14   0.343E+00 -.106E-21 0.220E-21   0.227E-02 -.185E-13 0.333E-13
   0.284E+01 0.284E+01 -.284E+01   -.312E+01 -.312E+01 0.312E+01   0.341E+00 0.341E+00 -.341E+00   0.113E-02 0.113E-02 -.113E-02
   -.508E-14 0.912E+00 -.289E-13   -.554E-14 -.910E+00 -.582E-14   -.529E-22 0.343E+00 0.000E+00   0.865E-15 0.227E-02 0.349E-13
   -.159E-13 -.123E-12 -.211E+01   -.542E-14 0.338E-14 0.201E+01   0.132E-22 -.159E-21 -.412E-02   -.212E-13 -.139E-13 -.692E-03
   -.912E+00 -.828E-13 0.947E-13   0.910E+00 0.594E-14 -.877E-14   -.343E+00 0.185E-21 0.397E-22   -.227E-02 -.287E-13 0.563E-13
   -.284E+01 0.284E+01 -.284E+01   0.312E+01 -.312E+01 0.312E+01   -.341E+00 0.341E+00 -.341E+00   -.113E-02 0.113E-02 -.113E-02
   -.117E-13 0.211E+01 0.302E-12   -.186E-14 -.201E+01 -.378E-14   0.000E+00 0.412E-02 -.265E-22   0.245E-15 0.693E-03 0.479E-13
   -.659E-14 -.107E-13 -.211E+01   -.236E-15 0.483E-14 0.201E+01   0.265E-22 0.529E-22 -.412E-02   -.102E-14 0.585E-14 -.692E-03
   0.211E+01 0.530E-13 -.467E-13   -.201E+01 -.244E-14 0.748E-14   0.412E-02 0.119E-21 0.212E-21   0.693E-03 0.158E-13 0.342E-13
   0.284E+01 -.284E+01 -.284E+01   -.312E+01 0.312E+01 0.312E+01   0.341E+00 -.341E+00 -.341E+00   0.113E-02 -.113E-02 -.113E-02
   -.504E-14 -.912E+00 -.297E-13   -.549E-14 0.910E+00 0.196E-14   0.159E-21 -.343E+00 0.000E+00   -.864E-14 -.227E-02 0.343E-13
   -.129E-13 0.918E-13 -.197E+02   -.318E-14 -.343E-14 0.195E+02   -.106E-21 -.159E-21 0.705E+01   0.173E-14 0.937E-14 0.415E-02
   -.211E+01 -.736E-13 -.703E-13   0.201E+01 -.843E-14 0.107E-13   -.412E-02 -.662E-22 -.212E-21   -.693E-03 0.240E-13 0.388E-13
   -.284E+01 -.284E+01 -.284E+01   0.312E+01 0.312E+01 0.312E+01   -.341E+00 -.341E+00 -.341E+00   -.113E-02 -.113E-02 -.113E-02
   -.146E-13 -.211E+01 0.800E-13   0.547E-14 0.201E+01 0.718E-14   -.106E-21 -.412E-02 -.238E-21   0.917E-14 -.693E-03 0.456E-13
   -.342E-14 -.741E-15 0.912E+00   -.191E-14 0.113E-13 -.910E+00   0.112E-21 -.529E-22 0.343E+00   -.742E-15 -.756E-14 0.227E-02
   0.211E+01 0.225E-13 -.374E-13   -.201E+01 0.522E-14 0.333E-14   0.412E-02 -.132E-22 -.119E-21   0.692E-03 0.510E-14 -.296E-13
   0.284E+01 0.284E+01 0.284E+01   -.312E+01 -.312E+01 -.312E+01   0.341E+00 0.341E+00 0.341E+00   0.113E-02 0.113E-02 0.113E-02
   -.522E-14 0.211E+01 -.333E-13   -.431E-14 -.201E+01 0.599E-14   -.132E-21 0.412E-02 0.000E+00   0.130E-13 0.692E-03 -.332E-13
   -.150E-13 -.434E-13 0.211E+01   -.525E-14 0.506E-14 -.201E+01   0.521E-22 -.103E-21 0.412E-02   0.158E-14 -.117E-13 0.692E-03
   -.211E+01 0.546E-13 -.177E-12   0.201E+01 0.878E-14 0.161E-14   -.412E-02 -.122E-21 0.794E-22   -.692E-03 0.991E-15 -.525E-13
   -.284E+01 0.284E+01 0.284E+01   0.312E+01 -.312E+01 -.312E+01   -.341E+00 0.341E+00 0.341E+00   -.113E-02 0.113E-02 0.113E-02
   -.125E-13 0.197E+02 -.318E-13   0.393E-15 -.195E+02 0.134E-14   -.119E-21 -.705E+01 -.212E-21   -.122E-13 -.415E-02 -.428E-13
   -.412E-14 -.563E-14 0.211E+01   -.775E-15 0.572E-14 -.201E+01   0.794E-22 -.331E-22 0.412E-02   -.574E-14 0.582E-14 0.692E-03
   0.197E+02 -.414E-13 0.546E-14   -.195E+02 0.106E-15 -.421E-14   -.705E+01 0.371E-21 0.000E+00   -.415E-02 -.654E-14 -.322E-13
   0.284E+01 -.284E+01 0.284E+01   -.312E+01 0.312E+01 -.312E+01   0.341E+00 -.341E+00 0.341E+00   0.113E-02 -.113E-02 0.113E-02
   -.471E-14 -.211E+01 -.404E-13   -.176E-14 0.201E+01 -.194E-14   -.794E-22 -.412E-02 0.000E+00   0.951E-14 -.692E-03 -.330E-13
   -.127E-13 -.433E-13 0.197E+02   0.370E-14 -.166E-14 -.195E+02   -.265E-21 -.529E-22 -.705E+01   0.628E-14 0.866E-14 -.415E-02
   -.197E+02 0.300E-13 0.926E-13   0.195E+02 0.188E-14 -.904E-14   0.705E+01 -.529E-22 -.635E-21   0.415E-02 -.403E-14 -.369E-13
   -.284E+01 -.284E+01 0.284E+01   0.312E+01 0.312E+01 -.312E+01   -.341E+00 -.341E+00 0.341E+00   -.113E-02 -.113E-02 0.113E-02
   -.121E-13 -.197E+02 -.209E-13   0.720E-14 0.195E+02 -.726E-14   0.225E-21 0.705E+01 -.106E-21   -.911E-14 0.415E-02 -.422E-13
   -.247E-14 0.349E-13 -.452E-13   -.500E-14 -.310E-15 -.343E-14   0.318E-21 -.424E-21 0.635E-21   -.258E-14 -.220E-14 -.251E-13
 -----------------------------------------------------------------------------------------------
   -.282E-12 0.741E-13 -.793E-12   -.890E-14 0.210E-13 -.280E-13   0.389E-15 -.888E-15 0.233E-14   -.327E-14 -.230E-14 -.254E-13
 
 
 POSITION                                       TOTAL-FORCE (eV/Angst)
 -----------------------------------------------------------------------------------
      0.00000      0.00000      0.00000         0.000000      0.000000     -0.346584
      2.02176      0.00000      2.02176         0.346584      0.000000      0.000000
      2.02176      2.02176      0.00000         0.069371      0.069371     -0.069371
      0.00000      2.02176      2.02176         0.000000      0.346584      0.000000
      4.04352      0.00000      0.00000         0.000000      0.000000     -0.108725
      6.06528      0.00000      2.02176        -0.346584      0.000000      0.000000
      6.06528      2.02176      0.00000        -0.069371      0.069371     -0.069371
      4.04352      2.02176      2.02176         0.000000      0.108725      0.000000
      0.00000      4.04352      0.00000         0.000000      0.000000     -0.108725
      2.02176      4.04352      2.02176         0.108725      0.000000      0.000000
      2.02176      6.06528      0.00000         0.069371     -0.069371     -0.069371
      0.00000      6.06528      2.02176         0.000000     -0.346584      0.000000
      4.04352      4.04352      0.00000         0.000000      0.000000      6.836821
      6.06528      4.04352      2.02176        -0.108725      0.000000      0.000000
      6.06528      6.06528      0.00000        -0.069371     -0.069371     -0.069371
      4.04352      6.06528      2.02176         0.000000     -0.108725      0.000000
      0.00000      0.00000      4.04352         0.000000      0.000000      0.346584
      2.02176      0.00000      6.06528         0.108725      0.000000      0.000000
      2.02176      2.02176      4.04352         0.069371      0.069371      0.069371
      0.00000      2.02176      6.06528         0.000000      0.108725      0.000000
      4.04352      0.00000      4.04352         0.000000      0.000000      0.108725
      6.06528      0.00000      6.06528        -0.108725      0.000000      0.000000
      6.06528      2.02176      4.04352        -0.069371      0.069371      0.069371
      4.04352      2.02176      6.06528         0.000000     -6.836821      0.000000
      0.00000      4.04352      4.04352         0.000000      0.000000      0.108725
      2.02176      4.04352      6.06528        -6.836821      0.000000      0.000000
      2.02176      6.06528      4.04352         0.069371     -0.069371      0.069371
      0.00000      6.06528      6.06528         0.000000     -0.108725      0.000000
      4.04352      4.04352      4.04352         0.000000      0.000000     -6.836821
      6.06528      4.04352      6.06528         6.836821      0.000000      0.000000
      6.06528      6.06528      4.04352        -0.069371     -0.069371      0.069371
      4.04352      6.06528      6.06528         0.000000      6.836821      0.000000
      4.04352      4.04352      6.06528         0.000000      0.000000      0.000000
 -----------------------------------------------------------------------------------
    total drift:                                0.000000      0.000000      0.000000


--------------------------------------------------------------------------------------------------------


    POTLOK:  cpu time    0.07: real time    0.07


--------------------------------------------------------------------------------------------------------


  FORCES: max atom, RMS     6.836821    2.920309
  FORCE total and by dimension   16.775899    6.836821


--------------------------------------------------------------------------------------------------------


    WAVPRE:  cpu time    0.02: real time    0.02
    FEWALD:  cpu time    0.01: real time    0.01
    ORTHCH:  cpu time    0.04: real time    0.04
     LOOP+:  cpu time    8.02: real time    8.22
   RESPFUN:  cpu time    0.00: real time    0.00


----------------------------------------- Iteration    2(   1)  ---------------------------------------


    POTLOK:  cpu time    0.06: real time    0.06
    SETDIJ:  cpu time    0.01: real time    0.01
    EDDIAG:  cpu time    0.09: real time    0.09
  RMM-DIIS:  cpu time    0.31: real time    0.31
    ORTHCH:  cpu time    0.01: real time    0.01
       DOS:  cpu time    0.00: real time    0.00
    CHARGE:  cpu time    0.10: real time    0.10
    MIXING:  cpu time    0.00: real time    0.00
    --------------------------------------------
      LOOP:  cpu time    0.58: real time    0.59

 eigenvalue-minimisations  :   192
 total energy-change (2. order) :-0.9450968E+01  (-0.6148158E+01)
 number of electron   97.9999993 magnetization 
 augmentation part    -0.9850099 magnetization 

 Broyden mixing:
  rms(total) = 0.41184E+00    rms(broyden)= 0.41183E+00
  rms(prec ) = 0.12785E+01
  weight for this iteration     100.00

 Free energy of the ion-electron system (eV)
  ---------------------------------------------------
  alpha Z        PSCENC =        -8.27958290
  Ewald energy   TEWEN  =     -2395.43200741
  -1/2 Hartree   DENC   =        -6.89400586
  -exchange  EXHF       =         0.00000000
  -V(xc)+E(xc)   XCENC  =      -841.51683606
  PAW double counting   =      1154.11136768     -121.22940870
  entropy T*S    EENTRO =        -0.12138238
  eigenvalues    EBANDS =       382.52628339
  atomic energy  EATOM  =      1736.20668909
  ---------------------------------------------------
  free energy    TOTEN  =      -100.62888313 eV

  energy without entropy =     -100.50750076  energy(sigma->0) =     -100.58842234


--------------------------------------------------------------------------------------------------------




----------------------------------------- Iteration    2(   2)  ---------------------------------------


    POTLOK:  cpu time    0.06: real time    0.06
    SETDIJ:  cpu time    0.01: real time    0.01
    EDDIAG:  cpu time    0.09: real time    0.09
  RMM-DIIS:  cpu time    0.31: real time    0.31
    ORTHCH:  cpu time    0.01: real time    0.01
       DOS:  cpu time    0.00: real time    0.00
    CHARGE:  cpu time    0.10: real time    0.10
    MIXING:  cpu time    0.00: real time    0.00
    --------------------------------------------
      LOOP:  cpu time    0.58: real time    0.58

 eigenvalue-minimisations  :   192
 total energy-change (2. order) : 0.7741018E+00  (-0.2370124E+00)
 number of electron   97.9999993 magnetization 
 augmentation part    -0.9527977 magnetization 

 Broyden mixing:
  rms(total) = 0.26528E+00    rms(broyden)= 0.26527E+00
  rms(prec ) = 0.10182E+01
  weight for this iteration     100.00

 eigenvalues of (default mixing * dielectric matrix)
  average eigenvalue GAMMA=   0.7560
  0.7560

 Free energy of the ion-electron system (eV)
  ---------------------------------------------------
  alpha Z        PSCENC =        -8.27958290
  Ewald energy   TEWEN  =     -2395.43200741
  -1/2 Hartree   DENC   =        -7.77773115
  -exchange  EXHF       =         0.00000000
  -V(xc)+E(xc)   XCENC  =      -841.53787735
  PAW double counting   =      1151.64044348     -118.60543893
  entropy T*S    EENTRO =        -0.09482204
  eigenvalues    EBANDS =       384.02554588
  atomic energy  EATOM  =      1736.20668909
  ---------------------------------------------------
  free energy    TOTEN  =       -99.85478132 eV

  energy without entropy =      -99.75995928  energy(sigma->0) =      -99.82317397


--------------------------------------------------------------------------------------------------------




----------------------------------------- Iteration    2(   3)  ---------------------------------------


    POTLOK:  cpu time    0.06: real time    0.06
    SETDIJ:  cpu time    0.01: real time    0.01
    EDDIAG:  cpu time    0.09: real time    0.09
  RMM-DIIS:  cpu time    0.35: real time    0.35
    ORTHCH:  cpu time    0.01: real time    0.01
       DOS:  cpu time    0.00: real time    0.00
    CHARGE:  cpu time    0.10: real time    0.10
    MIXING:  cpu time    0.00: real time    0.00
    --------------------------------------------
      LOOP:  cpu time    0.61: real time    0.62

 eigenvalue-minimisations  :   193
 total energy-change (2. order) : 0.7102449E+00  (-0.3990645E-01)
 number of electron   97.9999993 magnetization 
 augmentation part    -0.9489785 magnetization 

 Broyden mixing:
  rms(total) = 0.94844E-01    rms(broyden)= 0.94844E-01
  rms(prec ) = 0.17329E+00
  weight for this iteration     100.00

 eigenvalues of (default mixing * dielectric matrix)
  average eigenvalue GAMMA=   1.0037
  0.5960  1.4114

 Free energy of the ion-electron system (eV)
  ---------------------------------------------------
  alpha Z        PSCENC =        -8.27958290
  Ewald energy   TEWEN  =     -2395.43200741
  -1/2 Hartree   DENC   =        -8.34125493
  -exchange  EXHF       =         0.00000000
  -V(xc)+E(xc)   XCENC  =      -841.52463996
  PAW double counting   =      1151.59395354     -118.54857539
  entropy T*S    EENTRO =        -0.11579613
  eigenvalues    EBANDS =       385.29667769
  atomic energy  EATOM  =      1736.20668909
  ---------------------------------------------------
  free energy    TOTEN  =       -99.14453639 eV

  energy without entropy =      -99.02874026  energy(sigma->0) =      -99.10593768


--------------------------------------------------------------------------------------------------------




----------------------------------------- Iteration    2(   4)  ---------------------------------------


    POTLOK:  cpu time    0.06: real time    0.06
    SETDIJ:  cpu time    0.01: real time    0.01
    EDDIAG:  cpu time    0.09: real time    0.09
  RMM-DIIS:  cpu time    0.31: real time    0.31
    ORTHCH:  cpu time    0.01: real time    0.01
       DOS:  cpu time    0.00: real time    0.00
    CHARGE:  cpu time    0.10: real time    0.10
    MIXING:  cpu time    0.00: real time    0.00
    --------------------------------------------
      LOOP:  cpu time    0.58: real time    0.59

 eigenvalue-minimisations  :   192
 total energy-change (2. order) : 0.3499900E-01  (-0.6325549E-02)
 number of electron   97.9999993 magnetization 
 augmentation part    -0.9464453 magnetization 

 Broyden mixing:
  rms(total) = 0.44143E-01    rms(broyden)= 0.44143E-01
  rms(prec ) = 0.75416E-01
  weight for this iteration     100.00

 eigenvalues of (default mixing * dielectric matrix)
  average eigenvalue GAMMA=   1.2864
  2.0394  1.2136  0.6063

 Free energy of the ion-electron system (eV)
  ---------------------------------------------------
  alpha Z        PSCENC =        -8.27958290
  Ewald energy   TEWEN  =     -2395.43200741
  -1/2 Hartree   DENC   =        -8.67738649
  -exchange  EXHF       =         0.00000000
  -V(xc)+E(xc)   XCENC  =      -841.52202051
  PAW double counting   =      1151.20012120     -118.10850562
  entropy T*S    EENTRO =        -0.12690628
  eigenvalues    EBANDS =       385.63006153
  atomic energy  EATOM  =      1736.20668909
  ---------------------------------------------------
  free energy    TOTEN  =       -99.10953739 eV

  energy without entropy =      -98.98263111  energy(sigma->0) =      -99.06723530


--------------------------------------------------------------------------------------------------------




----------------------------------------- Iteration    2(   5)  ---------------------------------------


    POTLOK:  cpu time    0.06: real time    0.06
[...]
  PAW double counting   =      1156.43307994     -123.52060939
  entropy T*S    EENTRO =        -0.09708771
  eigenvalues    EBANDS =       379.89699303
  atomic energy  EATOM  =      1736.20668909
  ---------------------------------------------------
  free energy    TOTEN  =      -100.84067823 eV

  energy without entropy =     -100.74359051  energy(sigma->0) =     -100.80831566


--------------------------------------------------------------------------------------------------------




----------------------------------------- Iteration   11(   4)  ---------------------------------------


    POTLOK:  cpu time    0.06: real time    0.06
    SETDIJ:  cpu time    0.01: real time    0.01
    EDDIAG:  cpu time    0.09: real time    0.09
  RMM-DIIS:  cpu time    0.23: real time    0.23
    ORTHCH:  cpu time    0.01: real time    0.01
       DOS:  cpu time    0.00: real time    0.00
    --------------------------------------------
      LOOP:  cpu time    0.40: real time    0.40

 eigenvalue-minimisations  :   108
 total energy-change (2. order) : 0.4274293E-04  (-0.8994590E-05)
 number of electron   97.9999996 magnetization 
 augmentation part    -0.9492147 magnetization 

 Free energy of the ion-electron system (eV)
  ---------------------------------------------------
  alpha Z        PSCENC =        -8.27958290
  Ewald energy   TEWEN  =     -2348.99991457
  -1/2 Hartree   DENC   =       -52.12370646
  -exchange  EXHF       =         0.00000000
  -V(xc)+E(xc)   XCENC  =      -840.37117170
  PAW double counting   =      1156.44984233     -123.53812065
  entropy T*S    EENTRO =        -0.09757572
  eigenvalues    EBANDS =       379.91290509
  atomic energy  EATOM  =      1736.20668909
  ---------------------------------------------------
  free energy    TOTEN  =      -100.84063549 eV

  energy without entropy =     -100.74305976  energy(sigma->0) =     -100.80811025


--------------------------------------------------------------------------------------------------------




 average (electrostatic) potential at core
  the test charge radii are     1.0406  1.0714
  (the norm of the test charge is              1.0000)
       1 -71.8000       2 -71.8000       3 -72.5941       4 -71.8000       5 -72.4634
       6 -71.8000       7 -72.5941       8 -72.4634       9 -72.4634      10 -72.4634
      11 -72.5941      12 -71.8000      13 -72.7022      14 -72.4634      15 -72.5941
      16 -72.4634      17 -71.8000      18 -72.4634      19 -72.5941      20 -72.4634
      21 -72.4634      22 -72.4634      23 -72.5941      24 -72.7022      25 -72.4634
      26 -72.7022      27 -72.5941      28 -72.4634      29 -72.7022      30 -72.7022
      31 -72.5941      32 -72.7022      33 -50.1524
 
 
 
 E-fermi :   8.4446     XC(G=0): -10.2422     alpha+bet :-15.2356
   add alpha+bet to get absolut eigen values

 k-point   1 :       0.0000    0.0000    0.0000
  band No.  band energies     occupation 
      1      -3.1500      2.00000
      2      -1.2672      2.00000
      3      -1.2672      2.00000
      4      -0.7214      2.00000
      5      -0.7179      2.00000
      6      -0.7179      2.00000
      7      -0.7179      2.00000
      8       0.7068      2.00000
      9       0.7068      2.00000
     10       1.2200      2.00000
     11       1.2200      2.00000
     12       1.2200      2.00000
     13       1.5837      2.00000
     14       1.5837      2.00000
     15       1.5837      2.00000
     16       1.6796      2.00000
     17       1.6796      2.00000
     18       1.6796      2.00000
     19       1.8013      2.00000
     20       3.1337      2.00000
     21       3.5981      2.00000
     22       3.5981      2.00000
     23       3.5981      2.00000
     24       3.6929      2.00000
     25       3.6929      2.00000
     26       3.6929      2.00000
     27       3.9024      2.00000
     28       5.1425      2.00000
     29       5.1425      2.00000
     30       5.1425      2.00000
     31       6.1202      2.00000
     32       6.5017      2.00000
     33       6.5017      2.00000
     34       6.6731      2.00000
     35       6.6731      2.00000
     36       6.6731      2.00000
     37       7.1884      2.00000
     38       7.1884      2.00000
     39       7.1884      2.00000
     40       7.4620      2.00000
     41       7.4620      2.00000
     42       7.4620      2.00000
     43       7.4914      2.00000
     44       7.4914      2.00000
     45       7.4914      2.00000
     46       7.5797      2.00000
     47       7.5797      2.00000
     48       8.3278      1.82515
     49       8.4689      0.79547
     50       8.4689      0.79547
     51       8.4689      0.79547
     52       8.6635     -0.06477
     53       8.6842     -0.07069
     54       8.6842     -0.07069
     55       8.9556     -0.00180
     56       8.9556     -0.00180
     57       8.9556     -0.00180
     58       9.1611      0.00000
     59       9.1611      0.00000
     60       9.1611      0.00000
     61       9.3673      0.00000
     62       9.3673      0.00000
     63       9.4345      0.00000
     64       9.4345      0.00000
     65       9.4345      0.00000
     66       9.7375      0.00000
     67       9.7375      0.00000
     68       9.7375      0.00000
     69       9.8078      0.00000
     70      10.0253      0.00000
     71      10.0253      0.00000
     72      10.8791      0.00000
     73      10.8791      0.00000
     74      10.8791      0.00000
     75      10.9109      0.00000
     76      10.9109      0.00000
     77      10.9109      0.00000
     78      11.0774      0.00000
     79      11.0774      0.00000
     80      11.0774      0.00000
     81      12.1191      0.00000
     82      13.3700      0.00000
     83      13.3700      0.00000
     84      13.3700      0.00000
     85      13.6411      0.00000
     86      13.6411      0.00000
     87      13.6411      0.00000
     88      13.9061      0.00000
     89      13.9061      0.00000
     90      13.9061      0.00000
     91      15.2426      0.00000
     92      15.2491      0.00000
     93      15.2718      0.00000
     94      15.3746      0.00000
     95      15.3748      0.00000
     96      15.3791      0.00000


--------------------------------------------------------------------------------------------------------


 soft charge-density along one line, spin component           1
         0         1         2         3         4         5         6         7         8         9
 total charge-density along one line
 
 pseudopotential strength for first ion, spin component:           1
  8.424  -0.007   0.000  -0.004   0.000   0.000   0.000   0.000
 -0.007   0.000   0.000   0.000   0.000   0.000   0.000   0.000
  0.000   0.000   1.993   0.000   0.000  -0.029   0.000   0.000
 -0.004   0.000   0.000   1.993   0.000   0.000  -0.029   0.000
  0.000   0.000   0.000   0.000   1.993   0.000   0.000  -0.029
  0.000   0.000  -0.029   0.000   0.000  -0.011   0.000   0.000
  0.000   0.000   0.000  -0.029   0.000   0.000  -0.011   0.000
  0.000   0.000   0.000   0.000  -0.029   0.000   0.000  -0.011
 total augmentation occupancy for first ion, spin component:           1
  1.059  -0.701   0.000   0.071   0.000   0.000  -0.051   0.000
 -0.701   0.663   0.000  -0.050   0.000   0.000   0.037   0.000
  0.000   0.000   0.881   0.000   0.000  -0.230   0.000   0.000
  0.071  -0.050   0.000   1.044   0.000   0.000  -0.261   0.000
  0.000   0.000   0.000   0.000   0.881   0.000   0.000  -0.230
  0.000   0.000  -0.230   0.000   0.000   0.069   0.000   0.000
 -0.051   0.037   0.000  -0.261   0.000   0.000   0.077   0.000
  0.000   0.000   0.000   0.000  -0.230   0.000   0.000   0.069


------------------------ aborting loop because EDIFF is reached ----------------------------------------




--------------------------------------------------------------------------------------------------------



  FREE ENERGIE OF THE ION-ELECTRON SYSTEM (eV)
  ---------------------------------------------------
  free  energy   TOTEN  =      -100.840635 eV

  energy  without entropy=     -100.743060  energy(sigma->0) =     -100.808110
 
    CHARGE:  cpu time    0.10: real time    0.10
    FORLOC:  cpu time    0.02: real time    0.02
    FORNL :  cpu time    0.15: real time    0.15
    STRESS:  cpu time    0.27: real time    0.27
    FORCOR:  cpu time    0.06: real time    0.07
    FORHAR:  cpu time    0.03: real time    0.03
    MIXING:  cpu time    0.00: real time    0.00

  FORCE on cell =-STRESS in cart. coord.  units (eV):
  Direction    XX          YY          ZZ          XY          YZ          ZX
  --------------------------------------------------------------------------------------
  Alpha Z    -8.27958    -8.27958    -8.27958
  Ewald    -783.00301  -783.00301  -783.00301     0.00000     0.00000     0.00000
  Hartree    17.36322    17.36322    17.36322     0.00000     0.00000     0.00000
  E(xc)    -282.96327  -282.96327  -282.96327     0.00000     0.00000     0.00000
  Local     -16.88980   -16.88980   -16.88980     0.00000     0.00000     0.00000
  n-local   594.47002   594.47002   594.47003     0.00000     0.00001     0.00000
  augment   -25.37618   -25.37618   -25.37619     0.00001     0.00001     0.00001
  Kinetic   519.18847   519.18847   519.18846     0.00002     0.00000     0.00000
  Fock        0.00000     0.00000     0.00000     0.00000     0.00000     0.00000
  -------------------------------------------------------------------------------------
  Total      14.50986    14.50986    14.50986     0.00000     0.00000     0.00000
  in kB      43.95467    43.95467    43.95467     0.00000     0.00000     0.00000
  external pressure =       43.95 kB  Pullay stress =        0.00 kB


 VOLUME and BASIS-vectors are now :
 -----------------------------------------------------------------------------
  energy-cutoff  :      300.00
  volume of cell :      528.89
      direct lattice vectors                 reciprocal lattice vectors
     8.087040000  0.000000000  0.000000000     0.123654638  0.000000000  0.000000000
     0.000000000  8.087040000  0.000000000     0.000000000  0.123654638  0.000000000
     0.000000000  0.000000000  8.087040000     0.000000000  0.000000000  0.123654638

  length of vectors
     8.087040000  8.087040000  8.087040000     0.123654638  0.123654638  0.123654638


 FORCES acting on ions
    electron-ion (+dipol)            ewald-force                    non-local-force                 convergence-correction
 -----------------------------------------------------------------------------------------------
   -.471E-14 0.947E-15 0.149E+02   0.362E-15 -.395E-15 -.113E+02   -.119E-21 -.529E-22 -.365E+01   -.659E-13 -.195E-13 0.101E-02
   -.149E+02 0.889E-15 0.424E-07   0.113E+02 0.656E-14 0.185E-14   0.365E+01 -.318E-21 -.794E-22   -.102E-02 0.732E-14 -.106E-12
   -.123E+02 -.123E+02 0.123E+02   0.110E+02 0.110E+02 -.110E+02   0.132E+01 0.132E+01 -.132E+01   -.489E-02 -.489E-02 0.489E-02
   -.443E-14 -.149E+02 0.424E-07   -.431E-16 0.113E+02 -.771E-14   0.265E-22 0.365E+01 -.414E-22   -.926E-13 -.102E-02 -.960E-13
   -.113E-13 0.286E-14 0.864E+01   0.250E-14 0.293E-15 -.659E+01   0.645E-22 0.103E-21 -.203E+01   0.655E-13 -.335E-13 0.528E-02
   0.149E+02 -.244E-14 -.424E-07   -.113E+02 -.104E-15 0.184E-14   -.365E+01 0.265E-22 0.662E-23   0.102E-02 -.195E-13 -.218E-12
   0.123E+02 -.123E+02 0.123E+02   -.110E+02 0.110E+02 -.110E+02   -.132E+01 0.132E+01 -.132E+01   0.489E-02 -.489E-02 0.489E-02
   -.105E-13 -.864E+01 0.292E-07   0.116E-13 0.659E+01 0.540E-14   0.794E-22 0.203E+01 0.132E-22   0.911E-13 -.528E-02 -.739E-13
   -.171E-14 -.259E-13 0.864E+01   0.477E-15 -.322E-14 -.659E+01   0.389E-22 0.529E-22 -.203E+01   -.689E-13 0.137E-13 0.528E-02
   -.864E+01 -.348E-13 0.292E-07   0.659E+01 -.571E-14 0.866E-14   0.203E+01 -.794E-22 -.265E-22   -.528E-02 -.145E-13 0.338E-13
   -.123E+02 0.123E+02 0.123E+02   0.110E+02 -.110E+02 -.110E+02   0.132E+01 -.132E+01 -.132E+01   -.489E-02 0.489E-02 0.489E-02
   -.528E-14 0.149E+02 -.424E-07   -.558E-14 -.113E+02 0.361E-14   0.485E-22 -.365E+01 0.212E-21   -.114E-12 0.102E-02 -.100E-12
   -.130E-13 0.834E-13 0.283E+02   -.612E-14 -.288E-14 -.235E+02   -.265E-22 -.529E-22 -.490E+01   0.951E-13 0.199E-13 0.445E-02
   0.864E+01 0.112E-12 -.292E-07   -.659E+01 -.609E-15 0.120E-13   -.203E+01 0.529E-22 -.322E-22   0.528E-02 -.392E-14 -.982E-13
   0.123E+02 0.123E+02 0.123E+02   -.110E+02 -.110E+02 -.110E+02   -.132E+01 -.132E+01 -.132E+01   0.489E-02 0.489E-02 0.489E-02
   -.132E-13 0.864E+01 -.292E-07   -.107E-13 -.659E+01 -.590E-14   -.106E-21 -.203E+01 0.662E-23   0.109E-12 0.528E-02 -.817E-13
   -.325E-14 -.544E-14 -.149E+02   0.197E-14 -.968E-15 0.113E+02   0.132E-22 0.132E-22 0.365E+01   0.374E-13 -.167E-13 -.101E-02
   -.864E+01 -.337E-13 0.434E-07   0.659E+01 -.516E-14 -.983E-14   0.203E+01 -.269E-22 -.662E-22   -.528E-02 -.411E-13 0.978E-13
   -.123E+02 -.123E+02 -.123E+02   0.110E+02 0.110E+02 0.110E+02   0.132E+01 0.132E+01 0.132E+01   -.489E-02 -.489E-02 -.489E-02
   -.111E-14 -.864E+01 0.434E-07   0.446E-14 0.659E+01 -.693E-14   0.000E+00 0.203E+01 0.000E+00   0.113E-12 -.528E-02 0.841E-13
   -.133E-13 -.482E-13 -.864E+01   0.350E-14 0.361E-14 0.659E+01   -.132E-22 0.265E-22 0.203E+01   -.321E-13 -.329E-13 -.528E-02
   0.864E+01 -.553E-14 -.434E-07   -.659E+01 -.843E-14 0.362E-14   -.203E+01 -.662E-23 0.662E-23   0.528E-02 -.514E-13 0.184E-12
   0.123E+02 -.123E+02 -.123E+02   -.110E+02 0.110E+02 0.110E+02   -.132E+01 0.132E+01 0.132E+01   0.489E-02 -.489E-02 -.489E-02
   -.121E-13 -.283E+02 -.161E-07   0.378E-14 0.235E+02 -.678E-14   0.159E-21 0.490E+01 0.794E-22   -.109E-12 -.445E-02 0.982E-13
   -.625E-14 -.884E-14 -.864E+01   0.392E-15 -.638E-14 0.659E+01   0.397E-22 0.529E-22 0.203E+01   0.531E-13 0.754E-14 -.528E-02
   -.283E+02 -.427E-15 -.161E-07   0.235E+02 -.655E-14 0.611E-14   0.490E+01 0.529E-22 0.106E-21   -.445E-02 0.366E-13 -.171E-13
   -.123E+02 0.123E+02 -.123E+02   0.110E+02 -.110E+02 0.110E+02   0.132E+01 -.132E+01 0.132E+01   -.489E-02 0.489E-02 -.489E-02
   -.540E-14 0.864E+01 -.434E-07   -.134E-14 -.659E+01 0.538E-14   0.000E+00 -.203E+01 -.265E-22   0.101E-12 0.528E-02 0.881E-13
   -.128E-13 0.961E-15 -.283E+02   -.108E-14 0.199E-14 0.235E+02   -.119E-21 -.529E-22 0.490E+01   -.936E-14 0.321E-14 -.445E-02
   0.283E+02 0.733E-13 0.161E-07   -.235E+02 -.167E-14 0.627E-14   -.490E+01 0.265E-21 0.794E-22   0.445E-02 0.494E-13 0.730E-13
   0.123E+02 0.123E+02 -.123E+02   -.110E+02 -.110E+02 0.110E+02   -.132E+01 -.132E+01 0.132E+01   0.489E-02 0.489E-02 -.489E-02
   -.122E-13 0.283E+02 0.161E-07   -.107E-14 -.235E+02 -.718E-15   0.106E-21 -.490E+01 -.265E-22   -.985E-13 0.445E-02 0.104E-12
   0.509E-14 -.130E-13 0.140E-12   -.124E-13 -.976E-15 0.166E-14   0.000E+00 0.000E+00 -.388E-25   -.642E-13 0.294E-13 0.217E-13
 -----------------------------------------------------------------------------------------------
   -.406E-12 0.206E-12 -.698E-12   -.153E-13 -.116E-13 0.164E-12   -.444E-15 0.000E+00 0.111E-14   0.925E-13 -.718E-13 -.113E-12
 
 
 POSITION                                       TOTAL-FORCE (eV/Angst)
 -----------------------------------------------------------------------------------
      0.00000      0.00000      0.17296         0.000000      0.000000      0.004520
      1.84880      0.00000      2.02176        -0.004520      0.000000      0.000000
      1.94534      1.94534      0.07642        -0.052069     -0.052069      0.052069
      0.00000      1.84880      2.02176         0.000000     -0.004520      0.000000
      4.04352      0.00000      0.20739         0.000000      0.000000      0.021356
      6.23824      0.00000      2.02176         0.004520      0.000000      0.000000
      6.14170      1.94534      0.07642         0.052069     -0.052069      0.052069
      4.04352      1.81437      2.02176         0.000000     -0.021356      0.000000
      0.00000      4.04352      0.20739         0.000000      0.000000      0.021356
      1.81437      4.04352      2.02176        -0.021356      0.000000      0.000000
      1.94534      6.14170      0.07642        -0.052069      0.052069      0.052069
      0.00000      6.23824      2.02176         0.000000      0.004520      0.000000
      4.04352      4.04352      0.67136         0.000000      0.000000     -0.125391
      6.27267      4.04352      2.02176         0.021356      0.000000      0.000000
      6.14170      6.14170      0.07642         0.052069      0.052069      0.052069
      4.04352      6.27267      2.02176         0.000000      0.021356      0.000000
      0.00000      0.00000      3.87056         0.000000      0.000000     -0.004520
      1.81437      0.00000      6.06528        -0.021356      0.000000      0.000000
      1.94534      1.94534      3.96710        -0.052069     -0.052069     -0.052069
      0.00000      1.81437      6.06528         0.000000     -0.021356      0.000000
      4.04352      0.00000      3.83613         0.000000      0.000000     -0.021356
      6.27267      0.00000      6.06528         0.021356      0.000000      0.000000
      6.14170      1.94534      3.96710         0.052069     -0.052069     -0.052069
      4.04352      1.35040      6.06528         0.000000      0.125391      0.000000
      0.00000      4.04352      3.83613         0.000000      0.000000     -0.021356
      1.35040      4.04352      6.06528         0.125391      0.000000      0.000000
      1.94534      6.14170      3.96710        -0.052069      0.052069     -0.052069
      0.00000      6.27267      6.06528         0.000000      0.021356      0.000000
      4.04352      4.04352      3.37216         0.000000      0.000000      0.125391
      6.73664      4.04352      6.06528        -0.125391      0.000000      0.000000
      6.14170      6.14170      3.96710         0.052069      0.052069     -0.052069
      4.04352      6.73664      6.06528         0.000000     -0.125391      0.000000
      4.04352      4.04352      6.06528         0.000000      0.000000      0.000000
 -----------------------------------------------------------------------------------
    total drift:                                0.000000      0.000000      0.000000
 d Force = 0.8334637E-02[-0.128E-03, 0.168E-01]  d Energy = 0.8490769E-02-0.156E-03
 d Force =-0.1232672E+00[-0.173E+00,-0.737E-01]  d Ewald  =-0.1231547E+00-0.112E-03


--------------------------------------------------------------------------------------------------------


    POTLOK:  cpu time    0.07: real time    0.07


--------------------------------------------------------------------------------------------------------


  FORCES: max atom, RMS     0.125391    0.070711
  FORCE total and by dimension    0.406202    0.125391


--------------------------------------------------------------------------------------------------------


  
 reached required accuracy - stopping structural energy minimisation
     LOOP+:  cpu time    2.85: real time    2.87
    4ORBIT:  cpu time    0.00: real time    0.00

 total amount of memory used by VASP on root node  55665. kBytes
========================================================================

   base      :    30000. kBytes
   nonl-proj :     4093. kBytes
   fftplans  :     1413. kBytes
   grid      :    19745. kBytes
   one-center:      101. kBytes
   wavefun   :      313. kBytes
 
  
  
 General timing and accounting informations for this job:
 ========================================================
  
                  Total CPU time used (sec):       47.762
                            User time (sec):       47.408
                          System time (sec):        0.354
                         Elapsed time (sec):       50.409
  
                   Maximum memory used (kb):           0.
                   Average memory used (kb):           0.
  
                          Minor page faults:        26909
                          Major page faults:            0
                 Voluntary context switches:         4973
