<?xml version="1.0" encoding="ISO-8859-1"?>
<modeling>
 <generator>
  <i name="program" type="string">vasp </i>
  <i name="version" type="string">5.2.2  </i>
  <i name="subversion" type="string">15Apr09 complex  parallel </i>
  <i name="platform" type="string">LinuxIFC </i>
  <i name="date" type="string">2016 12 16 </i>
  <i name="time" type="string">16:00:01 </i>
 </generator>
 <incar>
  <i type="string" name="PREC">accurate</i>
  <i type="int" name="IALGO">    48</i>
  <i type="int" name="IBRION">     2</i>
  <i name="EDIFFG">      0.05000000</i>
  <i type="int" name="NSW">   191</i>
  <i type="int" name="ISIF">     2</i>
  <i name="ENCUT">    300.00000000</i>
  <i name="NELECT">     98.00000000</i>
  <i type="int" name="ISMEAR">     1</i>
  <i name="SIGMA">      0.20000000</i>
  <i type="logical" name="LWAVE"> F  </i>
  <i type="logical" name="LCHARG"> F  </i>
  <i type="logical" name="LPEAD"> F  </i>
  <i type="logical" name="LCALCPOL"> F  </i>
  <i type="logical" name="LCALCEPS"> F  </i>
  <v name="EFIELD_PEAD">      0.00000000      0.00000000      0.00000000</v>
  <i type="logical" name="LEFG"> F  </i>
 </incar>
 <kpoints>
  <generation param="Gamma">
   <v type="int" name="divisions">       1        1        1 </v>
   <v name="usershift">      0.00000000       0.00000000       0.00000000 </v>
   <v name="genvec1">      1.00000000       0.00000000       0.00000000 </v>
   <v name="genvec2">      0.00000000       1.00000000       0.00000000 </v>
   <v name="genvec3">      0.00000000       0.00000000       1.00000000 </v>
   <v name="shift">      0.00000000       0.00000000       0.00000000 </v>
  </generation>
  <varray name="kpointlist" >
   <v>       0.00000000       0.00000000       0.00000000 </v>
  </varray>
  <varray name="weights" >
   <v>       1.00000000 </v>
  </varray>
 </kpoints>
 <parameters>
  <separator name="general" >
   <i type="string" name="SYSTEM">unknown system</i>
   <i type="logical" name="LCOMPAT"> F  </i>
  </separator>
  <separator name="electronic" >
   <i type="string" name="PREC">accura</i>
   <i name="ENMAX">    300.00000000</i>
   <i name="ENAUG">    291.05200000</i>
   <i name="EDIFF">      0.00010000</i>
   <i type="int" name="IALGO">    48</i>
   <i type="int" name="IWAVPR">    11</i>
   <i type="int" name="NBANDS">    96</i>
   <i name="NELECT">     98.00000000</i>
   <separator name="electronic smearing" >
    <i type="int" name="ISMEAR">     1</i>
    <i name="SIGMA">      0.20000000</i>
   </separator>
   <separator name="electronic projectors" >
    <i type="logical" name="LREAL"> F  </i>
    <v name="ROPT">      0.00000000      0.00000000</v>
    <i type="int" name="LMAXPAW">  -100</i>
    <i type="int" name="LMAXMIX">     2</i>
   </separator>
   <separator name="electronic startup" >
    <i type="int" name="ISTART">     0</i>
    <i type="int" name="ICHARG">     2</i>
    <i type="int" name="INIWAV">     1</i>
   </separator>
   <separator name="electronic spin" >
    <i type="int" name="ISPIN">     1</i>
    <i type="logical" name="LNONCOLLINEAR"> F  </i>
    <v name="MAGMOM">      1.00000000      1.00000000      1.00000000      1.00000000      1.00000000      1.00000000      1.00000000      1.00000000      1.00000000      1.00000000      1.00000000      1.00000000      1.00000000      1.00000000      1.00000000      1.00000000      1.00000000      1.00000000      1.00000000      1.00000000
      1.00000000      1.00000000      1.00000000      1.00000000      1.00000000      1.00000000      1.00000000      1.00000000      1.00000000      1.00000000      1.00000000      1.00000000      1.00000000</v>
    <i name="NUPDOWN">     -1.00000000</i>
    <i type="logical" name="LSORBIT"> F  </i>
    <v name="SAXIS">      0.00000000      0.00000000      1.00000000</v>
    <i type="logical" name="LSPIRAL"> F  </i>
    <v name="QSPIRAL">      0.00000000      0.00000000      0.00000000</v>
    <i type="logical" name="LZEROZ"> F  </i>
   </separator>
   <separator name="electronic exchange-correlation" >
    <i type="logical" name="LASPH"> F  </i>
    <i type="logical" name="LMETAGGA"> F  </i>
   </separator>
   <separator name="electronic convergence" >
    <i type="int" name="NELM">    60</i>
    <i type="int" name="NELMDL">   -12</i>
    <i type="int" name="NELMIN">     2</i>
    <i name="ENINI">    300.00000000</i>
    <separator name="electronic convergence detail" >
     <i type="logical" name="LDIAG"> T  </i>
     <i name="WEIMIN">      0.00100000</i>
     <i name="EBREAK">      0.00000038</i>
     <i name="DEPER">      0.30000000</i>
     <i type="int" name="NRMM">     4</i>
     <i name="TIME">      0.40000000</i>
    </separator>
   </separator>
   <separator name="electronic mixer" >
    <i name="AMIX">      0.40000000</i>
    <i name="BMIX">      1.00000000</i>
    <i name="AMIN">      0.10000000</i>
    <i name="AMIX_MAG">      1.60000000</i>
    <i name="BMIX_MAG">      1.00000000</i>
    <separator name="electronic mixer details" >
     <i type="int" name="IMIX">     4</i>
     <i type="int" name="MAXMIX">   -45</i>
     <i name="WC">    100.00000000</i>
     <i type="int" name="INIMIX">     1</i>
     <i type="int" name="MIXPRE">     1</i>
     <i type="int" name="MREMOVE">     5</i>
    </separator>
   </separator>
   <separator name="electronic dipolcorrection" >
    <i type="logical" name="LDIPOL"> F  </i>
    <i type="logical" name="LMONO"> F  </i>
    <i type="int" name="IDIPOL">     0</i>
    <i name="EPSILON">      1.00000000</i>
    <v name="DIPOL">   -100.00000000   -100.00000000   -100.00000000</v>
    <i name="EFIELD">      0.00000000</i>
   </separator>
  </separator>
  <separator name="grids" >
   <i type="int" name="NGX">    48</i>
   <i type="int" name="NGY">    48</i>
   <i type="int" name="NGZ">    48</i>
   <i type="int" name="NGXF">    96</i>
   <i type="int" name="NGYF">    96</i>
   <i type="int" name="NGZF">    96</i>
   <i type="logical" name="ADDGRID"> F  </i>
  </separator>
  <separator name="ionic" >
   <i type="int" name="NSW">   191</i>
   <i type="int" name="IBRION">     2</i>
   <i type="int" name="ISIF">     2</i>
   <i name="PSTRESS">      0.00000000</i>
   <i name="EDIFFG">      0.05000000</i>
   <i type="int" name="NFREE">     1</i>
   <i name="POTIM">      0.50000000</i>
   <i name="SMASS">     -3.00000000</i>
  </separator>
  <separator name="ionic md" >
   <i name="TEBEG">      0.00010000</i>
   <i name="TEEND">      0.00010000</i>
   <i type="int" name="NBLOCK">     1</i>
   <i type="int" name="KBLOCK">   191</i>
   <i type="int" name="NPACO">   256</i>
   <i name="APACO">     16.00000000</i>
  </separator>
  <separator name="symmetry" >
   <i type="int" name="ISYM">     2</i>
   <i name="SYMPREC">      0.00001000</i>
  </separator>
  <separator name="dos" >
   <i type="logical" name="LORBIT"> F  </i>
   <v name="RWIGS">     -1.00000000     -1.00000000</v>
   <i type="int" name="NEDOS">   301</i>
   <i name="EMIN">     10.00000000</i>
   <i name="EMAX">    -10.00000000</i>
   <i name="EFERMI">      0.00000000</i>
  </separator>
  <separator name="writing" >
   <i type="int" name="NWRITE">     2</i>
   <i type="logical" name="LWAVE"> F  </i>
   <i type="logical" name="LCHARG"> F  </i>
   <i type="logical" name="LPARD"> F  </i>
   <i type="logical" name="LVTOT"> F  </i>
   <i type="logical" name="LELF"> F  </i>
   <i type="logical" name="LOPTICS"> F  </i>
   <v name="STM">      0.00000000      0.00000000      0.00000000      0.00000000      0.00000000</v>
  </separator>
  <separator name="performance" >
   <i type="int" name="NPAR">    32</i>
   <i type="int" name="NSIM">     4</i>
   <i type="int" name="NBLK">    32</i>
   <i type="logical" name="LPLANE"> T  </i>
   <i type="logical" name="LSCALAPACK"> F  </i>
   <i type="logical" name="LSCAAWARE"> F  </i>
   <i type="logical" name="LSCALU"> F  </i>
   <i type="logical" name="LASYNC"> F  </i>
  </separator>
  <separator name="miscellaneous" >
   <i type="int" name="IDIOT">     3</i>
   <i type="logical" name="LMUSIC"> F  </i>
   <v name="POMASS">     26.98200000     24.30500000</v>
   <i type="logical" name="LCORR"> T  </i>
  </separator>
  <i type="logical" name="LREAL_COMPAT"> F  </i>
  <i type="logical" name="GGA_COMPAT"> T  </i>
  <i type="logical" name="LBERRY"> F  </i>
  <i type="int" name="ICORELEVEL">     0</i>
  <i type="logical" name="LDAU"> F  </i>
  <i type="int" name="I_CONSTRAINED_M">     0</i>
  <separator name="electronic exchange-correlation" >
   <i type="string" name="GGA">--</i>
   <i type="int" name="VOSKOWN">     0</i>
   <i type="logical" name="LHFCALC"> F  </i>
   <i type="logical" name="LHFONE"> F  </i>
   <i type="logical" name="LRHFCALC"> F  </i>
   <i type="logical" name="LTHOMAS"> F  </i>
   <i type="logical" name="LMODELHF"> F  </i>
   <i name="ENCUTFOCK">      0.00000000</i>
   <i name="ENCUT4O">     -1.00000000</i>
   <i type="int" name="EXXOEP">     0</i>
   <i type="int" name="FOURORBIT">     0</i>
   <i name="AEXX">      0.00000000</i>
   <i name="HFALPHA">      0.00000000</i>
   <i name="ALDAX">      1.00000000</i>
   <i name="AGGAX">      1.00000000</i>
   <i name="ALDAC">      1.00000000</i>
   <i name="AGGAC">      1.00000000</i>
   <i type="int" name="NKREDX">     1</i>
   <i type="int" name="NKREDY">     1</i>
   <i type="int" name="NKREDZ">     1</i>
   <i type="logical" name="SHIFTRED"> F  </i>
   <i type="logical" name="ODDONLY"> F  </i>
   <i type="logical" name="EVENONLY"> F  </i>
   <i type="int" name="LMAXFOCK">     0</i>
   <i type="int" name="NMAXFOCKAE">     0</i>
   <i name="HFSCREEN">      0.00000000</i>
   <i name="HFSCREENC">      0.00000000</i>
  </separator>
  <separator name="model GW" >
   <i type="int" name="MODEL_GW">     0</i>
   <i name="MODEL_EPS0">      9.61625750</i>
   <i name="MODEL_ALPHA">      1.00000000</i>
  </separator>
  <separator name="linear response parameters" >
   <i type="logical" name="LEPSILON"> F  </i>
   <i type="logical" name="LRPA"> F  </i>
   <i type="logical" name="LNABLA"> F  </i>
   <i type="logical" name="LVEL"> F  </i>
   <i type="int" name="KINTER">     0</i>
   <i name="CSHIFT">      0.10000000</i>
   <i name="OMEGAMAX">     -1.00000000</i>
  </separator>
  <separator name="orbital magnetization" >
   <i type="logical" name="ORBITALMAG"> F  </i>
   <i type="logical" name="LMAGBLOCH"> F  </i>
   <i type="logical" name="LCHIMAG"> F  </i>
   <i type="logical" name="LGAUGE"> T  </i>
   <i type="int" name="MAGATOM">     0</i>
   <v name="MAGDIPOL">      0.00000000      0.00000000      0.00000000</v>
   <v name="AVECCONST">      0.00000000      0.00000000      0.00000000</v>
  </separator>
  <separator name="response functions" >
   <i type="logical" name="LRPA"> T  </i>
   <i type="logical" name="LTCTE"> F  </i>
   <i type="logical" name="LTETE"> F  </i>
   <i type="logical" name="L2ORDER"> F  </i>
   <i type="logical" name="LGWLF"> F  </i>
   <i name="ENCUTGW">    200.00000000</i>
   <i name="ENCUTGWSOFT">     -2.00000000</i>
   <i name="ENCUTLF">     -1.00000000</i>
   <i type="int" name="LMAXMP2">    -1</i>
   <i name="SCISSOR">      0.00000000</i>
   <i type="int" name="NOMEGA">     0</i>
   <i type="int" name="NOMEGAR">     0</i>
   <i type="int" name="NBANDSGW">    -1</i>
   <i type="int" name="NBANDSLF">    -1</i>
   <i type="int" name="NELM">     1</i>
   <i type="int" name="DIM">     3</i>
   <i type="int" name="ANTIRES">     0</i>
   <i type="logical" name="LUSEW"> F  </i>
   <i name="OMEGAMAX">    -30.00000000</i>
   <i name="OMEGATL">   -200.00000000</i>
   <i type="int" name="OMEGAGRID">     0</i>
   <i name="CSHIFT">     -0.10000000</i>
   <i type="logical" name="SELFENERGY"> F  </i>
   <i type="logical" name="LSPECTRAL"> F  </i>
   <i type="logical" name="ODDONLYGW"> F  </i>
   <i type="logical" name="EVENONLYGW"> F  </i>
   <i type="int" name="NKREDLFX">     1</i>
   <i type="int" name="NKREDLFY">     1</i>
   <i type="int" name="NKREDLFZ">     1</i>
   <i type="int" name="MAXMEM">  1024</i>
   <i type="int" name="TELESCOPE">     0</i>
  </separator>
 </parameters>
 <atominfo>
  <atoms>      33 </atoms>
  <types>       2 </types>
  <array name="atoms" >
   <dimension dim="1">ion</dimension>
   <field type="string">element</field>
   <field type="int">atomtype</field>
   <set>
    <rc><c>Al</c><c>   1</c></rc>
    <rc><c>Al</c><c>   1</c></rc>
    <rc><c>Al</c><c>   1</c></rc>
    <rc><c>Al</c><c>   1</c></rc>
    <rc><c>Al</c><c>   1</c></rc>
    <rc><c>Al</c><c>   1</c></rc>
    <rc><c>Al</c><c>   1</c></rc>
    <rc><c>Al</c><c>   1</c></rc>
    <rc><c>Al</c><c>   1</c></rc>
    <rc><c>Al</c><c>   1</c></rc>
    <rc><c>Al</c><c>   1</c></rc>
    <rc><c>Al</c><c>   1</c></rc>
    <rc><c>Al</c><c>   1</c></rc>
    <rc><c>Al</c><c>   1</c></rc>
    <rc><c>Al</c><c>   1</c></rc>
    <rc><c>Al</c><c>   1</c></rc>
    <rc><c>Al</c><c>   1</c></rc>
    <rc><c>Al</c><c>   1</c></rc>
    <rc><c>Al</c><c>   1</c></rc>
    <rc><c>Al</c><c>   1</c></rc>
    <rc><c>Al</c><c>   1</c></rc>
    <rc><c>Al</c><c>   1</c></rc>
    <rc><c>Al</c><c>   1</c></rc>
    <rc><c>Al</c><c>   1</c></rc>
    <rc><c>Al</c><c>   1</c></rc>
    <rc><c>Al</c><c>   1</c></rc>
    <rc><c>Al</c><c>   1</c></rc>
    <rc><c>Al</c><c>   1</c></rc>
    <rc><c>Al</c><c>   1</c></rc>
    <rc><c>Al</c><c>   1</c></rc>
    <rc><c>Al</c><c>   1</c></rc>
    <rc><c>Al</c><c>   1</c></rc>
    <rc><c>Mg</c><c>   2</c></rc>
   </set>
  </array>
  <array name="atomtypes" >
   <dimension dim="1">type</dimension>
   <field type="int">atomspertype</field>
   <field type="string">element</field>
   <field>mass</field>
   <field>valence</field>
   <field type="string">pseudopotential</field>
   <set>
    <rc><c>  32</c><c>Al</c><c>     26.98200000</c><c>      3.00000000</c><c> PAW_PBE Al 04Jan2001                   </c></rc>
    <rc><c>   1</c><c>Mg</c><c>     24.30500000</c><c>      2.00000000</c><c> PAW_PBE Mg 05Jan2001                   </c></rc>
   </set>
  </array>
 </atominfo>
 <structure name="initialpos" >
  <crystal>
   <varray name="basis" >
    <v>       8.08704000       0.00000000       0.00000000 </v>
    <v>       0.00000000       8.08704000       0.00000000 </v>
    <v>       0.00000000       0.00000000       8.08704000 </v>
   </varray>
   <i name="volume">    528.89416249 </i>
   <varray name="rec_basis" >
    <v>       0.12365464       0.00000000       0.00000000 </v>
    <v>       0.00000000       0.12365464       0.00000000 </v>
    <v>       0.00000000       0.00000000       0.12365464 </v>
   </varray>
  </crystal>
  <varray name="positions" >
   <v>       0.00000000       0.00000000       0.00000000 </v>
   <v>       0.25000000       0.00000000       0.25000000 </v>
   <v>       0.25000000       0.25000000       0.00000000 </v>
   <v>       0.00000000       0.25000000       0.25000000 </v>
   <v>       0.50000000       0.00000000       0.00000000 </v>
   <v>       0.75000000       0.00000000       0.25000000 </v>
   <v>       0.75000000       0.25000000       0.00000000 </v>
   <v>       0.50000000       0.25000000       0.25000000 </v>
   <v>       0.00000000       0.50000000       0.00000000 </v>
   <v>       0.25000000       0.50000000       0.25000000 </v>
   <v>       0.25000000       0.75000000       0.00000000 </v>
   <v>       0.00000000       0.75000000       0.25000000 </v>
   <v>       0.50000000       0.50000000       0.00000000 </v>
   <v>       0.75000000       0.50000000       0.25000000 </v>
   <v>       0.75000000       0.75000000       0.00000000 </v>
   <v>       0.50000000       0.75000000       0.25000000 </v>
   <v>       0.00000000       0.00000000       0.50000000 </v>
   <v>       0.25000000       0.00000000       0.75000000 </v>
   <v>       0.25000000       0.25000000       0.50000000 </v>
   <v>       0.00000000       0.25000000       0.75000000 </v>
   <v>       0.50000000       0.00000000       0.50000000 </v>
   <v>       0.75000000       0.00000000       0.75000000 </v>
   <v>       0.75000000       0.25000000       0.50000000 </v>
   <v>       0.50000000       0.25000000       0.75000000 </v>
   <v>       0.00000000       0.50000000       0.50000000 </v>
   <v>       0.25000000       0.50000000       0.75000000 </v>
   <v>       0.25000000       0.75000000       0.50000000 </v>
   <v>       0.00000000       0.75000000       0.75000000 </v>
   <v>       0.50000000       0.50000000       0.50000000 </v>
   <v>       0.75000000       0.50000000       0.75000000 </v>
   <v>       0.75000000       0.75000000       0.50000000 </v>
   <v>       0.50000000       0.75000000       0.75000000 </v>
   <v>       0.50000000       0.50000000       0.75000000 </v>
  </varray>
 </structure>
 <calculation>
  <scstep>
   <time name="diag">    0.09    0.09</time>
   <time name="diis">    0.18    0.18</time>
   <time name="orth">    0.01    0.01</time>
   <time name="total">    0.39    0.41</time>
   <energy>
    <i name="alphaZ">     -8.27958290 </i>
    <i name="ewald">  -2384.56558862 </i>
    <i name="hartreedc">     -9.58186620 </i>
    <i name="XCdc">   -846.10174034 </i>
    <i name="pawpsdc">   1149.32568210 </i>
    <i name="pawaedc">   -115.70169129 </i>
    <i name="eentropy">      0.01990384 </i>
    <i name="bandstr">    658.36793097 </i>
    <i name="atom">   1736.20668909 </i>
    <i name="e_fr_energy">    179.68973664 </i>
    <i name="e_wo_entrp">    179.66983280 </i>
    <i name="e_0_energy">    179.68310202 </i>
   </energy>
  </scstep>
  <scstep>
   <time name="diag">    0.09    0.09</time>
   <time name="diis">    0.17    0.17</time>
   <time name="orth">    0.01    0.01</time>
   <time name="total">    0.27    0.28</time>
   <energy>
    <i name="e_fr_energy">    -39.40768605 </i>
    <i name="e_wo_entrp">    -39.36235971 </i>
    <i name="e_0_energy">    -39.39257727 </i>
   </energy>
  </scstep>
  <scstep>
   <time name="diag">    0.09    0.09</time>
   <time name="diis">    0.17    0.18</time>
   <time name="orth">    0.01    0.01</time>
   <time name="total">    0.27    0.28</time>
   <energy>
    <i name="e_fr_energy">    -77.37931851 </i>
    <i name="e_wo_entrp">    -77.30232945 </i>
    <i name="e_0_energy">    -77.35365549 </i>
   </energy>
  </scstep>
  <scstep>
   <time name="diag">    0.09    0.09</time>
   <time name="diis">    0.17    0.17</time>
   <time name="orth">    0.01    0.01</time>
   <time name="total">    0.27    0.28</time>
   <energy>
    <i name="e_fr_energy">    -90.47617665 </i>
    <i name="e_wo_entrp">    -90.32026814 </i>
    <i name="e_0_energy">    -90.42420714 </i>
   </energy>
  </scstep>
  <scstep>
   <time name="diag">    0.09    0.09</time>
   <time name="diis">    0.18    0.18</time>
   <time name="orth">    0.01    0.01</time>
   <time name="total">    0.28    0.28</time>
   <energy>
    <i name="e_fr_energy">    -93.52427848 </i>
    <i name="e_wo_entrp">    -93.28377774 </i>
    <i name="e_0_energy">    -93.44411156 </i>
   </energy>
  </scstep>
  <scstep>
   <time name="diag">    0.09    0.09</time>
   <time name="diis">    0.17    0.17</time>
   <time name="orth">    0.01    0.01</time>
   <time name="total">    0.27    0.28</time>
   <energy>
    <i name="e_fr_energy">    -94.17630897 </i>
    <i name="e_wo_entrp">    -93.92537392 </i>
    <i name="e_0_energy">    -94.09266395 </i>
   </energy>
  </scstep>
  <scstep>
   <time name="diag">    0.09    0.09</time>
   <time name="diis">    0.17    0.17</time>
   <time name="orth">    0.01    0.01</time>
   <time name="total">    0.27    0.28</time>
   <energy>
    <i name="e_fr_energy">    -94.29087243 </i>
    <i name="e_wo_entrp">    -94.03925178 </i>
    <i name="e_0_energy">    -94.20699888 </i>
   </energy>
  </scstep>
  <scstep>
   <time name="diag">    0.09    0.09</time>
   <time name="diis">    0.17    0.17</time>
   <time name="orth">    0.01    0.01</time>
   <time name="total">    0.27    0.28</time>
   <energy>
    <i name="e_fr_energy">    -94.31009512 </i>
    <i name="e_wo_entrp">    -94.05846362 </i>
    <i name="e_0_energy">    -94.22621796 </i>
   </energy>
  </scstep>
  <scstep>
   <time name="diag">    0.09    0.09</time>
   <time name="diis">    0.31    0.31</time>
   <time name="orth">    0.01    0.01</time>
   <time name="total">    0.41    0.41</time>
   <energy>
    <i name="e_fr_energy">    -94.31417162 </i>
    <i name="e_wo_entrp">    -94.06254457 </i>
    <i name="e_0_energy">    -94.23029593 </i>
   </energy>
  </scstep>
  <scstep>
   <time name="diag">    0.09    0.09</time>
   <time name="diis">    0.30    0.34</time>
   <time name="orth">    0.01    0.01</time>
   <time name="total">    0.40    0.45</time>
   <energy>
    <i name="e_fr_energy">    -94.31450980 </i>
    <i name="e_wo_entrp">    -94.06288454 </i>
    <i name="e_0_energy">    -94.23063472 </i>
   </energy>
  </scstep>
  <scstep>
   <time name="diag">    0.09    0.09</time>
   <time name="diis">    0.24    0.30</time>
   <time name="orth">    0.01    0.01</time>
   <time name="total">    0.34    0.40</time>
   <energy>
    <i name="e_fr_energy">    -94.31451980 </i>
    <i name="e_wo_entrp">    -94.06289467 </i>
    <i name="e_0_energy">    -94.23064476 </i>
   </energy>
  </scstep>
  <scstep>
   <time name="diag">    0.09    0.09</time>
   <time name="diis">    0.23    0.23</time>
   <time name="orth">    0.01    0.01</time>
   <time name="total">    0.46    0.46</time>
   <energy>
    <i name="e_fr_energy">    -94.31452266 </i>
    <i name="e_wo_entrp">    -94.06289754 </i>
    <i name="e_0_energy">    -94.23064762 </i>
   </energy>
  </scstep>
  <scstep>
   <time name="diag">    0.09    0.09</time>
   <time name="diis">    0.31    0.31</time>
   <time name="orth">    0.01    0.01</time>
   <time name="total">    0.59    0.59</time>
   <energy>
    <i name="e_fr_energy">    -92.23450093 </i>
    <i name="e_wo_entrp">    -91.93864634 </i>
    <i name="e_0_energy">    -92.13588273 </i>
   </energy>
  </scstep>
  <scstep>
   <time name="diag">    0.09    0.09</time>
   <time name="diis">    0.31    0.31</time>
   <time name="orth">    0.01    0.01</time>
   <time name="total">    0.58    0.59</time>
   <energy>
    <i name="e_fr_energy">    -91.48988978 </i>
    <i name="e_wo_entrp">    -91.19718178 </i>
    <i name="e_0_energy">    -91.39232044 </i>
   </energy>
  </scstep>
  <scstep>
   <time name="diag">    0.09    0.09</time>
   <time name="diis">    0.31    0.31</time>
   <time name="orth">    0.01    0.01</time>
   <time name="total">    0.58    0.59</time>
   <energy>
    <i name="e_fr_energy">    -91.21154192 </i>
    <i name="e_wo_entrp">    -90.92373368 </i>
    <i name="e_0_energy">    -91.11560584 </i>
   </energy>
  </scstep>
  <scstep>
   <time name="diag">    0.09    0.09</time>
   <time name="diis">    0.31    0.31</time>
   <time name="orth">    0.01    0.01</time>
   <time name="total">    0.58    0.59</time>
   <energy>
    <i name="e_fr_energy">    -91.17842734 </i>
    <i name="e_wo_entrp">    -90.88817580 </i>
    <i name="e_0_energy">    -91.08167683 </i>
   </energy>
  </scstep>
  <scstep>
   <time name="diag">    0.09    0.09</time>
   <time name="diis">    0.31    0.31</time>
   <time name="orth">    0.01    0.01</time>
   <time name="total">    0.58    0.58</time>
   <energy>
    <i name="e_fr_energy">    -91.17791557 </i>
    <i name="e_wo_entrp">    -90.88792026 </i>
    <i name="e_0_energy">    -91.08125046 </i>
   </energy>
  </scstep>
  <scstep>
   <time name="diag">    0.09    0.09</time>
   <time name="diis">    0.23    0.23</time>
   <time name="orth">    0.01    0.01</time>
   <time name="total">    0.40    0.40</time>
   <energy>
    <i name="alphaZ">     -8.27958290 </i>
    <i name="ewald">  -2384.56558862 </i>
    <i name="hartreedc">    -12.66280444 </i>
    <i name="XCdc">   -841.78499605 </i>
    <i name="pawpsdc">   1154.05731444 </i>
    <i name="pawaedc">   -121.16953651 </i>
    <i name="eentropy">     -0.28985505 </i>
    <i name="bandstr">    387.31046553 </i>
    <i name="atom">   1736.20668909 </i>
    <i name="e_fr_energy">    -91.17789450 </i>
    <i name="e_wo_entrp">    -90.88803945 </i>
    <i name="e_0_energy">    -91.08127615 </i>
   </energy>
  </scstep>
  <structure>
   <crystal>
    <varray name="basis" >
     <v>       8.08704000       0.00000000       0.00000000 </v>
     <v>       0.00000000       8.08704000       0.00000000 </v>
     <v>       0.00000000       0.00000000       8.08704000 </v>
    </varray>
    <i name="volume">    528.89416249 </i>
    <varray name="rec_basis" >
     <v>       0.12365464       0.00000000       0.00000000 </v>
     <v>       0.00000000       0.12365464       0.00000000 </v>
     <v>       0.00000000       0.00000000       0.12365464 </v>
    </varray>
   </crystal>
   <varray name="positions" >
    <v>       0.00000000       0.00000000       0.00000000 </v>
    <v>       0.25000000       0.00000000       0.25000000 </v>
    <v>       0.25000000       0.25000000       0.00000000 </v>
    <v>       0.00000000       0.25000000       0.25000000 </v>
    <v>       0.50000000       0.00000000       0.00000000 </v>
    <v>       0.75000000       0.00000000       0.25000000 </v>
    <v>       0.75000000       0.25000000       0.00000000 </v>
    <v>       0.50000000       0.25000000       0.25000000 </v>
    <v>       0.00000000       0.50000000       0.00000000 </v>
    <v>       0.25000000       0.50000000       0.25000000 </v>
    <v>       0.25000000       0.75000000       0.00000000 </v>
    <v>       0.00000000       0.75000000       0.25000000 </v>
    <v>       0.50000000       0.50000000       0.00000000 </v>
    <v>       0.75000000       0.50000000       0.25000000 </v>
    <v>       0.75000000       0.75000000       0.00000000 </v>
    <v>       0.50000000       0.75000000       0.25000000 </v>
    <v>       0.00000000       0.00000000       0.50000000 </v>
    <v>       0.25000000       0.00000000       0.75000000 </v>
    <v>       0.25000000       0.25000000       0.50000000 </v>
    <v>       0.00000000       0.25000000       0.75000000 </v>
    <v>       0.50000000       0.00000000       0.50000000 </v>
    <v>       0.75000000       0.00000000       0.75000000 </v>
    <v>       0.75000000       0.25000000       0.50000000 </v>
    <v>       0.50000000       0.25000000       0.75000000 </v>
    <v>       0.00000000       0.50000000       0.50000000 </v>
    <v>       0.25000000       0.50000000       0.75000000 </v>
    <v>       0.25000000       0.75000000       0.50000000 </v>
    <v>       0.00000000       0.75000000       0.75000000 </v>
    <v>       0.50000000       0.50000000       0.50000000 </v>
    <v>       0.75000000       0.50000000       0.75000000 </v>
    <v>       0.75000000       0.75000000       0.50000000 </v>
    <v>       0.50000000       0.75000000       0.75000000 </v>
    <v>       0.50000000       0.50000000       0.75000000 </v>
   </varray>
  </structure>
  <varray name="forces" >
   <v>       0.00000000       0.00000000      -0.34658406 </v>
   <v>       0.34658406       0.00000000       0.00000000 </v>
   <v>       0.06937069       0.06937069      -0.06937069 </v>
   <v>       0.00000000       0.34658406       0.00000000 </v>
   <v>       0.00000000       0.00000000      -0.10872484 </v>
   <v>      -0.34658406       0.00000000       0.00000000 </v>
   <v>      -0.06937069       0.06937069      -0.06937069 </v>
   <v>       0.00000000       0.10872484       0.00000000 </v>
   <v>       0.00000000       0.00000000      -0.10872484 </v>
   <v>       0.10872484       0.00000000       0.00000000 </v>
   <v>       0.06937069      -0.06937069      -0.06937069 </v>
   <v>       0.00000000      -0.34658406       0.00000000 </v>
   <v>       0.00000000       0.00000000       6.83682088 </v>
   <v>      -0.10872484       0.00000000       0.00000000 </v>
   <v>      -0.06937069      -0.06937069      -0.06937069 </v>
   <v>       0.00000000      -0.10872484       0.00000000 </v>
   <v>       0.00000000       0.00000000       0.34658406 </v>
   <v>       0.10872484       0.00000000       0.00000000 </v>
   <v>       0.06937069       0.06937069       0.06937069 </v>
   <v>       0.00000000       0.10872484       0.00000000 </v>
   <v>       0.00000000       0.00000000       0.10872484 </v>
   <v>      -0.10872484       0.00000000       0.00000000 </v>
   <v>      -0.06937069       0.06937069       0.06937069 </v>
   <v>       0.00000000      -6.83682088       0.00000000 </v>
   <v>       0.00000000       0.00000000       0.10872484 </v>
   <v>      -6.83682088       0.00000000       0.00000000 </v>
   <v>       0.06937069      -0.06937069       0.06937069 </v>
   <v>       0.00000000      -0.10872484       0.00000000 </v>
   <v>       0.00000000       0.00000000      -6.83682088 </v>
   <v>       6.83682088       0.00000000       0.00000000 </v>
   <v>      -0.06937069      -0.06937069       0.06937069 </v>
   <v>       0.00000000       6.83682088       0.00000000 </v>
   <v>       0.00000000       0.00000000       0.00000000 </v>
  </varray>
  <varray name="stress" >
   <v>      47.06433013       0.00000000       0.00000000 </v>
   <v>       0.00000000      47.06433013       0.00000000 </v>
   <v>       0.00000000       0.00000000      47.06433013 </v>
  </varray>
  <energy>
   <i name="e_fr_energy">    -91.17789450 </i>
   <i name="e_wo_entrp">    -91.08127615 </i>
   <i name="e_0_energy">     -0.28985505 </i>
  </energy>
  <time name="totalsc">    8.02    8.22</time>
 </calculation>
 <calculation>
  <scstep>
   <time name="diag">    0.09    0.09</time>
   <time name="diis">    0.31    0.31</time>
   <time name="orth">    0.01    0.01</time>
   <time name="total">    0.58    0.59</time>
   <energy>
    <i name="alphaZ">     -8.27958290 </i>
    <i name="ewald">  -2395.43200741 </i>
    <i name="hartreedc">     -6.89400586 </i>
    <i name="XCdc">   -841.51683606 </i>
    <i name="pawpsdc">   1154.11136768 </i>
    <i name="pawaedc">   -121.22940870 </i>
    <i name="eentropy">     -0.12138238 </i>
    <i name="bandstr">    382.52628339 </i>
    <i name="atom">   1736.20668909 </i>
    <i name="e_fr_energy">   -100.62888313 </i>
    <i name="e_wo_entrp">   -100.50750076 </i>
    <i name="e_0_energy">   -100.58842234 </i>
   </energy>
  </scstep>
  <scstep>
   <time name="diag">    0.09    0.09</time>
   <time name="diis">    0.31    0.31</time>
   <time name="orth">    0.01    0.01</time>
   <time name="total">    0.58    0.58</time>
   <energy>
    <i name="e_fr_energy">    -99.85478132 </i>
    <i name="e_wo_entrp">    -99.75995928 </i>
    <i name="e_0_energy">    -99.82317397 </i>
   </energy>
  </scstep>
  <scstep>
   <time name="diag">    0.09    0.09</time>
   <time name="diis">    0.35    0.35</time>
   <time name="orth">    0.01    0.01</time>
   <time name="total">    0.61    0.62</time>
   <energy>
    <i name="e_fr_energy">    -99.14453639 </i>
    <i name="e_wo_entrp">    -99.02874026 </i>
    <i name="e_0_energy">    -99.10593768 </i>
   </energy>
  </scstep>
  <scstep>
   <time name="diag">    0.09    0.09</time>
   <time name="diis">    0.31    0.31</time>
   <time name="orth">    0.01    0.01</time>
   <time name="total">    0.58    0.59</time>
   <energy>
    <i name="e_fr_energy">    -99.10953739 </i>
    <i name="e_wo_entrp">    -98.98263111 </i>
    <i name="e_0_energy">    -99.06723530 </i>
   </energy>
  </scstep>
  <scstep>
   <time name="diag">    0.09    0.09</time>
   <time name="diis">    0.31    0.31</time>
   <time name="orth">    0.01    0.01</time>
   <time name="total">    0.58    0.58</time>
   <energy>
    <i name="e_fr_energy">    -99.10606435 </i>
    <i name="e_wo_entrp">    -98.97977285 </i>
    <i name="e_0_energy">    -99.06396718 </i>
   </energy>
  </scstep>
  <scstep>
   <time name="diag">    0.09    0.09</time>
   <time name="diis">    0.31    0.31</time>
   <time name="orth">    0.01    0.01</time>
   <time name="total">    0.58    0.58</time>
   <energy>
    <i name="e_fr_energy">    -99.10557181 </i>
    <i name="e_wo_entrp">    -98.97557614 </i>
    <i name="e_0_energy">    -99.06223992 </i>
   </energy>
  </scstep>
  <scstep>
   <time name="diag">    0.09    0.09</time>
   <time name="diis">    0.25    0.25</time>
   <time name="orth">    0.01    0.01</time>
   <time name="total">    0.52    0.52</time>
   <energy>
    <i name="e_fr_energy">    -99.10536210 </i>
    <i name="e_wo_entrp">    -98.97652070 </i>
    <i name="e_0_energy">    -99.06241496 </i>
   </energy>
  </scstep>
  <scstep>
   <time name="diag">    0.09    0.09</time>
   <time name="diis">    0.23    0.23</time>
   <time name="orth">    0.01    0.01</time>
   <time name="total">    0.39    0.40</time>
   <energy>
    <i name="alphaZ">     -8.27958290 </i>
    <i name="ewald">  -2395.43200741 </i>
    <i name="hartreedc">     -8.72105999 </i>
    <i name="XCdc">   -841.52870467 </i>
    <i name="pawpsdc">   1150.83877944 </i>
    <i name="pawaedc">   -117.70052986 </i>
    <i name="eentropy">     -0.12839867 </i>
    <i name="bandstr">    385.63946224 </i>
    <i name="atom">   1736.20668909 </i>
    <i name="e_fr_energy">    -99.10535271 </i>
    <i name="e_wo_entrp">    -98.97695405 </i>
    <i name="e_0_energy">    -99.06255316 </i>
   </energy>
  </scstep>
  <structure>
   <crystal>
    <varray name="basis" >
     <v>       8.08704000       0.00000000       0.00000000 </v>
     <v>       0.00000000       8.08704000       0.00000000 </v>
     <v>       0.00000000       0.00000000       8.08704000 </v>
    </varray>
    <i name="volume">    528.89416249 </i>
    <varray name="rec_basis" >
     <v>       0.12365464       0.00000000       0.00000000 </v>
     <v>       0.00000000       0.12365464       0.00000000 </v>
     <v>       0.00000000       0.00000000       0.12365464 </v>
    </varray>
   </crystal>
   <varray name="positions" >
    <v>       0.00000000       0.00000000      -0.00206752 </v>
    <v>       0.25206752       0.00000000       0.25000000 </v>
    <v>       0.25041383       0.25041383      -0.00041383 </v>
    <v>       0.00000000       0.25206752       0.25000000 </v>
    <v>       0.50000000       0.00000000      -0.00064859 </v>
    <v>       0.74793248       0.00000000       0.25000000 </v>
    <v>       0.74958617       0.25041383      -0.00041383 </v>
    <v>       0.50000000       0.25064859       0.25000000 </v>
    <v>       0.00000000       0.50000000      -0.00064859 </v>
    <v>       0.25064859       0.50000000       0.25000000 </v>
    <v>       0.25041383       0.74958617      -0.00041383 </v>
    <v>       0.00000000       0.74793248       0.25000000 </v>
    <v>       0.50000000       0.50000000       0.04078456 </v>
    <v>       0.74935141       0.50000000       0.25000000 </v>
    <v>       0.74958617       0.74958617      -0.00041383 </v>
    <v>       0.50000000       0.74935141       0.25000000 </v>
    <v>       0.00000000       0.00000000       0.50206752 </v>
    <v>       0.25064859       0.00000000       0.75000000 </v>
    <v>       0.25041383       0.25041383       0.50041383 </v>
    <v>       0.00000000       0.25064859       0.75000000 </v>
    <v>       0.50000000       0.00000000       0.50064859 </v>
    <v>       0.74935141       0.00000000       0.75000000 </v>
    <v>       0.74958617       0.25041383       0.50041383 </v>
    <v>       0.50000000       0.20921544       0.75000000 </v>
    <v>       0.00000000       0.50000000       0.50064859 </v>
    <v>       0.20921544       0.50000000       0.75000000 </v>
    <v>       0.25041383       0.74958617       0.50041383 </v>
    <v>       0.00000000       0.74935141       0.75000000 </v>
    <v>       0.50000000       0.50000000       0.45921544 </v>
    <v>       0.79078456       0.50000000       0.75000000 </v>
    <v>       0.74958617       0.74958617       0.50041383 </v>
    <v>       0.50000000       0.79078456       0.75000000 </v>
    <v>       0.50000000       0.50000000       0.75000000 </v>
   </varray>
  </structure>
  <varray name="forces" >
   <v>       0.00000000       0.00000000      -0.18368246 </v>
   <v>       0.18368246       0.00000000       0.00000000 </v>
   <v>       0.02061954       0.02061954      -0.02061954 </v>
   <v>       0.00000000       0.18368246       0.00000000 </v>
   <v>       0.00000000       0.00000000       0.31493684 </v>
   <v>      -0.18368246       0.00000000       0.00000000 </v>
   <v>      -0.02061954       0.02061954      -0.02061954 </v>
   <v>       0.00000000      -0.31493684       0.00000000 </v>
   <v>       0.00000000       0.00000000       0.31493684 </v>
   <v>      -0.31493684       0.00000000       0.00000000 </v>
   <v>       0.02061954      -0.02061954      -0.02061954 </v>
   <v>       0.00000000      -0.18368246       0.00000000 </v>
   <v>       0.00000000       0.00000000       1.40691796 </v>
   <v>       0.31493684       0.00000000       0.00000000 </v>
   <v>      -0.02061954      -0.02061954      -0.02061954 </v>
   <v>       0.00000000       0.31493684       0.00000000 </v>
   <v>       0.00000000       0.00000000       0.18368246 </v>
   <v>      -0.31493684       0.00000000       0.00000000 </v>
   <v>       0.02061954       0.02061954       0.02061954 </v>
   <v>       0.00000000      -0.31493684       0.00000000 </v>
   <v>       0.00000000       0.00000000      -0.31493684 </v>
   <v>       0.31493684       0.00000000       0.00000000 </v>
   <v>      -0.02061954       0.02061954       0.02061954 </v>
   <v>       0.00000000      -1.40691796       0.00000000 </v>
   <v>       0.00000000       0.00000000      -0.31493684 </v>
   <v>      -1.40691796       0.00000000       0.00000000 </v>
   <v>       0.02061954      -0.02061954       0.02061954 </v>
   <v>       0.00000000       0.31493684       0.00000000 </v>
   <v>       0.00000000       0.00000000      -1.40691796 </v>
   <v>       1.40691796       0.00000000       0.00000000 </v>
   <v>      -0.02061954      -0.02061954       0.02061954 </v>
   <v>       0.00000000       1.40691796       0.00000000 </v>
   <v>       0.00000000       0.00000000       0.00000000 </v>
  </varray>
  <varray name="stress" >
   <v>      18.01434158       0.00000000       0.00000000 </v>
   <v>       0.00000000      18.01434158       0.00000000 </v>
   <v>       0.00000000       0.00000000      18.01434158 </v>
  </varray>
  <energy>
   <i name="e_fr_energy">    -99.10535271 </i>
   <i name="e_wo_entrp">    -99.06255316 </i>
   <i name="e_0_energy">     -0.12839867 </i>
  </energy>
  <time name="totalsc">    5.22    5.27</time>
 </calculation>
 <calculation>
  <scstep>
   <time name="diag">    0.09    0.09</time>
   <time name="diis">    0.31    0.31</time>
   <time name="orth">    0.01    0.01</time>
   <time name="total">    0.58    0.59</time>
   <energy>
    <i name="alphaZ">     -8.27958290 </i>
    <i name="ewald">  -2388.90985125 </i>
    <i name="hartreedc">    -13.02288681 </i>
    <i name="XCdc">   -841.35025079 </i>
    <i name="pawpsdc">   1150.84469266 </i>
    <i name="pawaedc">   -117.70668126 </i>
    <i name="eentropy">     -0.07976855 </i>
    <i name="bandstr">    382.65285377 </i>
    <i name="atom">   1736.20668909 </i>
    <i name="e_fr_energy">    -99.64478603 </i>
    <i name="e_wo_entrp">    -99.56501748 </i>
    <i name="e_0_energy">    -99.61819652 </i>
   </energy>
  </scstep>
  <scstep>
   <time name="diag">    0.09    0.09</time>
   <time name="diis">    0.35    0.35</time>
   <time name="orth">    0.01    0.01</time>
   <time name="total">    0.61    0.62</time>
   <energy>
    <i name="e_fr_energy">    -99.57641702 </i>
    <i name="e_wo_entrp">    -99.49801627 </i>
    <i name="e_0_energy">    -99.55028344 </i>
   </energy>
  </scstep>
  <scstep>
   <time name="diag">    0.09    0.09</time>
   <time name="diis">    0.31    0.31</time>
   <time name="orth">    0.01    0.01</time>
   <time name="total">    0.58    0.58</time>
   <energy>
    <i name="e_fr_energy">    -99.54452218 </i>
    <i name="e_wo_entrp">    -99.45562670 </i>
    <i name="e_0_energy">    -99.51489035 </i>
   </energy>
  </scstep>
  <scstep>
   <time name="diag">    0.09    0.09</time>
   <time name="diis">    0.31    0.31</time>
   <time name="orth">    0.01    0.01</time>
   <time name="total">    0.58    0.58</time>
   <energy>
    <i name="e_fr_energy">    -99.54312457 </i>
    <i name="e_wo_entrp">    -99.45264003 </i>
    <i name="e_0_energy">    -99.51296306 </i>
   </energy>
  </scstep>
  <scstep>
   <time name="diag">    0.09    0.09</time>
   <time name="diis">    0.28    0.28</time>
   <time name="orth">    0.01    0.01</time>
   <time name="total">    0.45    0.46</time>
   <energy>
    <i name="alphaZ">     -8.27958290 </i>
    <i name="ewald">  -2388.90985125 </i>
    <i name="hartreedc">    -14.00778251 </i>
    <i name="XCdc">   -841.27617359 </i>
    <i name="pawpsdc">   1151.76412389 </i>
    <i name="pawaedc">   -118.64830710 </i>
    <i name="eentropy">     -0.09012476 </i>
    <i name="bandstr">    383.69791980 </i>
    <i name="atom">   1736.20668909 </i>
    <i name="e_fr_energy">    -99.54308933 </i>
    <i name="e_wo_entrp">    -99.45296456 </i>
    <i name="e_0_energy">    -99.51304774 </i>
   </energy>
  </scstep>
  <structure>
   <crystal>
    <varray name="basis" >
     <v>       8.08704000       0.00000000       0.00000000 </v>
     <v>       0.00000000       8.08704000       0.00000000 </v>
     <v>       0.00000000       0.00000000       8.08704000 </v>
    </varray>
    <i name="volume">    528.89416249 </i>
    <varray name="rec_basis" >
     <v>       0.12365464       0.00000000       0.00000000 </v>
     <v>       0.00000000       0.12365464       0.00000000 </v>
     <v>       0.00000000       0.00000000       0.12365464 </v>
    </varray>
   </crystal>
   <varray name="positions" >
    <v>       0.00000000       0.00000000      -0.00272236 </v>
    <v>       0.25272236       0.00000000       0.25000000 </v>
    <v>       0.25054489       0.25054489      -0.00054489 </v>
    <v>       0.00000000       0.25272236       0.25000000 </v>
    <v>       0.50000000       0.00000000      -0.00085401 </v>
    <v>       0.74727764       0.00000000       0.25000000 </v>
    <v>       0.74945511       0.25054489      -0.00054489 </v>
    <v>       0.50000000       0.25085401       0.25000000 </v>
    <v>       0.00000000       0.50000000      -0.00085401 </v>
    <v>       0.25085401       0.50000000       0.25000000 </v>
    <v>       0.25054489       0.74945511      -0.00054489 </v>
    <v>       0.00000000       0.74727764       0.25000000 </v>
    <v>       0.50000000       0.50000000       0.05370202 </v>
    <v>       0.74914599       0.50000000       0.25000000 </v>
    <v>       0.74945511       0.74945511      -0.00054489 </v>
    <v>       0.50000000       0.74914599       0.25000000 </v>
    <v>       0.00000000       0.00000000       0.50272236 </v>
    <v>       0.25085401       0.00000000       0.75000000 </v>
    <v>       0.25054489       0.25054489       0.50054489 </v>
    <v>       0.00000000       0.25085401       0.75000000 </v>
    <v>       0.50000000       0.00000000       0.50085401 </v>
    <v>       0.74914599       0.00000000       0.75000000 </v>
    <v>       0.74945511       0.25054489       0.50054489 </v>
    <v>       0.50000000       0.19629798       0.75000000 </v>
    <v>       0.00000000       0.50000000       0.50085401 </v>
    <v>       0.19629798       0.50000000       0.75000000 </v>
    <v>       0.25054489       0.74945511       0.50054489 </v>
    <v>       0.00000000       0.74914599       0.75000000 </v>
    <v>       0.50000000       0.50000000       0.44629798 </v>
    <v>       0.80370202       0.50000000       0.75000000 </v>
    <v>       0.74945511       0.74945511       0.50054489 </v>
    <v>       0.50000000       0.80370202       0.75000000 </v>
    <v>       0.50000000       0.50000000       0.75000000 </v>
   </varray>
  </structure>
  <varray name="forces" >
   <v>       0.00000000       0.00000000       0.08016635 </v>
   <v>      -0.08016635       0.00000000       0.00000000 </v>
   <v>       0.01826307       0.01826307      -0.01826307 </v>
   <v>       0.00000000      -0.08016635       0.00000000 </v>
   <v>       0.00000000       0.00000000       0.67939233 </v>
   <v>       0.08016635       0.00000000       0.00000000 </v>
   <v>      -0.01826307       0.01826307      -0.01826307 </v>
   <v>       0.00000000      -0.67939233       0.00000000 </v>
   <v>       0.00000000       0.00000000       0.67939233 </v>
   <v>      -0.67939233       0.00000000       0.00000000 </v>
   <v>       0.01826307      -0.01826307      -0.01826307 </v>
   <v>       0.00000000       0.08016635       0.00000000 </v>
   <v>       0.00000000       0.00000000       0.03015161 </v>
   <v>       0.67939233       0.00000000       0.00000000 </v>
   <v>      -0.01826307      -0.01826307      -0.01826307 </v>
   <v>       0.00000000       0.67939233       0.00000000 </v>
   <v>       0.00000000       0.00000000      -0.08016635 </v>
   <v>      -0.67939233       0.00000000       0.00000000 </v>
   <v>       0.01826307       0.01826307       0.01826307 </v>
   <v>       0.00000000      -0.67939233       0.00000000 </v>
   <v>       0.00000000       0.00000000      -0.67939233 </v>
   <v>       0.67939233       0.00000000       0.00000000 </v>
   <v>      -0.01826307       0.01826307       0.01826307 </v>
   <v>       0.00000000      -0.03015161       0.00000000 </v>
   <v>       0.00000000       0.00000000      -0.67939233 </v>
   <v>      -0.03015161       0.00000000       0.00000000 </v>
   <v>       0.01826307      -0.01826307       0.01826307 </v>
   <v>       0.00000000       0.67939233       0.00000000 </v>
   <v>       0.00000000       0.00000000      -0.03015161 </v>
   <v>       0.03015161       0.00000000       0.00000000 </v>
   <v>      -0.01826307      -0.01826307       0.01826307 </v>
   <v>       0.00000000       0.03015161       0.00000000 </v>
   <v>       0.00000000       0.00000000       0.00000000 </v>
  </varray>
  <varray name="stress" >
   <v>      21.19588171       0.00000000       0.00000000 </v>
   <v>       0.00000000      21.19588171       0.00000000 </v>
   <v>       0.00000000       0.00000000      21.19588171 </v>
  </varray>
  <energy>
   <i name="e_fr_energy">    -99.54308933 </i>
   <i name="e_wo_entrp">    -99.51304774 </i>
   <i name="e_0_energy">     -0.09012476 </i>
  </energy>
  <time name="totalsc">    3.60    3.63</time>
 </calculation>
 <calculation>
  <scstep>
   <time name="diag">    0.09    0.09</time>
   <time name="diis">    0.31    0.31</time>
   <time name="orth">    0.01    0.01</time>
   <time name="total">    0.58    0.59</time>
   <energy>
    <i name="alphaZ">     -8.27958290 </i>
    <i name="ewald">  -2391.10377647 </i>
    <i name="hartreedc">    -12.80563100 </i>
    <i name="XCdc">   -841.30546543 </i>
    <i name="pawpsdc">   1151.83213633 </i>
    <i name="pawaedc">   -118.71831939 </i>
    <i name="eentropy">     -0.09762375 </i>
    <i name="bandstr">    384.41394520 </i>
    <i name="atom">   1736.20668909 </i>
    <i name="e_fr_energy">    -99.85762831 </i>
    <i name="e_wo_entrp">    -99.76000455 </i>
    <i name="e_0_energy">    -99.82508705 </i>
   </energy>
  </scstep>
  <scstep>
   <time name="diag">    0.09    0.09</time>
   <time name="diis">    0.31    0.31</time>
   <time name="orth">    0.01    0.01</time>
   <time name="total">    0.58    0.58</time>
   <energy>
    <i name="e_fr_energy">    -99.81774997 </i>
    <i name="e_wo_entrp">    -99.74425557 </i>
    <i name="e_0_energy">    -99.79325184 </i>
   </energy>
  </scstep>
  <scstep>
   <time name="diag">    0.09    0.09</time>
   <time name="diis">    0.31    0.31</time>
   <time name="orth">    0.01    0.01</time>
   <time name="total">    0.57    0.58</time>
   <energy>
    <i name="e_fr_energy">    -99.79378964 </i>
    <i name="e_wo_entrp">    -99.70977265 </i>
    <i name="e_0_energy">    -99.76578398 </i>
   </energy>
  </scstep>
  <scstep>
   <time name="diag">    0.09    0.09</time>
   <time name="diis">    0.31    0.31</time>
   <time name="orth">    0.01    0.01</time>
   <time name="total">    0.58    0.58</time>
   <energy>
    <i name="e_fr_energy">    -99.79343766 </i>
    <i name="e_wo_entrp">    -99.70985287 </i>
    <i name="e_0_energy">    -99.76557607 </i>
   </energy>
  </scstep>
  <scstep>
   <time name="diag">    0.09    0.09</time>
   <time name="diis">    0.23    0.23</time>
   <time name="orth">    0.01    0.01</time>
   <time name="total">    0.39    0.40</time>
   <energy>
    <i name="alphaZ">     -8.27958290 </i>
    <i name="ewald">  -2391.10377647 </i>
    <i name="hartreedc">    -12.48194520 </i>
    <i name="XCdc">   -841.33292058 </i>
    <i name="pawpsdc">   1151.22691895 </i>
    <i name="pawaedc">   -118.07982208 </i>
    <i name="eentropy">     -0.08355692 </i>
    <i name="bandstr">    384.13455729 </i>
    <i name="atom">   1736.20668909 </i>
    <i name="e_fr_energy">    -99.79343882 </i>
    <i name="e_wo_entrp">    -99.70988189 </i>
    <i name="e_0_energy">    -99.76558651 </i>
   </energy>
  </scstep>
  <structure>
   <crystal>
    <varray name="basis" >
     <v>       8.08704000       0.00000000       0.00000000 </v>
     <v>       0.00000000       8.08704000       0.00000000 </v>
     <v>       0.00000000       0.00000000       8.08704000 </v>
    </varray>
    <i name="volume">    528.89416249 </i>
    <varray name="rec_basis" >
     <v>       0.12365464       0.00000000       0.00000000 </v>
     <v>       0.00000000       0.12365464       0.00000000 </v>
     <v>       0.00000000       0.00000000       0.12365464 </v>
    </varray>
   </crystal>
   <varray name="positions" >
    <v>       0.00000000       0.00000000      -0.00225584 </v>
    <v>       0.25225584       0.00000000       0.25000000 </v>
    <v>       0.25066915       0.25066915      -0.00066915 </v>
    <v>       0.00000000       0.25225584       0.25000000 </v>
    <v>       0.50000000       0.00000000       0.00344240 </v>
    <v>       0.74774416       0.00000000       0.25000000 </v>
    <v>       0.74933085       0.25066915      -0.00066915 </v>
    <v>       0.50000000       0.24655760       0.25000000 </v>
    <v>       0.00000000       0.50000000       0.00344240 </v>
    <v>       0.24655760       0.50000000       0.25000000 </v>
    <v>       0.25066915       0.74933085      -0.00066915 </v>
    <v>       0.00000000       0.74774416       0.25000000 </v>
    <v>       0.50000000       0.50000000       0.05472183 </v>
    <v>       0.75344240       0.50000000       0.25000000 </v>
    <v>       0.74933085       0.74933085      -0.00066915 </v>
    <v>       0.50000000       0.75344240       0.25000000 </v>
    <v>       0.00000000       0.00000000       0.50225584 </v>
    <v>       0.24655760       0.00000000       0.75000000 </v>
    <v>       0.25066915       0.25066915       0.50066915 </v>
    <v>       0.00000000       0.24655760       0.75000000 </v>
    <v>       0.50000000       0.00000000       0.49655760 </v>
    <v>       0.75344240       0.00000000       0.75000000 </v>
    <v>       0.74933085       0.25066915       0.50066915 </v>
    <v>       0.50000000       0.19527817       0.75000000 </v>
    <v>       0.00000000       0.50000000       0.49655760 </v>
    <v>       0.19527817       0.50000000       0.75000000 </v>
    <v>       0.25066915       0.74933085       0.50066915 </v>
    <v>       0.00000000       0.75344240       0.75000000 </v>
    <v>       0.50000000       0.50000000       0.44527817 </v>
    <v>       0.80472183       0.50000000       0.75000000 </v>
    <v>       0.74933085       0.74933085       0.50066915 </v>
    <v>       0.50000000       0.80472183       0.75000000 </v>
    <v>       0.50000000       0.50000000       0.75000000 </v>
   </varray>
  </structure>
  <varray name="forces" >
   <v>       0.00000000       0.00000000       0.15841833 </v>
   <v>      -0.15841833       0.00000000       0.00000000 </v>
   <v>      -0.01996993      -0.01996993       0.01996993 </v>
   <v>       0.00000000      -0.15841833       0.00000000 </v>
   <v>       0.00000000       0.00000000       0.47646984 </v>
   <v>       0.15841833       0.00000000       0.00000000 </v>
   <v>       0.01996993      -0.01996993       0.01996993 </v>
   <v>       0.00000000      -0.47646984       0.00000000 </v>
   <v>       0.00000000       0.00000000       0.47646984 </v>
   <v>      -0.47646984       0.00000000       0.00000000 </v>
   <v>      -0.01996993       0.01996993       0.01996993 </v>
   <v>       0.00000000       0.15841833       0.00000000 </v>
   <v>       0.00000000       0.00000000       0.21649584 </v>
   <v>       0.47646984       0.00000000       0.00000000 </v>
   <v>       0.01996993       0.01996993       0.01996993 </v>
   <v>       0.00000000       0.47646984       0.00000000 </v>
   <v>       0.00000000       0.00000000      -0.15841833 </v>
   <v>      -0.47646984       0.00000000       0.00000000 </v>
   <v>      -0.01996993      -0.01996993      -0.01996993 </v>
   <v>       0.00000000      -0.47646984       0.00000000 </v>
   <v>       0.00000000       0.00000000      -0.47646984 </v>
   <v>       0.47646984       0.00000000       0.00000000 </v>
   <v>       0.01996993      -0.01996993      -0.01996993 </v>
   <v>       0.00000000      -0.21649584       0.00000000 </v>
   <v>       0.00000000       0.00000000      -0.47646984 </v>
   <v>      -0.21649584       0.00000000       0.00000000 </v>
   <v>      -0.01996993       0.01996993      -0.01996993 </v>
   <v>       0.00000000       0.47646984       0.00000000 </v>
   <v>       0.00000000       0.00000000      -0.21649584 </v>
   <v>       0.21649584       0.00000000       0.00000000 </v>
   <v>       0.01996993       0.01996993      -0.01996993 </v>
   <v>       0.00000000       0.21649584       0.00000000 </v>
   <v>       0.00000000       0.00000000       0.00000000 </v>
  </varray>
  <varray name="stress" >
   <v>      17.54314105       0.00000000       0.00000000 </v>
   <v>       0.00000000      17.54314105       0.00000000 </v>
   <v>       0.00000000       0.00000000      17.54314105 </v>
  </varray>
  <energy>
   <i name="e_fr_energy">    -99.79343882 </i>
   <i name="e_wo_entrp">    -99.76558651 </i>
   <i name="e_0_energy">     -0.08355692 </i>
  </energy>
  <time name="totalsc">    3.51    3.54</time>
 </calculation>
 <calculation>
  <scstep>
   <time name="diag">    0.09    0.09</time>
   <time name="diis">    0.31    0.31</time>
   <time name="orth">    0.01    0.01</time>
   <time name="total">    0.58    0.59</time>
   <energy>
    <i name="alphaZ">     -8.27958290 </i>
    <i name="ewald">  -2392.20244625 </i>
    <i name="hartreedc">    -12.01690441 </i>
    <i name="XCdc">   -841.36481689 </i>
    <i name="pawpsdc">   1151.21175044 </i>
    <i name="pawaedc">   -118.06389980 </i>
    <i name="eentropy">     -0.07120111 </i>
    <i name="bandstr">    384.08161820 </i>
    <i name="atom">   1736.20668909 </i>
    <i name="e_fr_energy">   -100.49879362 </i>
    <i name="e_wo_entrp">   -100.42759251 </i>
    <i name="e_0_energy">   -100.47505992 </i>
   </energy>
  </scstep>
  <scstep>
   <time name="diag">    0.09    0.09</time>
   <time name="diis">    0.31    0.31</time>
   <time name="orth">    0.01    0.01</time>
   <time name="total">    0.58    0.59</time>
   <energy>
    <i name="e_fr_energy">   -100.22716509 </i>
    <i name="e_wo_entrp">   -100.13468247 </i>
    <i name="e_0_energy">   -100.19633755 </i>
   </energy>
  </scstep>
  <scstep>
   <time name="diag">    0.09    0.09</time>
   <time name="diis">    0.31    0.31</time>
   <time name="orth">    0.01    0.01</time>
   <time name="total">    0.58    0.58</time>
   <energy>
    <i name="e_fr_energy">   -100.08839993 </i>
    <i name="e_wo_entrp">   -100.03844884 </i>
    <i name="e_0_energy">   -100.07174956 </i>
   </energy>
  </scstep>
  <scstep>
   <time name="diag">    0.09    0.09</time>
   <time name="diis">    0.31    0.31</time>
   <time name="orth">    0.01    0.01</time>
   <time name="total">    0.58    0.60</time>
   <energy>
    <i name="e_fr_energy">   -100.08542317 </i>
    <i name="e_wo_entrp">   -100.03461743 </i>
    <i name="e_0_energy">   -100.06848793 </i>
   </energy>
  </scstep>
  <scstep>
   <time name="diag">    0.09    0.09</time>
   <time name="diis">    0.29    0.29</time>
   <time name="orth">    0.01    0.01</time>
   <time name="total">    0.46    0.46</time>
   <energy>
    <i name="alphaZ">     -8.27958290 </i>
    <i name="ewald">  -2392.20244625 </i>
    <i name="hartreedc">    -12.10285800 </i>
    <i name="XCdc">   -841.37138697 </i>
    <i name="pawpsdc">   1150.53268253 </i>
    <i name="pawaedc">   -117.34410673 </i>
    <i name="eentropy">     -0.05022881 </i>
    <i name="bandstr">    384.52584427 </i>
    <i name="atom">   1736.20668909 </i>
    <i name="e_fr_energy">   -100.08539377 </i>
    <i name="e_wo_entrp">   -100.03516496 </i>
    <i name="e_0_energy">   -100.06865083 </i>
   </energy>
  </scstep>
  <structure>
   <crystal>
    <varray name="basis" >
     <v>       8.08704000       0.00000000       0.00000000 </v>
     <v>       0.00000000       8.08704000       0.00000000 </v>
     <v>       0.00000000       0.00000000       8.08704000 </v>
    </varray>
    <i name="volume">    528.89416249 </i>
    <varray name="rec_basis" >
     <v>       0.12365464       0.00000000       0.00000000 </v>
     <v>       0.00000000       0.12365464       0.00000000 </v>
     <v>       0.00000000       0.00000000       0.12365464 </v>
    </varray>
   </crystal>
   <varray name="positions" >
    <v>       0.00000000       0.00000000      -0.00111625 </v>
    <v>       0.25111625       0.00000000       0.25000000 </v>
    <v>       0.25097267       0.25097267      -0.00097267 </v>
    <v>       0.00000000       0.25111625       0.25000000 </v>
    <v>       0.50000000       0.00000000       0.01393749 </v>
    <v>       0.74888375       0.00000000       0.25000000 </v>
    <v>       0.74902733       0.25097267      -0.00097267 </v>
    <v>       0.50000000       0.23606251       0.25000000 </v>
    <v>       0.00000000       0.50000000       0.01393749 </v>
    <v>       0.23606251       0.50000000       0.25000000 </v>
    <v>       0.25097267       0.74902733      -0.00097267 </v>
    <v>       0.00000000       0.74888375       0.25000000 </v>
    <v>       0.50000000       0.50000000       0.05721298 </v>
    <v>       0.76393749       0.50000000       0.25000000 </v>
    <v>       0.74902733       0.74902733      -0.00097267 </v>
    <v>       0.50000000       0.76393749       0.25000000 </v>
    <v>       0.00000000       0.00000000       0.50111625 </v>
    <v>       0.23606251       0.00000000       0.75000000 </v>
    <v>       0.25097267       0.25097267       0.50097267 </v>
    <v>       0.00000000       0.23606251       0.75000000 </v>
    <v>       0.50000000       0.00000000       0.48606251 </v>
    <v>       0.76393749       0.00000000       0.75000000 </v>
    <v>       0.74902733       0.25097267       0.50097267 </v>
    <v>       0.50000000       0.19278702       0.75000000 </v>
    <v>       0.00000000       0.50000000       0.48606251 </v>
    <v>       0.19278702       0.50000000       0.75000000 </v>
    <v>       0.25097267       0.74902733       0.50097267 </v>
    <v>       0.00000000       0.76393749       0.75000000 </v>
    <v>       0.50000000       0.50000000       0.44278702 </v>
    <v>       0.80721298       0.50000000       0.75000000 </v>
    <v>       0.74902733       0.74902733       0.50097267 </v>
    <v>       0.50000000       0.80721298       0.75000000 </v>
    <v>       0.50000000       0.50000000       0.75000000 </v>
   </varray>
  </structure>
  <varray name="forces" >
   <v>       0.00000000       0.00000000       0.30332464 </v>
   <v>      -0.30332464       0.00000000       0.00000000 </v>
   <v>      -0.11109583      -0.11109583       0.11109583 </v>
   <v>       0.00000000      -0.30332464       0.00000000 </v>
   <v>       0.00000000       0.00000000      -0.01755128 </v>
   <v>       0.30332464       0.00000000       0.00000000 </v>
   <v>       0.11109583      -0.11109583       0.11109583 </v>
   <v>       0.00000000       0.01755128       0.00000000 </v>
   <v>       0.00000000       0.00000000      -0.01755128 </v>
   <v>       0.01755128       0.00000000       0.00000000 </v>
   <v>      -0.11109583       0.11109583       0.11109583 </v>
   <v>       0.00000000       0.30332464       0.00000000 </v>
   <v>       0.00000000       0.00000000       0.58405888 </v>
   <v>      -0.01755128       0.00000000       0.00000000 </v>
   <v>       0.11109583       0.11109583       0.11109583 </v>
   <v>       0.00000000      -0.01755128       0.00000000 </v>
   <v>       0.00000000       0.00000000      -0.30332464 </v>
   <v>       0.01755128       0.00000000       0.00000000 </v>
   <v>      -0.11109583      -0.11109583      -0.11109583 </v>
   <v>       0.00000000       0.01755128       0.00000000 </v>
   <v>       0.00000000       0.00000000       0.01755128 </v>
   <v>      -0.01755128       0.00000000       0.00000000 </v>
   <v>       0.11109583      -0.11109583      -0.11109583 </v>
   <v>       0.00000000      -0.58405888       0.00000000 </v>
   <v>       0.00000000       0.00000000       0.01755128 </v>
   <v>      -0.58405888       0.00000000       0.00000000 </v>
   <v>      -0.11109583       0.11109583      -0.11109583 </v>
   <v>       0.00000000      -0.01755128       0.00000000 </v>
   <v>       0.00000000       0.00000000      -0.58405888 </v>
   <v>       0.58405888       0.00000000       0.00000000 </v>
   <v>       0.11109583       0.11109583      -0.11109583 </v>
   <v>       0.00000000       0.58405888       0.00000000 </v>
   <v>       0.00000000       0.00000000       0.00000000 </v>
  </varray>
  <varray name="stress" >
   <v>      12.94610384       0.00000000       0.00000000 </v>
   <v>       0.00000000      12.94610384       0.00000000 </v>
   <v>       0.00000000       0.00000000      12.94610384 </v>
  </varray>
  <energy>
   <i name="e_fr_energy">   -100.08539377 </i>
   <i name="e_wo_entrp">   -100.06865083 </i>
   <i name="e_0_energy">     -0.05022881 </i>
  </energy>
  <time name="totalsc">    3.58    3.63</time>
 </calculation>
 <calculation>
  <scstep>
   <time name="diag">    0.09    0.09</time>
   <time name="diis">    0.31    0.31</time>
   <time name="orth">    0.01    0.01</time>
   <time name="total">    0.58    0.59</time>
   <energy>
    <i name="alphaZ">     -8.27958290 </i>
    <i name="ewald">  -2387.82417061 </i>
    <i name="hartreedc">    -15.53186810 </i>
    <i name="XCdc">   -841.29520167 </i>
    <i name="pawpsdc">   1150.48473144 </i>
    <i name="pawaedc">   -117.29348646 </i>
    <i name="eentropy">     -0.08261798 </i>
    <i name="bandstr">    383.20435384 </i>
    <i name="atom">   1736.20668909 </i>
    <i name="e_fr_energy">   -100.41115335 </i>
    <i name="e_wo_entrp">   -100.32853537 </i>
    <i name="e_0_energy">   -100.38361402 </i>
   </energy>
  </scstep>
  <scstep>
   <time name="diag">    0.09    0.09</time>
   <time name="diis">    0.31    0.31</time>
   <time name="orth">    0.01    0.01</time>
   <time name="total">    0.58    0.58</time>
   <energy>
    <i name="e_fr_energy">   -100.36856505 </i>
    <i name="e_wo_entrp">   -100.24345974 </i>
    <i name="e_0_energy">   -100.32686328 </i>
   </energy>
  </scstep>
  <scstep>
   <time name="diag">    0.09    0.09</time>
   <time name="diis">    0.31    0.31</time>
   <time name="orth">    0.01    0.01</time>
   <time name="total">    0.58    0.61</time>
   <energy>
    <i name="e_fr_energy">   -100.29177358 </i>
    <i name="e_wo_entrp">   -100.21561250 </i>
    <i name="e_0_energy">   -100.26638655 </i>
   </energy>
  </scstep>
  <scstep>
   <time name="diag">    0.09    0.09</time>
   <time name="diis">    0.31    0.31</time>
   <time name="orth">    0.01    0.01</time>
   <time name="total">    0.57    0.58</time>
   <energy>
    <i name="e_fr_energy">   -100.29133740 </i>
    <i name="e_wo_entrp">   -100.20972319 </i>
    <i name="e_0_energy">   -100.26413267 </i>
   </energy>
  </scstep>
  <scstep>
   <time name="diag">    0.09    0.09</time>
   <time name="diis">    0.26    0.26</time>
   <time name="orth">    0.01    0.01</time>
   <time name="total">    0.43    0.44</time>
   <energy>
    <i name="alphaZ">     -8.27958290 </i>
    <i name="ewald">  -2387.82417061 </i>
    <i name="hartreedc">    -16.14764288 </i>
    <i name="XCdc">   -841.25221246 </i>
    <i name="pawpsdc">   1151.15720588 </i>
    <i name="pawaedc">   -117.98893560 </i>
    <i name="eentropy">     -0.08183563 </i>
    <i name="bandstr">    383.91911365 </i>
    <i name="atom">   1736.20668909 </i>
    <i name="e_fr_energy">   -100.29137147 </i>
    <i name="e_wo_entrp">   -100.20953583 </i>
    <i name="e_0_energy">   -100.26409292 </i>
   </energy>
  </scstep>
  <structure>
   <crystal>
    <varray name="basis" >
     <v>       8.08704000       0.00000000       0.00000000 </v>
     <v>       0.00000000       8.08704000       0.00000000 </v>
     <v>       0.00000000       0.00000000       8.08704000 </v>
    </varray>
    <i name="volume">    528.89416249 </i>
    <varray name="rec_basis" >
     <v>       0.12365464       0.00000000       0.00000000 </v>
     <v>       0.00000000       0.12365464       0.00000000 </v>
     <v>       0.00000000       0.00000000       0.12365464 </v>
    </varray>
   </crystal>
   <varray name="positions" >
    <v>       0.00000000       0.00000000       0.00210046 </v>
    <v>       0.24789954       0.00000000       0.25000000 </v>
    <v>       0.25001759       0.25001759      -0.00001759 </v>
    <v>       0.00000000       0.24789954       0.25000000 </v>
    <v>       0.50000000       0.00000000       0.01701920 </v>
    <v>       0.75210046       0.00000000       0.25000000 </v>
    <v>       0.74998241       0.25001759      -0.00001759 </v>
    <v>       0.50000000       0.23298080       0.25000000 </v>
    <v>       0.00000000       0.50000000       0.01701920 </v>
    <v>       0.23298080       0.50000000       0.25000000 </v>
    <v>       0.25001759       0.74998241      -0.00001759 </v>
    <v>       0.00000000       0.75210046       0.25000000 </v>
    <v>       0.50000000       0.50000000       0.06349868 </v>
    <v>       0.76701920       0.50000000       0.25000000 </v>
    <v>       0.74998241       0.74998241      -0.00001759 </v>
    <v>       0.50000000       0.76701920       0.25000000 </v>
    <v>       0.00000000       0.00000000       0.49789954 </v>
    <v>       0.23298080       0.00000000       0.75000000 </v>
    <v>       0.25001759       0.25001759       0.50001759 </v>
    <v>       0.00000000       0.23298080       0.75000000 </v>
    <v>       0.50000000       0.00000000       0.48298080 </v>
    <v>       0.76701920       0.00000000       0.75000000 </v>
    <v>       0.74998241       0.25001759       0.50001759 </v>
    <v>       0.50000000       0.18650132       0.75000000 </v>
    <v>       0.00000000       0.50000000       0.48298080 </v>
    <v>       0.18650132       0.50000000       0.75000000 </v>
    <v>       0.25001759       0.74998241       0.50001759 </v>
    <v>       0.00000000       0.76701920       0.75000000 </v>
    <v>       0.50000000       0.50000000       0.43650132 </v>
    <v>       0.81349868       0.50000000       0.75000000 </v>
    <v>       0.74998241       0.74998241       0.50001759 </v>
    <v>       0.50000000       0.81349868       0.75000000 </v>
    <v>       0.50000000       0.50000000       0.75000000 </v>
   </varray>
  </structure>
  <varray name="forces" >
   <v>       0.00000000       0.00000000       0.29865629 </v>
   <v>      -0.29865629       0.00000000       0.00000000 </v>
   <v>      -0.13440281      -0.13440281       0.13440281 </v>
   <v>       0.00000000      -0.29865629       0.00000000 </v>
   <v>       0.00000000       0.00000000       0.00030367 </v>
   <v>       0.29865629       0.00000000       0.00000000 </v>
   <v>       0.13440281      -0.13440281       0.13440281 </v>
   <v>       0.00000000      -0.00030367       0.00000000 </v>
   <v>       0.00000000       0.00000000       0.00030367 </v>
   <v>      -0.00030367       0.00000000       0.00000000 </v>
   <v>      -0.13440281       0.13440281       0.13440281 </v>
   <v>       0.00000000       0.29865629       0.00000000 </v>
   <v>       0.00000000       0.00000000       0.33394880 </v>
   <v>       0.00030367       0.00000000       0.00000000 </v>
   <v>       0.13440281       0.13440281       0.13440281 </v>
   <v>       0.00000000       0.00030367       0.00000000 </v>
   <v>       0.00000000       0.00000000      -0.29865629 </v>
   <v>      -0.00030367       0.00000000       0.00000000 </v>
   <v>      -0.13440281      -0.13440281      -0.13440281 </v>
   <v>       0.00000000      -0.00030367       0.00000000 </v>
   <v>       0.00000000       0.00000000      -0.00030367 </v>
   <v>       0.00030367       0.00000000       0.00000000 </v>
   <v>       0.13440281      -0.13440281      -0.13440281 </v>
   <v>       0.00000000      -0.33394880       0.00000000 </v>
   <v>       0.00000000       0.00000000      -0.00030367 </v>
   <v>      -0.33394880       0.00000000       0.00000000 </v>
   <v>      -0.13440281       0.13440281      -0.13440281 </v>
   <v>       0.00000000       0.00030367       0.00000000 </v>
   <v>       0.00000000       0.00000000      -0.33394880 </v>
   <v>       0.33394880       0.00000000       0.00000000 </v>
   <v>       0.13440281       0.13440281      -0.13440281 </v>
   <v>       0.00000000       0.33394880       0.00000000 </v>
   <v>       0.00000000       0.00000000       0.00000000 </v>
  </varray>
  <varray name="stress" >
   <v>      16.35022210       0.00000000       0.00000000 </v>
   <v>       0.00000000      16.35022210       0.00000000 </v>
   <v>       0.00000000       0.00000000      16.35022210 </v>
  </varray>
  <energy>
   <i name="e_fr_energy">   -100.29137147 </i>
   <i name="e_wo_entrp">   -100.26409292 </i>
   <i name="e_0_energy">     -0.08183563 </i>
  </energy>
  <time name="totalsc">    3.55    3.60</time>
 </calculation>
 <calculation>
  <scstep>
   <time name="diag">    0.09    0.09</time>
   <time name="diis">    0.31    0.31</time>
   <time name="orth">    0.01    0.01</time>
   <time name="total">    0.58    0.59</time>
   <energy>
    <i name="alphaZ">     -8.27958290 </i>
    <i name="ewald">  -2368.84142182 </i>
    <i name="hartreedc">    -30.45015544 </i>
    <i name="XCdc">   -840.98626643 </i>
    <i name="pawpsdc">   1151.20201811 </i>
    <i name="pawaedc">   -118.03535133 </i>
    <i name="eentropy">     -0.15031517 </i>
    <i name="bandstr">    377.95909246 </i>
    <i name="atom">   1736.20668909 </i>
    <i name="e_fr_energy">   -101.37529342 </i>
    <i name="e_wo_entrp">   -101.22497826 </i>
    <i name="e_0_energy">   -101.32518837 </i>
   </energy>
  </scstep>
  <scstep>
   <time name="diag">    0.09    0.09</time>
   <time name="diis">    0.31    0.31</time>
   <time name="orth">    0.01    0.01</time>
   <time name="total">    0.57    0.58</time>
   <energy>
    <i name="e_fr_energy">   -100.92652994 </i>
    <i name="e_wo_entrp">   -100.66406166 </i>
    <i name="e_0_energy">   -100.83904051 </i>
   </energy>
  </scstep>
  <scstep>
   <time name="diag">    0.09    0.09</time>
   <time name="diis">    0.31    0.31</time>
   <time name="orth">    0.01    0.01</time>
   <time name="total">    0.58    0.58</time>
   <energy>
    <i name="e_fr_energy">   -100.58348458 </i>
    <i name="e_wo_entrp">   -100.39951804 </i>
    <i name="e_0_energy">   -100.52216240 </i>
   </energy>
  </scstep>
  <scstep>
   <time name="diag">    0.09    0.09</time>
   <time name="diis">    0.31    0.31</time>
   <time name="orth">    0.01    0.01</time>
   <time name="total">    0.58    0.58</time>
   <energy>
    <i name="e_fr_energy">   -100.56205354 </i>
    <i name="e_wo_entrp">   -100.34741953 </i>
    <i name="e_0_energy">   -100.49050887 </i>
   </energy>
  </scstep>
  <scstep>
   <time name="diag">    0.09    0.09</time>
   <time name="diis">    0.31    0.31</time>
   <time name="orth">    0.01    0.01</time>
   <time name="total">    0.58    0.58</time>
   <energy>
    <i name="e_fr_energy">   -100.56171810 </i>
    <i name="e_wo_entrp">   -100.34278494 </i>
    <i name="e_0_energy">   -100.48874038 </i>
   </energy>
  </scstep>
  <scstep>
   <time name="diag">    0.09    0.09</time>
   <time name="diis">    0.30    0.30</time>
   <time name="orth">    0.01    0.01</time>
   <time name="total">    0.46    0.47</time>
   <energy>
    <i name="alphaZ">     -8.27958290 </i>
    <i name="ewald">  -2368.84142182 </i>
    <i name="hartreedc">    -33.48370441 </i>
    <i name="XCdc">   -840.80877687 </i>
    <i name="pawpsdc">   1154.78656494 </i>
    <i name="pawaedc">   -121.77589407 </i>
    <i name="eentropy">     -0.21934292 </i>
    <i name="bandstr">    381.85370141 </i>
    <i name="atom">   1736.20668909 </i>
    <i name="e_fr_energy">   -100.56176755 </i>
    <i name="e_wo_entrp">   -100.34242463 </i>
    <i name="e_0_energy">   -100.48865324 </i>
   </energy>
  </scstep>
  <structure>
   <crystal>
    <varray name="basis" >
     <v>       8.08704000       0.00000000       0.00000000 </v>
     <v>       0.00000000       8.08704000       0.00000000 </v>
     <v>       0.00000000       0.00000000       8.08704000 </v>
    </varray>
    <i name="volume">    528.89416249 </i>
    <varray name="rec_basis" >
     <v>       0.12365464       0.00000000       0.00000000 </v>
     <v>       0.00000000       0.12365464       0.00000000 </v>
     <v>       0.00000000       0.00000000       0.12365464 </v>
    </varray>
   </crystal>
   <varray name="positions" >
    <v>       0.00000000       0.00000000       0.01038559 </v>
    <v>       0.23961441       0.00000000       0.25000000 </v>
    <v>       0.24755762       0.24755762       0.00244238 </v>
    <v>       0.00000000       0.23961441       0.25000000 </v>
    <v>       0.50000000       0.00000000       0.02495664 </v>
    <v>       0.76038559       0.00000000       0.25000000 </v>
    <v>       0.75244238       0.24755762       0.00244238 </v>
    <v>       0.50000000       0.22504336       0.25000000 </v>
    <v>       0.00000000       0.50000000       0.02495664 </v>
    <v>       0.22504336       0.50000000       0.25000000 </v>
    <v>       0.24755762       0.75244238       0.00244238 </v>
    <v>       0.00000000       0.76038559       0.25000000 </v>
    <v>       0.50000000       0.50000000       0.07968849 </v>
    <v>       0.77495664       0.50000000       0.25000000 </v>
    <v>       0.75244238       0.75244238       0.00244238 </v>
    <v>       0.50000000       0.77495664       0.25000000 </v>
    <v>       0.00000000       0.00000000       0.48961441 </v>
    <v>       0.22504336       0.00000000       0.75000000 </v>
    <v>       0.24755762       0.24755762       0.49755762 </v>
    <v>       0.00000000       0.22504336       0.75000000 </v>
    <v>       0.50000000       0.00000000       0.47504336 </v>
    <v>       0.77495664       0.00000000       0.75000000 </v>
    <v>       0.75244238       0.24755762       0.49755762 </v>
    <v>       0.50000000       0.17031151       0.75000000 </v>
    <v>       0.00000000       0.50000000       0.47504336 </v>
    <v>       0.17031151       0.50000000       0.75000000 </v>
    <v>       0.24755762       0.75244238       0.49755762 </v>
    <v>       0.00000000       0.77495664       0.75000000 </v>
    <v>       0.50000000       0.50000000       0.42031151 </v>
    <v>       0.82968849       0.50000000       0.75000000 </v>
    <v>       0.75244238       0.75244238       0.49755762 </v>
    <v>       0.50000000       0.82968849       0.75000000 </v>
    <v>       0.50000000       0.50000000       0.75000000 </v>
   </varray>
  </structure>
  <varray name="forces" >
   <v>       0.00000000       0.00000000       0.34926303 </v>
   <v>      -0.34926303       0.00000000       0.00000000 </v>
   <v>      -0.18302893      -0.18302893       0.18302893 </v>
   <v>       0.00000000      -0.34926303       0.00000000 </v>
   <v>       0.00000000       0.00000000      -0.03218666 </v>
   <v>       0.34926303       0.00000000       0.00000000 </v>
   <v>       0.18302893      -0.18302893       0.18302893 </v>
   <v>       0.00000000       0.03218666       0.00000000 </v>
   <v>       0.00000000       0.00000000      -0.03218666 </v>
   <v>       0.03218666       0.00000000       0.00000000 </v>
   <v>      -0.18302893       0.18302893       0.18302893 </v>
   <v>       0.00000000       0.34926303       0.00000000 </v>
   <v>       0.00000000       0.00000000      -0.16474048 </v>
   <v>      -0.03218666       0.00000000       0.00000000 </v>
   <v>       0.18302893       0.18302893       0.18302893 </v>
   <v>       0.00000000      -0.03218666       0.00000000 </v>
   <v>       0.00000000       0.00000000      -0.34926303 </v>
   <v>       0.03218666       0.00000000       0.00000000 </v>
   <v>      -0.18302893      -0.18302893      -0.18302893 </v>
   <v>       0.00000000       0.03218666       0.00000000 </v>
   <v>       0.00000000       0.00000000       0.03218666 </v>
   <v>      -0.03218666       0.00000000       0.00000000 </v>
   <v>       0.18302893      -0.18302893      -0.18302893 </v>
   <v>       0.00000000       0.16474048       0.00000000 </v>
   <v>       0.00000000       0.00000000       0.03218666 </v>
   <v>       0.16474048       0.00000000       0.00000000 </v>
   <v>      -0.18302893       0.18302893      -0.18302893 </v>
   <v>       0.00000000      -0.03218666       0.00000000 </v>
   <v>       0.00000000       0.00000000       0.16474048 </v>
   <v>      -0.16474048       0.00000000       0.00000000 </v>
   <v>       0.18302893       0.18302893      -0.18302893 </v>
   <v>       0.00000000      -0.16474048       0.00000000 </v>
   <v>       0.00000000       0.00000000       0.00000000 </v>
  </varray>
  <varray name="stress" >
   <v>      36.28413947       0.00000000       0.00000000 </v>
   <v>       0.00000000      36.28413947       0.00000000 </v>
   <v>       0.00000000       0.00000000      36.28413947 </v>
  </varray>
  <energy>
   <i name="e_fr_energy">   -100.56176755 </i>
   <i name="e_wo_entrp">   -100.48865324 </i>
   <i name="e_0_energy">     -0.21934292 </i>
  </energy>
  <time name="totalsc">    4.17    4.21</time>
 </calculation>
 <calculation>
  <scstep>
   <time name="diag">    0.09    0.09</time>
   <time name="diis">    0.31    0.31</time>
   <time name="orth">    0.01    0.01</time>
   <time name="total">    0.58    0.59</time>
   <energy>
    <i name="alphaZ">     -8.27958290 </i>
    <i name="ewald">  -2359.88720616 </i>
    <i name="hartreedc">    -40.75017946 </i>
    <i name="XCdc">   -840.70726918 </i>
    <i name="pawpsdc">   1154.89540451 </i>
    <i name="pawaedc">   -121.88883771 </i>
    <i name="eentropy">     -0.05608917 </i>
    <i name="bandstr">    379.43406439 </i>
    <i name="atom">   1736.20668909 </i>
    <i name="e_fr_energy">   -101.03300659 </i>
    <i name="e_wo_entrp">   -100.97691742 </i>
    <i name="e_0_energy">   -101.01431020 </i>
   </energy>
  </scstep>
  <scstep>
   <time name="diag">    0.09    0.09</time>
   <time name="diis">    0.35    0.35</time>
   <time name="orth">    0.01    0.01</time>
   <time name="total">    0.66    0.66</time>
   <energy>
    <i name="e_fr_energy">   -100.78269463 </i>
    <i name="e_wo_entrp">   -100.57714790 </i>
    <i name="e_0_energy">   -100.71417905 </i>
   </energy>
  </scstep>
  <scstep>
   <time name="diag">    0.09    0.09</time>
   <time name="diis">    0.31    0.31</time>
   <time name="orth">    0.01    0.01</time>
   <time name="total">    0.58    0.59</time>
   <energy>
    <i name="e_fr_energy">   -100.75261915 </i>
[...]
  </energy>
  <time name="totalsc">    2.85    2.87</time>
  <eigenvalues>
   <array>
    <dimension dim="1">band</dimension>
    <dimension dim="2">kpoint</dimension>
    <dimension dim="3">spin</dimension>
    <field>eigene</field>
    <field>occ</field>
    <set>
     <set comment="spin 1">
      <set comment="kpoint 1">
       <r>   -3.1500    1.0000 </r>
       <r>   -1.2672    1.0000 </r>
       <r>   -1.2672    1.0000 </r>
       <r>   -0.7214    1.0000 </r>
       <r>   -0.7179    1.0000 </r>
       <r>   -0.7179    1.0000 </r>
       <r>   -0.7179    1.0000 </r>
       <r>    0.7068    1.0000 </r>
       <r>    0.7068    1.0000 </r>
       <r>    1.2200    1.0000 </r>
       <r>    1.2200    1.0000 </r>
       <r>    1.2200    1.0000 </r>
       <r>    1.5837    1.0000 </r>
       <r>    1.5837    1.0000 </r>
       <r>    1.5837    1.0000 </r>
       <r>    1.6796    1.0000 </r>
       <r>    1.6796    1.0000 </r>
       <r>    1.6796    1.0000 </r>
       <r>    1.8013    1.0000 </r>
       <r>    3.1337    1.0000 </r>
       <r>    3.5981    1.0000 </r>
       <r>    3.5981    1.0000 </r>
       <r>    3.5981    1.0000 </r>
       <r>    3.6929    1.0000 </r>
       <r>    3.6929    1.0000 </r>
       <r>    3.6929    1.0000 </r>
       <r>    3.9024    1.0000 </r>
       <r>    5.1425    1.0000 </r>
       <r>    5.1425    1.0000 </r>
       <r>    5.1425    1.0000 </r>
       <r>    6.1202    1.0000 </r>
       <r>    6.5017    1.0000 </r>
       <r>    6.5017    1.0000 </r>
       <r>    6.6731    1.0000 </r>
       <r>    6.6731    1.0000 </r>
       <r>    6.6731    1.0000 </r>
       <r>    7.1884    1.0000 </r>
       <r>    7.1884    1.0000 </r>
       <r>    7.1884    1.0000 </r>
       <r>    7.4620    1.0000 </r>
       <r>    7.4620    1.0000 </r>
       <r>    7.4620    1.0000 </r>
       <r>    7.4914    1.0000 </r>
       <r>    7.4914    1.0000 </r>
       <r>    7.4914    1.0000 </r>
       <r>    7.5797    1.0000 </r>
       <r>    7.5797    1.0000 </r>
       <r>    8.3278    0.9126 </r>
       <r>    8.4689    0.3977 </r>
       <r>    8.4689    0.3977 </r>
       <r>    8.4689    0.3977 </r>
       <r>    8.6635   -0.0324 </r>
       <r>    8.6842   -0.0353 </r>
       <r>    8.6842   -0.0353 </r>
       <r>    8.9556   -0.0009 </r>
       <r>    8.9556   -0.0009 </r>
       <r>    8.9556   -0.0009 </r>
       <r>    9.1611    0.0000 </r>
       <r>    9.1611    0.0000 </r>
       <r>    9.1611    0.0000 </r>
       <r>    9.3673    0.0000 </r>
       <r>    9.3673    0.0000 </r>
       <r>    9.4345    0.0000 </r>
       <r>    9.4345    0.0000 </r>
       <r>    9.4345    0.0000 </r>
       <r>    9.7375    0.0000 </r>
       <r>    9.7375    0.0000 </r>
       <r>    9.7375    0.0000 </r>
       <r>    9.8078    0.0000 </r>
       <r>   10.0253    0.0000 </r>
       <r>   10.0253    0.0000 </r>
       <r>   10.8791    0.0000 </r>
       <r>   10.8791    0.0000 </r>
       <r>   10.8791    0.0000 </r>
       <r>   10.9109    0.0000 </r>
       <r>   10.9109    0.0000 </r>
       <r>   10.9109    0.0000 </r>
       <r>   11.0774    0.0000 </r>
       <r>   11.0774    0.0000 </r>
       <r>   11.0774    0.0000 </r>
       <r>   12.1191    0.0000 </r>
       <r>   13.3700    0.0000 </r>
       <r>   13.3700    0.0000 </r>
       <r>   13.3700    0.0000 </r>
       <r>   13.6411    0.0000 </r>
       <r>   13.6411    0.0000 </r>
       <r>   13.6411    0.0000 </r>
       <r>   13.9061    0.0000 </r>
       <r>   13.9061    0.0000 </r>
       <r>   13.9061    0.0000 </r>
       <r>   15.2426    0.0000 </r>
       <r>   15.2491    0.0000 </r>
       <r>   15.2718    0.0000 </r>
       <r>   15.3746    0.0000 </r>
       <r>   15.3748    0.0000 </r>
       <r>   15.3791    0.0000 </r>
      </set>
     </set>
    </set>
   </array>
  </eigenvalues>
  <separator name="orbital magnetization" >
   <v name="MAGDIPOLOUT">      0.00000000      0.00000000      0.00000000</v>
  </separator>
  <dos>
   <i name="efermi">      8.44455289 </i>
   <total>
    <array>
     <dimension dim="1">gridpoints</dimension>
     <dimension dim="2">spin</dimension>
     <field>energy</field>
     <field>total</field>
     <field>integrated</field>
     <set>
      <set comment="spin 1">
       <r>  -5.1500   0.0000   0.0000 </r>
       <r>  -5.0749   0.0000   0.0000 </r>
       <r>  -4.9998   0.0000   0.0000 </r>
       <r>  -4.9247   0.0000   0.0000 </r>
       <r>  -4.8496   0.0000   0.0000 </r>
       <r>  -4.7745   0.0000   0.0000 </r>
       <r>  -4.6994   0.0000   0.0000 </r>
       <r>  -4.6243   0.0000   0.0000 </r>
       <r>  -4.5492   0.0000   0.0000 </r>
       <r>  -4.4741   0.0000   0.0000 </r>
       <r>  -4.3990   0.0000   0.0000 </r>
       <r>  -4.3239   0.0000   0.0000 </r>
       <r>  -4.2488   0.0000   0.0000 </r>
       <r>  -4.1737   0.0000   0.0000 </r>
       <r>  -4.0986   0.0000   0.0000 </r>
       <r>  -4.0235   0.0000   0.0000 </r>
       <r>  -3.9484   0.0000   0.0000 </r>
       <r>  -3.8733   0.0000   0.0000 </r>
       <r>  -3.7983  -0.0006   0.0000 </r>
       <r>  -3.7232  -0.0046  -0.0004 </r>
       <r>  -3.6481  -0.0270  -0.0024 </r>
       <r>  -3.5730  -0.1122  -0.0108 </r>
       <r>  -3.4979  -0.3048  -0.0337 </r>
       <r>  -3.4228  -0.4299  -0.0660 </r>
       <r>  -3.3477   0.2431  -0.0478 </r>
       <r>  -3.2726   2.6143   0.1486 </r>
       <r>  -3.1975   6.1506   0.6105 </r>
       <r>  -3.1224   8.2665   1.2312 </r>
       <r>  -3.0473   6.9732   1.7549 </r>
       <r>  -2.9722   3.5155   2.0189 </r>
       <r>  -2.8971   0.6864   2.0705 </r>
       <r>  -2.8220  -0.3728   2.0425 </r>
       <r>  -2.7469  -0.3629   2.0152 </r>
       <r>  -2.6718  -0.1530   2.0037 </r>
       <r>  -2.5967  -0.0409   2.0006 </r>
       <r>  -2.5216  -0.0075   2.0001 </r>
       <r>  -2.4465  -0.0010   2.0000 </r>
       <r>  -2.3714  -0.0001   2.0000 </r>
       <r>  -2.2963   0.0000   2.0000 </r>
       <r>  -2.2212   0.0000   2.0000 </r>
       <r>  -2.1461   0.0000   2.0000 </r>
       <r>  -2.0710   0.0000   2.0000 </r>
       <r>  -1.9959  -0.0001   2.0000 </r>
       <r>  -1.9208  -0.0009   1.9999 </r>
       <r>  -1.8457  -0.0079   1.9993 </r>
       <r>  -1.7706  -0.0482   1.9957 </r>
       <r>  -1.6955  -0.2054   1.9803 </r>
       <r>  -1.6204  -0.5775   1.9369 </r>
       <r>  -1.5453  -0.8704   1.8715 </r>
       <r>  -1.4702   0.2925   1.8935 </r>
       <r>  -1.3952   4.7737   2.2520 </r>
       <r>  -1.3201  11.8109   3.1390 </r>
       <r>  -1.2450  16.3855   4.3695 </r>
       <r>  -1.1699  14.0623   5.4255 </r>
       <r>  -1.0948   6.6501   5.9249 </r>
       <r>  -1.0197  -0.0365   5.9222 </r>
       <r>  -0.9446  -1.3730   5.8190 </r>
       <r>  -0.8695   5.2824   6.2157 </r>
       <r>  -0.7944  18.9690   7.6402 </r>
       <r>  -0.7193  31.2060   9.9837 </r>
       <r>  -0.6442  31.3806  12.3403 </r>
       <r>  -0.5691  19.5017  13.8048 </r>
       <r>  -0.4940   6.1840  14.2692 </r>
       <r>  -0.4189  -0.6361  14.2214 </r>
       <r>  -0.3438  -1.6994  14.0938 </r>
       <r>  -0.2687  -0.8996  14.0263 </r>
       <r>  -0.1936  -0.2807  14.0052 </r>
       <r>  -0.1185  -0.0592  14.0007 </r>
       <r>  -0.0434  -0.0089  14.0001 </r>
       <r>   0.0317  -0.0014  14.0000 </r>
       <r>   0.1068  -0.0045  13.9996 </r>
       <r>   0.1819  -0.0297  13.9974 </r>
       <r>   0.2570  -0.1408  13.9868 </r>
       <r>   0.3321  -0.4509  13.9530 </r>
       <r>   0.4072  -0.8504  13.8891 </r>
       <r>   0.4823  -0.3145  13.8655 </r>
       <r>   0.5574   3.1040  14.0986 </r>
       <r>   0.6325   9.7616  14.8316 </r>
       <r>   0.7076  15.6502  16.0069 </r>
       <r>   0.7827  15.3765  17.1617 </r>
       <r>   0.8578   8.8463  17.8260 </r>
       <r>   0.9328   1.6929  17.9531 </r>
       <r>   1.0079  -0.3535  17.9266 </r>
       <r>   1.0830   5.1258  18.3115 </r>
       <r>   1.1581  15.6442  19.4863 </r>
       <r>   1.2332  23.0497  21.2173 </r>
       <r>   1.3083  20.3532  22.7457 </r>
       <r>   1.3834  11.7898  23.6311 </r>
       <r>   1.4585  10.1097  24.3903 </r>
       <r>   1.5336  21.8490  26.0311 </r>
       <r>   1.6087  39.0457  28.9633 </r>
       <r>   1.6838  47.2852  32.5143 </r>
       <r>   1.7589  40.3277  35.5428 </r>
       <r>   1.8340  24.4665  37.3801 </r>
       <r>   1.9091   9.8409  38.1192 </r>
       <r>   1.9842   1.5428  38.2350 </r>
       <r>   2.0593  -1.1693  38.1472 </r>
       <r>   2.1344  -1.1585  38.0602 </r>
       <r>   2.2095  -0.5657  38.0177 </r>
       <r>   2.2846  -0.1847  38.0038 </r>
       <r>   2.3597  -0.0430  38.0006 </r>
       <r>   2.4348  -0.0074  38.0001 </r>
       <r>   2.5099  -0.0020  37.9999 </r>
       <r>   2.5850  -0.0085  37.9993 </r>
       <r>   2.6601  -0.0448  37.9959 </r>
       <r>   2.7352  -0.1635  37.9836 </r>
       <r>   2.8103  -0.3752  37.9555 </r>
       <r>   2.8854  -0.3502  37.9292 </r>
       <r>   2.9605   0.8049  37.9896 </r>
       <r>   3.0356   3.7130  38.2684 </r>
       <r>   3.1107   7.0293  38.7963 </r>
       <r>   3.1858   7.7642  39.3794 </r>
       <r>   3.2609   4.6459  39.7283 </r>
       <r>   3.3359   0.3594  39.7553 </r>
       <r>   3.4110   0.2056  39.7707 </r>
       <r>   3.4861   8.9434  40.4423 </r>
       <r>   3.5612  25.8943  42.3869 </r>
       <r>   3.6363  41.5845  45.5098 </r>
       <r>   3.7114  44.5452  48.8550 </r>
       <r>   3.7865  33.8822  51.3994 </r>
       <r>   3.8616  19.5943  52.8709 </r>
       <r>   3.9367   9.8662  53.6118 </r>
       <r>   4.0118   4.7426  53.9680 </r>
       <r>   4.0869   1.6510  54.0919 </r>
       <r>   4.1620  -0.1009  54.0844 </r>
       <r>   4.2371  -0.5636  54.0420 </r>
       <r>   4.3122  -0.3743  54.0139 </r>
       <r>   4.3873  -0.1423  54.0033 </r>
       <r>   4.4624  -0.0366  54.0005 </r>
       <r>   4.5375  -0.0122  53.9996 </r>
       <r>   4.6126  -0.0406  53.9965 </r>
       <r>   4.6877  -0.1929  53.9820 </r>
       <r>   4.7628  -0.6352  53.9343 </r>
       <r>   4.8379  -1.2521  53.8403 </r>
       <r>   4.9130  -0.6253  53.7934 </r>
       <r>   4.9881   4.1457  54.1047 </r>
       <r>   5.0632  13.9346  55.1511 </r>
       <r>   5.1383  23.1934  56.8929 </r>
       <r>   5.2134  23.8012  58.6803 </r>
       <r>   5.2885  15.1662  59.8192 </r>
       <r>   5.3636   5.0350  60.1973 </r>
       <r>   5.4387  -0.3511  60.1710 </r>
       <r>   5.5138  -1.2910  60.0740 </r>
       <r>   5.5889  -0.7189  60.0200 </r>
       <r>   5.6639  -0.2876  59.9984 </r>
       <r>   5.7390  -0.2561  59.9792 </r>
       <r>   5.8141  -0.4224  59.9475 </r>
       <r>   5.8892  -0.2264  59.9305 </r>
       <r>   5.9643   1.3103  60.0289 </r>
       <r>   6.0394   4.4591  60.3637 </r>
       <r>   6.1145   7.2882  60.9111 </r>
       <r>   6.1896   7.0491  61.4404 </r>
       <r>   6.2647   4.1546  61.7524 </r>
       <r>   6.3398   2.9699  61.9755 </r>
       <r>   6.4149   7.2830  62.5224 </r>
       <r>   6.4900  16.2730  63.7444 </r>
       <r>   6.5651  25.7126  65.6754 </r>
       <r>   6.6402  31.0223  68.0051 </r>
       <r>   6.7153  28.6408  70.1559 </r>
       <r>   6.7904  18.6102  71.5535 </r>
       <r>   6.8655   6.5290  72.0438 </r>
       <r>   6.9406  -0.5834  72.0000 </r>
       <r>   7.0157   0.6655  72.0499 </r>
       <r>   7.0908   9.0224  72.7275 </r>
       <r>   7.1659  18.4495  74.1130 </r>
       <r>   7.2410  22.4859  75.8016 </r>
       <r>   7.3161  24.2215  77.6206 </r>
       <r>   7.3912  34.1274  80.1834 </r>
       <r>   7.4663  51.4913  84.0503 </r>
       <r>   7.5414  59.7159  88.5347 </r>
       <r>   7.6165  47.7724  92.1223 </r>
       <r>   7.6916  24.5754  93.9678 </r>
       <r>   7.7667   6.0678  94.4235 </r>
       <r>   7.8418  -1.6676  94.2983 </r>
       <r>   7.9169  -2.5013  94.1104 </r>
       <r>   7.9919  -1.6562  93.9860 </r>
       <r>   8.0670  -1.2584  93.8915 </r>
       <r>   8.1421  -0.7259  93.8370 </r>
       <r>   8.2172   1.8571  93.9765 </r>
       <r>   8.2923   8.2204  94.5938 </r>
       <r>   8.3674  17.7950  95.9302 </r>
       <r>   8.4425  26.7567  97.9395 </r>
       <r>   8.5176  31.1477 100.2786 </r>
       <r>   8.5927  31.0627 102.6113 </r>
       <r>   8.6678  28.5489 104.7552 </r>
       <r>   8.7429  23.9762 106.5558 </r>
       <r>   8.8180  19.5016 108.0203 </r>
       <r>   8.8931  19.7275 109.5017 </r>
       <r>   8.9682  24.3710 111.3319 </r>
       <r>   9.0433  28.2823 113.4558 </r>
       <r>   9.1184  29.1327 115.6436 </r>
       <r>   9.1935  28.5920 117.7908 </r>
       <r>   9.2686  29.7587 120.0256 </r>
       <r>   9.3437  34.5732 122.6219 </r>
       <r>   9.4188  38.4185 125.5070 </r>
       <r>   9.4939  33.6304 128.0325 </r>
       <r>   9.5690  23.0346 129.7624 </r>
       <r>   9.6441  18.8195 131.1757 </r>
       <r>   9.7192  24.4260 133.0100 </r>
       <r>   9.7943  29.6273 135.2349 </r>
       <r>   9.8694  26.9228 137.2567 </r>
       <r>   9.9445  20.9803 138.8323 </r>
       <r>  10.0196  17.5779 140.1523 </r>
       <r>  10.0947  14.6165 141.2500 </r>
       <r>  10.1698   8.9907 141.9251 </r>
       <r>  10.2449   2.9154 142.1441 </r>
       <r>  10.3200  -0.3793 142.1156 </r>
       <r>  10.3950  -1.0576 142.0362 </r>
       <r>  10.4701  -1.1582 141.9492 </r>
       <r>  10.5452  -1.9864 141.8000 </r>
       <r>  10.6203  -2.7121 141.5963 </r>
       <r>  10.6954   0.8677 141.6615 </r>
       <r>  10.7705  14.1507 142.7242 </r>
       <r>  10.8456  35.5226 145.3918 </r>
       <r>  10.9207  52.9344 149.3670 </r>
       <r>  10.9958  55.5409 153.5380 </r>
       <r>  11.0709  44.7340 156.8973 </r>
       <r>  11.1460  28.6176 159.0464 </r>
       <r>  11.2211  13.4623 160.0574 </r>
       <r>  11.2962   3.1019 160.2903 </r>
       <r>  11.3713  -1.2260 160.1983 </r>
       <r>  11.4464  -1.5620 160.0810 </r>
       <r>  11.5215  -0.7790 160.0225 </r>
       <r>  11.5966  -0.2572 160.0032 </r>
       <r>  11.6717  -0.1252 159.9938 </r>
       <r>  11.7468  -0.2401 159.9757 </r>
       <r>  11.8219  -0.4293 159.9435 </r>
       <r>  11.8970  -0.1300 159.9337 </r>
       <r>  11.9721   1.6386 160.0568 </r>
       <r>  12.0472   5.0024 160.4325 </r>
       <r>  12.1223   7.9098 161.0265 </r>
       <r>  12.1974   7.7597 161.6092 </r>
       <r>  12.2725   4.6982 161.9620 </r>
       <r>  12.3476   1.4190 162.0686 </r>
       <r>  12.4227  -0.1976 162.0537 </r>
       <r>  12.4978  -0.4192 162.0222 </r>
       <r>  12.5729  -0.2147 162.0061 </r>
       <r>  12.6480  -0.0658 162.0012 </r>
       <r>  12.7230  -0.0153 162.0000 </r>
       <r>  12.7981  -0.0161 161.9988 </r>
       <r>  12.8732  -0.0836 161.9925 </r>
       <r>  12.9483  -0.3439 161.9667 </r>
       <r>  13.0234  -0.9300 161.8969 </r>
       <r>  13.0985  -1.3135 161.7982 </r>
       <r>  13.1736   0.6505 161.8471 </r>
       <r>  13.2487   7.4705 162.4081 </r>
       <r>  13.3238  17.4369 163.7175 </r>
       <r>  13.3989  23.8184 165.5062 </r>
       <r>  13.4740  23.4286 167.2656 </r>
       <r>  13.5491  21.6158 168.8889 </r>
       <r>  13.6242  22.7095 170.5943 </r>
       <r>  13.6993  23.5868 172.3656 </r>
       <r>  13.7744  22.5985 174.0627 </r>
       <r>  13.8495  23.2548 175.8091 </r>
       <r>  13.9246  24.5899 177.6557 </r>
       <r>  13.9997  20.5681 179.2003 </r>
       <r>  14.0748  11.0331 180.0288 </r>
       <r>  14.1499   2.5245 180.2184 </r>
       <r>  14.2250  -1.0331 180.1408 </r>
       <r>  14.3001  -1.1708 180.0529 </r>
       <r>  14.3752  -0.5249 180.0135 </r>
       <r>  14.4503  -0.1470 180.0024 </r>
       <r>  14.5254  -0.0284 180.0003 </r>
       <r>  14.6005  -0.0054 179.9999 </r>
       <r>  14.6756  -0.0130 179.9989 </r>
       <r>  14.7507  -0.0771 179.9931 </r>
       <r>  14.8258  -0.3351 179.9680 </r>
       <r>  14.9009  -0.9932 179.8934 </r>
       <r>  14.9760  -1.7583 179.7613 </r>
       <r>  15.0511  -0.6231 179.7145 </r>
       <r>  15.1261   6.0970 180.1724 </r>
       <r>  15.2012  19.9120 181.6677 </r>
       <r>  15.2763  35.4574 184.3305 </r>
       <r>  15.3514  42.6833 187.5359 </r>
       <r>  15.4265  36.1207 190.2484 </r>
       <r>  15.5016  20.6634 191.8002 </r>
       <r>  15.5767   6.4924 192.2877 </r>
       <r>  15.6518  -0.5558 192.2460 </r>
       <r>  15.7269  -1.8029 192.1106 </r>
       <r>  15.8020  -1.0295 192.0333 </r>
       <r>  15.8771  -0.3482 192.0071 </r>
       <r>  15.9522  -0.0800 192.0011 </r>
       <r>  16.0273  -0.0131 192.0001 </r>
       <r>  16.1024  -0.0016 192.0000 </r>
       <r>  16.1775  -0.0001 192.0000 </r>
       <r>  16.2526   0.0000 192.0000 </r>
       <r>  16.3277   0.0000 192.0000 </r>
       <r>  16.4028   0.0000 192.0000 </r>
       <r>  16.4779   0.0000 192.0000 </r>
       <r>  16.5530   0.0000 192.0000 </r>
       <r>  16.6281   0.0000 192.0000 </r>
       <r>  16.7032   0.0000 192.0000 </r>
       <r>  16.7783   0.0000 192.0000 </r>
       <r>  16.8534   0.0000 192.0000 </r>
       <r>  16.9285   0.0000 192.0000 </r>
       <r>  17.0036   0.0000 192.0000 </r>
       <r>  17.0787   0.0000 192.0000 </r>
       <r>  17.1538   0.0000 192.0000 </r>
       <r>  17.2289   0.0000 192.0000 </r>
       <r>  17.3040   0.0000 192.0000 </r>
       <r>  17.3791   0.0000 192.0000 </r>
      </set>
     </set>
    </array>
   </total>
  </dos>
 </calculation>
 <structure name="finalpos" >
  <crystal>
   <varray name="basis" >
    <v>       8.08704000       0.00000000       0.00000000 </v>
    <v>       0.00000000       8.08704000       0.00000000 </v>
    <v>       0.00000000       0.00000000       8.08704000 </v>
   </varray>
   <i name="volume">    528.89416249 </i>
   <varray name="rec_basis" >
    <v>       0.12365464       0.00000000       0.00000000 </v>
    <v>       0.00000000       0.12365464       0.00000000 </v>
    <v>       0.00000000       0.00000000       0.12365464 </v>
   </varray>
  </crystal>
  <varray name="positions" >
   <v>       0.00000000       0.00000000       0.02138723 </v>
   <v>       0.22861277       0.00000000       0.25000000 </v>
   <v>       0.24055067       0.24055067       0.00944933 </v>
   <v>       0.00000000       0.22861277       0.25000000 </v>
   <v>       0.50000000       0.00000000       0.02564513 </v>
   <v>       0.77138723       0.00000000       0.25000000 </v>
   <v>       0.75944933       0.24055067       0.00944933 </v>
   <v>       0.50000000       0.22435487       0.25000000 </v>
   <v>       0.00000000       0.50000000       0.02564513 </v>
   <v>       0.22435487       0.50000000       0.25000000 </v>
   <v>       0.24055067       0.75944933       0.00944933 </v>
   <v>       0.00000000       0.77138723       0.25000000 </v>
   <v>       0.50000000       0.50000000       0.08301639 </v>
   <v>       0.77564513       0.50000000       0.25000000 </v>
   <v>       0.75944933       0.75944933       0.00944933 </v>
   <v>       0.50000000       0.77564513       0.25000000 </v>
   <v>       0.00000000       0.00000000       0.47861277 </v>
   <v>       0.22435487       0.00000000       0.75000000 </v>
   <v>       0.24055067       0.24055067       0.49055067 </v>
   <v>       0.00000000       0.22435487       0.75000000 </v>
   <v>       0.50000000       0.00000000       0.47435487 </v>
   <v>       0.77564513       0.00000000       0.75000000 </v>
   <v>       0.75944933       0.24055067       0.49055067 </v>
   <v>       0.50000000       0.16698361       0.75000000 </v>
   <v>       0.00000000       0.50000000       0.47435487 </v>
   <v>       0.16698361       0.50000000       0.75000000 </v>
   <v>       0.24055067       0.75944933       0.49055067 </v>
   <v>       0.00000000       0.77564513       0.75000000 </v>
   <v>       0.50000000       0.50000000       0.41698361 </v>
   <v>       0.83301639       0.50000000       0.75000000 </v>
   <v>       0.75944933       0.75944933       0.49055067 </v>
   <v>       0.50000000       0.83301639       0.75000000 </v>
   <v>       0.50000000       0.50000000       0.75000000 </v>
  </varray>
 </structure>
</modeling>
