  31  31   0   0
  0.1706119E+02  0.8087054E-09  0.8087054E-09  0.8087054E-09  0.5000000E-15
  1.000000000000000E-004
  CAR 
 unknown system                          
     11.22570988     -5.45489131  301      7.71859142      1.00000000
     -5.455  0.0000E+00  0.0000E+00
     -5.399  0.0000E+00  0.0000E+00
     -5.344  0.0000E+00  0.0000E+00
     -5.288  0.0000E+00  0.0000E+00
     -5.232  0.0000E+00  0.0000E+00
     -5.177  0.0000E+00  0.0000E+00
     -5.121  0.0000E+00  0.0000E+00
     -5.066 -0.2887E-28 -0.1605E-29
     -5.010 -0.2243E-26 -0.1263E-27
     -4.954 -0.1508E-24 -0.8509E-26
     -4.899 -0.8665E-23 -0.4903E-24
     -4.843 -0.4259E-21 -0.2417E-22
     -4.788 -0.1790E-19 -0.1019E-20
     -4.732 -0.6428E-18 -0.3676E-19
     -4.676 -0.1973E-16 -0.1134E-17
     -4.621 -0.5068E-15 -0.2932E-16
     -4.565 -0.1121E-13 -0.6524E-15
     -4.510 -0.2135E-12 -0.1252E-13
     -4.454 -0.3467E-11 -0.2053E-12
     -4.398 -0.4796E-10 -0.2872E-11
     -4.343 -0.5648E-09 -0.3427E-10
     -4.287 -0.5654E-08 -0.3486E-09
     -4.232 -0.4804E-07 -0.3020E-08
     -4.176 -0.3459E-06 -0.2225E-07
     -4.120 -0.2104E-05 -0.1393E-06
     -4.065 -0.1078E-04 -0.7385E-06
     -4.009 -0.4623E-04 -0.3309E-05
     -3.954 -0.1647E-03 -0.1247E-04
     -3.898 -0.4814E-03 -0.3924E-04
     -3.842 -0.1126E-02 -0.1018E-03
     -3.787 -0.1998E-02 -0.2129E-03
     -3.731 -0.2276E-02 -0.3395E-03
     -3.676 -0.7349E-04 -0.3436E-03
     -3.620  0.6871E-02  0.3847E-04
     -3.564  0.1906E-01  0.1098E-02
     -3.509  0.3312E-01  0.2940E-02
     -3.453  0.4262E-01  0.5310E-02
     -3.398  0.4230E-01  0.7662E-02
     -3.342  0.3234E-01  0.9460E-02
     -3.286  0.1822E-01  0.1047E-01
     -3.231  0.6294E-02  0.1082E-01
     -3.175 -0.3206E-03  0.1080E-01
     -3.120 -0.2306E-02  0.1068E-01
     -3.064 -0.1949E-02  0.1057E-01
     -3.008 -0.1077E-02  0.1051E-01
     -2.953 -0.4541E-03  0.1048E-01
     -2.897 -0.1535E-03  0.1047E-01
     -2.842 -0.4257E-04  0.1047E-01
     -2.786 -0.9817E-05  0.1047E-01
     -2.730 -0.1897E-05  0.1047E-01
     -2.675 -0.3086E-06  0.1047E-01
     -2.619 -0.4244E-07  0.1047E-01
     -2.564 -0.4945E-08  0.1047E-01
     -2.508 -0.4891E-09  0.1047E-01
     -2.452 -0.4121E-10  0.1047E-01
     -2.397 -0.4201E-11  0.1047E-01
     -2.341 -0.1944E-10  0.1047E-01
     -2.286 -0.2517E-09  0.1047E-01
     -2.230 -0.2802E-08  0.1047E-01
     -2.174 -0.2654E-07  0.1047E-01
     -2.119 -0.2136E-06  0.1047E-01
     -2.063 -0.1458E-05  0.1047E-01
     -2.008 -0.8424E-05  0.1047E-01
     -1.952 -0.4107E-04  0.1047E-01
     -1.896 -0.1682E-03  0.1046E-01
     -1.841 -0.5741E-03  0.1043E-01
     -1.785 -0.1615E-02  0.1034E-01
     -1.730 -0.3660E-02  0.1013E-01
     -1.674 -0.6359E-02  0.9780E-02
     -1.618 -0.7253E-02  0.9377E-02
     -1.563 -0.8175E-03  0.9331E-02
     -1.507  0.1980E-01  0.1043E-01
     -1.452  0.5726E-01  0.1362E-01
     -1.396  0.1041E+00  0.1941E-01
     -1.340  0.1433E+00  0.2737E-01
     -1.285  0.1581E+00  0.3616E-01
     -1.229  0.1440E+00  0.4417E-01
     -1.174  0.1122E+00  0.5041E-01
     -1.118  0.7913E-01  0.5481E-01
     -1.062  0.5490E-01  0.5786E-01
     -1.007  0.3937E-01  0.6005E-01
     -0.951  0.2911E-01  0.6167E-01
     -0.896  0.2393E-01  0.6300E-01
     -0.840  0.2585E-01  0.6444E-01
     -0.784  0.3349E-01  0.6630E-01
     -0.729  0.4033E-01  0.6854E-01
     -0.673  0.3962E-01  0.7074E-01
     -0.618  0.3016E-01  0.7242E-01
     -0.562  0.1676E-01  0.7335E-01
     -0.506  0.5511E-02  0.7366E-01
     -0.451 -0.6179E-03  0.7363E-01
     -0.395 -0.2343E-02  0.7350E-01
     -0.340 -0.1901E-02  0.7339E-01
     -0.284 -0.1029E-02  0.7333E-01
     -0.228 -0.4274E-03  0.7331E-01
     -0.173 -0.1426E-03  0.7330E-01
     -0.117 -0.3911E-04  0.7330E-01
     -0.061 -0.8936E-05  0.7330E-01
     -0.006 -0.1838E-05  0.7330E-01
      0.050 -0.1182E-05  0.7330E-01
      0.105 -0.5308E-05  0.7330E-01
      0.161 -0.2597E-04  0.7330E-01
      0.217 -0.1083E-03  0.7329E-01
      0.272 -0.3803E-03  0.7327E-01
      0.328 -0.1117E-02  0.7321E-01
      0.383 -0.2705E-02  0.7306E-01
      0.439 -0.5252E-02  0.7276E-01
      0.495 -0.7592E-02  0.7234E-01
      0.550 -0.6054E-02  0.7201E-01
      0.606  0.5619E-02  0.7232E-01
      0.661  0.3348E-01  0.7418E-01
      0.717  0.7814E-01  0.7852E-01
      0.773  0.1312E+00  0.8582E-01
      0.828  0.1780E+00  0.9572E-01
      0.884  0.2068E+00  0.1072E+00
      0.939  0.2154E+00  0.1192E+00
      0.995  0.2093E+00  0.1308E+00
      1.051  0.1953E+00  0.1417E+00
      1.106  0.1769E+00  0.1515E+00
      1.162  0.1547E+00  0.1601E+00
      1.217  0.1285E+00  0.1673E+00
      1.273  0.9770E-01  0.1727E+00
      1.329  0.6383E-01  0.1763E+00
      1.384  0.3197E-01  0.1780E+00
      1.440  0.9335E-02  0.1785E+00
      1.495  0.1037E-02  0.1786E+00
      1.551  0.6951E-02  0.1790E+00
      1.607  0.2145E-01  0.1802E+00
      1.662  0.3556E-01  0.1822E+00
      1.718  0.4108E-01  0.1844E+00
      1.773  0.3540E-01  0.1864E+00
      1.829  0.2342E-01  0.1877E+00
      1.885  0.1425E-01  0.1885E+00
      1.940  0.1472E-01  0.1893E+00
      1.996  0.2456E-01  0.1907E+00
      2.051  0.3667E-01  0.1927E+00
      2.107  0.4233E-01  0.1951E+00
      2.163  0.3747E-01  0.1972E+00
      2.218  0.2497E-01  0.1986E+00
      2.274  0.1150E-01  0.1992E+00
      2.329  0.2220E-02  0.1993E+00
      2.385 -0.1778E-02  0.1992E+00
      2.441 -0.2287E-02  0.1991E+00
      2.496 -0.1539E-02  0.1990E+00
      2.552 -0.8619E-03  0.1990E+00
      2.607 -0.7156E-03  0.1989E+00
      2.663 -0.1196E-02  0.1989E+00
      2.719 -0.2228E-02  0.1987E+00
      2.774 -0.3281E-02  0.1986E+00
      2.830 -0.2946E-02  0.1984E+00
      2.885  0.9204E-03  0.1984E+00
      2.941  0.1021E-01  0.1990E+00
      2.997  0.2568E-01  0.2004E+00
      3.052  0.4734E-01  0.2031E+00
      3.108  0.7550E-01  0.2073E+00
      3.163  0.1095E+00  0.2134E+00
      3.219  0.1445E+00  0.2214E+00
      3.275  0.1701E+00  0.2308E+00
      3.330  0.1753E+00  0.2406E+00
      3.386  0.1559E+00  0.2493E+00
      3.441  0.1177E+00  0.2558E+00
      3.497  0.7290E-01  0.2599E+00
      3.553  0.3497E-01  0.2618E+00
      3.608  0.1311E-01  0.2625E+00
      3.664  0.9736E-02  0.2631E+00
      3.719  0.1995E-01  0.2642E+00
      3.775  0.3373E-01  0.2661E+00
      3.831  0.4100E-01  0.2683E+00
      3.886  0.3710E-01  0.2704E+00
      3.942  0.2474E-01  0.2718E+00
      3.997  0.1059E-01  0.2724E+00
      4.053  0.2994E-03  0.2724E+00
      4.109 -0.3786E-02  0.2722E+00
      4.164 -0.1280E-02  0.2721E+00
      4.220  0.7655E-02  0.2725E+00
      4.275  0.2138E-01  0.2737E+00
      4.331  0.3510E-01  0.2757E+00
      4.387  0.4192E-01  0.2780E+00
      4.442  0.3744E-01  0.2801E+00
      4.498  0.2383E-01  0.2814E+00
      4.553  0.9645E-02  0.2819E+00
      4.609  0.5725E-02  0.2823E+00
      4.665  0.1981E-01  0.2834E+00
      4.720  0.5171E-01  0.2862E+00
      4.776  0.9078E-01  0.2913E+00
      4.831  0.1192E+00  0.2979E+00
      4.887  0.1223E+00  0.3047E+00
      4.943  0.9845E-01  0.3102E+00
      4.998  0.6035E-01  0.3135E+00
      5.054  0.2510E-01  0.3149E+00
      5.109  0.3088E-02  0.3151E+00
      5.165 -0.5402E-02  0.3148E+00
      5.221 -0.5829E-02  0.3145E+00
      5.276 -0.3648E-02  0.3143E+00
      5.332 -0.1699E-02  0.3142E+00
      5.387 -0.6333E-03  0.3141E+00
      5.443 -0.2111E-03  0.3141E+00
      5.499 -0.1291E-03  0.3141E+00
      5.554 -0.2770E-03  0.3141E+00
      5.610 -0.7190E-03  0.3141E+00
      5.666 -0.1528E-02  0.3140E+00
      5.721 -0.2413E-02  0.3139E+00
      5.777 -0.2220E-02  0.3137E+00
      5.832  0.1111E-02  0.3138E+00
      5.888  0.9401E-02  0.3143E+00
      5.944  0.2224E-01  0.3156E+00
      5.999  0.3624E-01  0.3176E+00
      6.055  0.4721E-01  0.3202E+00
      6.110  0.5348E-01  0.3232E+00
      6.166  0.5671E-01  0.3263E+00
      6.222  0.5902E-01  0.3296E+00
      6.277  0.6021E-01  0.3329E+00
      6.333  0.5858E-01  0.3362E+00
      6.388  0.5451E-01  0.3392E+00
      6.444  0.5328E-01  0.3422E+00
      6.500  0.6354E-01  0.3457E+00
      6.555  0.9131E-01  0.3508E+00
      6.611  0.1338E+00  0.3582E+00
      6.666  0.1782E+00  0.3682E+00
      6.722  0.2081E+00  0.3797E+00
      6.778  0.2129E+00  0.3916E+00
      6.833  0.1941E+00  0.4024E+00
      6.889  0.1633E+00  0.4114E+00
      6.944  0.1326E+00  0.4188E+00
      7.000  0.1077E+00  0.4248E+00
      7.056  0.8865E-01  0.4297E+00
      7.111  0.7575E-01  0.4339E+00
      7.167  0.7196E-01  0.4379E+00
      7.222  0.7954E-01  0.4424E+00
      7.278  0.9501E-01  0.4476E+00
      7.334  0.1092E+00  0.4537E+00
      7.389  0.1134E+00  0.4600E+00
      7.445  0.1052E+00  0.4659E+00
      7.500  0.8872E-01  0.4708E+00
      7.556  0.6925E-01  0.4747E+00
      7.612  0.5103E-01  0.4775E+00
      7.667  0.3897E-01  0.4797E+00
      7.723  0.3973E-01  0.4819E+00
      7.778  0.5724E-01  0.4850E+00
      7.834  0.8677E-01  0.4899E+00
      7.890  0.1157E+00  0.4963E+00
      7.945  0.1325E+00  0.5037E+00
      8.001  0.1341E+00  0.5111E+00
      8.056  0.1248E+00  0.5181E+00
      8.112  0.1088E+00  0.5241E+00
      8.168  0.8652E-01  0.5289E+00
      8.223  0.5871E-01  0.5322E+00
      8.279  0.2920E-01  0.5338E+00
      8.334  0.3868E-02  0.5340E+00
      8.390 -0.1245E-01  0.5333E+00
      8.446 -0.1524E-01  0.5325E+00
      8.501  0.2294E-02  0.5326E+00
      8.557  0.4720E-01  0.5352E+00
      8.612  0.1179E+00  0.5418E+00
      8.668  0.1968E+00  0.5527E+00
      8.724  0.2556E+00  0.5669E+00
      8.779  0.2722E+00  0.5821E+00
      8.835  0.2441E+00  0.5957E+00
      8.890  0.1893E+00  0.6062E+00
      8.946  0.1340E+00  0.6136E+00
      9.002  0.9948E-01  0.6192E+00
      9.057  0.9225E-01  0.6243E+00
      9.113  0.1023E+00  0.6300E+00
      9.168  0.1109E+00  0.6361E+00
      9.224  0.1034E+00  0.6419E+00
      9.280  0.7861E-01  0.6463E+00
      9.335  0.4645E-01  0.6488E+00
      9.391  0.1887E-01  0.6499E+00
      9.446  0.2166E-02  0.6500E+00
      9.502 -0.4296E-02  0.6498E+00
      9.558 -0.4709E-02  0.6495E+00
      9.613 -0.3061E-02  0.6493E+00
      9.669 -0.1497E-02  0.6493E+00
      9.724 -0.5877E-03  0.6492E+00
      9.780 -0.1900E-03  0.6492E+00
      9.836 -0.5126E-04  0.6492E+00
      9.891 -0.1162E-04  0.6492E+00
      9.947 -0.2224E-05  0.6492E+00
     10.002 -0.3602E-06  0.6492E+00
     10.058 -0.4950E-07  0.6492E+00
     10.114 -0.5780E-08  0.6492E+00
     10.169 -0.5741E-09  0.6492E+00
     10.225 -0.4855E-10  0.6492E+00
     10.280 -0.3498E-11  0.6492E+00
     10.336 -0.2150E-12  0.6492E+00
     10.392 -0.1125E-13  0.6492E+00
     10.447 -0.5436E-15  0.6492E+00
     10.503  0.0000E+00  0.6492E+00
     10.558  0.0000E+00  0.6492E+00
     10.614  0.0000E+00  0.6492E+00
     10.670  0.0000E+00  0.6492E+00
     10.725  0.0000E+00  0.6492E+00
     10.781  0.0000E+00  0.6492E+00
     10.836  0.0000E+00  0.6492E+00
     10.892  0.0000E+00  0.6492E+00
     10.948  0.0000E+00  0.6492E+00
     11.003  0.0000E+00  0.6492E+00
     11.059  0.0000E+00  0.6492E+00
     11.115  0.0000E+00  0.6492E+00
     11.170  0.0000E+00  0.6492E+00
     11.226  0.0000E+00  0.6492E+00
