   31   31  191    1
  0.1706119E+02  0.8087054E-09  0.8087054E-09  0.8087054E-09  0.5000000E-15
  1.000000000000000E-004
  CAR 
 unknown system                          
   92    1   62
 
  0.0000000E+00  0.0000000E+00  0.0000000E+00  0.1000000E+01
   1       -3.454891
   2       -1.364714
   3       -1.360937
   4       -1.290647
   5       -1.250157
   6       -1.048118
   7       -0.733808
   8        0.745355
   9        0.817976
  10        0.850574
  11        0.861029
  12        0.930684
  13        1.039392
  14        1.043268
  15        1.064136
  16        1.213435
  17        1.242466
  18        1.687549
  19        2.077038
  20        3.057200
  21        3.206729
  22        3.269556
  23        3.271955
  24        3.353897
  25        3.427418
  26        3.802869
  27        4.372345
  28        4.787133
  29        4.850672
  30        4.868627
  31        6.029674
  32        6.227970
  33        6.384619
  34        6.606212
  35        6.613087
  36        6.701856
  37        6.760398
  38        6.764571
  39        6.780230
  40        6.931899
  41        6.973749
  42        7.114566
  43        7.304832
  44        7.317693
  45        7.435875
  46        7.581492
  47        7.852485
  48        7.884648
  49        7.952507
  50        8.080466
  51        8.144798
  52        8.666973
  53        8.687584
  54        8.703168
  55        8.720198
  56        8.732367
  57        8.811747
  58        8.849230
  59        8.905758
  60        9.114049
  61        9.125589
  62        9.225710
