       N       E                     dE             d eps       ncg     rms          rms(c)
RMM:   1     0.304230426054E+03    0.30423E+03   -0.16898E+04    62   0.644E+02
RMM:   2    -0.427502760993E+01   -0.30851E+03   -0.30366E+03    62   0.136E+02
RMM:   3    -0.669200073149E+02   -0.62645E+02   -0.66627E+02    62   0.450E+01
RMM:   4    -0.842631696004E+02   -0.17343E+02   -0.15782E+02    62   0.261E+01
RMM:   5    -0.914788710115E+02   -0.72157E+01   -0.58314E+01    62   0.146E+01
RMM:   6    -0.948467849227E+02   -0.33679E+01   -0.28100E+01    62   0.931E+00
RMM:   7    -0.966500792755E+02   -0.18033E+01   -0.15818E+01    62   0.621E+00
RMM:   8    -0.976916882676E+02   -0.10416E+01   -0.94510E+00    62   0.447E+00
RMM:   9    -0.991252615149E+02   -0.14336E+01   -0.13935E+01   161   0.321E+00
RMM:  10    -0.992978514181E+02   -0.17259E+00   -0.13460E+00   138   0.643E-01
RMM:  11    -0.993143315552E+02   -0.16480E-01   -0.67747E-02   120   0.148E-01
RMM:  12    -0.993150132968E+02   -0.68174E-03   -0.41592E-03   105   0.466E-02    0.652E+00
RMM:  13    -0.981539523446E+02    0.11611E+01   -0.46344E+00   127   0.263E+00    0.388E+00
RMM:  14    -0.979029199116E+02    0.25103E+00   -0.29789E-01   128   0.103E+00    0.228E+00
RMM:  15    -0.977885897697E+02    0.11433E+00   -0.14563E-01   127   0.798E-01    0.475E-01
RMM:  16    -0.977816891500E+02    0.69006E-02   -0.17815E-02   132   0.227E-01    0.157E-01
RMM:  17    -0.977808463438E+02    0.84281E-03   -0.63520E-03   132   0.127E-01    0.541E-02
RMM:  18    -0.977807374863E+02    0.10886E-03   -0.74584E-04   112   0.449E-02    0.246E-02
RMM:  19    -0.977807503996E+02   -0.12913E-04   -0.15825E-04    84   0.238E-02
   1 F= -.97780750E+02 E0= -.97751393E+02  d E =-.977808E+02
       N       E                     dE             d eps       ncg     rms          rms(c)
RMM:   1    -0.978847331291E+02   -0.10400E+00   -0.71920E-01   124   0.229E+00    0.345E-01
RMM:   2    -0.978725277217E+02    0.12205E-01   -0.38281E-02   124   0.392E-01    0.862E-02
RMM:   3    -0.978722547223E+02    0.27300E-03   -0.29170E-03   131   0.101E-01    0.472E-02
RMM:   4    -0.978722169363E+02    0.37786E-04   -0.25726E-04    88   0.339E-02
   2 F= -.97872217E+02 E0= -.97850001E+02  d E =-.914665E-01
       N       E                     dE             d eps       ncg     rms          rms(c)
RMM:   1    -0.981580456941E+02   -0.28579E+00   -0.64432E+00   124   0.684E+00    0.891E-01
RMM:   2    -0.980744054187E+02    0.83640E-01   -0.31215E-01   125   0.112E+00    0.307E-01
RMM:   3    -0.980692063447E+02    0.51991E-02   -0.31412E-02   130   0.333E-01    0.154E-01
RMM:   4    -0.980687324836E+02    0.47386E-03   -0.43670E-03   127   0.122E-01    0.800E-02
RMM:   5    -0.980687261111E+02    0.63725E-05   -0.51690E-04   105   0.467E-02
   3 F= -.98068726E+02 E0= -.98068742E+02  d E =-.287976E+00
       N       E                     dE             d eps       ncg     rms          rms(c)
RMM:   1    -0.982328808310E+02   -0.16415E+00   -0.25098E+01   124   0.135E+01    0.151E+00
RMM:   2    -0.980128750419E+02    0.22001E+00   -0.12254E+00   126   0.218E+00    0.635E-01
RMM:   3    -0.979849427879E+02    0.27932E-01   -0.13515E-01   129   0.703E-01    0.332E-01
RMM:   4    -0.979816496062E+02    0.32932E-02   -0.36189E-02   127   0.318E-01    0.146E-01
RMM:   5    -0.979814652950E+02    0.18431E-03   -0.28278E-03   129   0.103E-01    0.890E-02
RMM:   6    -0.979815302529E+02   -0.64958E-04   -0.56499E-04   106   0.507E-02
   4 F= -.97981530E+02 E0= -.98023452E+02  d E =-.200780E+00
       N       E                     dE             d eps       ncg     rms          rms(c)
RMM:   1    -0.981747353192E+02   -0.19327E+00   -0.26939E+00   124   0.427E+00    0.399E-01
RMM:   2    -0.981643004098E+02    0.10435E-01   -0.74897E-02   129   0.597E-01    0.192E-01
RMM:   3    -0.981619421859E+02    0.23582E-02   -0.81024E-03   129   0.185E-01    0.916E-02
RMM:   4    -0.981616307856E+02    0.31140E-03   -0.18925E-03   128   0.782E-02    0.387E-02
RMM:   5    -0.981616102203E+02    0.20565E-04   -0.25048E-04    87   0.297E-02
   5 F= -.98161610E+02 E0= -.98195778E+02  d E =-.180080E+00
       N       E                     dE             d eps       ncg     rms          rms(c)
RMM:   1    -0.981945234116E+02   -0.32893E-01   -0.10290E+00   124   0.264E+00    0.248E-01
RMM:   2    -0.981906826839E+02    0.38407E-02   -0.26978E-02   130   0.369E-01    0.121E-01
RMM:   3    -0.981898028331E+02    0.87985E-03   -0.32205E-03   128   0.115E-01    0.572E-02
RMM:   4    -0.981897007220E+02    0.10211E-03   -0.68685E-04   106   0.480E-02    0.256E-02
RMM:   5    -0.981896938574E+02    0.68647E-05   -0.87056E-05    73   0.215E-02
   6 F= -.98189694E+02 E0= -.98217224E+02  d E =-.208164E+00
