 vasp.5.2.2 15Apr09 complex 
 executed on             LinuxIFC date 2014.04.24  09:37:41
 running on    1 nodes
 distr:  one band on    1 nodes,    1 groups


--------------------------------------------------------------------------------------------------------


 INCAR:
 POTCAR:   PAW_PBE Mg 05Jan2001                   
 POTCAR:   PAW_PBE Al 04Jan2001                   
 POTCAR:   PAW_PBE Mg 05Jan2001                   
   VRHFIN =Mg: s2p0                                                             
   LEXCH  = PE                                                                  
   EATOM  =    23.0029 eV,    1.6907 Ry                                         
                                                                                
   TITEL  = PAW_PBE Mg 05Jan2001                                                
   LULTRA =        F    use ultrasoft PP ?                                      
   IUNSCR =        1    unscreen: 0-lin 1-nonlin 2-no                           
   RPACOR =    2.000    partial core radius                                     
   POMASS =   24.305; ZVAL   =    2.000    mass and valenz                      
   RCORE  =    2.000    outmost cutoff radius                                   
   RWIGS  =    2.880; RWIGS  =    1.524    wigner-seitz radius (au A)           
   ENMAX  =  210.012; ENMIN  =  157.509 eV                                      
   ICORE  =        2    local potential                                         
   LCOR   =        T    correct aug charges                                     
   LPAW   =        T    paw PP                                                  
   EAUG   =  274.554                                                            
   DEXC   =    -.136                                                            
   RMAX   =    3.182    core radius for proj-oper                               
   RAUG   =    1.300    factor for augmentation sphere                          
   RDEP   =    2.025    radius for radial grids                                 
   QCUT   =   -3.929; QGAM   =    7.858    optimization parameters              
                                                                                
   Description                                                                  
     l     E      TYP  RCUT    TYP  RCUT                                        
     0   .000     23  2.000                                                     
     0  2.000     23  2.000                                                     
     1   .000     23  2.000                                                     
     1  2.000     23  2.000                                                     
     2   .000     23  2.000                                                     
  local pseudopotential read in
  partial core-charges read in
  atomic valenz-charges read in
  non local Contribution for L=           0  read in
    real space projection operators read in
  non local Contribution for L=           0  read in
    real space projection operators read in
  non local Contribution for L=           1  read in
    real space projection operators read in
  non local Contribution for L=           1  read in
    real space projection operators read in
    PAW grid and wavefunctions read in
 
   number of l-projection  operators is LMAX  =           4
   number of lm-projection operators is LMMAX =           8
 
 POTCAR:   PAW_PBE Al 04Jan2001                   
   VRHFIN =Al: s2p1                                                             
   LEXCH  = PE                                                                  
   EATOM  =    53.5387 eV,    3.9350 Ry                                         
                                                                                
   TITEL  = PAW_PBE Al 04Jan2001                                                
   LULTRA =        F    use ultrasoft PP ?                                      
   IUNSCR =        1    unscreen: 0-lin 1-nonlin 2-no                           
   RPACOR =    1.500    partial core radius                                     
   POMASS =   26.982; ZVAL   =    3.000    mass and valenz                      
   RCORE  =    1.900    outmost cutoff radius                                   
   RWIGS  =    2.650; RWIGS  =    1.402    wigner-seitz radius (au A)           
   ENMAX  =  240.300; ENMIN  =  180.225 eV                                      
   ICORE  =        2    local potential                                         
   LCOR   =        T    correct aug charges                                     
   LPAW   =        T    paw PP                                                  
   EAUG   =  291.052                                                            
   DEXC   =    -.041                                                            
   RMAX   =    2.974    core radius for proj-oper                               
   RAUG   =    1.300    factor for augmentation sphere                          
   RDEP   =    1.966    radius for radial grids                                 
   QCUT   =   -4.203; QGAM   =    8.405    optimization parameters              
                                                                                
   Description                                                                  
     l     E      TYP  RCUT    TYP  RCUT                                        
     0   .000     23  1.900                                                     
     0   .000     23  1.900                                                     
     1   .000     23  1.900                                                     
     1  1.000     23  1.900                                                     
     2   .000      7  1.900                                                     
  local pseudopotential read in
  partial core-charges read in
  atomic valenz-charges read in
  non local Contribution for L=           0  read in
    real space projection operators read in
  non local Contribution for L=           0  read in
    real space projection operators read in
  non local Contribution for L=           1  read in
    real space projection operators read in
  non local Contribution for L=           1  read in
    real space projection operators read in
    PAW grid and wavefunctions read in
 
   number of l-projection  operators is LMAX  =           4
   number of lm-projection operators is LMMAX =           8
 

 ----------------------------------------------------------------------------- 
|                                                                             |
|  ADVICE TO THIS USER RUNNING 'VASP/VAMP'   (HEAR YOUR MASTER'S VOICE ...):  |
|                                                                             |
|      You have a (more or less) 'large supercell' and for larger cells       |
|      it might be more efficient to use real space projection operators      |
|      So try LREAL= Auto  in the INCAR   file.                               |
|      Mind: If you want to do a very accurate calculations keep the          |
|      reciprocal projection scheme          (i.e. LREAL=.FALSE.)             |
|                                                                             |
 ----------------------------------------------------------------------------- 

 PAW_PBE Mg 05Jan2001                   :
 energy of atom  1       EATOM=  -23.0029
 kinetic energy error for atom=    0.0002 (will be added to EATOM!!)
 PAW_PBE Al 04Jan2001                   :
 energy of atom  2       EATOM=  -53.5387
 kinetic energy error for atom=    0.0011 (will be added to EATOM!!)
 
 
 POSCAR: Mg1 Al30                                
  positions in direct lattice
  No initial velocities read in
 exchange correlation table for  LEXCH =        8
   RHO(1)=    0.500       N(1)  =     2000
   RHO(2)=  100.500       N(2)  =     4000

 VTST: version 2.03d, (02/18/09)

 CHAIN: initializing optimizer
 
 OPT: Using VASP Conjugate-Gradient optimizer
 CHAIN: Read ICHAIN            0
 


--------------------------------------------------------------------------------------------------------


 ion  position               nearest neighbor table
   1  0.500  0.500  0.500-   9 2.86  14 2.86  16 2.86  19 2.86  23 2.86  24 2.86  26 2.86  27 2.86
                            29 2.86  30 2.86  31 2.86
   2  0.000  0.000  0.000-   3 2.86   4 2.86   5 2.86   7 2.86   8 2.86  11 2.86  12 2.86  15 2.86
                            18 2.86  20 2.86  22 2.86  28 2.86
   3  0.250  0.000  0.250-   2 2.86   4 2.86   5 2.86   6 2.86   9 2.86  11 2.86  12 2.86  16 2.86
                            17 2.86  19 2.86  21 2.86  27 2.86
   4  0.250  0.250  0.000-   2 2.86   3 2.86   5 2.86   6 2.86   9 2.86  10 2.86  13 2.86  18 2.86
                            20 2.86  24 2.86  26 2.86
   5  0.000  0.250  0.250-   2 2.86   3 2.86   4 2.86   7 2.86   8 2.86  10 2.86  14 2.86  17 2.86
                            19 2.86  23 2.86  25 2.86
   6  0.500  0.000  0.000-   3 2.86   4 2.86   7 2.86   8 2.86   9 2.86  11 2.86  15 2.86  16 2.86
                            18 2.86  22 2.86  24 2.86  31 2.86
   7  0.750  0.000  0.250-   2 2.86   5 2.86   6 2.86   8 2.86   9 2.86  12 2.86  15 2.86  16 2.86
                            17 2.86  21 2.86  23 2.86  30 2.86
   8  0.750  0.250  0.000-   2 2.86   5 2.86   6 2.86   7 2.86   9 2.86  10 2.86  13 2.86  14 2.86
                            20 2.86  22 2.86  24 2.86  29 2.86
   9  0.500  0.250  0.250-   1 2.86   3 2.86   4 2.86   6 2.86   7 2.86   8 2.86  13 2.86  14 2.86
                            19 2.86  21 2.86  23 2.86
  10  0.000  0.500  0.000-   4 2.86   5 2.86   8 2.86  11 2.86  12 2.86  14 2.86  15 2.86  20 2.86
                            26 2.86  28 2.86  29 2.86
  11  0.250  0.750  0.000-   2 2.86   3 2.86   6 2.86  10 2.86  12 2.86  13 2.86  16 2.86  18 2.86
                            26 2.86  28 2.86  31 2.86
  12  0.000  0.750  0.250-   2 2.86   3 2.86   7 2.86  10 2.86  11 2.86  14 2.86  15 2.86  17 2.86
                            25 2.86  27 2.86  30 2.86
  13  0.500  0.500  0.000-   4 2.86   8 2.86   9 2.86  11 2.86  14 2.86  15 2.86  16 2.86  24 2.86
                            26 2.86  29 2.86  31 2.86
  14  0.750  0.500  0.250-   1 2.86   5 2.86   8 2.86   9 2.86  10 2.86  12 2.86  13 2.86  15 2.86
                            16 2.86  23 2.86  25 2.86  30 2.86
  15  0.750  0.750  0.000-   2 2.86   6 2.86   7 2.86  10 2.86  12 2.86  13 2.86  14 2.86  16 2.86
                            22 2.86  28 2.86  29 2.86  31 2.86
  16  0.500  0.750  0.250-   1 2.86   3 2.86   6 2.86   7 2.86  11 2.86  13 2.86  14 2.86  15 2.86
                            21 2.86  27 2.86  30 2.86
  17  0.000  0.000  0.500-   3 2.86   5 2.86   7 2.86  12 2.86  18 2.86  19 2.86  20 2.86  22 2.86
                            23 2.86  27 2.86  28 2.86  30 2.86
  18  0.250  0.000  0.750-   2 2.86   4 2.86   6 2.86  11 2.86  17 2.86  19 2.86  20 2.86  21 2.86
                            24 2.86  27 2.86  28 2.86  31 2.86
  19  0.250  0.250  0.500-   1 2.86   3 2.86   5 2.86   9 2.86  17 2.86  18 2.86  20 2.86  21 2.86
                            24 2.86  25 2.86  26 2.86
  20  0.000  0.250  0.750-   2 2.86   4 2.86   8 2.86  10 2.86  17 2.86  18 2.86  19 2.86  22 2.86
                            23 2.86  25 2.86  26 2.86  29 2.86
  21  0.500  0.000  0.500-   3 2.86   7 2.86   9 2.86  16 2.86  18 2.86  19 2.86  22 2.86  23 2.86
                            24 2.86  27 2.86  30 2.86  31 2.86
  22  0.750  0.000  0.750-   2 2.86   6 2.86   8 2.86  15 2.86  17 2.86  20 2.86  21 2.86  23 2.86
                            24 2.86  28 2.86  30 2.86  31 2.86
  23  0.750  0.250  0.500-   1 2.86   5 2.86   7 2.86   9 2.86  14 2.86  17 2.86  20 2.86  21 2.86
                            22 2.86  24 2.86  25 2.86  29 2.86
  24  0.500  0.250  0.750-   1 2.86   4 2.86   6 2.86   8 2.86  13 2.86  18 2.86  19 2.86  21 2.86
                            22 2.86  23 2.86  26 2.86  29 2.86
  25  0.000  0.500  0.500-   5 2.86  12 2.86  14 2.86  19 2.86  20 2.86  23 2.86  26 2.86  27 2.86
                            28 2.86  29 2.86  30 2.86
  26  0.250  0.500  0.750-   1 2.86   4 2.86  10 2.86  11 2.86  13 2.86  19 2.86  20 2.86  24 2.86
                            25 2.86  27 2.86  28 2.86  31 2.86
  27  0.250  0.750  0.500-   1 2.86   3 2.86  12 2.86  16 2.86  17 2.86  18 2.86  21 2.86  25 2.86
                            26 2.86  28 2.86  31 2.86
  28  0.000  0.750  0.750-   2 2.86  10 2.86  11 2.86  15 2.86  17 2.86  18 2.86  22 2.86  25 2.86
                            26 2.86  27 2.86  29 2.86  30 2.86
  29  0.750  0.500  0.750-   1 2.86   8 2.86  10 2.86  13 2.86  15 2.86  20 2.86  23 2.86  24 2.86
                            25 2.86  28 2.86  30 2.86  31 2.86
  30  0.750  0.750  0.500-   1 2.86   7 2.86  12 2.86  14 2.86  16 2.86  17 2.86  21 2.86  22 2.86
                            25 2.86  28 2.86  29 2.86  31 2.86
  31  0.500  0.750  0.750-   1 2.86   6 2.86  11 2.86  13 2.86  15 2.86  18 2.86  21 2.86  22 2.86
                            26 2.86  27 2.86  29 2.86  30 2.86
 
  LATTYP: Found a simple cubic cell.
 ALAT       =     8.0870540000
  
  Lattice vectors:
  
 A1 = (   8.0870540000,   0.0000000000,   0.0000000000)
 A2 = (   0.0000000000,   8.0870540000,   0.0000000000)
 A3 = (   0.0000000000,   0.0000000000,   8.0870540000)
 Subroutine PRICEL returns:
 Original cell was already a primitive cell.
 

Analysis of symmetry for initial positions (statically):

 Routine SETGRP: Setting up the symmetry group for a 
 simple cubic supercell.


 Subroutine GETGRP returns: Found  4 space group operations
 (whereof  4 operations were pure point group operations)
 out of a pool of 48 trial point group operations.


The static configuration has the point symmetry C_2v.

Analysis of symmetry for dynamics (positions and initial velocities):

 Subroutine DYNSYM returns: Found  4 space group operations
 (whereof  4 operations were pure point group operations)
 out of a pool of  4 trial space group operations
 (whereof  4 operations were pure point group operations)
 and found also     1 'primitive' translations


The dynamic configuration has the point symmetry C_2v.
 
 
 KPOINTS: Automatic kpoint scheme                 

Automatic generation of k-mesh.
 
 Subroutine IBZKPT returns following result:
 ===========================================
 
 Found      1 irreducible k-points:
 
 Following reciprocal coordinates:
            Coordinates               Weight
  0.000000  0.000000  0.000000      1.000000
 
 Following cartesian coordinates:
            Coordinates               Weight
  0.000000  0.000000  0.000000      1.000000
 


--------------------------------------------------------------------------------------------------------




 Dimension of arrays:
   k-points           NKPTS =      1   k-points in BZ     NKDIM =      1   number of bands    NBANDS=     62
   number of dos      NEDOS =    301   number of ions     NIONS =     31
   non local maximal  LDIM  =      4   non local SUM 2l+1 LMDIM =      8
   total plane-waves  NPLWV = 110592
   max r-space proj   IRMAX =      1   max aug-charges    IRDMAX=   9081
   dimension x,y,z NGX =    48 NGY =   48 NGZ =   48
   dimension x,y,z NGXF=    96 NGYF=   96 NGZF=   96
   support grid    NGXF=    96 NGYF=   96 NGZF=   96
   ions per type =               1  30
 NGX,Y,Z   is equivalent  to a cutoff of   9.87,  9.87,  9.87 a.u.
 NGXF,Y,Z  is equivalent  to a cutoff of  19.73, 19.73, 19.73 a.u.


 I would recommend the setting:
   dimension x,y,z NGX =    46 NGY =   46 NGZ =   46
 SYSTEM =  unknown system                          
 POSCAR =  Mg1 Al30                                

 Startparameter for this run:
   NWRITE =      2    write-flag & timer
   PREC   = accura    medium, high low
   ISTART =      0    job   : 0-new  1-cont  2-samecut
   ICHARG =      2    charge: 1-file 2-atom 10-const
   ISPIN  =      1    spin polarized calculation?
   LNONCOLLINEAR =      F non collinear calculations
   LSORBIT =      F    spin-orbit coupling
   INIWAV =      1    electr: 0-lowe 1-rand  2-diag
   LASPH  =      F    aspherical Exc in radial PAW
   METAGGA=      F    non-selfconsistent MetaGGA calc.

 Electronic Relaxation 1
   ENCUT  =  300.0 eV  22.05 Ry    4.70 a.u.  11.42 11.42 11.42*2*pi/ulx,y,z
   ENINI  =  300.0     initial cutoff
   ENAUG  =  291.1 eV  augmentation charge cutoff
   NELM   =     60;   NELMIN=  2; NELMDL=-12     # of ELM steps 
   EDIFF  = 0.1E-03   stopping-criterion for ELM
   LREAL  =      F    real-space projection
   LCOMPAT=      F    compatible to vasp.4.4
   LREAL_COMPAT= F    compatible to vasp.4.5.1-3
   GGA_COMPAT  = T    GGA compatible to vasp.4.4-vasp.4.6
   LMAXPAW     = -100 max onsite density
   LMAXMIX     =    2 max onsite mixed and CHGCAR
   VOSKOWN=      0    Vosko Wilk Nusair interpolation
   ROPT   =    0.00000   0.00000
 Ionic relaxation
   EDIFFG = 0.5E-01   stopping-criterion for IOM
   NSW    =    191    number of steps for IOM
   NBLOCK =      1;   KBLOCK =    191    inner block; outer block 
   IBRION =      2    ionic relax: 0-MD 1-quasi-New 2-CG
   NFREE  =      1    steps in history (QN), initial steepest desc. (CG)
   ISIF   =      2    stress and relaxation
   IWAVPR =     11    prediction:  0-non 1-charg 2-wave 3-comb
   ISYM   =      2    0-nonsym 1-usesym 2-fastsym
   LCORR  =      T    Harris-Foulkes like correction to forces

   POTIM  = 0.5000    time-step for ionic-motion
   TEIN   =    0.0    initial temperature
   TEBEG  =    0.0;   TEEND  =   0.0 temperature during run
   SMASS  =  -3.00    Nose mass-parameter (am)
   estimated Nose-frequenzy (Omega)   =  0.10E-29 period in steps =****** mass=  -0.149E-26a.u.
   NPACO  =    256;   APACO  = 16.0  distance and # of slots for P.C.
   PSTRESS=    0.0 pullay stress

  Mass of Ions in am
   POMASS =  24.30 26.98
  Ionic Valenz
   ZVAL   =   2.00  3.00
  Atomic Wigner-Seitz radii
   RWIGS  =  -1.00 -1.00
   NELECT =      92.0000    total number of electrons
   NUPDOWN=      -1.0000    fix difference up-down

 DOS related values:
   EMIN   =  10.00;   EMAX   =-10.00  energy-range for DOS
   EFERMI =   0.00
   ISMEAR =     1;   SIGMA  =   0.20  broadening in eV -4-tet -1-fermi 0-gaus

 Electronic relaxation 2 (details)
   IALGO  =     48    algorithm
   LDIAG  =      T    sub-space diagonalisation
   IMIX   =      4    mixing-type and parameters
     AMIX     =   0.40;   BMIX     =  1.00
     AMIX_MAG =   1.60;   BMIX_MAG =  1.00
     AMIN     =   0.10
     WC   =   100.;   INIMIX=   1;  MIXPRE=   1

 Intra band minimization:
   WEIMIN = 0.0010     energy-eigenvalue tresh-hold
   EBREAK =  0.40E-06  absolut break condition
   DEPER  =   0.30     relativ break condition  

   TIME   =   0.40     timestep for ELM

  volume/ion in A,a.u.               =      17.06       115.13
  Fermi-wavevector in a.u.,A,eV,Ry     =   0.913862  1.726948 11.362811  0.835143
  Thomas-Fermi vector in A             =   2.038422
 
 Write flags
   LWAVE  =      F    write WAVECAR
   LCHARG =      F    write CHGCAR
   LVTOT  =      F    write LOCPOT, local potential
   LELF   =      F    write electronic localiz. function (ELF)
   LORBIT =      0    0 simple, 1 ext, 2 COOP (PROOUT)


 Dipole corrections
   LMONO  =      F    monopole corrections only (constant potential shift)
   LDIPOL =      F    correct potential (dipole corrections)
   IDIPOL =      0    1-x, 2-y, 3-z, 4-all directions 
   EPSILON=  1.0000000 bulk dielectric constant

 Exchange correlation treatment:
   GGA     =    --    GGA type
   LEXCH   =     8    internal setting for exchange type
   VOSKOWN=      0    Vosko Wilk Nusair interpolation
   LHFCALC =     F    Hartree Fock is set to
   LHFONE  =     F    Hartree Fock one center treatment
   AEXX    =    0.0000 exact exchange contribution

 Linear response parameters
   LEPSILON=     F    determine dielectric tensor
   LRPA    =     F    only Hartree local field effects (RPA)
   LNABLA  =     F    use nabla operator in PAW spheres
   LVEL    =     F    velocity operator in full k-point grid
   LINTERFAST=   F  fast interpolation
   KINTER  =     0    interpolate to denser k-point grid
   CSHIFT  =0.1000    complex shift for real part using Kramers Kronig
   OMEGAMAX=  -1.0    maximum frequency

 Orbital magnetization related:
   ORBITALMAG=     F  switch on orbital magnetization
   LCHIMAG   =     F  perturbation theory with respect to B field



--------------------------------------------------------------------------------------------------------


 conjugate gradient relaxation of ions
 charge density and potential will be updated during run
 non-spin polarized calculation
 RMM-DIIS sequential band-by-band
 perform sub-space diagonalisation
    before iterative eigenvector-optimisation
 modified Broyden-mixing scheme, WC =      100.0
 initial mixing is a Kerker type mixing with AMIX =  0.4000 and BMIX =      1.0000
 Hartree-type preconditioning will be used
 using additional bands           16
 reciprocal scheme for non local part
 use partial core corrections
 calculate Harris-corrections to forces 
   (improved forces if not selfconsistent)
 use gradient corrections 
 use of overlap-Matrix (Vanderbilt PP)
 Methfessel and Paxton  Order N= 1 SIGMA  =   0.20


--------------------------------------------------------------------------------------------------------


  energy-cutoff  :      300.00
  volume of cell :      528.90
      direct lattice vectors                 reciprocal lattice vectors
     8.087054000  0.000000000  0.000000000     0.123654423  0.000000000  0.000000000
     0.000000000  8.087054000  0.000000000     0.000000000  0.123654423  0.000000000
     0.000000000  0.000000000  8.087054000     0.000000000  0.000000000  0.123654423

  length of vectors
     8.087054000  8.087054000  8.087054000     0.123654423  0.123654423  0.123654423


 
 k-points in units of 2pi/SCALE and weight: Automatic kpoint scheme                 
   0.00000000  0.00000000  0.00000000       1.000
 
 k-points in reciprocal lattice and weights: Automatic kpoint scheme                 
   0.00000000  0.00000000  0.00000000       1.000
 
 position of ions in fractional coordinates (direct lattice) 
   0.50000000  0.50000000  0.50000000
   0.00000000  0.00000000  0.00000000
   0.25000000  0.00000000  0.25000000
   0.25000000  0.25000000  0.00000000
   0.00000000  0.25000000  0.25000000
   0.50000000  0.00000000  0.00000000
   0.75000000  0.00000000  0.25000000
   0.75000000  0.25000000  0.00000000
   0.50000000  0.25000000  0.25000000
   0.00000000  0.50000000  0.00000000
   0.25000000  0.75000000  0.00000000
   0.00000000  0.75000000  0.25000000
   0.50000000  0.50000000  0.00000000
   0.75000000  0.50000000  0.25000000
   0.75000000  0.75000000  0.00000000
   0.50000000  0.75000000  0.25000000
   0.00000000  0.00000000  0.50000000
   0.25000000  0.00000000  0.75000000
   0.25000000  0.25000000  0.50000000
   0.00000000  0.25000000  0.75000000
   0.50000000  0.00000000  0.50000000
   0.75000000  0.00000000  0.75000000
   0.75000000  0.25000000  0.50000000
   0.50000000  0.25000000  0.75000000
   0.00000000  0.50000000  0.50000000
   0.25000000  0.50000000  0.75000000
   0.25000000  0.75000000  0.50000000
   0.00000000  0.75000000  0.75000000
   0.75000000  0.50000000  0.75000000
   0.75000000  0.75000000  0.50000000
   0.50000000  0.75000000  0.75000000
 
 position of ions in cartesian coordinates  (Angst):
   4.04352700  4.04352700  4.04352700
   0.00000000  0.00000000  0.00000000
   2.02176350  0.00000000  2.02176350
   2.02176350  2.02176350  0.00000000
   0.00000000  2.02176350  2.02176350
   4.04352700  0.00000000  0.00000000
   6.06529050  0.00000000  2.02176350
   6.06529050  2.02176350  0.00000000
   4.04352700  2.02176350  2.02176350
   0.00000000  4.04352700  0.00000000
   2.02176350  6.06529050  0.00000000
   0.00000000  6.06529050  2.02176350
   4.04352700  4.04352700  0.00000000
   6.06529050  4.04352700  2.02176350
   6.06529050  6.06529050  0.00000000
   4.04352700  6.06529050  2.02176350
   0.00000000  0.00000000  4.04352700
   2.02176350  0.00000000  6.06529050
   2.02176350  2.02176350  4.04352700
   0.00000000  2.02176350  6.06529050
   4.04352700  0.00000000  4.04352700
   6.06529050  0.00000000  6.06529050
   6.06529050  2.02176350  4.04352700
   4.04352700  2.02176350  6.06529050
   0.00000000  4.04352700  4.04352700
   2.02176350  4.04352700  6.06529050
   2.02176350  6.06529050  4.04352700
   0.00000000  6.06529050  6.06529050
   6.06529050  4.04352700  6.06529050
   6.06529050  6.06529050  4.04352700
   4.04352700  6.06529050  6.06529050
 


--------------------------------------------------------------------------------------------------------


 k-point  1 :  0.00000.00000.0000  plane waves:    6235

 maximum and minimum number of plane-waves per node :    6235   6235

 maximum number of plane-waves:    6235
 maximal index in each direction: 
   IXMAX= 11   IYMAX= 11   IZMAX= 11
   IXMIN=-11   IYMIN=-11   IZMIN=-11

 NGX is ok and might be reduce to  46
 NGY is ok and might be reduce to  46
 NGZ is ok and might be reduce to  46

 serial   3D FFT for wavefunctions
 parallel 3D FFT for charge:
    minimum data exchange during FFTs selected (reduces bandwidth)


 total amount of memory used by VASP on root node 125895. kBytes
========================================================================

   base      :    30000. kBytes
   nonl-proj :     3890. kBytes
   fftplans  :    30736. kBytes
   grid      :    54743. kBytes
   one-center:       95. kBytes
   wavefun   :     6431. kBytes
 
 Broyden mixing: mesh for mixing (old mesh)
   NGX = 23   NGY = 23   NGZ = 23
  (NGX  = 96   NGY  = 96   NGZ  = 96)
  gives a total of  12167 points

 initial charge density was supplied:
 charge density of overlapping atoms calculated
 number of electron   92.0000000 magnetization 
 keeping initial charge density in first step


--------------------------------------------------------------------------------------------------------


 Maximum index for augmentation-charges         8601 (set IRDMAX)


--------------------------------------------------------------------------------------------------------


 First call to EWALD:  gamma=   0.219
 Maximum number of real-space cells 3x 3x 3
 Maximum number of reciprocal cells 3x 3x 3

    FEWALD:  cpu time    0.07: real time    0.02
   RESPFUN:  cpu time    0.00: real time    0.00


----------------------------------------- Iteration    1(   1)  ---------------------------------------


    POTLOK:  cpu time    1.88: real time    1.77
    SETDIJ:  cpu time    0.15: real time    0.15
    EDDIAG:  cpu time    2.24: real time    1.48
  RMM-DIIS:  cpu time   11.37: real time    3.44
    ORTHCH:  cpu time    0.16: real time    0.04
       DOS:  cpu time    0.00: real time    0.00
    --------------------------------------------
      LOOP:  cpu time   15.81: real time    6.88

 eigenvalue-minimisations  :    62
 total energy-change (2. order) : 0.3042304E+03  (-0.1689751E+04)
 number of electron   92.0000000 magnetization 
 augmentation part    92.0000000 magnetization 

 Free energy of the ion-electron system (eV)
  ---------------------------------------------------
  alpha Z        PSCENC =        -7.38312591
  Ewald energy   TEWEN  =     -2179.22324318
  -1/2 Hartree   DENC   =       -25.65026546
  -exchange  EXHF       =         0.00000000
  -V(xc)+E(xc)   XCENC  =      -796.30847292
  PAW double counting   =      1078.21717227     -108.50372521
  entropy T*S    EENTRO =        -0.04617794
  eigenvalues    EBANDS =       713.99682332
  atomic energy  EATOM  =      1629.13144109
  ---------------------------------------------------
  free energy    TOTEN  =       304.23042605 eV

  energy without entropy =      304.27660400  energy(sigma->0) =      304.24581870


--------------------------------------------------------------------------------------------------------




----------------------------------------- Iteration    1(   2)  ---------------------------------------


    EDDIAG:  cpu time    2.25: real time    1.47
  RMM-DIIS:  cpu time   11.01: real time    3.41
    ORTHCH:  cpu time    0.16: real time    0.04
       DOS:  cpu time    0.00: real time    0.00
    --------------------------------------------
      LOOP:  cpu time   13.44: real time    4.91

 eigenvalue-minimisations  :    62
 total energy-change (2. order) :-0.3085055E+03  (-0.3036554E+03)
 number of electron   92.0000000 magnetization 
 augmentation part    92.0000000 magnetization 

 Free energy of the ion-electron system (eV)
  ---------------------------------------------------
  alpha Z        PSCENC =        -7.38312591
  Ewald energy   TEWEN  =     -2179.22324318
  -1/2 Hartree   DENC   =       -25.65026546
  -exchange  EXHF       =         0.00000000
  -V(xc)+E(xc)   XCENC  =      -796.30847292
  PAW double counting   =      1078.21717227     -108.50372521
  entropy T*S    EENTRO =         0.05612433
  eigenvalues    EBANDS =       405.38906738
  atomic energy  EATOM  =      1629.13144109
  ---------------------------------------------------
  free energy    TOTEN  =        -4.27502761 eV

  energy without entropy =       -4.33115194  energy(sigma->0) =       -4.29373572


--------------------------------------------------------------------------------------------------------




----------------------------------------- Iteration    1(   3)  ---------------------------------------


    EDDIAG:  cpu time    2.17: real time    1.46
  RMM-DIIS:  cpu time   11.24: real time    3.43
    ORTHCH:  cpu time    0.17: real time    0.04
       DOS:  cpu time    0.00: real time    0.00
    --------------------------------------------
      LOOP:  cpu time   13.58: real time    4.93

 eigenvalue-minimisations  :    62
 total energy-change (2. order) :-0.6264498E+02  (-0.6662659E+02)
 number of electron   92.0000000 magnetization 
 augmentation part    92.0000000 magnetization 

 Free energy of the ion-electron system (eV)
  ---------------------------------------------------
  alpha Z        PSCENC =        -7.38312591
  Ewald energy   TEWEN  =     -2179.22324318
  -1/2 Hartree   DENC   =       -25.65026546
  -exchange  EXHF       =         0.00000000
  -V(xc)+E(xc)   XCENC  =      -796.30847292
  PAW double counting   =      1078.21717227     -108.50372521
  entropy T*S    EENTRO =        -0.05261472
  eigenvalues    EBANDS =       342.85282672
  atomic energy  EATOM  =      1629.13144109
  ---------------------------------------------------
  free energy    TOTEN  =       -66.92000731 eV

  energy without entropy =      -66.86739259  energy(sigma->0) =      -66.90246907


--------------------------------------------------------------------------------------------------------




----------------------------------------- Iteration    1(   4)  ---------------------------------------


    EDDIAG:  cpu time    2.10: real time    1.45
  RMM-DIIS:  cpu time   10.89: real time    3.40
    ORTHCH:  cpu time    0.17: real time    0.04
       DOS:  cpu time    0.00: real time    0.00
    --------------------------------------------
      LOOP:  cpu time   13.16: real time    4.89

 eigenvalue-minimisations  :    62
 total energy-change (2. order) :-0.1734316E+02  (-0.1578243E+02)
 number of electron   92.0000000 magnetization 
 augmentation part    92.0000000 magnetization 

 Free energy of the ion-electron system (eV)
  ---------------------------------------------------
  alpha Z        PSCENC =        -7.38312591
  Ewald energy   TEWEN  =     -2179.22324318
  -1/2 Hartree   DENC   =       -25.65026546
  -exchange  EXHF       =         0.00000000
  -V(xc)+E(xc)   XCENC  =      -796.30847292
  PAW double counting   =      1078.21717227     -108.50372521
  entropy T*S    EENTRO =        -0.09350895
  eigenvalues    EBANDS =       325.55055867
  atomic energy  EATOM  =      1629.13144109
  ---------------------------------------------------
  free energy    TOTEN  =       -84.26316960 eV

  energy without entropy =      -84.16966065  energy(sigma->0) =      -84.23199995


--------------------------------------------------------------------------------------------------------




----------------------------------------- Iteration    1(   5)  ---------------------------------------


    EDDIAG:  cpu time    2.17: real time    1.46
  RMM-DIIS:  cpu time   11.16: real time    3.42
    ORTHCH:  cpu time    0.17: real time    0.04
       DOS:  cpu time    0.00: real time    0.00
    --------------------------------------------
      LOOP:  cpu time   13.51: real time    4.92

 eigenvalue-minimisations  :    62
 total energy-change (2. order) :-0.7215701E+01  (-0.5831414E+01)
 number of electron   92.0000000 magnetization 
 augmentation part    92.0000000 magnetization 

 Free energy of the ion-electron system (eV)
  ---------------------------------------------------
  alpha Z        PSCENC =        -7.38312591
  Ewald energy   TEWEN  =     -2179.22324318
  -1/2 Hartree   DENC   =       -25.65026546
  -exchange  EXHF       =         0.00000000
  -V(xc)+E(xc)   XCENC  =      -796.30847292
  PAW double counting   =      1078.21717227     -108.50372521
  entropy T*S    EENTRO =        -0.04900368
  eigenvalues    EBANDS =       318.29035198
  atomic energy  EATOM  =      1629.13144109
  ---------------------------------------------------
  free energy    TOTEN  =       -91.47887101 eV

  energy without entropy =      -91.42986733  energy(sigma->0) =      -91.46253645


--------------------------------------------------------------------------------------------------------




----------------------------------------- Iteration    1(   6)  ---------------------------------------


    EDDIAG:  cpu time    2.11: real time    1.45
  RMM-DIIS:  cpu time   11.38: real time    3.44
    ORTHCH:  cpu time    0.17: real time    0.04
       DOS:  cpu time    0.00: real time    0.00
    --------------------------------------------
      LOOP:  cpu time   13.68: real time    4.94

 eigenvalue-minimisations  :    62
 total energy-change (2. order) :-0.3367914E+01  (-0.2809960E+01)
 number of electron   92.0000000 magnetization 
 augmentation part    92.0000000 magnetization 

 Free energy of the ion-electron system (eV)
  ---------------------------------------------------
  alpha Z        PSCENC =        -7.38312591
  Ewald energy   TEWEN  =     -2179.22324318
  -1/2 Hartree   DENC   =       -25.65026546
  -exchange  EXHF       =         0.00000000
  -V(xc)+E(xc)   XCENC  =      -796.30847292
  PAW double counting   =      1078.21717227     -108.50372521
  entropy T*S    EENTRO =        -0.02083254
  eigenvalues    EBANDS =       314.89426693
  atomic energy  EATOM  =      1629.13144109
  ---------------------------------------------------
  free energy    TOTEN  =       -94.84678492 eV

  energy without entropy =      -94.82595239  energy(sigma->0) =      -94.83984074


--------------------------------------------------------------------------------------------------------




----------------------------------------- Iteration    1(   7)  ---------------------------------------


    EDDIAG:  cpu time    2.25: real time    1.46
  RMM-DIIS:  cpu time   11.03: real time    3.41
    ORTHCH:  cpu time    0.17: real time    0.04
       DOS:  cpu time    0.00: real time    0.00
    --------------------------------------------
      LOOP:  cpu time   13.46: real time    4.92

 eigenvalue-minimisations  :    62
 total energy-change (2. order) :-0.1803294E+01  (-0.1581783E+01)
 number of electron   92.0000000 magnetization 
 augmentation part    92.0000000 magnetization 

 Free energy of the ion-electron system (eV)
  ---------------------------------------------------
  alpha Z        PSCENC =        -7.38312591
  Ewald energy   TEWEN  =     -2179.22324318
  -1/2 Hartree   DENC   =       -25.65026546
  -exchange  EXHF       =         0.00000000
  -V(xc)+E(xc)   XCENC  =      -796.30847292
  PAW double counting   =      1078.21717227     -108.50372521
  entropy T*S    EENTRO =         0.00668698
  eigenvalues    EBANDS =       313.06345306
  atomic energy  EATOM  =      1629.13144109
  ---------------------------------------------------
  free energy    TOTEN  =       -96.65007928 eV

  energy without entropy =      -96.65676626  energy(sigma->0) =      -96.65230827


--------------------------------------------------------------------------------------------------------




----------------------------------------- Iteration    1(   8)  ---------------------------------------


    EDDIAG:  cpu time    2.19: real time    1.46
  RMM-DIIS:  cpu time   11.27: real time    3.43
    ORTHCH:  cpu time    0.17: real time    0.04
       DOS:  cpu time    0.00: real time    0.00
    --------------------------------------------
      LOOP:  cpu time   13.63: real time    4.93

 eigenvalue-minimisations  :    62
 total energy-change (2. order) :-0.1041609E+01  (-0.9450984E+00)
 number of electron   92.0000000 magnetization 
 augmentation part    92.0000000 magnetization 

 Free energy of the ion-electron system (eV)
  ---------------------------------------------------
  alpha Z        PSCENC =        -7.38312591
  Ewald energy   TEWEN  =     -2179.22324318
  -1/2 Hartree   DENC   =       -25.65026546
  -exchange  EXHF       =         0.00000000
  -V(xc)+E(xc)   XCENC  =      -796.30847292
  PAW double counting   =      1078.21717227     -108.50372521
  entropy T*S    EENTRO =         0.00884393
  eigenvalues    EBANDS =       312.01968712
  atomic energy  EATOM  =      1629.13144109
  ---------------------------------------------------
  free energy    TOTEN  =       -97.69168827 eV

  energy without entropy =      -97.70053220  energy(sigma->0) =      -97.69463624


--------------------------------------------------------------------------------------------------------




----------------------------------------- Iteration    1(   9)  ---------------------------------------


    EDDIAG:  cpu time    2.06: real time    1.44
  RMM-DIIS:  cpu time   27.63: real time    7.68
    ORTHCH:  cpu time    0.17: real time    0.04
       DOS:  cpu time    0.00: real time    0.00
    --------------------------------------------
      LOOP:  cpu time   29.87: real time    9.17

 eigenvalue-minimisations  :   161
 total energy-change (2. order) :-0.1433573E+01  (-0.1393453E+01)
 number of electron   92.0000000 magnetization 
 augmentation part    92.0000000 magnetization 

 Free energy of the ion-electron system (eV)
  ---------------------------------------------------
  alpha Z        PSCENC =        -7.38312591
  Ewald energy   TEWEN  =     -2179.22324318
  -1/2 Hartree   DENC   =       -25.65026546
  -exchange  EXHF       =         0.00000000
  -V(xc)+E(xc)   XCENC  =      -796.30847292
  PAW double counting   =      1078.21717227     -108.50372521
  entropy T*S    EENTRO =         0.01095641
  eigenvalues    EBANDS =       310.58400140
  atomic energy  EATOM  =      1629.13144109
  ---------------------------------------------------
  free energy    TOTEN  =       -99.12526151 eV

  energy without entropy =      -99.13621792  energy(sigma->0) =      -99.12891365


--------------------------------------------------------------------------------------------------------




----------------------------------------- Iteration    1(  10)  ---------------------------------------


    EDDIAG:  cpu time    2.17: real time    1.46
  RMM-DIIS:  cpu time   24.32: real time    6.66
    ORTHCH:  cpu time    0.17: real time    0.04
       DOS:  cpu time    0.00: real time    0.00
    --------------------------------------------
      LOOP:  cpu time   26.66: real time    8.16

 eigenvalue-minimisations  :   138
 total energy-change (2. order) :-0.1725899E+00  (-0.1346016E+00)
 number of electron   92.0000000 magnetization 
 augmentation part    92.0000000 magnetization 

 Free energy of the ion-electron system (eV)
  ---------------------------------------------------
  alpha Z        PSCENC =        -7.38312591
  Ewald energy   TEWEN  =     -2179.22324318
  -1/2 Hartree   DENC   =       -25.65026546
  -exchange  EXHF       =         0.00000000
  -V(xc)+E(xc)   XCENC  =      -796.30847292
  PAW double counting   =      1078.21717227     -108.50372521
  entropy T*S    EENTRO =         0.00929444
  eigenvalues    EBANDS =       310.41307346
  atomic energy  EATOM  =      1629.13144109
  ---------------------------------------------------
  free energy    TOTEN  =       -99.29785142 eV

  energy without entropy =      -99.30714586  energy(sigma->0) =      -99.30094957


--------------------------------------------------------------------------------------------------------




----------------------------------------- Iteration    1(  11)  ---------------------------------------


    EDDIAG:  cpu time    2.17: real time    1.46
  RMM-DIIS:  cpu time   21.06: real time    5.88
    ORTHCH:  cpu time    0.17: real time    0.04
       DOS:  cpu time    0.00: real time    0.00
    --------------------------------------------
      LOOP:  cpu time   23.41: real time    7.39

 eigenvalue-minimisations  :   120
 total energy-change (2. order) :-0.1648014E-01  (-0.6774721E-02)
 number of electron   92.0000000 magnetization 
 augmentation part    92.0000000 magnetization 

 Free energy of the ion-electron system (eV)
  ---------------------------------------------------
  alpha Z        PSCENC =        -7.38312591
  Ewald energy   TEWEN  =     -2179.22324318
  -1/2 Hartree   DENC   =       -25.65026546
  -exchange  EXHF       =         0.00000000
  -V(xc)+E(xc)   XCENC  =      -796.30847292
  PAW double counting   =      1078.21717227     -108.50372521
  entropy T*S    EENTRO =         0.01106865
  eigenvalues    EBANDS =       310.39481911
  atomic energy  EATOM  =      1629.13144109
  ---------------------------------------------------
  free energy    TOTEN  =       -99.31433156 eV

  energy without entropy =      -99.32540021  energy(sigma->0) =      -99.31802111


--------------------------------------------------------------------------------------------------------




----------------------------------------- Iteration    1(  12)  ---------------------------------------


    EDDIAG:  cpu time    2.10: real time    1.45
  RMM-DIIS:  cpu time   18.34: real time    5.22
    ORTHCH:  cpu time    0.17: real time    0.04
       DOS:  cpu time    0.00: real time    0.00
    CHARGE:  cpu time    1.01: real time    0.92
    MIXING:  cpu time    0.05: real time    0.05
    --------------------------------------------
      LOOP:  cpu time   21.68: real time    7.69

 eigenvalue-minimisations  :   105
 total energy-change (2. order) :-0.6817417E-03  (-0.4159175E-03)
 number of electron   91.9999993 magnetization 
 augmentation part    -0.9158174 magnetization 

 Broyden mixing:
  rms(total) = 0.65232E+00    rms(broyden)= 0.65230E+00
  rms(prec ) = 0.12305E+01
  weight for this iteration     100.00

 Free energy of the ion-electron system (eV)
  ---------------------------------------------------
  alpha Z        PSCENC =        -7.38312591
  Ewald energy   TEWEN  =     -2179.22324318
  -1/2 Hartree   DENC   =       -25.65026546
  -exchange  EXHF       =         0.00000000
  -V(xc)+E(xc)   XCENC  =      -796.30847292
  PAW double counting   =      1078.21717227     -108.50372521
  entropy T*S    EENTRO =         0.01133569
  eigenvalues    EBANDS =       310.39387033
  atomic energy  EATOM  =      1629.13144109
  ---------------------------------------------------
  free energy    TOTEN  =       -99.31501330 eV

  energy without entropy =      -99.32634899  energy(sigma->0) =      -99.31879186


--------------------------------------------------------------------------------------------------------




----------------------------------------- Iteration    1(  13)  ---------------------------------------


    POTLOK:  cpu time    1.76: real time    1.76
    SETDIJ:  cpu time    0.15: real time    0.15
    EDDIAG:  cpu time    2.25: real time    1.48
  RMM-DIIS:  cpu time   21.43: real time    6.16
    ORTHCH:  cpu time    0.16: real time    0.04
       DOS:  cpu time    0.00: real time    0.00
    CHARGE:  cpu time    1.01: real time    0.91
    MIXING:  cpu time    0.05: real time    0.05
    --------------------------------------------
      LOOP:  cpu time   26.82: real time   10.57

 eigenvalue-minimisations  :   127
 total energy-change (2. order) : 0.1161061E+01  (-0.4634417E+00)
 number of electron   91.9999993 magnetization 
 augmentation part    -0.9282220 magnetization 

 Broyden mixing:
  rms(total) = 0.38781E+00    rms(broyden)= 0.38780E+00
  rms(prec ) = 0.58802E+00
  weight for this iteration     100.00

 eigenvalues of (default mixing * dielectric matrix)
  average eigenvalue GAMMA=   1.9126
  1.9126

 Free energy of the ion-electron system (eV)
  ---------------------------------------------------
  alpha Z        PSCENC =        -7.38312591
  Ewald energy   TEWEN  =     -2179.22324318
  -1/2 Hartree   DENC   =       -28.55539268
  -exchange  EXHF       =         0.00000000
  -V(xc)+E(xc)   XCENC  =      -795.06195197
  PAW double counting   =      1078.00325605     -108.33806850
  entropy T*S    EENTRO =        -0.08741705
  eigenvalues    EBANDS =       313.36054981
  atomic energy  EATOM  =      1629.13144109
  ---------------------------------------------------
  free energy    TOTEN  =       -98.15395234 eV

  energy without entropy =      -98.06653530  energy(sigma->0) =      -98.12481333


--------------------------------------------------------------------------------------------------------




----------------------------------------- Iteration    1(  14)  ---------------------------------------


    POTLOK:  cpu time    1.76: real time    1.76
    SETDIJ:  cpu time    0.15: real time    0.15
    EDDIAG:  cpu time    2.24: real time    1.48
  RMM-DIIS:  cpu time   21.55: real time    6.22
    ORTHCH:  cpu time    0.17: real time    0.04
       DOS:  cpu time    0.00: real time    0.00
    CHARGE:  cpu time    1.01: real time    0.91
    MIXING:  cpu time    0.06: real time    0.05
    --------------------------------------------
      LOOP:  cpu time   26.94: real time   10.62

 eigenvalue-minimisations  :   128
 total energy-change (2. order) : 0.2510324E+00  (-0.2978858E-01)
 number of electron   91.9999993 magnetization 
 augmentation part    -0.9379255 magnetization 

 Broyden mixing:
  rms(total) = 0.22827E+00    rms(broyden)= 0.22827E+00
  rms(prec ) = 0.33427E+00
  weight for this iteration     100.00

 eigenvalues of (default mixing * dielectric matrix)
  average eigenvalue GAMMA=   1.7209
  2.5415  0.9003

 Free energy of the ion-electron system (eV)
  ---------------------------------------------------
  alpha Z        PSCENC =        -7.38312591
  Ewald energy   TEWEN  =     -2179.22324318
  -1/2 Hartree   DENC   =       -29.15212062
  -exchange  EXHF       =         0.00000000
  -V(xc)+E(xc)   XCENC  =      -794.08230625
  PAW double counting   =      1077.66878124     -108.05418441
  entropy T*S    EENTRO =        -0.09657216
  eigenvalues    EBANDS =       313.28841030
  atomic energy  EATOM  =      1629.13144109
  ---------------------------------------------------
  free energy    TOTEN  =       -97.90291991 eV

  energy without entropy =      -97.80634775  energy(sigma->0) =      -97.87072919


--------------------------------------------------------------------------------------------------------




----------------------------------------- Iteration    1(  15)  ---------------------------------------


    POTLOK:  cpu time    1.82: real time    1.77
    SETDIJ:  cpu time    0.15: real time    0.15
    EDDIAG:  cpu time    2.24: real time    1.48
  RMM-DIIS:  cpu time   21.31: real time    6.15
    ORTHCH:  cpu time    0.17: real time    0.04
       DOS:  cpu time    0.00: real time    0.00
    CHARGE:  cpu time    1.01: real time    0.91
    MIXING:  cpu time    0.07: real time    0.06
    --------------------------------------------
      LOOP:  cpu time   26.78: real time   10.55

 eigenvalue-minimisations  :   127
 total energy-change (2. order) : 0.1143301E+00  (-0.1456338E-01)
 number of electron   91.9999993 magnetization 
 augmentation part    -0.9513723 magnetization 

 Broyden mixing:
  rms(total) = 0.47486E-01    rms(broyden)= 0.47486E-01
  rms(prec ) = 0.83842E-01
  weight for this iteration     100.00

 eigenvalues of (default mixing * dielectric matrix)
  average eigenvalue GAMMA=   1.4647
  2.6039  0.8950  0.8950

 Free energy of the ion-electron system (eV)
  ---------------------------------------------------
  alpha Z        PSCENC =        -7.38312591
  Ewald energy   TEWEN  =     -2179.22324318
  -1/2 Hartree   DENC   =       -30.48523694
  -exchange  EXHF       =         0.00000000
  -V(xc)+E(xc)   XCENC  =      -792.73164769
  PAW double counting   =      1077.29299747     -107.76456216
  entropy T*S    EENTRO =        -0.07691025
  eigenvalues    EBANDS =       313.45169779
  atomic energy  EATOM  =      1629.13144109
  ---------------------------------------------------
  free energy    TOTEN  =       -97.78858977 eV

  energy without entropy =      -97.71167952  energy(sigma->0) =      -97.76295302


--------------------------------------------------------------------------------------------------------




----------------------------------------- Iteration    1(  16)  ---------------------------------------


    POTLOK:  cpu time    1.77: real time    1.77
    SETDIJ:  cpu time    0.15: real time    0.15
    EDDIAG:  cpu time    2.24: real time    1.48
  RMM-DIIS:  cpu time   22.76: real time    6.43
    ORTHCH:  cpu time    0.17: real time    0.04
       DOS:  cpu time    0.00: real time    0.00
    CHARGE:  cpu time    1.01: real time    0.91
    MIXING:  cpu time    0.08: real time    0.06
    --------------------------------------------
      LOOP:  cpu time   28.26: real time   10.93

 eigenvalue-minimisations  :   132
 total energy-change (2. order) : 0.6900620E-02  (-0.1781537E-02)
 number of electron   91.9999993 magnetization 
 augmentation part    -0.9555430 magnetization 

 Broyden mixing:
  rms(total) = 0.15701E-01    rms(broyden)= 0.15701E-01
  rms(prec ) = 0.28710E-01
  weight for this iteration     100.00

 eigenvalues of (default mixing * dielectric matrix)
  average eigenvalue GAMMA=   1.5187
  2.6112  1.8202  0.8216  0.8216

 Free energy of the ion-electron system (eV)
  ---------------------------------------------------
  alpha Z        PSCENC =        -7.38312591
  Ewald energy   TEWEN  =     -2179.22324318
  -1/2 Hartree   DENC   =       -30.78838027
  -exchange  EXHF       =         0.00000000
  -V(xc)+E(xc)   XCENC  =      -792.44948798
  PAW double counting   =      1077.37654535     -107.87768335
  entropy T*S    EENTRO =        -0.08947155
  eigenvalues    EBANDS =       313.52171666
  atomic energy  EATOM  =      1629.13144109
  ---------------------------------------------------
  free energy    TOTEN  =       -97.78168915 eV

  energy without entropy =      -97.69221760  energy(sigma->0) =      -97.75186530


--------------------------------------------------------------------------------------------------------




----------------------------------------- Iteration    1(  17)  ---------------------------------------


    POTLOK:  cpu time    1.83: real time    1.77
    SETDIJ:  cpu time    0.15: real time    0.15
    EDDIAG:  cpu time    2.24: real time    1.48
  RMM-DIIS:  cpu time   22.67: real time    6.43
    ORTHCH:  cpu time    0.17: real time    0.04
       DOS:  cpu time    0.00: real time    0.00
    CHARGE:  cpu time    1.01: real time    0.91
    MIXING:  cpu time    0.09: real time    0.06
    --------------------------------------------
      LOOP:  cpu time   28.16: real time   10.83

 eigenvalue-minimisations  :   132
 total energy-change (2. order) : 0.8428062E-03  (-0.6352010E-03)
 number of electron   91.9999993 magnetization 
 augmentation part    -0.9570847 magnetization 

 Broyden mixing:
  rms(total) = 0.54085E-02    rms(broyden)= 0.54085E-02
  rms(prec ) = 0.13282E-01
  weight for this iteration     100.00

 eigenvalues of (default mixing * dielectric matrix)
  average eigenvalue GAMMA=   1.4672
  2.6359  2.0307  0.9650  0.9650  0.7393

 Free energy of the ion-electron system (eV)
  ---------------------------------------------------
  alpha Z        PSCENC =        -7.38312591
  Ewald energy   TEWEN  =     -2179.22324318
  -1/2 Hartree   DENC   =       -30.78571911
  -exchange  EXHF       =         0.00000000
  -V(xc)+E(xc)   XCENC  =      -792.37639045
  PAW double counting   =      1077.59757555     -108.12198928
  entropy T*S    EENTRO =        -0.08891878
  eigenvalues    EBANDS =       313.46952373
  atomic energy  EATOM  =      1629.13144109
  ---------------------------------------------------
  free energy    TOTEN  =       -97.78084634 eV

  energy without entropy =      -97.69192756  energy(sigma->0) =      -97.75120675


--------------------------------------------------------------------------------------------------------




----------------------------------------- Iteration    1(  18)  ---------------------------------------


    POTLOK:  cpu time    1.89: real time    1.76
    SETDIJ:  cpu time    0.15: real time    0.15
    EDDIAG:  cpu time    2.24: real time    1.48
  RMM-DIIS:  cpu time   19.51: real time    5.52
    ORTHCH:  cpu time    0.17: real time    0.04
       DOS:  cpu time    0.00: real time    0.00
    CHARGE:  cpu time    1.01: real time    0.91
    MIXING:  cpu time    0.09: real time    0.06
    --------------------------------------------
      LOOP:  cpu time   25.08: real time    9.93

 eigenvalue-minimisations  :   112
 total energy-change (2. order) : 0.1088575E-03  (-0.7458354E-04)
 number of electron   91.9999993 magnetization 
 augmentation part    -0.9575178 magnetization 

 Broyden mixing:
  rms(total) = 0.24629E-02    rms(broyden)= 0.24629E-02
  rms(prec ) = 0.42178E-02
  weight for this iteration     100.00

 eigenvalues of (default mixing * dielectric matrix)
  average eigenvalue GAMMA=   1.4847
  2.6610  2.1753  1.5161  0.9133  0.9133  0.7292

 Free energy of the ion-electron system (eV)
  ---------------------------------------------------
  alpha Z        PSCENC =        -7.38312591
  Ewald energy   TEWEN  =     -2179.22324318
  -1/2 Hartree   DENC   =       -30.76521952
  -exchange  EXHF       =         0.00000000
  -V(xc)+E(xc)   XCENC  =      -792.36030452
  PAW double counting   =      1077.65857425     -108.18989269
  entropy T*S    EENTRO =        -0.08825614
  eigenvalues    EBANDS =       313.43928913
  atomic energy  EATOM  =      1629.13144109
  ---------------------------------------------------
  free energy    TOTEN  =       -97.78073749 eV

  energy without entropy =      -97.69248135  energy(sigma->0) =      -97.75131877


--------------------------------------------------------------------------------------------------------




----------------------------------------- Iteration    1(  19)  ---------------------------------------


    POTLOK:  cpu time    1.89: real time    1.77
    SETDIJ:  cpu time    0.15: real time    0.15
    EDDIAG:  cpu time    2.25: real time    1.48
  RMM-DIIS:  cpu time   14.56: real time    4.29
    ORTHCH:  cpu time    0.17: real time    0.04
       DOS:  cpu time    0.00: real time    0.00
    --------------------------------------------
      LOOP:  cpu time   19.03: real time    7.74

 eigenvalue-minimisations  :    84
 total energy-change (2. order) :-0.1291326E-04  (-0.1582498E-04)
 number of electron   91.9999993 magnetization 
 augmentation part    -0.9575178 magnetization 

 Free energy of the ion-electron system (eV)
  ---------------------------------------------------
  alpha Z        PSCENC =        -7.38312591
  Ewald energy   TEWEN  =     -2179.22324318
  -1/2 Hartree   DENC   =       -30.76932385
  -exchange  EXHF       =         0.00000000
  -V(xc)+E(xc)   XCENC  =      -792.35335394
  PAW double counting   =      1077.68498498     -108.21983574
  entropy T*S    EENTRO =        -0.08807209
  eigenvalues    EBANDS =       313.43977824
  atomic energy  EATOM  =      1629.13144109
  ---------------------------------------------------
  free energy    TOTEN  =       -97.78075040 eV

  energy without entropy =      -97.69267831  energy(sigma->0) =      -97.75139304


--------------------------------------------------------------------------------------------------------




 average (electrostatic) potential at core
  the test charge radii are     1.0714  1.0406
  (the norm of the test charge is              1.0000)
       1 -50.5776       2 -73.0214       3 -73.2007       4 -73.2457       5 -73.2457
       6 -72.9979       7 -72.7508       8 -73.1219       9 -73.1679      10 -73.0225
      11 -73.2457      12 -73.2457      13 -73.2581      14 -73.2116      15 -73.1219
      16 -73.1679      17 -72.9979      18 -72.7508      19 -73.1679      20 -73.1219
      21 -73.1765      22 -73.0928      23 -73.1714      24 -73.1714      25 -73.2581
      26 -73.2116      27 -73.1679      28 -73.1219      29 -72.7003      30 -73.1714
      31 -73.1714
 
 
 
 E-fermi :   7.8831     XC(G=0): -10.0094     alpha+bet :-14.3073
   add alpha+bet to get absolut eigen values

 k-point   1 :       0.0000    0.0000    0.0000
  band No.  band energies     occupation 
      1      -3.3463      2.00000
      2      -1.2309      2.00000
      3      -1.2107      2.00000
      4      -1.1965      2.00000
      5      -1.1840      2.00000
      6      -1.0225      2.00000
      7      -0.7235      2.00000
      8       0.9296      2.00000
      9       0.9543      2.00000
     10       0.9656      2.00000
     11       0.9839      2.00000
     12       1.0003      2.00000
     13       1.0335      2.00000
     14       1.0475      2.00000
     15       1.1024      2.00000
     16       1.1938      2.00000
     17       1.2243      2.00000
     18       1.5963      2.00000
     19       2.0408      2.00000
     20       3.0800      2.00000
     21       3.2138      2.00000
     22       3.2851      2.00000
     23       3.2864      2.00000
     24       3.2873      2.00000
     25       3.3500      2.00000
     26       3.6551      2.00000
     27       4.1348      2.00000
     28       4.8946      2.00000
     29       4.9321      2.00000
     30       4.9432      2.00000
     31       6.1282      2.00000
     32       6.2890      2.00000
     33       6.4323      2.00000
     34       6.7469      2.00000
     35       6.7784      2.00000
     36       6.7942      2.00000
     37       6.8047      2.00000
     38       6.8411      2.00000
     39       6.9050      2.00000
     40       6.9092      2.00000
     41       6.9886      2.00000
     42       7.0644      2.00000
     43       7.2751      2.00015
     44       7.2962      2.00027
     45       7.3471      2.00100
     46       7.8584      1.20705
     47       7.9634      0.37682
     48       7.9822      0.26422
     49       7.9862      0.24279
     50       8.0676     -0.03022
     51       8.0973     -0.06207
     52       8.7279      0.00000
     53       8.7420      0.00000
     54       8.7751      0.00000
     55       8.8055      0.00000
     56       8.8608      0.00000
     57       8.8718      0.00000
     58       8.9085      0.00000
     59       9.0199      0.00000
     60       9.1007      0.00000
     61       9.1536      0.00000
     62       9.2264      0.00000


--------------------------------------------------------------------------------------------------------


 soft charge-density along one line, spin component           1
         0         1         2         3         4         5         6         7         8         9
 total charge-density along one line
 
 pseudopotential strength for first ion, spin component:           1
  3.576  -0.045   0.000   0.000   0.000   0.000   0.000   0.000
 -0.045  -0.001   0.000   0.000   0.000   0.000   0.000   0.000
  0.000   0.000   0.745   0.000   0.000  -0.043   0.000   0.000
  0.000   0.000   0.000   0.745   0.000   0.000  -0.043   0.000
  0.000   0.000   0.000   0.000   0.745   0.000   0.000  -0.043
  0.000   0.000  -0.043   0.000   0.000  -0.031   0.000   0.000
  0.000   0.000   0.000  -0.043   0.000   0.000  -0.031   0.000
  0.000   0.000   0.000   0.000  -0.043   0.000   0.000  -0.031
 total augmentation occupancy for first ion, spin component:           1
  0.992  -0.061   0.000   0.003   0.003   0.000  -0.001  -0.001
 -0.061   0.005   0.000  -0.004  -0.004   0.000   0.000   0.000
  0.000   0.000   1.079   0.000   0.000   0.052   0.000   0.000
  0.003  -0.004   0.000   0.976  -0.065   0.000   0.047  -0.004
  0.003  -0.004   0.000  -0.065   0.976   0.000  -0.004   0.047
  0.000   0.000   0.052   0.000   0.000   0.003   0.000   0.000
 -0.001   0.000   0.000   0.047  -0.004   0.000   0.003   0.000
 -0.001   0.000   0.000  -0.004   0.047   0.000   0.000   0.003


------------------------ aborting loop because EDIFF is reached ----------------------------------------




--------------------------------------------------------------------------------------------------------



  FREE ENERGIE OF THE ION-ELECTRON SYSTEM (eV)
  ---------------------------------------------------
  free  energy   TOTEN  =       -97.780750 eV

  energy  without entropy=      -97.692678  energy(sigma->0) =      -97.751393
 
    CHARGE:  cpu time    0.91: real time    0.91
    FORLOC:  cpu time    0.72: real time    0.72
    FORNL :  cpu time    3.06: real time    3.06
    STRESS:  cpu time   19.05: real time    5.38
    FORCOR:  cpu time    2.44: real time    2.44
    FORHAR:  cpu time    1.11: real time    1.11
    MIXING:  cpu time    0.10: real time    0.06

  FORCE on cell =-STRESS in cart. coord.  units (eV):
  Direction    XX          YY          ZZ          XY          YZ          ZX
  --------------------------------------------------------------------------------------
  Alpha Z    -7.38313    -7.38313    -7.38313
  Ewald    -723.40017  -732.43188  -723.40017     0.00000     0.00000     5.60503
  Hartree    12.27049     6.27358    12.27049     0.00000     0.00000     2.83366
  E(xc)    -259.89012  -259.89748  -259.89012     0.00000     0.00000     0.06052
  Local     -15.95231    -0.12643   -15.95231     0.00000     0.00000    -7.71534
  n-local   548.47962   548.15244   548.48301    -0.00004     0.00011    -0.41959
  augment   -25.68582   -25.70135   -25.68581     0.00001     0.00001     0.03977
  Kinetic   466.32528   468.87810   466.31687     0.00064     0.00045    -1.08302
  Fock        0.00000     0.00000     0.00000     0.00000     0.00000     0.00000
  -------------------------------------------------------------------------------------
  Total      -5.23867    -2.23614    -5.23867     0.00000     0.00000    -0.67898
  in kB     -15.86940    -6.77390   -15.86940     0.00000     0.00000    -2.05683
  external pressure =      -12.84 kB  Pullay stress =        0.00 kB


 VOLUME and BASIS-vectors are now :
 -----------------------------------------------------------------------------
  energy-cutoff  :      300.00
  volume of cell :      528.90
      direct lattice vectors                 reciprocal lattice vectors
     8.087054000  0.000000000  0.000000000     0.123654423  0.000000000  0.000000000
     0.000000000  8.087054000  0.000000000     0.000000000  0.123654423  0.000000000
     0.000000000  0.000000000  8.087054000     0.000000000  0.000000000  0.123654423

  length of vectors
     8.087054000  8.087054000  8.087054000     0.123654423  0.123654423  0.123654423


 FORCES acting on ions
    electron-ion (+dipol)            ewald-force                    non-local-force                 convergence-correction
 -----------------------------------------------------------------------------------------------
   0.654E+01 0.141E-13 0.654E+01   -.624E+01 0.155E-14 -.624E+01   -.407E+00 0.000E+00 -.407E+00   -.355E-02 0.568E-14 -.355E-02
   -.227E+01 0.434E-14 -.227E+01   0.211E+01 0.266E-14 0.211E+01   0.143E+00 0.000E+00 0.143E+00   0.300E-02 -.882E-14 0.300E-02
   -.623E+00 -.576E-13 -.623E+00   0.705E+00 0.466E-14 0.705E+00   -.728E-01 0.000E+00 -.728E-01   0.162E-02 -.155E-13 0.162E-02
   -.738E+00 -.102E+02 -.966E+01   0.705E+00 0.101E+02 0.936E+01   -.184E-01 -.521E-02 0.169E+00   0.228E-02 0.988E-02 0.603E-02
   -.966E+01 -.102E+02 -.738E+00   0.936E+01 0.101E+02 0.705E+00   0.169E+00 -.521E-02 -.184E-01   0.603E-02 0.988E-02 0.228E-02
   0.210E+01 -.141E-12 -.229E+01   -.211E+01 -.322E-14 0.211E+01   0.291E-01 0.000E+00 0.134E+00   -.273E-02 -.115E-13 0.185E-02
   0.738E+00 -.818E-13 -.605E+00   -.705E+00 -.266E-14 0.705E+00   0.536E-01 0.271E-19 -.147E+00   -.158E-02 -.210E-13 0.255E-02
   0.705E+00 -.289E+01 -.226E+01   -.705E+00 0.282E+01 0.211E+01   0.103E+00 -.201E-01 0.649E-01   -.259E-02 0.616E-02 0.290E-02
   0.935E+01 -.124E+02 -.271E+01   -.936E+01 0.125E+02 0.312E+01   0.117E+00 -.490E+00 -.595E+00   -.573E-02 0.108E-01 0.258E-02
   -.971E+01 -.116E-13 -.971E+01   0.936E+01 -.289E-14 0.936E+01   0.108E+00 0.000E+00 0.108E+00   0.689E-02 0.792E-14 0.689E-02
   -.738E+00 0.102E+02 -.966E+01   0.705E+00 -.101E+02 0.936E+01   -.184E-01 0.521E-02 0.169E+00   0.228E-02 -.988E-02 0.603E-02
   -.966E+01 0.102E+02 -.738E+00   0.936E+01 -.101E+02 0.705E+00   0.169E+00 0.521E-02 -.184E-01   0.603E-02 -.988E-02 0.228E-02
   0.961E+01 0.144E-12 -.957E+01   -.936E+01 0.322E-14 0.936E+01   -.799E-01 0.000E+00 0.733E-01   -.629E-02 0.917E-14 0.644E-02
   0.292E+01 -.671E-13 -.291E+01   -.312E+01 -.444E-14 0.312E+01   0.401E+00 0.000E+00 -.394E+00   -.297E-02 0.185E-13 0.277E-02
   0.705E+00 0.289E+01 -.226E+01   -.705E+00 -.282E+01 0.211E+01   0.103E+00 0.201E-01 0.649E-01   -.259E-02 -.616E-02 0.290E-02
   0.935E+01 0.124E+02 -.271E+01   -.936E+01 -.125E+02 0.312E+01   0.117E+00 0.490E+00 -.595E+00   -.573E-02 -.108E-01 0.258E-02
   -.229E+01 -.175E-14 0.210E+01   0.211E+01 0.222E-14 -.211E+01   0.134E+00 0.000E+00 0.291E-01   0.185E-02 -.801E-14 -.273E-02
   -.605E+00 0.155E-13 0.738E+00   0.705E+00 0.389E-14 -.705E+00   -.147E+00 -.271E-19 0.536E-01   0.255E-02 -.385E-15 -.158E-02
   -.271E+01 -.124E+02 0.935E+01   0.312E+01 0.125E+02 -.936E+01   -.595E+00 -.490E+00 0.117E+00   0.258E-02 0.108E-01 -.573E-02
   -.226E+01 -.289E+01 0.705E+00   0.211E+01 0.282E+01 -.705E+00   0.649E-01 -.201E-01 0.103E+00   0.290E-02 0.616E-02 -.259E-02
   0.210E+01 -.389E-13 0.210E+01   -.211E+01 -.144E-14 -.211E+01   -.524E-01 0.000E+00 -.524E-01   -.181E-02 -.102E-13 -.181E-02
   0.736E+00 0.558E-13 0.736E+00   -.705E+00 -.322E-14 -.705E+00   0.766E-01 0.000E+00 0.766E-01   -.268E-02 -.150E-14 -.268E-02
   0.300E+01 -.505E+01 0.223E+01   -.312E+01 0.523E+01 -.211E+01   0.330E+00 -.368E+00 -.121E+00   -.282E-02 0.649E-02 -.268E-02
   0.223E+01 -.505E+01 0.300E+01   -.211E+01 0.523E+01 -.312E+01   -.121E+00 -.368E+00 0.330E+00   -.268E-02 0.649E-02 -.282E-02
   -.957E+01 -.654E-14 0.961E+01   0.936E+01 -.244E-14 -.936E+01   0.733E-01 -.136E-19 -.799E-01   0.644E-02 0.755E-14 -.629E-02
   -.291E+01 -.643E-13 0.292E+01   0.312E+01 -.389E-14 -.312E+01   -.394E+00 0.000E+00 0.401E+00   0.277E-02 -.311E-16 -.297E-02
   -.271E+01 0.124E+02 0.935E+01   0.312E+01 -.125E+02 -.936E+01   -.595E+00 0.490E+00 0.117E+00   0.258E-02 -.108E-01 -.573E-02
   -.226E+01 0.289E+01 0.705E+00   0.211E+01 -.282E+01 -.705E+00   0.649E-01 0.201E-01 0.103E+00   0.290E-02 -.616E-02 -.259E-02
   0.306E+01 0.584E-13 0.306E+01   -.312E+01 0.322E-14 -.312E+01   0.379E+00 0.000E+00 0.379E+00   -.312E-02 0.482E-15 -.312E-02
   0.300E+01 0.505E+01 0.223E+01   -.312E+01 -.523E+01 -.211E+01   0.330E+00 0.368E+00 -.121E+00   -.282E-02 -.649E-02 -.268E-02
   0.223E+01 0.505E+01 0.300E+01   -.211E+01 -.523E+01 -.312E+01   -.121E+00 0.368E+00 0.330E+00   -.268E-02 -.649E-02 -.282E-02
 -----------------------------------------------------------------------------------------------
   -.346E+00 0.493E-12 -.346E+00   -.888E-14 -.533E-14 0.533E-14   0.345E+00 -.555E-16 0.345E+00   0.330E-03 -.176E-13 0.330E-03
 
 
 POSITION                                       TOTAL-FORCE (eV/Angst)
 -----------------------------------------------------------------------------------
      4.04353      4.04353      4.04353        -0.103684      0.000000     -0.103684
      0.00000      0.00000      0.00000        -0.014953      0.000000     -0.014953
      2.02176      0.00000      2.02176         0.010194      0.000000      0.010194
      2.02176      2.02176      0.00000        -0.049620     -0.173979     -0.133533
      0.00000      2.02176      2.02176        -0.133533     -0.173979     -0.049620
      4.04353      0.00000      0.00000         0.010010      0.000000     -0.038581
      6.06529      0.00000      2.02176         0.085059      0.000000     -0.044617
      6.06529      2.02176      0.00000         0.101813     -0.084436     -0.075540
      4.04353      2.02176      2.02176         0.104004     -0.394085     -0.180616
      0.00000      4.04353      0.00000        -0.239701      0.000000     -0.239701
      2.02176      6.06529      0.00000        -0.049620      0.173979     -0.133533
      0.00000      6.06529      2.02176        -0.133533      0.173979     -0.049620
      4.04353      4.04353      0.00000         0.164299      0.000000     -0.132140
      6.06529      4.04353      2.02176         0.199609      0.000000     -0.186939
      6.06529      6.06529      0.00000         0.101813      0.084436     -0.075540
      4.04353      6.06529      2.02176         0.104004      0.394085     -0.180616
      0.00000      0.00000      4.04353        -0.038581      0.000000      0.010010
      2.02176      0.00000      6.06529        -0.044617      0.000000      0.085059
      2.02176      2.02176      4.04353        -0.180616     -0.394085      0.104004
      0.00000      2.02176      6.06529        -0.075540     -0.084436      0.101813
      4.04353      0.00000      4.04353        -0.070902      0.000000     -0.070902
      6.06529      0.00000      6.06529         0.105153      0.000000      0.105153
      6.06529      2.02176      4.04353         0.205766     -0.178014     -0.002279
      4.04353      2.02176      6.06529        -0.002279     -0.178014      0.205766
      0.00000      4.04353      4.04353        -0.132140      0.000000      0.164299
      2.02176      4.04353      6.06529        -0.186939      0.000000      0.199609
      2.02176      6.06529      4.04353        -0.180616      0.394085      0.104004
      0.00000      6.06529      6.06529        -0.075540      0.084436      0.101813
      6.06529      4.04353      6.06529         0.317205      0.000000      0.317205
      6.06529      6.06529      4.04353         0.205766      0.178014     -0.002279
      4.04353      6.06529      6.06529        -0.002279      0.178014      0.205766
 -----------------------------------------------------------------------------------
    total drift:                                0.000006      0.000000      0.000006


--------------------------------------------------------------------------------------------------------


    POTLOK:  cpu time    2.04: real time    1.91


--------------------------------------------------------------------------------------------------------


  FORCES: max atom, RMS     0.448595    0.255062
  FORCE total and by dimension    1.420123    0.394085


--------------------------------------------------------------------------------------------------------


    WAVPRE:  cpu time    0.87: real time    0.87
    FEWALD:  cpu time    0.01: real time    0.01
    ORTHCH:  cpu time    2.59: real time    0.66
     LOOP+:  cpu time  426.22: real time  162.29
   RESPFUN:  cpu time    0.01: real time    0.00


----------------------------------------- Iteration    2(   1)  ---------------------------------------


    POTLOK:  cpu time    1.93: real time    1.77
    SETDIJ:  cpu time    0.15: real time    0.15
    EDDIAG:  cpu time    2.24: real time    1.48
  RMM-DIIS:  cpu time   20.95: real time    6.06
    ORTHCH:  cpu time    0.16: real time    0.04
       DOS:  cpu time    0.00: real time    0.00
    CHARGE:  cpu time    1.01: real time    0.91
    MIXING:  cpu time    0.05: real time    0.05
    --------------------------------------------
      LOOP:  cpu time   26.50: real time   10.46

 eigenvalue-minimisations  :   124
 total energy-change (2. order) :-0.1039956E+00  (-0.7191960E-01)
 number of electron   91.9999994 magnetization 
 augmentation part    -0.9577450 magnetization 

 Broyden mixing:
  rms(total) = 0.34547E-01    rms(broyden)= 0.34545E-01
  rms(prec ) = 0.10875E+00
  weight for this iteration     100.00

 Free energy of the ion-electron system (eV)
  ---------------------------------------------------
  alpha Z        PSCENC =        -7.38312591
  Ewald energy   TEWEN  =     -2176.19359950
  -1/2 Hartree   DENC   =       -33.37954435
  -exchange  EXHF       =         0.00000000
  -V(xc)+E(xc)   XCENC  =      -792.29521413
  PAW double counting   =      1077.69895193     -108.23616700
  entropy T*S    EENTRO =        -0.04842710
  eigenvalues    EBANDS =       312.82095183
  atomic energy  EATOM  =      1629.13144109
  ---------------------------------------------------
  free energy    TOTEN  =       -97.88473313 eV

  energy without entropy =      -97.83630603  energy(sigma->0) =      -97.86859076


--------------------------------------------------------------------------------------------------------




----------------------------------------- Iteration    2(   2)  ---------------------------------------


    POTLOK:  cpu time    1.75: real time    1.75
    SETDIJ:  cpu time    0.15: real time    0.15
    EDDIAG:  cpu time    2.24: real time    1.48
  RMM-DIIS:  cpu time   20.94: real time    6.05
    ORTHCH:  cpu time    0.17: real time    0.04
       DOS:  cpu time    0.00: real time    0.00
    CHARGE:  cpu time    1.01: real time    0.92
    MIXING:  cpu time    0.05: real time    0.05
    --------------------------------------------
      LOOP:  cpu time   26.32: real time   10.44

 eigenvalue-minimisations  :   124
 total energy-change (2. order) : 0.1220541E-01  (-0.3828086E-02)
 number of electron   91.9999994 magnetization 
 augmentation part    -0.9572549 magnetization 

 Broyden mixing:
  rms(total) = 0.86218E-02    rms(broyden)= 0.86214E-02
  rms(prec ) = 0.21895E-01
  weight for this iteration     100.00

 eigenvalues of (default mixing * dielectric matrix)
  average eigenvalue GAMMA=   1.0476
  1.0476

 Free energy of the ion-electron system (eV)
  ---------------------------------------------------
  alpha Z        PSCENC =        -7.38312591
  Ewald energy   TEWEN  =     -2176.19359950
  -1/2 Hartree   DENC   =       -33.62495201
  -exchange  EXHF       =         0.00000000
  -V(xc)+E(xc)   XCENC  =      -792.29401066
  PAW double counting   =      1077.73483729     -108.27260587
  entropy T*S    EENTRO =        -0.06490525
  eigenvalues    EBANDS =       313.09439310
  atomic energy  EATOM  =      1629.13144109
  ---------------------------------------------------
  free energy    TOTEN  =       -97.87252772 eV

  energy without entropy =      -97.80762247  energy(sigma->0) =      -97.85089264


--------------------------------------------------------------------------------------------------------




----------------------------------------- Iteration    2(   3)  ---------------------------------------


    POTLOK:  cpu time    1.85: real time    1.86
    SETDIJ:  cpu time    0.15: real time    0.15
    EDDIAG:  cpu time    2.24: real time    1.48
  RMM-DIIS:  cpu time   22.69: real time    6.36
    ORTHCH:  cpu time    0.17: real time    0.04
       DOS:  cpu time    0.00: real time    0.00
    CHARGE:  cpu time    1.01: real time    0.91
    MIXING:  cpu time    0.06: real time    0.05
    --------------------------------------------
      LOOP:  cpu time   28.18: real time   10.85

 eigenvalue-minimisations  :   131
 total energy-change (2. order) : 0.2729995E-03  (-0.2917047E-03)
 number of electron   91.9999994 magnetization 
 augmentation part    -0.9572805 magnetization 

 Broyden mixing:
  rms(total) = 0.47156E-02    rms(broyden)= 0.47155E-02
  rms(prec ) = 0.87039E-02
  weight for this iteration     100.00

 eigenvalues of (default mixing * dielectric matrix)
  average eigenvalue GAMMA=   1.1936
  0.9086  1.4785

 Free energy of the ion-electron system (eV)
  ---------------------------------------------------
  alpha Z        PSCENC =        -7.38312591
  Ewald energy   TEWEN  =     -2176.19359950
  -1/2 Hartree   DENC   =       -33.65857638
  -exchange  EXHF       =         0.00000000
  -V(xc)+E(xc)   XCENC  =      -792.29351358
  PAW double counting   =      1077.74252369     -108.28079712
  entropy T*S    EENTRO =        -0.06620345
  eigenvalues    EBANDS =       313.12959643
  atomic energy  EATOM  =      1629.13144109
  ---------------------------------------------------
  free energy    TOTEN  =       -97.87225472 eV

  energy without entropy =      -97.80605128  energy(sigma->0) =      -97.85018691


--------------------------------------------------------------------------------------------------------




----------------------------------------- Iteration    2(   4)  ---------------------------------------


    POTLOK:  cpu time    1.80: real time    1.77
    SETDIJ:  cpu time    0.15: real time    0.15
    EDDIAG:  cpu time    2.24: real time    1.48
  RMM-DIIS:  cpu time   15.23: real time    4.50
    ORTHCH:  cpu time    0.17: real time    0.04
       DOS:  cpu time    0.00: real time    0.00
    --------------------------------------------
      LOOP:  cpu time   19.60: real time    7.94

 eigenvalue-minimisations  :    88
 total energy-change (2. order) : 0.3778597E-04  (-0.2572645E-04)
 number of electron   91.9999994 magnetization 
 augmentation part    -0.9572805 magnetization 

 Free energy of the ion-electron system (eV)
  ---------------------------------------------------
  alpha Z        PSCENC =        -7.38312591
  Ewald energy   TEWEN  =     -2176.19359950
  -1/2 Hartree   DENC   =       -33.67683094
  -exchange  EXHF       =         0.00000000
  -V(xc)+E(xc)   XCENC  =      -792.29319291
  PAW double counting   =      1077.74729648     -108.28587479
  entropy T*S    EENTRO =        -0.06664816
  eigenvalues    EBANDS =       313.14831771
  atomic energy  EATOM  =      1629.13144109
  ---------------------------------------------------
  free energy    TOTEN  =       -97.87221694 eV

  energy without entropy =      -97.80556877  energy(sigma->0) =      -97.85000088


--------------------------------------------------------------------------------------------------------




 average (electrostatic) potential at core
  the test charge radii are     1.0714  1.0406
  (the norm of the test charge is              1.0000)
       1 -50.6380       2 -72.9900       3 -73.1980       4 -73.2426       5 -73.2426
       6 -72.9741       7 -72.7239       8 -73.1041       9 -73.1837      10 -72.9985
      11 -73.2426      12 -73.2426      13 -73.2755      14 -73.2364      15 -73.1041
      16 -73.1837      17 -72.9741      18 -72.7239      19 -73.1837      20 -73.1041
      21 -73.1790      22 -73.0843      23 -73.1826      24 -73.1826      25 -73.2755
      26 -73.2364      27 -73.1837      28 -73.1041      29 -72.6871      30 -73.1826
      31 -73.1826
 
 
 
 E-fermi :   7.8702     XC(G=0): -10.0076     alpha+bet :-14.3073
   add alpha+bet to get absolut eigen values

 k-point   1 :       0.0000    0.0000    0.0000
  band No.  band energies     occupation 
      1      -3.3551      2.00000
      2      -1.2380      2.00000
      3      -1.2340      2.00000
      4      -1.2072      2.00000
      5      -1.1896      2.00000
      6      -1.0144      2.00000
      7      -0.7239      2.00000
[...]
  free energy    TOTEN  =       -98.18980283 eV

  energy without entropy =      -98.27193204  energy(sigma->0) =      -98.21717924


--------------------------------------------------------------------------------------------------------




----------------------------------------- Iteration    6(   4)  ---------------------------------------


    POTLOK:  cpu time    1.77: real time    1.76
    SETDIJ:  cpu time    0.15: real time    0.15
    EDDIAG:  cpu time    2.30: real time    1.53
  RMM-DIIS:  cpu time   18.43: real time    5.28
    ORTHCH:  cpu time    0.17: real time    0.04
       DOS:  cpu time    0.00: real time    0.00
    CHARGE:  cpu time    1.00: real time    0.91
    MIXING:  cpu time    0.07: real time    0.06
    --------------------------------------------
      LOOP:  cpu time   23.90: real time    9.73

 eigenvalue-minimisations  :   106
 total energy-change (2. order) : 0.1021110E-03  (-0.6868489E-04)
 number of electron   91.9999999 magnetization 
 augmentation part    -0.9522210 magnetization 

 Broyden mixing:
  rms(total) = 0.25560E-02    rms(broyden)= 0.25559E-02
  rms(prec ) = 0.44110E-02
  weight for this iteration     100.00

 eigenvalues of (default mixing * dielectric matrix)
  average eigenvalue GAMMA=   1.3109
  1.8468  1.3112  0.7748

 Free energy of the ion-electron system (eV)
  ---------------------------------------------------
  alpha Z        PSCENC =        -7.38312591
  Ewald energy   TEWEN  =     -2141.91751876
  -1/2 Hartree   DENC   =       -65.49754971
  -exchange  EXHF       =         0.00000000
  -V(xc)+E(xc)   XCENC  =      -791.67612043
  PAW double counting   =      1079.57812226     -110.19615697
  entropy T*S    EENTRO =         0.08281068
  eigenvalues    EBANDS =       309.68839703
  atomic energy  EATOM  =      1629.13144109
  ---------------------------------------------------
  free energy    TOTEN  =       -98.18970072 eV

  energy without entropy =      -98.27251141  energy(sigma->0) =      -98.21730428


--------------------------------------------------------------------------------------------------------




----------------------------------------- Iteration    6(   5)  ---------------------------------------


    POTLOK:  cpu time    1.80: real time    1.76
    SETDIJ:  cpu time    0.15: real time    0.15
    EDDIAG:  cpu time    2.24: real time    1.48
  RMM-DIIS:  cpu time   12.92: real time    3.84
    ORTHCH:  cpu time    0.17: real time    0.04
       DOS:  cpu time    0.00: real time    0.00
    --------------------------------------------
      LOOP:  cpu time   17.29: real time    7.26

 eigenvalue-minimisations  :    73
 total energy-change (2. order) : 0.6864666E-05  (-0.8705575E-05)
 number of electron   91.9999999 magnetization 
 augmentation part    -0.9522210 magnetization 

 Free energy of the ion-electron system (eV)
  ---------------------------------------------------
  alpha Z        PSCENC =        -7.38312591
  Ewald energy   TEWEN  =     -2141.91751876
  -1/2 Hartree   DENC   =       -65.50937742
  -exchange  EXHF       =         0.00000000
  -V(xc)+E(xc)   XCENC  =      -791.67668202
  PAW double counting   =      1079.56459415     -110.18186156
  entropy T*S    EENTRO =         0.08258970
  eigenvalues    EBANDS =       309.70024687
  atomic energy  EATOM  =      1629.13144109
  ---------------------------------------------------
  free energy    TOTEN  =       -98.18969386 eV

  energy without entropy =      -98.27228356  energy(sigma->0) =      -98.21722376


--------------------------------------------------------------------------------------------------------




 average (electrostatic) potential at core
  the test charge radii are     1.0714  1.0406
  (the norm of the test charge is              1.0000)
       1 -51.0480       2 -72.7322       3 -73.2060       4 -73.2349       5 -73.2349
       6 -72.7916       7 -72.5426       8 -72.9743       9 -73.2608      10 -72.8380
      11 -73.2349      12 -73.2349      13 -73.3770      14 -73.3652      15 -72.9743
      16 -73.2608      17 -72.7916      18 -72.5426      19 -73.2608      20 -72.9743
      21 -73.2437      22 -72.9261      23 -73.2565      24 -73.2565      25 -73.3770
      26 -73.3652      27 -73.2608      28 -72.9743      29 -72.5899      30 -73.2565
      31 -73.2565
 
 
 
 E-fermi :   7.7186     XC(G=0):  -9.9876     alpha+bet :-14.3073
   add alpha+bet to get absolut eigen values

 k-point   1 :       0.0000    0.0000    0.0000
  band No.  band energies     occupation 
      1      -3.4549      2.00000
      2      -1.3647      2.00000
      3      -1.3609      2.00000
      4      -1.2906      2.00000
      5      -1.2502      2.00000
      6      -1.0481      2.00000
      7      -0.7338      2.00000
      8       0.7454      2.00000
      9       0.8180      2.00000
     10       0.8506      2.00000
     11       0.8610      2.00000
     12       0.9307      2.00000
     13       1.0394      2.00000
     14       1.0433      2.00000
     15       1.0641      2.00000
     16       1.2134      2.00000
     17       1.2425      2.00000
     18       1.6875      2.00000
     19       2.0770      2.00000
     20       3.0572      2.00000
     21       3.2067      2.00000
     22       3.2696      2.00000
     23       3.2720      2.00000
     24       3.3539      2.00000
     25       3.4274      2.00000
     26       3.8029      2.00000
     27       4.3723      2.00000
     28       4.7871      2.00000
     29       4.8507      2.00000
     30       4.8686      2.00000
     31       6.0297      2.00000
     32       6.2280      2.00000
     33       6.3846      2.00000
     34       6.6062      2.00000
     35       6.6131      2.00000
     36       6.7019      2.00000
     37       6.7604      2.00000
     38       6.7646      2.00000
     39       6.7802      2.00000
     40       6.9319      2.00000
     41       6.9737      2.00000
     42       7.1146      2.00017
     43       7.3048      2.01272
     44       7.3177      2.01576
     45       7.4359      2.06253
     46       7.5815      1.90942
     47       7.8525      0.10248
     48       7.8846      0.00521
     49       7.9525     -0.06991
     50       8.0805     -0.02815
     51       8.1448     -0.01024
     52       8.6670      0.00000
     53       8.6876      0.00000
     54       8.7032      0.00000
     55       8.7202      0.00000
     56       8.7324      0.00000
     57       8.8117      0.00000
     58       8.8492      0.00000
     59       8.9058      0.00000
     60       9.1140      0.00000
     61       9.1256      0.00000
     62       9.2257      0.00000


--------------------------------------------------------------------------------------------------------


 soft charge-density along one line, spin component           1
         0         1         2         3         4         5         6         7         8         9
 total charge-density along one line
 
 pseudopotential strength for first ion, spin component:           1
  3.566  -0.039   0.000   0.000   0.000   0.000   0.000   0.000
 -0.039  -0.003   0.000   0.000   0.000   0.000   0.000   0.000
  0.000   0.000   0.738   0.000   0.000  -0.040   0.000   0.000
  0.000   0.000   0.000   0.738   0.000   0.000  -0.040   0.000
  0.000   0.000   0.000   0.000   0.738   0.000   0.000  -0.040
  0.000   0.000  -0.040   0.000   0.000  -0.032   0.000   0.000
  0.000   0.000   0.000  -0.040   0.000   0.000  -0.032   0.000
  0.000   0.000   0.000   0.000  -0.040   0.000   0.000  -0.032
 total augmentation occupancy for first ion, spin component:           1
  0.999  -0.057   0.000   0.000   0.000   0.000   0.001   0.001
 -0.057   0.004   0.000  -0.004  -0.004   0.000   0.000   0.000
  0.000   0.000   0.870   0.000   0.000   0.028   0.000   0.000
  0.000  -0.004   0.000   0.757  -0.034   0.000   0.025  -0.003
  0.000  -0.004   0.000  -0.034   0.757   0.000  -0.003   0.025
  0.000   0.000   0.028   0.000   0.000   0.001   0.000   0.000
  0.001   0.000   0.000   0.025  -0.003   0.000   0.001   0.000
  0.001   0.000   0.000  -0.003   0.025   0.000   0.000   0.001


------------------------ aborting loop because EDIFF is reached ----------------------------------------




--------------------------------------------------------------------------------------------------------



  FREE ENERGIE OF THE ION-ELECTRON SYSTEM (eV)
  ---------------------------------------------------
  free  energy   TOTEN  =       -98.189694 eV

  energy  without entropy=      -98.272284  energy(sigma->0) =      -98.217224
 
    CHARGE:  cpu time    0.91: real time    0.91
    FORLOC:  cpu time    0.72: real time    0.72
    FORNL :  cpu time    3.07: real time    3.07
    STRESS:  cpu time   19.05: real time    5.38
    FORCOR:  cpu time    2.43: real time    2.43
    FORHAR:  cpu time    1.11: real time    1.12
    MIXING:  cpu time    0.08: real time    0.06

  FORCE on cell =-STRESS in cart. coord.  units (eV):
  Direction    XX          YY          ZZ          XY          YZ          ZX
  --------------------------------------------------------------------------------------
  Alpha Z    -7.38313    -7.38313    -7.38313
  Ewald    -703.51020  -734.90553  -703.51020     0.00000     0.00000     5.00197
  Hartree    29.33030     6.84570    29.33030     0.00000     0.00000     3.72461
  E(xc)    -260.91079  -260.84522  -260.91079     0.00000     0.00000     0.09681
  Local     -54.92686     0.80941   -54.92686     0.00000     0.00000    -8.39896
  n-local   551.38581   549.97526   551.38544     0.00008     0.00018    -0.78158
  augment   -25.51586   -25.46293   -25.51586    -0.00001    -0.00002     0.05905
  Kinetic   468.50952   473.28036   468.51026    -0.00022    -0.00045    -1.85580
  Fock        0.00000     0.00000     0.00000     0.00000     0.00000     0.00000
  -------------------------------------------------------------------------------------
  Total      -3.02102     2.31394    -3.02102     0.00000     0.00000    -2.15390
  in kB      -9.15151     7.00958    -9.15151     0.00000     0.00000    -6.52475
  external pressure =       -3.76 kB  Pullay stress =        0.00 kB


 VOLUME and BASIS-vectors are now :
 -----------------------------------------------------------------------------
  energy-cutoff  :      300.00
  volume of cell :      528.90
      direct lattice vectors                 reciprocal lattice vectors
     8.087054000  0.000000000  0.000000000     0.123654423  0.000000000  0.000000000
     0.000000000  8.087054000  0.000000000     0.000000000  0.123654423  0.000000000
     0.000000000  0.000000000  8.087054000     0.000000000  0.000000000  0.123654423

  length of vectors
     8.087054000  8.087054000  8.087054000     0.123654423  0.123654423  0.123654423


 FORCES acting on ions
    electron-ion (+dipol)            ewald-force                    non-local-force                 convergence-correction
 -----------------------------------------------------------------------------------------------
   0.731E+01 0.234E-13 0.731E+01   -.709E+01 0.130E-14 -.709E+01   -.316E+00 0.000E+00 -.316E+00   -.135E-02 -.150E-13 -.135E-02
   -.523E+01 0.294E-14 -.523E+01   0.458E+01 0.949E-14 0.458E+01   0.475E+00 0.000E+00 0.475E+00   0.173E-02 0.287E-13 0.173E-02
   -.216E+01 -.649E-13 -.216E+01   0.239E+01 0.350E-14 0.239E+01   -.895E-01 0.000E+00 -.895E-01   -.980E-03 0.636E-14 -.980E-03
   -.518E+01 -.171E+02 -.139E+02   0.458E+01 0.164E+02 0.128E+02   0.701E+00 0.811E+00 0.109E+01   -.528E-03 -.272E-02 0.108E-02
   -.139E+02 -.171E+02 -.518E+01   0.128E+02 0.164E+02 0.458E+01   0.109E+01 0.811E+00 0.701E+00   0.108E-02 -.272E-02 -.527E-03
   0.493E+01 0.305E-13 -.328E+01   -.468E+01 -.777E-15 0.274E+01   -.287E+00 0.000E+00 0.400E+00   -.210E-02 0.605E-13 0.264E-02
   0.276E+01 -.567E-13 -.437E+01   -.242E+01 0.999E-15 0.436E+01   -.227E+00 -.127E-20 0.126E+00   0.116E-02 -.146E-13 -.143E-02
   0.410E+01 -.800E+01 -.384E+01   -.376E+01 0.742E+01 0.356E+01   -.369E+00 0.585E+00 0.237E+00   0.188E-02 -.263E-02 0.245E-02
   0.124E+02 -.232E+02 -.944E+01   -.119E+02 0.215E+02 0.881E+01   -.528E+00 0.181E+01 0.680E+00   -.154E-02 -.215E-02 -.455E-03
   -.148E+02 -.102E-13 -.148E+02   0.135E+02 -.988E-14 0.135E+02   0.122E+01 0.000E+00 0.122E+01   0.333E-03 -.388E-13 0.336E-03
   -.518E+01 0.171E+02 -.139E+02   0.458E+01 -.164E+02 0.128E+02   0.701E+00 -.811E+00 0.109E+01   -.528E-03 0.272E-02 0.108E-02
   -.139E+02 0.171E+02 -.518E+01   0.128E+02 -.164E+02 0.458E+01   0.109E+01 -.811E+00 0.701E+00   0.108E-02 0.272E-02 -.527E-03
   0.159E+02 -.533E-13 -.121E+02   -.142E+02 0.971E-14 0.115E+02   -.165E+01 0.000E+00 0.698E+00   -.295E-02 -.668E-13 0.186E-02
   0.847E+01 0.107E-13 -.127E+02   -.765E+01 -.466E-14 0.110E+02   -.862E+00 0.339E-20 0.167E+01   0.553E-03 0.329E-14 0.752E-03
   0.410E+01 0.800E+01 -.384E+01   -.376E+01 -.742E+01 0.356E+01   -.369E+00 -.585E+00 0.237E+00   0.188E-02 0.263E-02 0.245E-02
   0.124E+02 0.232E+02 -.944E+01   -.119E+02 -.215E+02 0.881E+01   -.528E+00 -.181E+01 0.680E+00   -.154E-02 0.215E-02 -.455E-03
   -.328E+01 -.192E-13 0.493E+01   0.274E+01 -.283E-14 -.468E+01   0.400E+00 0.000E+00 -.287E+00   0.264E-02 0.174E-13 -.210E-02
   -.437E+01 -.258E-15 0.276E+01   0.436E+01 0.888E-15 -.242E+01   0.126E+00 0.000E+00 -.227E+00   -.143E-02 0.595E-13 0.116E-02
   -.944E+01 -.232E+02 0.124E+02   0.881E+01 0.215E+02 -.119E+02   0.680E+00 0.181E+01 -.528E+00   -.456E-03 -.216E-02 -.154E-02
   -.384E+01 -.800E+01 0.410E+01   0.356E+01 0.742E+01 -.376E+01   0.237E+00 0.585E+00 -.369E+00   0.245E-02 -.263E-02 0.188E-02
   0.196E+01 -.411E-14 0.196E+01   -.217E+01 0.661E-14 -.217E+01   0.140E+00 0.000E+00 0.140E+00   -.269E-02 0.104E-13 -.269E-02
   0.563E+01 -.115E-12 0.563E+01   -.475E+01 0.102E-13 -.475E+01   -.803E+00 0.000E+00 -.803E+00   0.227E-02 0.545E-13 0.227E-02
   0.101E+02 -.139E+02 0.402E+01   -.898E+01 0.131E+02 -.367E+01   -.107E+01 0.939E+00 -.375E+00   0.106E-02 -.153E-02 -.354E-02
   0.402E+01 -.139E+02 0.101E+02   -.367E+01 0.131E+02 -.898E+01   -.375E+00 0.939E+00 -.107E+01   -.354E-02 -.153E-02 0.106E-02
   -.121E+02 -.356E-13 0.159E+02   0.115E+02 -.255E-14 -.142E+02   0.698E+00 0.635E-21 -.165E+01   0.186E-02 -.248E-13 -.296E-02
   -.127E+02 -.150E-12 0.847E+01   0.110E+02 0.927E-14 -.765E+01   0.167E+01 -.339E-20 -.862E+00   0.750E-03 -.671E-13 0.552E-03
   -.944E+01 0.232E+02 0.124E+02   0.881E+01 -.215E+02 -.119E+02   0.680E+00 -.181E+01 -.528E+00   -.456E-03 0.216E-02 -.154E-02
   -.384E+01 0.800E+01 0.410E+01   0.356E+01 -.742E+01 -.376E+01   0.237E+00 -.585E+00 -.369E+00   0.245E-02 0.263E-02 0.188E-02
   0.112E+02 -.156E-13 0.112E+02   -.999E+01 0.555E-15 -.999E+01   -.122E+01 0.000E+00 -.122E+01   0.261E-02 -.760E-13 0.261E-02
   0.101E+02 0.139E+02 0.402E+01   -.898E+01 -.131E+02 -.367E+01   -.107E+01 -.939E+00 -.375E+00   0.106E-02 0.153E-02 -.354E-02
   0.402E+01 0.139E+02 0.101E+02   -.367E+01 -.131E+02 -.898E+01   -.375E+00 -.939E+00 -.107E+01   -.354E-02 0.153E-02 0.106E-02
 -----------------------------------------------------------------------------------------------
   -.163E-01 -.148E-12 -.163E-01   -.711E-14 0.355E-14 0.178E-14   0.120E-01 0.000E+00 0.120E-01   0.321E-02 0.466E-13 0.321E-02
 
 
 POSITION                                       TOTAL-FORCE (eV/Angst)
 -----------------------------------------------------------------------------------
      3.99630      4.04353      3.99630        -0.097808      0.000000     -0.097808
     -0.01745      0.00000     -0.01745        -0.172833      0.000000     -0.172833
      2.00654      0.00000      2.00654         0.133551      0.000000      0.133551
      1.97901      1.96044     -0.04243         0.098276      0.118921      0.045668
     -0.04243      1.96044      1.97901         0.045668      0.118921      0.098276
      4.07017      0.00000     -0.03528        -0.042790      0.000000     -0.137938
      6.10755      0.00000      1.99050         0.119724      0.000000      0.108017
      6.10331      1.96903     -0.02177        -0.028492      0.004187     -0.039647
      4.10967      1.84886      1.93117        -0.008852      0.069011      0.045486
     -0.04992      4.04353     -0.04992        -0.053968      0.000000     -0.053968
      1.97901      6.12661     -0.04243         0.098276     -0.118921      0.045668
     -0.04243      6.12661      1.97901         0.045668     -0.118921      0.098276
      4.13085      4.04353     -0.05061         0.004738      0.000000      0.071890
      6.15776      4.04353      1.90875        -0.039542      0.000000     -0.098807
      6.10331      6.11802     -0.02177        -0.028492     -0.004187     -0.039647
      4.10967      6.23819      1.93117        -0.008852     -0.069011      0.045486
     -0.03528      0.00000      4.07017        -0.137938      0.000000     -0.042790
      1.99050      0.00000      6.10755         0.108017      0.000000      0.119724
      1.93117      1.84886      4.10967         0.045486      0.069011     -0.008852
     -0.02177      1.96903      6.10331        -0.039647      0.004187     -0.028492
      4.04043      0.00000      4.04043        -0.072368      0.000000     -0.072368
      6.11005      0.00000      6.11005         0.079420      0.000000      0.079420
      6.13886      1.93916      4.05762         0.006170      0.059902     -0.029021
      4.05762      1.93916      6.13886        -0.029021      0.059902      0.006170
     -0.05061      4.04353      4.13085         0.071890      0.000000      0.004738
      1.90875      4.04353      6.15776        -0.098807      0.000000     -0.039542
      1.93117      6.23819      4.10967         0.045486     -0.069011     -0.008852
     -0.02177      6.11802      6.10331        -0.039647     -0.004187     -0.028492
      6.14636      4.04353      6.14636         0.019539      0.000000      0.019539
      6.13886      6.14789      4.05762         0.006170     -0.059902     -0.029021
      4.05762      6.14789      6.13886        -0.029021     -0.059902      0.006170
 -----------------------------------------------------------------------------------
    total drift:                               -0.001152      0.000000     -0.001152
 d Force = 0.2886371E-01[-0.764E-03, 0.585E-01]  d Energy = 0.2808364E-01 0.780E-03
 d Force = 0.2421671E+01[ 0.227E+01, 0.257E+01]  d Ewald  = 0.2421151E+01 0.520E-03


--------------------------------------------------------------------------------------------------------


    POTLOK:  cpu time    2.05: real time    1.92


--------------------------------------------------------------------------------------------------------


  FORCES: max atom, RMS     0.244423    0.117726
  FORCE total and by dimension    0.655470    0.172833


--------------------------------------------------------------------------------------------------------


  
 reached required accuracy - stopping structural energy minimisation
     LOOP+:  cpu time  152.45: real time   64.66
    4ORBIT:  cpu time    0.00: real time    0.00

 total amount of memory used by VASP on root node 125895. kBytes
========================================================================

   base      :    30000. kBytes
   nonl-proj :     3890. kBytes
   fftplans  :    30736. kBytes
   grid      :    54743. kBytes
   one-center:       95. kBytes
   wavefun   :     6431. kBytes
 
  
  
 General timing and accounting informations for this job:
 ========================================================
  
                  Total CPU time used (sec):     1236.777
                            User time (sec):     1222.766
                          System time (sec):       14.011
                         Elapsed time (sec):      502.910
  
                   Maximum memory used (kb):           0.
                   Average memory used (kb):           0.
  
                          Minor page faults:       507683
                          Major page faults:            0
                 Voluntary context switches:         6701
