<?xml version="1.0" encoding="ISO-8859-1"?>
<modeling>
 <generator>
  <i name="program" type="string">vasp </i>
  <i name="version" type="string">5.2.2  </i>
  <i name="subversion" type="string">15Apr09 complex  parallel </i>
  <i name="platform" type="string">LinuxIFC </i>
  <i name="date" type="string">2014 04 24 </i>
  <i name="time" type="string">09:37:41 </i>
 </generator>
 <incar>
  <i type="string" name="PREC">accurate</i>
  <i type="int" name="IALGO">    48</i>
  <i type="int" name="IBRION">     2</i>
  <i name="EDIFFG">      0.05000000</i>
  <i type="int" name="NSW">   191</i>
  <i type="int" name="ISIF">     2</i>
  <i name="ENCUT">    300.00000000</i>
  <i name="NELECT">     92.00000000</i>
  <i type="int" name="ISMEAR">     1</i>
  <i name="SIGMA">      0.20000000</i>
  <i type="logical" name="LWAVE"> F  </i>
  <i type="logical" name="LCHARG"> F  </i>
  <i type="logical" name="LPEAD"> F  </i>
  <i type="logical" name="LCALCPOL"> F  </i>
  <i type="logical" name="LCALCEPS"> F  </i>
  <v name="EFIELD_PEAD">      0.00000000      0.00000000      0.00000000</v>
  <i type="logical" name="LEFG"> F  </i>
 </incar>
 <kpoints>
  <generation param="Gamma">
   <v type="int" name="divisions">       1        1        1 </v>
   <v name="usershift">      0.00000000       0.00000000       0.00000000 </v>
   <v name="genvec1">      1.00000000       0.00000000       0.00000000 </v>
   <v name="genvec2">      0.00000000       1.00000000       0.00000000 </v>
   <v name="genvec3">      0.00000000       0.00000000       1.00000000 </v>
   <v name="shift">      0.00000000       0.00000000       0.00000000 </v>
  </generation>
  <varray name="kpointlist" >
   <v>       0.00000000       0.00000000       0.00000000 </v>
  </varray>
  <varray name="weights" >
   <v>       1.00000000 </v>
  </varray>
 </kpoints>
 <parameters>
  <separator name="general" >
   <i type="string" name="SYSTEM">unknown system</i>
   <i type="logical" name="LCOMPAT"> F  </i>
  </separator>
  <separator name="electronic" >
   <i type="string" name="PREC">accura</i>
   <i name="ENMAX">    300.00000000</i>
   <i name="ENAUG">    291.05200000</i>
   <i name="EDIFF">      0.00010000</i>
   <i type="int" name="IALGO">    48</i>
   <i type="int" name="IWAVPR">    11</i>
   <i type="int" name="NBANDS">    62</i>
   <i name="NELECT">     92.00000000</i>
   <separator name="electronic smearing" >
    <i type="int" name="ISMEAR">     1</i>
    <i name="SIGMA">      0.20000000</i>
   </separator>
   <separator name="electronic projectors" >
    <i type="logical" name="LREAL"> F  </i>
    <v name="ROPT">      0.00000000      0.00000000</v>
    <i type="int" name="LMAXPAW">  -100</i>
    <i type="int" name="LMAXMIX">     2</i>
   </separator>
   <separator name="electronic startup" >
    <i type="int" name="ISTART">     0</i>
    <i type="int" name="ICHARG">     2</i>
    <i type="int" name="INIWAV">     1</i>
   </separator>
   <separator name="electronic spin" >
    <i type="int" name="ISPIN">     1</i>
    <i type="logical" name="LNONCOLLINEAR"> F  </i>
    <v name="MAGMOM">      1.00000000      1.00000000      1.00000000      1.00000000      1.00000000      1.00000000      1.00000000      1.00000000      1.00000000      1.00000000      1.00000000      1.00000000      1.00000000      1.00000000      1.00000000      1.00000000      1.00000000      1.00000000      1.00000000      1.00000000
      1.00000000      1.00000000      1.00000000      1.00000000      1.00000000      1.00000000      1.00000000      1.00000000      1.00000000      1.00000000      1.00000000</v>
    <i name="NUPDOWN">     -1.00000000</i>
    <i type="logical" name="LSORBIT"> F  </i>
    <v name="SAXIS">      0.00000000      0.00000000      1.00000000</v>
    <i type="logical" name="LSPIRAL"> F  </i>
    <v name="QSPIRAL">      0.00000000      0.00000000      0.00000000</v>
    <i type="logical" name="LZEROZ"> F  </i>
   </separator>
   <separator name="electronic exchange-correlation" >
    <i type="logical" name="LASPH"> F  </i>
    <i type="logical" name="LMETAGGA"> F  </i>
   </separator>
   <separator name="electronic convergence" >
    <i type="int" name="NELM">    60</i>
    <i type="int" name="NELMDL">   -12</i>
    <i type="int" name="NELMIN">     2</i>
    <i name="ENINI">    300.00000000</i>
    <separator name="electronic convergence detail" >
     <i type="logical" name="LDIAG"> T  </i>
     <i name="WEIMIN">      0.00100000</i>
     <i name="EBREAK">      0.00000040</i>
     <i name="DEPER">      0.30000000</i>
     <i type="int" name="NRMM">     4</i>
     <i name="TIME">      0.40000000</i>
    </separator>
   </separator>
   <separator name="electronic mixer" >
    <i name="AMIX">      0.40000000</i>
    <i name="BMIX">      1.00000000</i>
    <i name="AMIN">      0.10000000</i>
    <i name="AMIX_MAG">      1.60000000</i>
    <i name="BMIX_MAG">      1.00000000</i>
    <separator name="electronic mixer details" >
     <i type="int" name="IMIX">     4</i>
     <i type="int" name="MAXMIX">   -45</i>
     <i name="WC">    100.00000000</i>
     <i type="int" name="INIMIX">     1</i>
     <i type="int" name="MIXPRE">     1</i>
     <i type="int" name="MREMOVE">     5</i>
    </separator>
   </separator>
   <separator name="electronic dipolcorrection" >
    <i type="logical" name="LDIPOL"> F  </i>
    <i type="logical" name="LMONO"> F  </i>
    <i type="int" name="IDIPOL">     0</i>
    <i name="EPSILON">      1.00000000</i>
    <v name="DIPOL">   -100.00000000   -100.00000000   -100.00000000</v>
    <i name="EFIELD">      0.00000000</i>
   </separator>
  </separator>
  <separator name="grids" >
   <i type="int" name="NGX">    48</i>
   <i type="int" name="NGY">    48</i>
   <i type="int" name="NGZ">    48</i>
   <i type="int" name="NGXF">    96</i>
   <i type="int" name="NGYF">    96</i>
   <i type="int" name="NGZF">    96</i>
   <i type="logical" name="ADDGRID"> F  </i>
  </separator>
  <separator name="ionic" >
   <i type="int" name="NSW">   191</i>
   <i type="int" name="IBRION">     2</i>
   <i type="int" name="ISIF">     2</i>
   <i name="PSTRESS">      0.00000000</i>
   <i name="EDIFFG">      0.05000000</i>
   <i type="int" name="NFREE">     1</i>
   <i name="POTIM">      0.50000000</i>
   <i name="SMASS">     -3.00000000</i>
  </separator>
  <separator name="ionic md" >
   <i name="TEBEG">      0.00010000</i>
   <i name="TEEND">      0.00010000</i>
   <i type="int" name="NBLOCK">     1</i>
   <i type="int" name="KBLOCK">   191</i>
   <i type="int" name="NPACO">   256</i>
   <i name="APACO">     16.00000000</i>
  </separator>
  <separator name="symmetry" >
   <i type="int" name="ISYM">     2</i>
   <i name="SYMPREC">      0.00001000</i>
  </separator>
  <separator name="dos" >
   <i type="logical" name="LORBIT"> F  </i>
   <v name="RWIGS">     -1.00000000     -1.00000000</v>
   <i type="int" name="NEDOS">   301</i>
   <i name="EMIN">     10.00000000</i>
   <i name="EMAX">    -10.00000000</i>
   <i name="EFERMI">      0.00000000</i>
  </separator>
  <separator name="writing" >
   <i type="int" name="NWRITE">     2</i>
   <i type="logical" name="LWAVE"> F  </i>
   <i type="logical" name="LCHARG"> F  </i>
   <i type="logical" name="LPARD"> F  </i>
   <i type="logical" name="LVTOT"> F  </i>
   <i type="logical" name="LELF"> F  </i>
   <i type="logical" name="LOPTICS"> F  </i>
   <v name="STM">      0.00000000      0.00000000      0.00000000      0.00000000      0.00000000</v>
  </separator>
  <separator name="performance" >
   <i type="int" name="NPAR">     1</i>
   <i type="int" name="NSIM">     4</i>
   <i type="int" name="NBLK">    32</i>
   <i type="logical" name="LPLANE"> T  </i>
   <i type="logical" name="LSCALAPACK"> F  </i>
   <i type="logical" name="LSCAAWARE"> F  </i>
   <i type="logical" name="LSCALU"> F  </i>
   <i type="logical" name="LASYNC"> F  </i>
  </separator>
  <separator name="miscellaneous" >
   <i type="int" name="IDIOT">     3</i>
   <i type="logical" name="LMUSIC"> F  </i>
   <v name="POMASS">     24.30500000     26.98200000</v>
   <i type="logical" name="LCORR"> T  </i>
  </separator>
  <i type="logical" name="LREAL_COMPAT"> F  </i>
  <i type="logical" name="GGA_COMPAT"> T  </i>
  <i type="logical" name="LBERRY"> F  </i>
  <i type="int" name="ICORELEVEL">     0</i>
  <i type="logical" name="LDAU"> F  </i>
  <i type="int" name="I_CONSTRAINED_M">     0</i>
  <separator name="electronic exchange-correlation" >
   <i type="string" name="GGA">--</i>
   <i type="int" name="VOSKOWN">     0</i>
   <i type="logical" name="LHFCALC"> F  </i>
   <i type="logical" name="LHFONE"> F  </i>
   <i type="logical" name="LRHFCALC"> F  </i>
   <i type="logical" name="LTHOMAS"> F  </i>
   <i type="logical" name="LMODELHF"> F  </i>
   <i name="ENCUTFOCK">      0.00000000</i>
   <i name="ENCUT4O">     -1.00000000</i>
   <i type="int" name="EXXOEP">     0</i>
   <i type="int" name="FOURORBIT">     0</i>
   <i name="AEXX">      0.00000000</i>
   <i name="HFALPHA">      0.00000000</i>
   <i name="ALDAX">      1.00000000</i>
   <i name="AGGAX">      1.00000000</i>
   <i name="ALDAC">      1.00000000</i>
   <i name="AGGAC">      1.00000000</i>
   <i type="int" name="NKREDX">     1</i>
   <i type="int" name="NKREDY">     1</i>
   <i type="int" name="NKREDZ">     1</i>
   <i type="logical" name="SHIFTRED"> F  </i>
   <i type="logical" name="ODDONLY"> F  </i>
   <i type="logical" name="EVENONLY"> F  </i>
   <i type="int" name="LMAXFOCK">     0</i>
   <i type="int" name="NMAXFOCKAE">     0</i>
   <i name="HFSCREEN">      0.00000000</i>
   <i name="HFSCREENC">      0.00000000</i>
  </separator>
  <separator name="model GW" >
   <i type="int" name="MODEL_GW">     0</i>
   <i name="MODEL_EPS0">     10.23671437</i>
   <i name="MODEL_ALPHA">      1.00000000</i>
  </separator>
  <separator name="linear response parameters" >
   <i type="logical" name="LEPSILON"> F  </i>
   <i type="logical" name="LRPA"> F  </i>
   <i type="logical" name="LNABLA"> F  </i>
   <i type="logical" name="LVEL"> F  </i>
   <i type="int" name="KINTER">     0</i>
   <i name="CSHIFT">      0.10000000</i>
   <i name="OMEGAMAX">     -1.00000000</i>
  </separator>
  <separator name="orbital magnetization" >
   <i type="logical" name="ORBITALMAG"> F  </i>
   <i type="logical" name="LMAGBLOCH"> F  </i>
   <i type="logical" name="LCHIMAG"> F  </i>
   <i type="logical" name="LGAUGE"> T  </i>
   <i type="int" name="MAGATOM">     0</i>
   <v name="MAGDIPOL">      0.00000000      0.00000000      0.00000000</v>
   <v name="AVECCONST">      0.00000000      0.00000000      0.00000000</v>
  </separator>
  <separator name="response functions" >
   <i type="logical" name="LRPA"> T  </i>
   <i type="logical" name="LTCTE"> F  </i>
   <i type="logical" name="LTETE"> F  </i>
   <i type="logical" name="L2ORDER"> F  </i>
   <i type="logical" name="LGWLF"> F  </i>
   <i name="ENCUTGW">    200.00000000</i>
   <i name="ENCUTGWSOFT">     -2.00000000</i>
   <i name="ENCUTLF">     -1.00000000</i>
   <i type="int" name="LMAXMP2">    -1</i>
   <i name="SCISSOR">      0.00000000</i>
   <i type="int" name="NOMEGA">     0</i>
   <i type="int" name="NOMEGAR">     0</i>
   <i type="int" name="NBANDSGW">    -1</i>
   <i type="int" name="NBANDSLF">    -1</i>
   <i type="int" name="NELM">     1</i>
   <i type="int" name="DIM">     3</i>
   <i type="int" name="ANTIRES">     0</i>
   <i type="logical" name="LUSEW"> F  </i>
   <i name="OMEGAMAX">    -30.00000000</i>
   <i name="OMEGATL">   -200.00000000</i>
   <i type="int" name="OMEGAGRID">     0</i>
   <i name="CSHIFT">     -0.10000000</i>
   <i type="logical" name="SELFENERGY"> F  </i>
   <i type="logical" name="LSPECTRAL"> F  </i>
   <i type="logical" name="ODDONLYGW"> F  </i>
   <i type="logical" name="EVENONLYGW"> F  </i>
   <i type="int" name="NKREDLFX">     1</i>
   <i type="int" name="NKREDLFY">     1</i>
   <i type="int" name="NKREDLFZ">     1</i>
   <i type="int" name="MAXMEM">  1024</i>
   <i type="int" name="TELESCOPE">     0</i>
  </separator>
 </parameters>
 <atominfo>
  <atoms>      31 </atoms>
  <types>       2 </types>
  <array name="atoms" >
   <dimension dim="1">ion</dimension>
   <field type="string">element</field>
   <field type="int">atomtype</field>
   <set>
    <rc><c>Mg</c><c>   1</c></rc>
    <rc><c>Al</c><c>   2</c></rc>
    <rc><c>Al</c><c>   2</c></rc>
    <rc><c>Al</c><c>   2</c></rc>
    <rc><c>Al</c><c>   2</c></rc>
    <rc><c>Al</c><c>   2</c></rc>
    <rc><c>Al</c><c>   2</c></rc>
    <rc><c>Al</c><c>   2</c></rc>
    <rc><c>Al</c><c>   2</c></rc>
    <rc><c>Al</c><c>   2</c></rc>
    <rc><c>Al</c><c>   2</c></rc>
    <rc><c>Al</c><c>   2</c></rc>
    <rc><c>Al</c><c>   2</c></rc>
    <rc><c>Al</c><c>   2</c></rc>
    <rc><c>Al</c><c>   2</c></rc>
    <rc><c>Al</c><c>   2</c></rc>
    <rc><c>Al</c><c>   2</c></rc>
    <rc><c>Al</c><c>   2</c></rc>
    <rc><c>Al</c><c>   2</c></rc>
    <rc><c>Al</c><c>   2</c></rc>
    <rc><c>Al</c><c>   2</c></rc>
    <rc><c>Al</c><c>   2</c></rc>
    <rc><c>Al</c><c>   2</c></rc>
    <rc><c>Al</c><c>   2</c></rc>
    <rc><c>Al</c><c>   2</c></rc>
    <rc><c>Al</c><c>   2</c></rc>
    <rc><c>Al</c><c>   2</c></rc>
    <rc><c>Al</c><c>   2</c></rc>
    <rc><c>Al</c><c>   2</c></rc>
    <rc><c>Al</c><c>   2</c></rc>
    <rc><c>Al</c><c>   2</c></rc>
   </set>
  </array>
  <array name="atomtypes" >
   <dimension dim="1">type</dimension>
   <field type="int">atomspertype</field>
   <field type="string">element</field>
   <field>mass</field>
   <field>valence</field>
   <field type="string">pseudopotential</field>
   <set>
    <rc><c>   1</c><c>Mg</c><c>     24.30500000</c><c>      2.00000000</c><c> PAW_PBE Mg 05Jan2001                   </c></rc>
    <rc><c>  30</c><c>Al</c><c>     26.98200000</c><c>      3.00000000</c><c> PAW_PBE Al 04Jan2001                   </c></rc>
   </set>
  </array>
 </atominfo>
 <structure name="initialpos" >
  <crystal>
   <varray name="basis" >
    <v>       8.08705400       0.00000000       0.00000000 </v>
    <v>       0.00000000       8.08705400       0.00000000 </v>
    <v>       0.00000000       0.00000000       8.08705400 </v>
   </varray>
   <i name="volume">    528.89690930 </i>
   <varray name="rec_basis" >
    <v>       0.12365442       0.00000000       0.00000000 </v>
    <v>       0.00000000       0.12365442       0.00000000 </v>
    <v>       0.00000000       0.00000000       0.12365442 </v>
   </varray>
  </crystal>
  <varray name="positions" >
   <v>       0.50000000       0.50000000       0.50000000 </v>
   <v>       0.00000000       0.00000000       0.00000000 </v>
   <v>       0.25000000       0.00000000       0.25000000 </v>
   <v>       0.25000000       0.25000000       0.00000000 </v>
   <v>       0.00000000       0.25000000       0.25000000 </v>
   <v>       0.50000000       0.00000000       0.00000000 </v>
   <v>       0.75000000       0.00000000       0.25000000 </v>
   <v>       0.75000000       0.25000000       0.00000000 </v>
   <v>       0.50000000       0.25000000       0.25000000 </v>
   <v>       0.00000000       0.50000000       0.00000000 </v>
   <v>       0.25000000       0.75000000       0.00000000 </v>
   <v>       0.00000000       0.75000000       0.25000000 </v>
   <v>       0.50000000       0.50000000       0.00000000 </v>
   <v>       0.75000000       0.50000000       0.25000000 </v>
   <v>       0.75000000       0.75000000       0.00000000 </v>
   <v>       0.50000000       0.75000000       0.25000000 </v>
   <v>       0.00000000       0.00000000       0.50000000 </v>
   <v>       0.25000000       0.00000000       0.75000000 </v>
   <v>       0.25000000       0.25000000       0.50000000 </v>
   <v>       0.00000000       0.25000000       0.75000000 </v>
   <v>       0.50000000       0.00000000       0.50000000 </v>
   <v>       0.75000000       0.00000000       0.75000000 </v>
   <v>       0.75000000       0.25000000       0.50000000 </v>
   <v>       0.50000000       0.25000000       0.75000000 </v>
   <v>       0.00000000       0.50000000       0.50000000 </v>
   <v>       0.25000000       0.50000000       0.75000000 </v>
   <v>       0.25000000       0.75000000       0.50000000 </v>
   <v>       0.00000000       0.75000000       0.75000000 </v>
   <v>       0.75000000       0.50000000       0.75000000 </v>
   <v>       0.75000000       0.75000000       0.50000000 </v>
   <v>       0.50000000       0.75000000       0.75000000 </v>
  </varray>
 </structure>
 <calculation>
  <scstep>
   <time name="diag">    2.24    1.48</time>
   <time name="diis">   11.37    3.44</time>
   <time name="orth">    0.16    0.04</time>
   <time name="total">   15.81    6.88</time>
   <energy>
    <i name="alphaZ">     -7.38312591 </i>
    <i name="ewald">  -2179.22324318 </i>
    <i name="hartreedc">    -25.65026546 </i>
    <i name="XCdc">   -796.30847292 </i>
    <i name="pawpsdc">   1078.21717227 </i>
    <i name="pawaedc">   -108.50372521 </i>
    <i name="eentropy">     -0.04617794 </i>
    <i name="bandstr">    713.99682332 </i>
    <i name="atom">   1629.13144109 </i>
    <i name="e_fr_energy">    304.23042605 </i>
    <i name="e_wo_entrp">    304.27660400 </i>
    <i name="e_0_energy">    304.24581870 </i>
   </energy>
  </scstep>
  <scstep>
   <time name="diag">    2.25    1.47</time>
   <time name="diis">   11.01    3.41</time>
   <time name="orth">    0.16    0.04</time>
   <time name="total">   13.44    4.91</time>
   <energy>
    <i name="e_fr_energy">     -4.27502761 </i>
    <i name="e_wo_entrp">     -4.33115194 </i>
    <i name="e_0_energy">     -4.29373572 </i>
   </energy>
  </scstep>
  <scstep>
   <time name="diag">    2.17    1.46</time>
   <time name="diis">   11.24    3.43</time>
   <time name="orth">    0.17    0.04</time>
   <time name="total">   13.58    4.93</time>
   <energy>
    <i name="e_fr_energy">    -66.92000731 </i>
    <i name="e_wo_entrp">    -66.86739259 </i>
    <i name="e_0_energy">    -66.90246907 </i>
   </energy>
  </scstep>
  <scstep>
   <time name="diag">    2.10    1.45</time>
   <time name="diis">   10.89    3.40</time>
   <time name="orth">    0.17    0.04</time>
   <time name="total">   13.16    4.89</time>
   <energy>
    <i name="e_fr_energy">    -84.26316960 </i>
    <i name="e_wo_entrp">    -84.16966065 </i>
    <i name="e_0_energy">    -84.23199995 </i>
   </energy>
  </scstep>
  <scstep>
   <time name="diag">    2.17    1.46</time>
   <time name="diis">   11.16    3.42</time>
   <time name="orth">    0.17    0.04</time>
   <time name="total">   13.51    4.92</time>
   <energy>
    <i name="e_fr_energy">    -91.47887101 </i>
    <i name="e_wo_entrp">    -91.42986733 </i>
    <i name="e_0_energy">    -91.46253645 </i>
   </energy>
  </scstep>
  <scstep>
   <time name="diag">    2.11    1.45</time>
   <time name="diis">   11.38    3.44</time>
   <time name="orth">    0.17    0.04</time>
   <time name="total">   13.68    4.94</time>
   <energy>
    <i name="e_fr_energy">    -94.84678492 </i>
    <i name="e_wo_entrp">    -94.82595239 </i>
    <i name="e_0_energy">    -94.83984074 </i>
   </energy>
  </scstep>
  <scstep>
   <time name="diag">    2.25    1.46</time>
   <time name="diis">   11.03    3.41</time>
   <time name="orth">    0.17    0.04</time>
   <time name="total">   13.46    4.92</time>
   <energy>
    <i name="e_fr_energy">    -96.65007928 </i>
    <i name="e_wo_entrp">    -96.65676626 </i>
    <i name="e_0_energy">    -96.65230827 </i>
   </energy>
  </scstep>
  <scstep>
   <time name="diag">    2.19    1.46</time>
   <time name="diis">   11.27    3.43</time>
   <time name="orth">    0.17    0.04</time>
   <time name="total">   13.63    4.93</time>
   <energy>
    <i name="e_fr_energy">    -97.69168827 </i>
    <i name="e_wo_entrp">    -97.70053220 </i>
    <i name="e_0_energy">    -97.69463624 </i>
   </energy>
  </scstep>
  <scstep>
   <time name="diag">    2.06    1.44</time>
   <time name="diis">   27.63    7.68</time>
   <time name="orth">    0.17    0.04</time>
   <time name="total">   29.87    9.17</time>
   <energy>
    <i name="e_fr_energy">    -99.12526151 </i>
    <i name="e_wo_entrp">    -99.13621792 </i>
    <i name="e_0_energy">    -99.12891365 </i>
   </energy>
  </scstep>
  <scstep>
   <time name="diag">    2.17    1.46</time>
   <time name="diis">   24.32    6.66</time>
   <time name="orth">    0.17    0.04</time>
   <time name="total">   26.66    8.16</time>
   <energy>
    <i name="e_fr_energy">    -99.29785142 </i>
    <i name="e_wo_entrp">    -99.30714586 </i>
    <i name="e_0_energy">    -99.30094957 </i>
   </energy>
  </scstep>
  <scstep>
   <time name="diag">    2.17    1.46</time>
   <time name="diis">   21.06    5.88</time>
   <time name="orth">    0.17    0.04</time>
   <time name="total">   23.41    7.39</time>
   <energy>
    <i name="e_fr_energy">    -99.31433156 </i>
    <i name="e_wo_entrp">    -99.32540021 </i>
    <i name="e_0_energy">    -99.31802111 </i>
   </energy>
  </scstep>
  <scstep>
   <time name="diag">    2.10    1.45</time>
   <time name="diis">   18.34    5.22</time>
   <time name="orth">    0.17    0.04</time>
   <time name="total">   21.68    7.69</time>
   <energy>
    <i name="e_fr_energy">    -99.31501330 </i>
    <i name="e_wo_entrp">    -99.32634899 </i>
    <i name="e_0_energy">    -99.31879186 </i>
   </energy>
  </scstep>
  <scstep>
   <time name="diag">    2.25    1.48</time>
   <time name="diis">   21.43    6.16</time>
   <time name="orth">    0.16    0.04</time>
   <time name="total">   26.82   10.57</time>
   <energy>
    <i name="e_fr_energy">    -98.15395234 </i>
    <i name="e_wo_entrp">    -98.06653530 </i>
    <i name="e_0_energy">    -98.12481333 </i>
   </energy>
  </scstep>
  <scstep>
   <time name="diag">    2.24    1.48</time>
   <time name="diis">   21.55    6.22</time>
   <time name="orth">    0.17    0.04</time>
   <time name="total">   26.94   10.62</time>
   <energy>
    <i name="e_fr_energy">    -97.90291991 </i>
    <i name="e_wo_entrp">    -97.80634775 </i>
    <i name="e_0_energy">    -97.87072919 </i>
   </energy>
  </scstep>
  <scstep>
   <time name="diag">    2.24    1.48</time>
   <time name="diis">   21.31    6.15</time>
   <time name="orth">    0.17    0.04</time>
   <time name="total">   26.78   10.55</time>
   <energy>
    <i name="e_fr_energy">    -97.78858977 </i>
    <i name="e_wo_entrp">    -97.71167952 </i>
    <i name="e_0_energy">    -97.76295302 </i>
   </energy>
  </scstep>
  <scstep>
   <time name="diag">    2.24    1.48</time>
   <time name="diis">   22.76    6.43</time>
   <time name="orth">    0.17    0.04</time>
   <time name="total">   28.26   10.93</time>
   <energy>
    <i name="e_fr_energy">    -97.78168915 </i>
    <i name="e_wo_entrp">    -97.69221760 </i>
    <i name="e_0_energy">    -97.75186530 </i>
   </energy>
  </scstep>
  <scstep>
   <time name="diag">    2.24    1.48</time>
   <time name="diis">   22.67    6.43</time>
   <time name="orth">    0.17    0.04</time>
   <time name="total">   28.16   10.83</time>
   <energy>
    <i name="e_fr_energy">    -97.78084634 </i>
    <i name="e_wo_entrp">    -97.69192756 </i>
    <i name="e_0_energy">    -97.75120675 </i>
   </energy>
  </scstep>
  <scstep>
   <time name="diag">    2.24    1.48</time>
   <time name="diis">   19.51    5.52</time>
   <time name="orth">    0.17    0.04</time>
   <time name="total">   25.08    9.93</time>
   <energy>
    <i name="e_fr_energy">    -97.78073749 </i>
    <i name="e_wo_entrp">    -97.69248135 </i>
    <i name="e_0_energy">    -97.75131877 </i>
   </energy>
  </scstep>
  <scstep>
   <time name="diag">    2.25    1.48</time>
   <time name="diis">   14.56    4.29</time>
   <time name="orth">    0.17    0.04</time>
   <time name="total">   19.03    7.74</time>
   <energy>
    <i name="alphaZ">     -7.38312591 </i>
    <i name="ewald">  -2179.22324318 </i>
    <i name="hartreedc">    -30.76932385 </i>
    <i name="XCdc">   -792.35335394 </i>
    <i name="pawpsdc">   1077.68498498 </i>
    <i name="pawaedc">   -108.21983574 </i>
    <i name="eentropy">     -0.08807209 </i>
    <i name="bandstr">    313.43977824 </i>
    <i name="atom">   1629.13144109 </i>
    <i name="e_fr_energy">    -97.78075040 </i>
    <i name="e_wo_entrp">    -97.69267831 </i>
    <i name="e_0_energy">    -97.75139304 </i>
   </energy>
  </scstep>
  <structure>
   <crystal>
    <varray name="basis" >
     <v>       8.08705400       0.00000000       0.00000000 </v>
     <v>       0.00000000       8.08705400       0.00000000 </v>
     <v>       0.00000000       0.00000000       8.08705400 </v>
    </varray>
    <i name="volume">    528.89690930 </i>
    <varray name="rec_basis" >
     <v>       0.12365442       0.00000000       0.00000000 </v>
     <v>       0.00000000       0.12365442       0.00000000 </v>
     <v>       0.00000000       0.00000000       0.12365442 </v>
    </varray>
   </crystal>
   <varray name="positions" >
    <v>       0.50000000       0.50000000       0.50000000 </v>
    <v>       0.00000000       0.00000000       0.00000000 </v>
    <v>       0.25000000       0.00000000       0.25000000 </v>
    <v>       0.25000000       0.25000000       0.00000000 </v>
    <v>       0.00000000       0.25000000       0.25000000 </v>
    <v>       0.50000000       0.00000000       0.00000000 </v>
    <v>       0.75000000       0.00000000       0.25000000 </v>
    <v>       0.75000000       0.25000000       0.00000000 </v>
    <v>       0.50000000       0.25000000       0.25000000 </v>
    <v>       0.00000000       0.50000000       0.00000000 </v>
    <v>       0.25000000       0.75000000       0.00000000 </v>
    <v>       0.00000000       0.75000000       0.25000000 </v>
    <v>       0.50000000       0.50000000       0.00000000 </v>
    <v>       0.75000000       0.50000000       0.25000000 </v>
    <v>       0.75000000       0.75000000       0.00000000 </v>
    <v>       0.50000000       0.75000000       0.25000000 </v>
    <v>       0.00000000       0.00000000       0.50000000 </v>
    <v>       0.25000000       0.00000000       0.75000000 </v>
    <v>       0.25000000       0.25000000       0.50000000 </v>
    <v>       0.00000000       0.25000000       0.75000000 </v>
    <v>       0.50000000       0.00000000       0.50000000 </v>
    <v>       0.75000000       0.00000000       0.75000000 </v>
    <v>       0.75000000       0.25000000       0.50000000 </v>
    <v>       0.50000000       0.25000000       0.75000000 </v>
    <v>       0.00000000       0.50000000       0.50000000 </v>
    <v>       0.25000000       0.50000000       0.75000000 </v>
    <v>       0.25000000       0.75000000       0.50000000 </v>
    <v>       0.00000000       0.75000000       0.75000000 </v>
    <v>       0.75000000       0.50000000       0.75000000 </v>
    <v>       0.75000000       0.75000000       0.50000000 </v>
    <v>       0.50000000       0.75000000       0.75000000 </v>
   </varray>
  </structure>
  <varray name="forces" >
   <v>      -0.10368424       0.00000000      -0.10368424 </v>
   <v>      -0.01495311       0.00000000      -0.01495311 </v>
   <v>       0.01019357       0.00000000       0.01019357 </v>
   <v>      -0.04962021      -0.17397905      -0.13353325 </v>
   <v>      -0.13353325      -0.17397905      -0.04962021 </v>
   <v>       0.01001025       0.00000000      -0.03858112 </v>
   <v>       0.08505857       0.00000000      -0.04461726 </v>
   <v>       0.10181279      -0.08443584      -0.07553953 </v>
   <v>       0.10400355      -0.39408456      -0.18061599 </v>
   <v>      -0.23970126       0.00000000      -0.23970126 </v>
   <v>      -0.04962021       0.17397905      -0.13353325 </v>
   <v>      -0.13353325       0.17397905      -0.04962021 </v>
   <v>       0.16429860       0.00000000      -0.13213954 </v>
   <v>       0.19960933       0.00000000      -0.18693895 </v>
   <v>       0.10181279       0.08443584      -0.07553953 </v>
   <v>       0.10400355       0.39408456      -0.18061599 </v>
   <v>      -0.03858112       0.00000000       0.01001025 </v>
   <v>      -0.04461726       0.00000000       0.08505857 </v>
   <v>      -0.18061599      -0.39408456       0.10400355 </v>
   <v>      -0.07553953      -0.08443584       0.10181279 </v>
   <v>      -0.07090161       0.00000000      -0.07090161 </v>
   <v>       0.10515302       0.00000000       0.10515302 </v>
   <v>       0.20576578      -0.17801418      -0.00227855 </v>
   <v>      -0.00227855      -0.17801418       0.20576578 </v>
   <v>      -0.13213954       0.00000000       0.16429860 </v>
   <v>      -0.18693895       0.00000000       0.19960933 </v>
   <v>      -0.18061599       0.39408456       0.10400355 </v>
   <v>      -0.07553953       0.08443584       0.10181279 </v>
   <v>       0.31720456       0.00000000       0.31720456 </v>
   <v>       0.20576578       0.17801418      -0.00227855 </v>
   <v>      -0.00227855       0.17801418       0.20576578 </v>
  </varray>
  <varray name="stress" >
   <v>     -15.86939836       0.00000000      -2.05682705 </v>
   <v>       0.00000000      -6.77389868       0.00000000 </v>
   <v>      -2.05682705       0.00000000     -15.86939836 </v>
  </varray>
  <energy>
   <i name="e_fr_energy">    -97.78075040 </i>
   <i name="e_wo_entrp">    -97.75139304 </i>
   <i name="e_0_energy">     -0.08807209 </i>
  </energy>
  <time name="totalsc">  426.22  162.29</time>
 </calculation>
 <calculation>
  <scstep>
   <time name="diag">    2.24    1.48</time>
   <time name="diis">   20.95    6.06</time>
   <time name="orth">    0.16    0.04</time>
   <time name="total">   26.50   10.46</time>
   <energy>
    <i name="alphaZ">     -7.38312591 </i>
    <i name="ewald">  -2176.19359950 </i>
    <i name="hartreedc">    -33.37954435 </i>
    <i name="XCdc">   -792.29521413 </i>
    <i name="pawpsdc">   1077.69895193 </i>
    <i name="pawaedc">   -108.23616700 </i>
    <i name="eentropy">     -0.04842710 </i>
    <i name="bandstr">    312.82095183 </i>
    <i name="atom">   1629.13144109 </i>
    <i name="e_fr_energy">    -97.88473313 </i>
    <i name="e_wo_entrp">    -97.83630603 </i>
    <i name="e_0_energy">    -97.86859076 </i>
   </energy>
  </scstep>
  <scstep>
   <time name="diag">    2.24    1.48</time>
   <time name="diis">   20.94    6.05</time>
   <time name="orth">    0.17    0.04</time>
   <time name="total">   26.32   10.44</time>
   <energy>
    <i name="e_fr_energy">    -97.87252772 </i>
    <i name="e_wo_entrp">    -97.80762247 </i>
    <i name="e_0_energy">    -97.85089264 </i>
   </energy>
  </scstep>
  <scstep>
   <time name="diag">    2.24    1.48</time>
   <time name="diis">   22.69    6.36</time>
   <time name="orth">    0.17    0.04</time>
   <time name="total">   28.18   10.85</time>
   <energy>
    <i name="e_fr_energy">    -97.87225472 </i>
    <i name="e_wo_entrp">    -97.80605128 </i>
    <i name="e_0_energy">    -97.85018691 </i>
   </energy>
  </scstep>
  <scstep>
   <time name="diag">    2.24    1.48</time>
   <time name="diis">   15.23    4.50</time>
   <time name="orth">    0.17    0.04</time>
   <time name="total">   19.60    7.94</time>
   <energy>
    <i name="alphaZ">     -7.38312591 </i>
    <i name="ewald">  -2176.19359950 </i>
    <i name="hartreedc">    -33.67683094 </i>
    <i name="XCdc">   -792.29319291 </i>
    <i name="pawpsdc">   1077.74729648 </i>
    <i name="pawaedc">   -108.28587479 </i>
    <i name="eentropy">     -0.06664816 </i>
    <i name="bandstr">    313.14831771 </i>
    <i name="atom">   1629.13144109 </i>
    <i name="e_fr_energy">    -97.87221694 </i>
    <i name="e_wo_entrp">    -97.80556877 </i>
    <i name="e_0_energy">    -97.85000088 </i>
   </energy>
  </scstep>
  <structure>
   <crystal>
    <varray name="basis" >
     <v>       8.08705400       0.00000000       0.00000000 </v>
     <v>       0.00000000       8.08705400       0.00000000 </v>
     <v>       0.00000000       0.00000000       8.08705400 </v>
    </varray>
    <i name="volume">    528.89690930 </i>
    <varray name="rec_basis" >
     <v>       0.12365442       0.00000000       0.00000000 </v>
     <v>       0.00000000       0.12365442       0.00000000 </v>
     <v>       0.00000000       0.00000000       0.12365442 </v>
    </varray>
   </crystal>
   <varray name="positions" >
    <v>       0.49938148       0.50000000       0.49938148 </v>
    <v>      -0.00008920       0.00000000      -0.00008920 </v>
    <v>       0.25006081       0.00000000       0.25006081 </v>
    <v>       0.24970399       0.24896214      -0.00079658 </v>
    <v>      -0.00079658       0.24896214       0.24970399 </v>
    <v>       0.50005972       0.00000000      -0.00023015 </v>
    <v>       0.75050741       0.00000000       0.24973384 </v>
    <v>       0.75060736       0.24949630      -0.00045062 </v>
    <v>       0.50062042       0.24764912       0.24892255 </v>
    <v>      -0.00142992       0.50000000      -0.00142992 </v>
    <v>       0.24970399       0.75103786      -0.00079658 </v>
    <v>      -0.00079658       0.75103786       0.24970399 </v>
    <v>       0.50098011       0.50000000      -0.00078827 </v>
    <v>       0.75119075       0.50000000       0.24888483 </v>
    <v>       0.75060736       0.75050370      -0.00045062 </v>
    <v>       0.50062042       0.75235088       0.24892255 </v>
    <v>      -0.00023015       0.00000000       0.50005972 </v>
    <v>       0.24973384       0.00000000       0.75050741 </v>
    <v>       0.24892255       0.24764912       0.50062042 </v>
    <v>      -0.00045062       0.24949630       0.75060736 </v>
    <v>       0.49957704       0.00000000       0.49957704 </v>
    <v>       0.75062728       0.00000000       0.75062728 </v>
    <v>       0.75122748       0.24893807       0.49998641 </v>
    <v>       0.49998641       0.24893807       0.75122748 </v>
    <v>      -0.00078827       0.50000000       0.50098011 </v>
    <v>       0.24888483       0.50000000       0.75119075 </v>
    <v>       0.24892255       0.75235088       0.50062042 </v>
    <v>      -0.00045062       0.75050370       0.75060736 </v>
    <v>       0.75189226       0.50000000       0.75189226 </v>
    <v>       0.75122748       0.75106193       0.49998641 </v>
    <v>       0.49998641       0.75106193       0.75122748 </v>
   </varray>
  </structure>
  <varray name="forces" >
   <v>      -0.08004560       0.00000000      -0.08004560 </v>
   <v>      -0.01010185       0.00000000      -0.01010185 </v>
   <v>       0.01984564       0.00000000       0.01984564 </v>
   <v>      -0.05074213      -0.13894019      -0.11038408 </v>
   <v>      -0.11038408      -0.13894019      -0.05074213 </v>
   <v>       0.02752493       0.00000000      -0.02628054 </v>
   <v>       0.06009312       0.00000000      -0.04759860 </v>
   <v>       0.05983382      -0.06228467      -0.03497203 </v>
   <v>       0.12803869      -0.36193683      -0.18261289 </v>
   <v>      -0.20276368       0.00000000      -0.20276368 </v>
   <v>      -0.05074213       0.13894019      -0.11038408 </v>
   <v>      -0.11038408       0.13894019      -0.05074213 </v>
   <v>       0.17061296       0.00000000      -0.10230831 </v>
   <v>       0.16500859       0.00000000      -0.21319763 </v>
   <v>       0.05983382       0.06228467      -0.03497203 </v>
   <v>       0.12803869       0.36193683      -0.18261289 </v>
   <v>      -0.02628054       0.00000000       0.02752493 </v>
   <v>      -0.04759860       0.00000000       0.06009312 </v>
   <v>      -0.18261289      -0.36193683       0.12803869 </v>
   <v>      -0.03497203      -0.06228467       0.05983382 </v>
   <v>      -0.06646025       0.00000000      -0.06646025 </v>
   <v>       0.07770504       0.00000000       0.07770504 </v>
   <v>       0.17376021      -0.15605274       0.00668015 </v>
   <v>       0.00668015      -0.15605274       0.17376021 </v>
   <v>      -0.10230831       0.00000000       0.17061296 </v>
   <v>      -0.21319763       0.00000000       0.16500859 </v>
   <v>      -0.18261289       0.36193683       0.12803869 </v>
   <v>      -0.03497203       0.06228467       0.05983382 </v>
   <v>       0.24876267       0.00000000       0.24876267 </v>
   <v>       0.17376021       0.15605274       0.00668015 </v>
   <v>       0.00668015       0.15605274       0.17376021 </v>
  </varray>
  <varray name="stress" >
   <v>     -15.86821798       0.00000000      -2.74850865 </v>
   <v>       0.00000000      -6.24712788       0.00000000 </v>
   <v>      -2.74850865       0.00000000     -15.86821798 </v>
  </varray>
  <energy>
   <i name="e_fr_energy">    -97.87221694 </i>
   <i name="e_wo_entrp">    -97.85000088 </i>
   <i name="e_0_energy">     -0.06664816 </i>
  </energy>
  <time name="totalsc">  133.86   57.09</time>
 </calculation>
 <calculation>
  <scstep>
   <time name="diag">    2.24    1.48</time>
   <time name="diis">   21.02    6.07</time>
   <time name="orth">    0.16    0.04</time>
   <time name="total">   26.57   10.47</time>
   <energy>
    <i name="alphaZ">     -7.38312591 </i>
    <i name="ewald">  -2165.22024224 </i>
    <i name="hartreedc">    -42.81112683 </i>
    <i name="XCdc">   -792.11075861 </i>
    <i name="pawpsdc">   1077.74892064 </i>
    <i name="pawaedc">   -108.28768665 </i>
    <i name="eentropy">      0.04438616 </i>
    <i name="bandstr">    310.73014666 </i>
    <i name="atom">   1629.13144109 </i>
    <i name="e_fr_energy">    -98.15804569 </i>
    <i name="e_wo_entrp">    -98.20243185 </i>
    <i name="e_0_energy">    -98.17284108 </i>
   </energy>
  </scstep>
  <scstep>
   <time name="diag">    2.24    1.48</time>
   <time name="diis">   21.20    6.09</time>
   <time name="orth">    0.17    0.04</time>
   <time name="total">   26.58   10.47</time>
   <energy>
    <i name="e_fr_energy">    -98.07440542 </i>
    <i name="e_wo_entrp">    -98.08843458 </i>
    <i name="e_0_energy">    -98.07908181 </i>
   </energy>
  </scstep>
  <scstep>
   <time name="diag">    2.24    1.48</time>
   <time name="diis">   22.15    6.31</time>
   <time name="orth">    0.17    0.04</time>
   <time name="total">   27.53   10.69</time>
   <energy>
    <i name="e_fr_energy">    -98.06920634 </i>
    <i name="e_wo_entrp">    -98.07040008 </i>
    <i name="e_0_energy">    -98.06960426 </i>
   </energy>
  </scstep>
  <scstep>
   <time name="diag">    2.24    1.48</time>
   <time name="diis">   21.67    6.20</time>
   <time name="orth">    0.16    0.04</time>
   <time name="total">   27.09   10.60</time>
   <energy>
    <i name="e_fr_energy">    -98.06873248 </i>
    <i name="e_wo_entrp">    -98.06829655 </i>
    <i name="e_0_energy">    -98.06858717 </i>
   </energy>
  </scstep>
  <scstep>
   <time name="diag">    2.24    1.48</time>
   <time name="diis">   18.34    5.23</time>
   <time name="orth">    0.17    0.04</time>
   <time name="total">   22.70    8.66</time>
   <energy>
    <i name="alphaZ">     -7.38312591 </i>
    <i name="ewald">  -2165.22024224 </i>
    <i name="hartreedc">    -43.92969604 </i>
    <i name="XCdc">   -792.09038372 </i>
    <i name="pawpsdc">   1078.16157036 </i>
    <i name="pawaedc">   -108.71599907 </i>
    <i name="eentropy">      0.00004847 </i>
    <i name="bandstr">    311.97766094 </i>
    <i name="atom">   1629.13144109 </i>
    <i name="e_fr_energy">    -98.06872611 </i>
    <i name="e_wo_entrp">    -98.06877458 </i>
    <i name="e_0_energy">    -98.06874227 </i>
   </energy>
  </scstep>
  <structure>
   <crystal>
    <varray name="basis" >
     <v>       8.08705400       0.00000000       0.00000000 </v>
     <v>       0.00000000       8.08705400       0.00000000 </v>
     <v>       0.00000000       0.00000000       8.08705400 </v>
    </varray>
    <i name="volume">    528.89690930 </i>
    <varray name="rec_basis" >
     <v>       0.12365442       0.00000000       0.00000000 </v>
     <v>       0.00000000       0.12365442       0.00000000 </v>
     <v>       0.00000000       0.00000000       0.12365442 </v>
    </varray>
   </crystal>
   <varray name="positions" >
    <v>       0.49752592       0.50000000       0.49752592 </v>
    <v>      -0.00035681       0.00000000      -0.00035681 </v>
    <v>       0.25024324       0.00000000       0.25024324 </v>
    <v>       0.24881598       0.24584857      -0.00318633 </v>
    <v>      -0.00318633       0.24584857       0.24881598 </v>
    <v>       0.50023886       0.00000000      -0.00092061 </v>
    <v>       0.75202964       0.00000000       0.24893536 </v>
    <v>       0.75242942       0.24798522      -0.00180250 </v>
    <v>       0.50248170       0.24059648       0.24569020 </v>
    <v>      -0.00571967       0.50000000      -0.00571967 </v>
    <v>       0.24881598       0.75415143      -0.00318633 </v>
    <v>      -0.00318633       0.75415143       0.24881598 </v>
    <v>       0.50392044       0.50000000      -0.00315307 </v>
    <v>       0.75476301       0.50000000       0.24553932 </v>
    <v>       0.75242942       0.75201478      -0.00180250 </v>
    <v>       0.50248170       0.75940352       0.24569020 </v>
    <v>      -0.00092061       0.00000000       0.50023886 </v>
    <v>       0.24893536       0.00000000       0.75202964 </v>
    <v>       0.24569020       0.24059648       0.50248170 </v>
    <v>      -0.00180250       0.24798522       0.75242942 </v>
    <v>       0.49830817       0.00000000       0.49830817 </v>
    <v>       0.75250913       0.00000000       0.75250913 </v>
    <v>       0.75490992       0.24575228       0.49994563 </v>
    <v>       0.49994563       0.24575228       0.75490992 </v>
    <v>      -0.00315307       0.50000000       0.50392044 </v>
    <v>       0.24553932       0.50000000       0.75476301 </v>
    <v>       0.24569020       0.75940352       0.50248170 </v>
    <v>      -0.00180250       0.75201478       0.75242942 </v>
    <v>       0.75756903       0.50000000       0.75756903 </v>
    <v>       0.75490992       0.75424772       0.49994563 </v>
    <v>       0.49994563       0.75424772       0.75490992 </v>
   </varray>
  </structure>
  <varray name="forces" >
   <v>      -0.03209936       0.00000000      -0.03209936 </v>
   <v>      -0.03494989       0.00000000      -0.03494989 </v>
   <v>       0.00113876       0.00000000       0.00113876 </v>
   <v>      -0.06707706      -0.01263897      -0.02404032 </v>
   <v>      -0.02404032      -0.01263897      -0.06707706 </v>
   <v>       0.10185083       0.00000000      -0.03435954 </v>
   <v>       0.01127119       0.00000000      -0.06612489 </v>
   <v>      -0.04590304      -0.05470293       0.06946199 </v>
   <v>       0.18398829      -0.21496905      -0.17886489 </v>
   <v>      -0.02200980       0.00000000      -0.02200980 </v>
   <v>      -0.06707706       0.01263897      -0.02404032 </v>
   <v>      -0.02404032       0.01263897      -0.06707706 </v>
   <v>       0.16191577       0.00000000       0.00350951 </v>
   <v>       0.07114637       0.00000000      -0.27508322 </v>
   <v>      -0.04590304       0.05470293       0.06946199 </v>
   <v>       0.18398829       0.21496905      -0.17886489 </v>
   <v>      -0.03435954       0.00000000       0.10185083 </v>
   <v>      -0.06612489       0.00000000       0.01127119 </v>
   <v>      -0.17886489      -0.21496905       0.18398829 </v>
   <v>       0.06946199      -0.05470293      -0.04590304 </v>
   <v>       0.00889009       0.00000000       0.00889009 </v>
   <v>       0.02398697       0.00000000       0.02398697 </v>
   <v>       0.06271552      -0.09963694       0.03948438 </v>
   <v>       0.03948438      -0.09963694       0.06271552 </v>
   <v>       0.00350951       0.00000000       0.16191577 </v>
   <v>      -0.27508322       0.00000000       0.07114637 </v>
   <v>      -0.17886489       0.21496905       0.18398829 </v>
   <v>       0.06946199       0.05470293      -0.04590304 </v>
   <v>       0.00138751       0.00000000       0.00138751 </v>
   <v>       0.06271552       0.09963694       0.03948438 </v>
   <v>       0.03948438       0.09963694       0.06271552 </v>
  </varray>
  <varray name="stress" >
   <v>     -14.09561552       0.00000000      -4.50680896 </v>
   <v>       0.00000000      -3.74144705       0.00000000 </v>
   <v>      -4.50680896       0.00000000     -14.09561552 </v>
  </varray>
  <energy>
   <i name="e_fr_energy">    -98.06872611 </i>
   <i name="e_wo_entrp">    -98.06874227 </i>
   <i name="e_0_energy">      0.00004847 </i>
  </energy>
  <time name="totalsc">  164.03   68.42</time>
 </calculation>
 <calculation>
  <scstep>
   <time name="diag">    2.24    1.48</time>
   <time name="diis">   21.11    6.07</time>
   <time name="orth">    0.17    0.04</time>
   <time name="total">   26.65   10.46</time>
   <energy>
    <i name="alphaZ">     -7.38312591 </i>
    <i name="ewald">  -2134.97469794 </i>
    <i name="hartreedc">    -68.16355220 </i>
    <i name="XCdc">   -791.64237400 </i>
    <i name="pawpsdc">   1078.18950056 </i>
    <i name="pawaedc">   -108.74505825 </i>
    <i name="eentropy">      0.13316594 </i>
    <i name="bandstr">    305.22181987 </i>
    <i name="atom">   1629.13144109 </i>
    <i name="e_fr_energy">    -98.23288083 </i>
    <i name="e_wo_entrp">    -98.36604677 </i>
    <i name="e_0_energy">    -98.27726948 </i>
   </energy>
  </scstep>
  <scstep>
   <time name="diag">    2.24    1.48</time>
   <time name="diis">   21.51    6.15</time>
   <time name="orth">    0.16    0.04</time>
   <time name="total">   26.89   10.54</time>
   <energy>
    <i name="e_fr_energy">    -98.01287504 </i>
    <i name="e_wo_entrp">    -98.14050951 </i>
    <i name="e_0_energy">    -98.05541986 </i>
   </energy>
  </scstep>
  <scstep>
   <time name="diag">    2.27    1.51</time>
   <time name="diis">   22.34    6.28</time>
   <time name="orth">    0.16    0.04</time>
   <time name="total">   27.80   10.75</time>
   <energy>
    <i name="e_fr_energy">    -97.98494279 </i>
    <i name="e_wo_entrp">    -98.11111056 </i>
    <i name="e_0_energy">    -98.02699871 </i>
   </energy>
  </scstep>
  <scstep>
   <time name="diag">    2.24    1.48</time>
   <time name="diis">   21.93    6.20</time>
   <time name="orth">    0.16    0.04</time>
   <time name="total">   27.35   10.59</time>
   <energy>
    <i name="e_fr_energy">    -97.98164961 </i>
    <i name="e_wo_entrp">    -98.10650884 </i>
    <i name="e_0_energy">    -98.02326935 </i>
   </energy>
  </scstep>
  <scstep>
   <time name="diag">    2.24    1.48</time>
   <time name="diis">   22.08    6.28</time>
   <time name="orth">    0.16    0.04</time>
   <time name="total">   27.54   10.68</time>
   <energy>
    <i name="e_fr_energy">    -97.98146530 </i>
    <i name="e_wo_entrp">    -98.10738035 </i>
    <i name="e_0_energy">    -98.02343698 </i>
   </energy>
  </scstep>
  <scstep>
   <time name="diag">    2.24    1.48</time>
   <time name="diis">   18.42    5.26</time>
   <time name="orth">    0.17    0.04</time>
   <time name="total">   22.84    8.72</time>
   <energy>
    <i name="alphaZ">     -7.38312591 </i>
    <i name="ewald">  -2134.97469794 </i>
    <i name="hartreedc">    -71.32470334 </i>
    <i name="XCdc">   -791.51934800 </i>
    <i name="pawpsdc">   1080.21722903 </i>
    <i name="pawaedc">   -110.86524572 </i>
    <i name="eentropy">      0.12576567 </i>
    <i name="bandstr">    308.61115487 </i>
    <i name="atom">   1629.13144109 </i>
    <i name="e_fr_energy">    -97.98153025 </i>
    <i name="e_wo_entrp">    -98.10729592 </i>
    <i name="e_0_energy">    -98.02345214 </i>
   </energy>
  </scstep>
  <structure>
   <crystal>
    <varray name="basis" >
     <v>       8.08705400       0.00000000       0.00000000 </v>
     <v>       0.00000000       8.08705400       0.00000000 </v>
     <v>       0.00000000       0.00000000       8.08705400 </v>
    </varray>
    <i name="volume">    528.89690930 </i>
    <varray name="rec_basis" >
     <v>       0.12365442       0.00000000       0.00000000 </v>
     <v>       0.00000000       0.12365442       0.00000000 </v>
     <v>       0.00000000       0.00000000       0.12365442 </v>
    </varray>
   </crystal>
   <varray name="positions" >
    <v>       0.49381480       0.50000000       0.49381480 </v>
    <v>      -0.00089202       0.00000000      -0.00089202 </v>
    <v>       0.25060809       0.00000000       0.25060809 </v>
    <v>       0.24703995       0.23962142      -0.00796582 </v>
    <v>      -0.00796582       0.23962142       0.24703995 </v>
    <v>       0.50059715       0.00000000      -0.00230153 </v>
    <v>       0.75507410       0.00000000       0.24733839 </v>
    <v>       0.75607356       0.24496305      -0.00450625 </v>
    <v>       0.50620425       0.22649121       0.23922550 </v>
    <v>      -0.01429918       0.50000000      -0.01429918 </v>
    <v>       0.24703995       0.76037858      -0.00796582 </v>
    <v>      -0.00796582       0.76037858       0.24703995 </v>
    <v>       0.50980110       0.50000000      -0.00788268 </v>
    <v>       0.76190753       0.50000000       0.23884831 </v>
    <v>       0.75607356       0.75503695      -0.00450625 </v>
    <v>       0.50620425       0.77350879       0.23922550 </v>
    <v>      -0.00230153       0.00000000       0.50059715 </v>
    <v>       0.24733839       0.00000000       0.75507410 </v>
    <v>       0.23922550       0.22649121       0.50620425 </v>
    <v>      -0.00450625       0.24496305       0.75607356 </v>
    <v>       0.49577042       0.00000000       0.49577042 </v>
    <v>       0.75627282       0.00000000       0.75627282 </v>
    <v>       0.76227479       0.23938071       0.49986407 </v>
    <v>       0.49986407       0.23938071       0.76227479 </v>
    <v>      -0.00788268       0.50000000       0.50980110 </v>
    <v>       0.23884831       0.50000000       0.76190753 </v>
    <v>       0.23922550       0.77350879       0.50620425 </v>
    <v>      -0.00450625       0.75503695       0.75607356 </v>
    <v>       0.76892258       0.50000000       0.76892258 </v>
    <v>       0.76227479       0.76061929       0.49986407 </v>
    <v>       0.49986407       0.76061929       0.76227479 </v>
   </varray>
  </structure>
  <varray name="forces" >
   <v>       0.03214753       0.00000000       0.03214753 </v>
   <v>      -0.11772082       0.00000000      -0.11772082 </v>
   <v>      -0.23168399       0.00000000      -0.23168399 </v>
   <v>      -0.21648705       0.26010776       0.25295195 </v>
   <v>       0.25295195       0.26010776      -0.21648705 </v>
   <v>       0.25088825       0.00000000      -0.19168748 </v>
   <v>       0.01405962       0.00000000      -0.11197505 </v>
   <v>      -0.12762824      -0.13797908       0.16873631 </v>
   <v>       0.18374355       0.19806240      -0.03974625 </v>
   <v>       0.75603930       0.00000000       0.75603930 </v>
   <v>      -0.21648705      -0.26010776       0.25295195 </v>
   <v>       0.25295195      -0.26010776      -0.21648705 </v>
   <v>       0.09274278       0.00000000       0.15115763 </v>
   <v>      -0.04403164       0.00000000      -0.26266572 </v>
   <v>      -0.12762824       0.13797908       0.16873631 </v>
   <v>       0.18374355      -0.19806240      -0.03974625 </v>
   <v>      -0.19168748       0.00000000       0.25088825 </v>
   <v>      -0.11197505       0.00000000       0.01405962 </v>
   <v>      -0.03974625       0.19806240       0.18374355 </v>
   <v>       0.16873631      -0.13797908      -0.12762824 </v>
   <v>       0.35780521       0.00000000       0.35780521 </v>
   <v>      -0.06869745       0.00000000      -0.06869745 </v>
   <v>      -0.29564601       0.03768177       0.17479348 </v>
   <v>       0.17479348       0.03768177      -0.29564601 </v>
   <v>       0.15115763       0.00000000       0.09274278 </v>
   <v>      -0.26266572       0.00000000      -0.04403164 </v>
   <v>      -0.03974625      -0.19806240       0.18374355 </v>
   <v>       0.16873631       0.13797908      -0.12762824 </v>
   <v>      -0.82781367       0.00000000      -0.82781367 </v>
   <v>      -0.29564601      -0.03768177       0.17479348 </v>
   <v>       0.17479348      -0.03768177      -0.29564601 </v>
  </varray>
  <varray name="stress" >
   <v>      -2.86209966       0.00000000      -3.84519695 </v>
   <v>       0.00000000       6.77336836       0.00000000 </v>
   <v>      -3.84519695       0.00000000      -2.86209966 </v>
  </varray>
  <energy>
   <i name="e_fr_energy">    -97.98153025 </i>
   <i name="e_wo_entrp">    -98.02345214 </i>
   <i name="e_0_energy">      0.12576567 </i>
  </energy>
  <time name="totalsc">  192.55   79.19</time>
 </calculation>
 <calculation>
  <scstep>
   <time name="diag">    2.24    1.48</time>
   <time name="diis">   21.11    6.07</time>
   <time name="orth">    0.16    0.04</time>
   <time name="total">   26.65   10.47</time>
   <energy>
    <i name="alphaZ">     -7.38312591 </i>
    <i name="ewald">  -2139.49636802 </i>
    <i name="hartreedc">    -68.03184538 </i>
    <i name="XCdc">   -791.59304401 </i>
    <i name="pawpsdc">   1080.25505887 </i>
    <i name="pawaedc">   -110.90453729 </i>
    <i name="eentropy">      0.09213668 </i>
    <i name="bandstr">    309.75554864 </i>
    <i name="atom">   1629.13144109 </i>
    <i name="e_fr_energy">    -98.17473532 </i>
    <i name="e_wo_entrp">    -98.26687200 </i>
    <i name="e_0_energy">    -98.20544755 </i>
   </energy>
  </scstep>
  <scstep>
   <time name="diag">    2.24    1.48</time>
   <time name="diis">   22.04    6.28</time>
   <time name="orth">    0.16    0.04</time>
   <time name="total">   27.40   10.66</time>
   <energy>
    <i name="e_fr_energy">    -98.16430041 </i>
    <i name="e_wo_entrp">    -98.26466916 </i>
    <i name="e_0_energy">    -98.19775666 </i>
   </energy>
  </scstep>
  <scstep>
   <time name="diag">    2.24    1.48</time>
   <time name="diis">   22.14    6.27</time>
   <time name="orth">    0.16    0.04</time>
   <time name="total">   27.53   10.67</time>
   <energy>
    <i name="e_fr_energy">    -98.16194219 </i>
    <i name="e_wo_entrp">    -98.26389732 </i>
    <i name="e_0_energy">    -98.19592723 </i>
   </energy>
  </scstep>
  <scstep>
   <time name="diag">    2.24    1.48</time>
   <time name="diis">   22.16    6.24</time>
   <time name="orth">    0.17    0.04</time>
   <time name="total">   27.58   10.67</time>
   <energy>
    <i name="e_fr_energy">    -98.16163079 </i>
    <i name="e_wo_entrp">    -98.26438754 </i>
    <i name="e_0_energy">    -98.19588304 </i>
   </energy>
  </scstep>
  <scstep>
   <time name="diag">    2.24    1.48</time>
   <time name="diis">   15.32    4.47</time>
   <time name="orth">    0.17    0.04</time>
   <time name="total">   19.69    7.90</time>
   <energy>
    <i name="alphaZ">     -7.38312591 </i>
    <i name="ewald">  -2139.49636802 </i>
    <i name="hartreedc">    -67.60308690 </i>
    <i name="XCdc">   -791.62056275 </i>
    <i name="pawpsdc">   1079.79349463 </i>
    <i name="pawaedc">   -110.42138188 </i>
    <i name="eentropy">      0.10250430 </i>
    <i name="bandstr">    309.33547523 </i>
    <i name="atom">   1629.13144109 </i>
    <i name="e_fr_energy">    -98.16161022 </i>
    <i name="e_wo_entrp">    -98.26411452 </i>
    <i name="e_0_energy">    -98.19577832 </i>
   </energy>
  </scstep>
  <structure>
   <crystal>
    <varray name="basis" >
     <v>       8.08705400       0.00000000       0.00000000 </v>
     <v>       0.00000000       8.08705400       0.00000000 </v>
     <v>       0.00000000       0.00000000       8.08705400 </v>
    </varray>
    <i name="volume">    528.89690930 </i>
    <varray name="rec_basis" >
     <v>       0.12365442       0.00000000       0.00000000 </v>
     <v>       0.00000000       0.12365442       0.00000000 </v>
     <v>       0.00000000       0.00000000       0.12365442 </v>
    </varray>
   </crystal>
   <varray name="positions" >
    <v>       0.49402752       0.50000000       0.49402752 </v>
    <v>      -0.00167095       0.00000000      -0.00167095 </v>
    <v>       0.24907509       0.00000000       0.24907509 </v>
    <v>       0.24560750       0.24134250      -0.00629209 </v>
    <v>      -0.00629209       0.24134250       0.24560750 </v>
    <v>       0.50225723       0.00000000      -0.00356988 </v>
    <v>       0.75516713       0.00000000       0.24659748 </v>
    <v>       0.75522907       0.24405007      -0.00338976 </v>
    <v>       0.50742004       0.22780175       0.23896251 </v>
    <v>      -0.00929663       0.50000000      -0.00929663 </v>
    <v>       0.24560750       0.75865750      -0.00629209 </v>
    <v>      -0.00629209       0.75865750       0.24560750 </v>
    <v>       0.51041476       0.50000000      -0.00688250 </v>
    <v>       0.76161618       0.50000000       0.23711031 </v>
    <v>       0.75522907       0.75594993      -0.00338976 </v>
    <v>       0.50742004       0.77219825       0.23896251 </v>
    <v>      -0.00356988       0.00000000       0.50225723 </v>
    <v>       0.24659748       0.00000000       0.75516713 </v>
    <v>       0.23896251       0.22780175       0.50742004 </v>
    <v>      -0.00338976       0.24405007       0.75522907 </v>
    <v>       0.49813794       0.00000000       0.49813794 </v>
    <v>       0.75581826       0.00000000       0.75581826 </v>
    <v>       0.76031856       0.23963004       0.50102065 </v>
    <v>       0.50102065       0.23963004       0.76031856 </v>
    <v>      -0.00688250       0.50000000       0.51041476 </v>
    <v>       0.23711031       0.50000000       0.76161618 </v>
    <v>       0.23896251       0.77219825       0.50742004 </v>
    <v>      -0.00338976       0.75594993       0.75522907 </v>
    <v>       0.76344511       0.50000000       0.76344511 </v>
    <v>       0.76031856       0.76036996       0.50102065 </v>
    <v>       0.50102065       0.76036996       0.76031856 </v>
   </varray>
  </structure>
  <varray name="forces" >
   <v>      -0.04680633       0.00000000      -0.04680633 </v>
   <v>      -0.15721412       0.00000000      -0.15721412 </v>
   <v>       0.00259178       0.00000000       0.00259178 </v>
   <v>      -0.01668730       0.17332941       0.12228827 </v>
   <v>       0.12228827       0.17332941      -0.01668730 </v>
   <v>       0.07013876       0.00000000      -0.15687707 </v>
   <v>       0.07911765       0.00000000       0.02353721 </v>
   <v>      -0.06893094      -0.04948604       0.04224920 </v>
   <v>       0.06505730       0.11662635       0.01402190 </v>
   <v>       0.20116904       0.00000000       0.20116904 </v>
   <v>      -0.01668730      -0.17332941       0.12228827 </v>
   <v>       0.12228827      -0.17332941      -0.01668730 </v>
   <v>       0.03995242       0.00000000       0.10293457 </v>
   <v>      -0.04354414       0.00000000      -0.16572926 </v>
   <v>      -0.06893094       0.04948604       0.04224920 </v>
   <v>       0.06505730      -0.11662635       0.01402190 </v>
   <v>      -0.15687707       0.00000000       0.07013876 </v>
   <v>       0.02353721       0.00000000       0.07911765 </v>
   <v>       0.01402190       0.11662635       0.06505730 </v>
   <v>       0.04224920      -0.04948604      -0.06893094 </v>
   <v>       0.08413525       0.00000000       0.08413525 </v>
   <v>       0.02779329       0.00000000       0.02779329 </v>
   <v>      -0.10400882       0.05280425       0.04400999 </v>
   <v>       0.04400999       0.05280425      -0.10400882 </v>
   <v>       0.10293457       0.00000000       0.03995242 </v>
   <v>      -0.16572926       0.00000000      -0.04354414 </v>
   <v>       0.01402190      -0.11662635       0.06505730 </v>
   <v>       0.04224920       0.04948604      -0.06893094 </v>
   <v>      -0.25719825       0.00000000      -0.25719825 </v>
   <v>      -0.10400882      -0.05280425       0.04400999 </v>
   <v>       0.04400999      -0.05280425      -0.10400882 </v>
  </varray>
  <varray name="stress" >
   <v>      -7.07012968       0.00000000      -5.93016554 </v>
   <v>       0.00000000       6.41128831       0.00000000 </v>
   <v>      -5.93016554       0.00000000      -7.07012968 </v>
  </varray>
  <energy>
   <i name="e_fr_energy">    -98.16161022 </i>
   <i name="e_wo_entrp">    -98.19577832 </i>
   <i name="e_0_energy">      0.10250430 </i>
  </energy>
  <time name="totalsc">  162.28   67.80</time>
 </calculation>
 <calculation>
  <scstep>
   <time name="diag">    2.24    1.48</time>
   <time name="diis">   21.06    6.06</time>
   <time name="orth">    0.16    0.04</time>
   <time name="total">   26.60   10.45</time>
   <energy>
    <i name="alphaZ">     -7.38312591 </i>
    <i name="ewald">  -2141.91751876 </i>
    <i name="hartreedc">    -65.74005809 </i>
    <i name="XCdc">   -791.66433574 </i>
    <i name="pawpsdc">   1079.77353203 </i>
    <i name="pawaedc">   -110.40032408 </i>
    <i name="eentropy">      0.07379093 </i>
    <i name="bandstr">    309.93207513 </i>
    <i name="atom">   1629.13144109 </i>
    <i name="e_fr_energy">    -98.19452341 </i>
    <i name="e_wo_entrp">    -98.26831434 </i>
    <i name="e_0_energy">    -98.21912039 </i>
   </energy>
  </scstep>
  <scstep>
   <time name="diag">    2.24    1.48</time>
   <time name="diis">   22.42    6.31</time>
   <time name="orth">    0.16    0.04</time>
   <time name="total">   27.79   10.72</time>
   <energy>
    <i name="e_fr_energy">    -98.19068268 </i>
    <i name="e_wo_entrp">    -98.27166625 </i>
    <i name="e_0_energy">    -98.21767721 </i>
   </energy>
  </scstep>
  <scstep>
   <time name="diag">    2.24    1.48</time>
   <time name="diis">   21.70    6.22</time>
   <time name="orth">    0.16    0.04</time>
   <time name="total">   27.09   10.62</time>
   <energy>
    <i name="e_fr_energy">    -98.18980283 </i>
    <i name="e_wo_entrp">    -98.27193204 </i>
    <i name="e_0_energy">    -98.21717924 </i>
   </energy>
  </scstep>
  <scstep>
   <time name="diag">    2.30    1.53</time>
   <time name="diis">   18.43    5.28</time>
   <time name="orth">    0.17    0.04</time>
   <time name="total">   23.90    9.73</time>
   <energy>
    <i name="e_fr_energy">    -98.18970072 </i>
    <i name="e_wo_entrp">    -98.27251141 </i>
    <i name="e_0_energy">    -98.21730428 </i>
   </energy>
  </scstep>
  <scstep>
   <time name="diag">    2.24    1.48</time>
   <time name="diis">   12.92    3.84</time>
   <time name="orth">    0.17    0.04</time>
   <time name="total">   17.29    7.26</time>
   <energy>
    <i name="alphaZ">     -7.38312591 </i>
    <i name="ewald">  -2141.91751876 </i>
    <i name="hartreedc">    -65.50937742 </i>
    <i name="XCdc">   -791.67668202 </i>
    <i name="pawpsdc">   1079.56459415 </i>
    <i name="pawaedc">   -110.18186156 </i>
    <i name="eentropy">      0.08258970 </i>
    <i name="bandstr">    309.70024687 </i>
    <i name="atom">   1629.13144109 </i>
    <i name="e_fr_energy">    -98.18969386 </i>
    <i name="e_wo_entrp">    -98.27228356 </i>
    <i name="e_0_energy">    -98.21722376 </i>
   </energy>
  </scstep>
  <structure>
   <crystal>
    <varray name="basis" >
     <v>       8.08705400       0.00000000       0.00000000 </v>
     <v>       0.00000000       8.08705400       0.00000000 </v>
     <v>       0.00000000       0.00000000       8.08705400 </v>
    </varray>
    <i name="volume">    528.89690930 </i>
    <varray name="rec_basis" >
     <v>       0.12365442       0.00000000       0.00000000 </v>
     <v>       0.00000000       0.12365442       0.00000000 </v>
     <v>       0.00000000       0.00000000       0.12365442 </v>
    </varray>
   </crystal>
   <varray name="positions" >
    <v>       0.49416037       0.50000000       0.49416037 </v>
    <v>      -0.00215744       0.00000000      -0.00215744 </v>
    <v>       0.24811763       0.00000000       0.24811763 </v>
    <v>       0.24471285       0.24241742      -0.00524674 </v>
    <v>      -0.00524674       0.24241742       0.24471285 </v>
    <v>       0.50329404       0.00000000      -0.00436204 </v>
    <v>       0.75522523       0.00000000       0.24613473 </v>
    <v>       0.75470164       0.24347986      -0.00269244 </v>
    <v>       0.50817937       0.22862026       0.23879826 </v>
    <v>      -0.00617224       0.50000000      -0.00617224 </v>
    <v>       0.24471285       0.75758258      -0.00524674 </v>
    <v>      -0.00524674       0.75758258       0.24471285 </v>
    <v>       0.51079802       0.50000000      -0.00625783 </v>
    <v>       0.76143422       0.50000000       0.23602482 </v>
    <v>       0.75470164       0.75652014      -0.00269244 </v>
    <v>       0.50817937       0.77137974       0.23879826 </v>
    <v>      -0.00436204       0.00000000       0.50329404 </v>
    <v>       0.24613473       0.00000000       0.75522523 </v>
    <v>       0.23879826       0.22862026       0.50817937 </v>
    <v>      -0.00269244       0.24347986       0.75470164 </v>
    <v>       0.49961660       0.00000000       0.49961660 </v>
    <v>       0.75553436       0.00000000       0.75553436 </v>
    <v>       0.75909678       0.23978577       0.50174299 </v>
    <v>       0.50174299       0.23978577       0.75909678 </v>
    <v>      -0.00625783       0.50000000       0.51079802 </v>
    <v>       0.23602482       0.50000000       0.76143422 </v>
    <v>       0.23879826       0.77137974       0.50817937 </v>
    <v>      -0.00269244       0.75652014       0.75470164 </v>
    <v>       0.76002411       0.50000000       0.76002411 </v>
    <v>       0.75909678       0.76021423       0.50174299 </v>
    <v>       0.50174299       0.76021423       0.75909678 </v>
   </varray>
  </structure>
  <varray name="forces" >
   <v>      -0.09780797       0.00000000      -0.09780797 </v>
   <v>      -0.17283303       0.00000000      -0.17283303 </v>
   <v>       0.13355136       0.00000000       0.13355136 </v>
   <v>       0.09827591       0.11892141       0.04566769 </v>
   <v>       0.04566769       0.11892141       0.09827591 </v>
   <v>      -0.04279031       0.00000000      -0.13793823 </v>
   <v>       0.11972391       0.00000000       0.10801708 </v>
   <v>      -0.02849191       0.00418664      -0.03964732 </v>
   <v>      -0.00885166       0.06901075       0.04548632 </v>
   <v>      -0.05396778       0.00000000      -0.05396778 </v>
   <v>       0.09827591      -0.11892141       0.04566769 </v>
   <v>       0.04566769      -0.11892141       0.09827591 </v>
   <v>       0.00473818       0.00000000       0.07188963 </v>
   <v>      -0.03954192       0.00000000      -0.09880686 </v>
   <v>      -0.02849191      -0.00418664      -0.03964732 </v>
   <v>      -0.00885166      -0.06901075       0.04548632 </v>
   <v>      -0.13793823       0.00000000      -0.04279031 </v>
   <v>       0.10801708       0.00000000       0.11972391 </v>
   <v>       0.04548632       0.06901075      -0.00885166 </v>
   <v>      -0.03964732       0.00418664      -0.02849191 </v>
   <v>      -0.07236798       0.00000000      -0.07236798 </v>
   <v>       0.07942008       0.00000000       0.07942008 </v>
   <v>       0.00616969       0.05990179      -0.02902131 </v>
   <v>      -0.02902131       0.05990179       0.00616969 </v>
   <v>       0.07188963       0.00000000       0.00473818 </v>
   <v>      -0.09880686       0.00000000      -0.03954192 </v>
   <v>       0.04548632      -0.06901075      -0.00885166 </v>
   <v>      -0.03964732      -0.00418664      -0.02849191 </v>
   <v>       0.01953905       0.00000000       0.01953905 </v>
   <v>       0.00616969      -0.05990179      -0.02902131 </v>
   <v>      -0.02902131      -0.05990179       0.00616969 </v>
  </varray>
  <varray name="stress" >
   <v>      -9.15150934       0.00000000      -6.52475454 </v>
   <v>       0.00000000       7.00957508       0.00000000 </v>
   <v>      -6.52475454       0.00000000      -9.15150934 </v>
  </varray>
  <energy>
   <i name="e_fr_energy">    -98.18969386 </i>
   <i name="e_wo_entrp">    -98.21722376 </i>
   <i name="e_0_energy">      0.08258970 </i>
  </energy>
  <time name="totalsc">  152.45   64.66</time>
  <eigenvalues>
   <array>
    <dimension dim="1">band</dimension>
    <dimension dim="2">kpoint</dimension>
    <dimension dim="3">spin</dimension>
    <field>eigene</field>
    <field>occ</field>
    <set>
     <set comment="spin 1">
      <set comment="kpoint 1">
       <r>   -3.4549    1.0000 </r>
       <r>   -1.3647    1.0000 </r>
       <r>   -1.3609    1.0000 </r>
       <r>   -1.2906    1.0000 </r>
       <r>   -1.2502    1.0000 </r>
       <r>   -1.0481    1.0000 </r>
       <r>   -0.7338    1.0000 </r>
       <r>    0.7454    1.0000 </r>
       <r>    0.8180    1.0000 </r>
       <r>    0.8506    1.0000 </r>
       <r>    0.8610    1.0000 </r>
       <r>    0.9307    1.0000 </r>
       <r>    1.0394    1.0000 </r>
       <r>    1.0433    1.0000 </r>
       <r>    1.0641    1.0000 </r>
       <r>    1.2134    1.0000 </r>
       <r>    1.2425    1.0000 </r>
       <r>    1.6875    1.0000 </r>
       <r>    2.0770    1.0000 </r>
       <r>    3.0572    1.0000 </r>
       <r>    3.2067    1.0000 </r>
       <r>    3.2696    1.0000 </r>
       <r>    3.2720    1.0000 </r>
       <r>    3.3539    1.0000 </r>
       <r>    3.4274    1.0000 </r>
       <r>    3.8029    1.0000 </r>
       <r>    4.3723    1.0000 </r>
       <r>    4.7871    1.0000 </r>
       <r>    4.8507    1.0000 </r>
       <r>    4.8686    1.0000 </r>
       <r>    6.0297    1.0000 </r>
       <r>    6.2280    1.0000 </r>
       <r>    6.3846    1.0000 </r>
       <r>    6.6062    1.0000 </r>
       <r>    6.6131    1.0000 </r>
       <r>    6.7019    1.0000 </r>
       <r>    6.7604    1.0000 </r>
       <r>    6.7646    1.0000 </r>
       <r>    6.7802    1.0000 </r>
       <r>    6.9319    1.0000 </r>
       <r>    6.9737    1.0000 </r>
       <r>    7.1146    1.0001 </r>
       <r>    7.3048    1.0064 </r>
       <r>    7.3177    1.0079 </r>
       <r>    7.4359    1.0313 </r>
       <r>    7.5815    0.9547 </r>
       <r>    7.8525    0.0512 </r>
       <r>    7.8846    0.0026 </r>
       <r>    7.9525   -0.0350 </r>
       <r>    8.0805   -0.0141 </r>
       <r>    8.1448   -0.0051 </r>
       <r>    8.6670    0.0000 </r>
       <r>    8.6876    0.0000 </r>
       <r>    8.7032    0.0000 </r>
       <r>    8.7202    0.0000 </r>
       <r>    8.7324    0.0000 </r>
       <r>    8.8117    0.0000 </r>
       <r>    8.8492    0.0000 </r>
       <r>    8.9058    0.0000 </r>
       <r>    9.1140    0.0000 </r>
       <r>    9.1256    0.0000 </r>
       <r>    9.2257    0.0000 </r>
      </set>
     </set>
    </set>
   </array>
  </eigenvalues>
  <separator name="orbital magnetization" >
   <v name="MAGDIPOLOUT">      0.00000000      0.00000000      0.00000000</v>
  </separator>
  <dos>
   <i name="efermi">      7.71859142 </i>
   <total>
    <array>
     <dimension dim="1">gridpoints</dimension>
     <dimension dim="2">spin</dimension>
     <field>energy</field>
     <field>total</field>
     <field>integrated</field>
     <set>
      <set comment="spin 1">
       <r>  -5.4549   0.0000   0.0000 </r>
       <r>  -5.3993   0.0000   0.0000 </r>
       <r>  -5.3437   0.0000   0.0000 </r>
       <r>  -5.2881   0.0000   0.0000 </r>
       <r>  -5.2325   0.0000   0.0000 </r>
       <r>  -5.1769   0.0000   0.0000 </r>
       <r>  -5.1213   0.0000   0.0000 </r>
       <r>  -5.0657   0.0000   0.0000 </r>
       <r>  -5.0101   0.0000   0.0000 </r>
       <r>  -4.9545   0.0000   0.0000 </r>
       <r>  -4.8989   0.0000   0.0000 </r>
       <r>  -4.8433   0.0000   0.0000 </r>
       <r>  -4.7877   0.0000   0.0000 </r>
       <r>  -4.7321   0.0000   0.0000 </r>
       <r>  -4.6765   0.0000   0.0000 </r>
       <r>  -4.6209   0.0000   0.0000 </r>
       <r>  -4.5653   0.0000   0.0000 </r>
       <r>  -4.5097   0.0000   0.0000 </r>
       <r>  -4.4541   0.0000   0.0000 </r>
       <r>  -4.3985   0.0000   0.0000 </r>
       <r>  -4.3429   0.0000   0.0000 </r>
       <r>  -4.2872   0.0000   0.0000 </r>
       <r>  -4.2316   0.0000   0.0000 </r>
       <r>  -4.1760  -0.0001   0.0000 </r>
       <r>  -4.1204  -0.0004   0.0000 </r>
       <r>  -4.0648  -0.0021  -0.0001 </r>
       <r>  -4.0092  -0.0088  -0.0006 </r>
       <r>  -3.9536  -0.0315  -0.0024 </r>
       <r>  -3.8980  -0.0920  -0.0075 </r>
       <r>  -3.8424  -0.2151  -0.0195 </r>
       <r>  -3.7868  -0.3816  -0.0407 </r>
       <r>  -3.7312  -0.4347  -0.0648 </r>
       <r>  -3.6756  -0.0140  -0.0656 </r>
       <r>  -3.6200   1.3123   0.0073 </r>
       <r>  -3.5644   3.6396   0.2097 </r>
       <r>  -3.5088   6.3266   0.5615 </r>
       <r>  -3.4532   8.1412   1.0142 </r>
       <r>  -3.3976   8.0790   1.4634 </r>
       <r>  -3.3420   6.1764   1.8068 </r>
       <r>  -3.2864   3.4791   2.0002 </r>
       <r>  -3.2308   1.2021   2.0671 </r>
       <r>  -3.1752  -0.0612   2.0637 </r>
       <r>  -3.1196  -0.4404   2.0392 </r>
       <r>  -3.0640  -0.3723   2.0185 </r>
       <r>  -3.0084  -0.2058   2.0070 </r>
       <r>  -2.9528  -0.0867   2.0022 </r>
       <r>  -2.8972  -0.0293   2.0006 </r>
       <r>  -2.8416  -0.0081   2.0001 </r>
       <r>  -2.7860  -0.0019   2.0000 </r>
       <r>  -2.7304  -0.0004   2.0000 </r>
       <r>  -2.6748  -0.0001   2.0000 </r>
       <r>  -2.6192   0.0000   2.0000 </r>
       <r>  -2.5636   0.0000   2.0000 </r>
       <r>  -2.5080   0.0000   2.0000 </r>
       <r>  -2.4524   0.0000   2.0000 </r>
       <r>  -2.3968   0.0000   2.0000 </r>
       <r>  -2.3412   0.0000   2.0000 </r>
       <r>  -2.2856   0.0000   2.0000 </r>
       <r>  -2.2300   0.0000   2.0000 </r>
       <r>  -2.1744   0.0000   2.0000 </r>
       <r>  -2.1188   0.0000   2.0000 </r>
       <r>  -2.0632  -0.0003   2.0000 </r>
       <r>  -2.0076  -0.0016   1.9999 </r>
       <r>  -1.9520  -0.0078   1.9995 </r>
       <r>  -1.8964  -0.0321   1.9977 </r>
       <r>  -1.8408  -0.1097   1.9916 </r>
       <r>  -1.7852  -0.3085   1.9744 </r>
       <r>  -1.7296  -0.6991   1.9355 </r>
       <r>  -1.6740  -1.2146   1.8680 </r>
       <r>  -1.6184  -1.3852   1.7910 </r>
       <r>  -1.5628  -0.1561   1.7823 </r>
       <r>  -1.5071   3.7818   1.9926 </r>
       <r>  -1.4515  10.9370   2.6007 </r>
       <r>  -1.3959  19.8864   3.7064 </r>
       <r>  -1.3403  27.3748   5.2285 </r>
       <r>  -1.2847  30.1952   6.9074 </r>
       <r>  -1.2291  27.5127   8.4372 </r>
       <r>  -1.1735  21.4229   9.6284 </r>
       <r>  -1.1179  15.1139  10.4687 </r>
       <r>  -1.0623  10.4853  11.0517 </r>
       <r>  -1.0067   7.5201  11.4698 </r>
       <r>  -0.9511   5.5594  11.7790 </r>
       <r>  -0.8955   4.5700  12.0331 </r>
       <r>  -0.8399   4.9377  12.3076 </r>
       <r>  -0.7843   6.3962  12.6632 </r>
       <r>  -0.7287   7.7024  13.0915 </r>
       <r>  -0.6731   7.5667  13.5122 </r>
       <r>  -0.6175   5.7615  13.8326 </r>
       <r>  -0.5619   3.2019  14.0106 </r>
       <r>  -0.5063   1.0526  14.0691 </r>
       <r>  -0.4507  -0.1180  14.0626 </r>
       <r>  -0.3951  -0.4475  14.0377 </r>
       <r>  -0.3395  -0.3630  14.0175 </r>
       <r>  -0.2839  -0.1966  14.0066 </r>
       <r>  -0.2283  -0.0816  14.0020 </r>
       <r>  -0.1727  -0.0272  14.0005 </r>
       <r>  -0.1171  -0.0075  14.0001 </r>
       <r>  -0.0615  -0.0017  14.0000 </r>
       <r>  -0.0059  -0.0004  14.0000 </r>
       <r>   0.0497  -0.0002  14.0000 </r>
       <r>   0.1053  -0.0010  13.9999 </r>
       <r>   0.1609  -0.0050  13.9997 </r>
       <r>   0.2165  -0.0207  13.9985 </r>
       <r>   0.2721  -0.0726  13.9945 </r>
       <r>   0.3277  -0.2133  13.9826 </r>
       <r>   0.3833  -0.5167  13.9539 </r>
       <r>   0.4389  -1.0032  13.8981 </r>
       <r>   0.4945  -1.4501  13.8175 </r>
       <r>   0.5501  -1.1563  13.7532 </r>
       <r>   0.6057   1.0732  13.8128 </r>
       <r>   0.6613   6.3948  14.1684 </r>
       <r>   0.7169  14.9249  14.9983 </r>
       <r>   0.7725  25.0529  16.3913 </r>
       <r>   0.8281  34.0015  18.2818 </r>
       <r>   0.8837  39.5066  20.4785 </r>
       <r>   0.9393  41.1330  22.7655 </r>
       <r>   0.9949  39.9737  24.9881 </r>
       <r>   1.0505  37.3090  27.0626 </r>
       <r>   1.1061  33.7880  28.9413 </r>
       <r>   1.1617  29.5516  30.5844 </r>
       <r>   1.2173  24.5376  31.9487 </r>
       <r>   1.2730  18.6608  32.9863 </r>
       <r>   1.3286  12.1924  33.6642 </r>
       <r>   1.3842   6.1066  34.0038 </r>
       <r>   1.4398   1.7830  34.1029 </r>
       <r>   1.4954   0.1981  34.1139 </r>
       <r>   1.5510   1.3276  34.1878 </r>
       <r>   1.6066   4.0975  34.4156 </r>
       <r>   1.6622   6.7920  34.7932 </r>
       <r>   1.7178   7.8463  35.2295 </r>
       <r>   1.7734   6.7616  35.6055 </r>
       <r>   1.8290   4.4738  35.8542 </r>
       <r>   1.8846   2.7223  36.0056 </r>
       <r>   1.9402   2.8122  36.1619 </r>
       <r>   1.9958   4.6913  36.4228 </r>
       <r>   2.0514   7.0043  36.8122 </r>
       <r>   2.1070   8.0856  37.2618 </r>
       <r>   2.1626   7.1559  37.6597 </r>
       <r>   2.2182   4.7689  37.9249 </r>
       <r>   2.2738   2.1965  38.0470 </r>
       <r>   2.3294   0.4241  38.0706 </r>
       <r>   2.3850  -0.3396  38.0517 </r>
       <r>   2.4406  -0.4368  38.0274 </r>
       <r>   2.4962  -0.2940  38.0111 </r>
       <r>   2.5518  -0.1646  38.0019 </r>
       <r>   2.6074  -0.1367  37.9943 </r>
       <r>   2.6630  -0.2284  37.9816 </r>
       <r>   2.7186  -0.4256  37.9579 </r>
       <r>   2.7742  -0.6266  37.9231 </r>
       <r>   2.8298  -0.5626  37.8918 </r>
       <r>   2.8854   0.1758  37.9016 </r>
       <r>   2.9410   1.9507  38.0100 </r>
       <r>   2.9966   4.9042  38.2827 </r>
       <r>   3.0522   9.0424  38.7855 </r>
       <r>   3.1078  14.4208  39.5873 </r>
       <r>   3.1634  20.9210  40.7506 </r>
       <r>   3.2190  27.5992  42.2851 </r>
       <r>   3.2746  32.4815  44.0912 </r>
       <r>   3.3302  33.4787  45.9527 </r>
       <r>   3.3858  29.7829  47.6087 </r>
       <r>   3.4414  22.4728  48.8582 </r>
       <r>   3.4970  13.9241  49.6324 </r>
       <r>   3.5526   6.6790  50.0038 </r>
       <r>   3.6082   2.5031  50.1429 </r>
       <r>   3.6638   1.8596  50.2463 </r>
       <r>   3.7194   3.8111  50.4582 </r>
       <r>   3.7750   6.4433  50.8165 </r>
       <r>   3.8306   7.8304  51.2519 </r>
       <r>   3.8862   7.0869  51.6459 </r>
       <r>   3.9418   4.7251  51.9087 </r>
       <r>   3.9974   2.0235  52.0212 </r>
       <r>   4.0531   0.0572  52.0244 </r>
       <r>   4.1087  -0.7231  51.9841 </r>
       <r>   4.1643  -0.2445  51.9706 </r>
       <r>   4.2199   1.4622  52.0519 </r>
       <r>   4.2755   4.0845  52.2790 </r>
       <r>   4.3311   6.7034  52.6517 </r>
       <r>   4.3867   8.0062  53.0968 </r>
       <r>   4.4423   7.1512  53.4945 </r>
       <r>   4.4979   4.5512  53.7475 </r>
       <r>   4.5535   1.8422  53.8499 </r>
       <r>   4.6091   1.0934  53.9107 </r>
       <r>   4.6647   3.7834  54.1211 </r>
       <r>   4.7203   9.8764  54.6703 </r>
       <r>   4.7759  17.3394  55.6344 </r>
       <r>   4.8315  22.7753  56.9007 </r>
       <r>   4.8871  23.3593  58.1995 </r>
       <r>   4.9427  18.8038  59.2451 </r>
       <r>   4.9983  11.5274  59.8860 </r>
       <r>   5.0539   4.7947  60.1526 </r>
       <r>   5.1095   0.5898  60.1854 </r>
       <r>   5.1651  -1.0317  60.1280 </r>
       <r>   5.2207  -1.1134  60.0661 </r>
       <r>   5.2763  -0.6968  60.0274 </r>
       <r>   5.3319  -0.3245  60.0093 </r>
       <r>   5.3875  -0.1210  60.0026 </r>
       <r>   5.4431  -0.0403  60.0004 </r>
       <r>   5.4987  -0.0247  59.9990 </r>
       <r>   5.5543  -0.0529  59.9961 </r>
       <r>   5.6099  -0.1373  59.9884 </r>
       <r>   5.6655  -0.2918  59.9722 </r>
       <r>   5.7211  -0.4609  59.9466 </r>
       <r>   5.7767  -0.4241  59.9230 </r>
       <r>   5.8323   0.2122  59.9348 </r>
       <r>   5.8879   1.7955  60.0346 </r>
       <r>   5.9435   4.2478  60.2708 </r>
       <r>   5.9991   6.9224  60.6557 </r>
       <r>   6.0547   9.0164  61.1570 </r>
       <r>   6.1103  10.2146  61.7250 </r>
       <r>   6.1659  10.8315  62.3272 </r>
       <r>   6.2215  11.2719  62.9540 </r>
       <r>   6.2771  11.5004  63.5934 </r>
       <r>   6.3327  11.1886  64.2155 </r>
       <r>   6.3883  10.4117  64.7945 </r>
       <r>   6.4439  10.1770  65.3603 </r>
       <r>   6.4995  12.1352  66.0351 </r>
       <r>   6.5551  17.4410  67.0048 </r>
       <r>   6.6107  25.5521  68.4256 </r>
       <r>   6.6663  34.0352  70.3180 </r>
       <r>   6.7219  39.7433  72.5278 </r>
       <r>   6.7775  40.6574  74.7884 </r>
       <r>   6.8332  37.0791  76.8501 </r>
       <r>   6.8888  31.1901  78.5843 </r>
       <r>   6.9444  25.3213  79.9922 </r>
       <r>   7.0000  20.5640  81.1356 </r>
       <r>   7.0556  16.9326  82.0771 </r>
       <r>   7.1112  14.4686  82.8816 </r>
       <r>   7.1668  13.7448  83.6459 </r>
       <r>   7.2224  15.1927  84.4906 </r>
       <r>   7.2780  18.1468  85.4996 </r>
       <r>   7.3336  20.8567  86.6593 </r>
       <r>   7.3892  21.6535  87.8633 </r>
       <r>   7.4448  20.0983  88.9808 </r>
       <r>   7.5004  16.9457  89.9230 </r>
       <r>   7.5560  13.2260  90.6584 </r>
       <r>   7.6116   9.7460  91.2003 </r>
       <r>   7.6672   7.4438  91.6142 </r>
       <r>   7.7228   7.5887  92.0361 </r>
       <r>   7.7784  10.9337  92.6440 </r>
       <r>   7.8340  16.5725  93.5655 </r>
       <r>   7.8896  22.1010  94.7944 </r>
       <r>   7.9452  25.3012  96.2012 </r>
       <r>   8.0008  25.6125  97.6253 </r>
       <r>   8.0564  23.8419  98.9509 </r>
       <r>   8.1120  20.7713 100.1058 </r>
       <r>   8.1676  16.5261 101.0247 </r>
       <r>   8.2232  11.2128 101.6482 </r>
       <r>   8.2788   5.5775 101.9583 </r>
       <r>   8.3344   0.7388 101.9994 </r>
       <r>   8.3900  -2.3770 101.8672 </r>
       <r>   8.4456  -2.9113 101.7053 </r>
       <r>   8.5012   0.4381 101.7297 </r>
       <r>   8.5568   9.0159 102.2310 </r>
       <r>   8.6124  22.5124 103.4827 </r>
       <r>   8.6680  37.5800 105.5723 </r>
       <r>   8.7236  48.8258 108.2871 </r>
       <r>   8.7792  51.9888 111.1778 </r>
       <r>   8.8348  46.6295 113.7704 </r>
       <r>   8.8904  36.1510 115.7805 </r>
       <r>   8.9460  25.5921 117.2035 </r>
       <r>   9.0016  19.0004 118.2599 </r>
       <r>   9.0572  17.6197 119.2396 </r>
       <r>   9.1128  19.5423 120.3262 </r>
       <r>   9.1684  21.1731 121.5035 </r>
       <r>   9.2240  19.7463 122.6014 </r>
       <r>   9.2796  15.0142 123.4363 </r>
       <r>   9.3352   8.8725 123.9296 </r>
       <r>   9.3908   3.6043 124.1300 </r>
       <r>   9.4464   0.4138 124.1530 </r>
       <r>   9.5020  -0.8206 124.1074 </r>
       <r>   9.5576  -0.8994 124.0574 </r>
       <r>   9.6133  -0.5846 124.0249 </r>
       <r>   9.6689  -0.2860 124.0090 </r>
       <r>   9.7245  -0.1122 124.0027 </r>
       <r>   9.7801  -0.0363 124.0007 </r>
       <r>   9.8357  -0.0098 124.0002 </r>
       <r>   9.8913  -0.0022 124.0000 </r>
       <r>   9.9469  -0.0004 124.0000 </r>
       <r>  10.0025  -0.0001 124.0000 </r>
       <r>  10.0581   0.0000 124.0000 </r>
       <r>  10.1137   0.0000 124.0000 </r>
       <r>  10.1693   0.0000 124.0000 </r>
       <r>  10.2249   0.0000 124.0000 </r>
       <r>  10.2805   0.0000 124.0000 </r>
       <r>  10.3361   0.0000 124.0000 </r>
       <r>  10.3917   0.0000 124.0000 </r>
       <r>  10.4473   0.0000 124.0000 </r>
       <r>  10.5029   0.0000 124.0000 </r>
       <r>  10.5585   0.0000 124.0000 </r>
       <r>  10.6141   0.0000 124.0000 </r>
       <r>  10.6697   0.0000 124.0000 </r>
       <r>  10.7253   0.0000 124.0000 </r>
       <r>  10.7809   0.0000 124.0000 </r>
       <r>  10.8365   0.0000 124.0000 </r>
       <r>  10.8921   0.0000 124.0000 </r>
       <r>  10.9477   0.0000 124.0000 </r>
       <r>  11.0033   0.0000 124.0000 </r>
       <r>  11.0589   0.0000 124.0000 </r>
       <r>  11.1145   0.0000 124.0000 </r>
       <r>  11.1701   0.0000 124.0000 </r>
       <r>  11.2257   0.0000 124.0000 </r>
      </set>
     </set>
    </array>
   </total>
  </dos>
 </calculation>
 <structure name="finalpos" >
  <crystal>
   <varray name="basis" >
    <v>       8.08705400       0.00000000       0.00000000 </v>
    <v>       0.00000000       8.08705400       0.00000000 </v>
    <v>       0.00000000       0.00000000       8.08705400 </v>
   </varray>
   <i name="volume">    528.89690930 </i>
   <varray name="rec_basis" >
    <v>       0.12365442       0.00000000       0.00000000 </v>
    <v>       0.00000000       0.12365442       0.00000000 </v>
    <v>       0.00000000       0.00000000       0.12365442 </v>
   </varray>
  </crystal>
  <varray name="positions" >
   <v>       0.49416037       0.50000000       0.49416037 </v>
   <v>      -0.00215744       0.00000000      -0.00215744 </v>
   <v>       0.24811763       0.00000000       0.24811763 </v>
   <v>       0.24471285       0.24241742      -0.00524674 </v>
   <v>      -0.00524674       0.24241742       0.24471285 </v>
   <v>       0.50329404       0.00000000      -0.00436204 </v>
   <v>       0.75522523       0.00000000       0.24613473 </v>
   <v>       0.75470164       0.24347986      -0.00269244 </v>
   <v>       0.50817937       0.22862026       0.23879826 </v>
   <v>      -0.00617224       0.50000000      -0.00617224 </v>
   <v>       0.24471285       0.75758258      -0.00524674 </v>
   <v>      -0.00524674       0.75758258       0.24471285 </v>
   <v>       0.51079802       0.50000000      -0.00625783 </v>
   <v>       0.76143422       0.50000000       0.23602482 </v>
   <v>       0.75470164       0.75652014      -0.00269244 </v>
   <v>       0.50817937       0.77137974       0.23879826 </v>
   <v>      -0.00436204       0.00000000       0.50329404 </v>
   <v>       0.24613473       0.00000000       0.75522523 </v>
   <v>       0.23879826       0.22862026       0.50817937 </v>
   <v>      -0.00269244       0.24347986       0.75470164 </v>
   <v>       0.49961660       0.00000000       0.49961660 </v>
   <v>       0.75553436       0.00000000       0.75553436 </v>
   <v>       0.75909678       0.23978577       0.50174299 </v>
   <v>       0.50174299       0.23978577       0.75909678 </v>
   <v>      -0.00625783       0.50000000       0.51079802 </v>
   <v>       0.23602482       0.50000000       0.76143422 </v>
   <v>       0.23879826       0.77137974       0.50817937 </v>
   <v>      -0.00269244       0.75652014       0.75470164 </v>
   <v>       0.76002411       0.50000000       0.76002411 </v>
   <v>       0.75909678       0.76021423       0.50174299 </v>
   <v>       0.50174299       0.76021423       0.75909678 </v>
  </varray>
 </structure>
</modeling>
