Processors received = 1
script running on host compute-0-2.local
PBS_NODEFILE
compute-0-2
 running on    1 nodes
 each image running on    1 nodes
 distr:  one band on    1 nodes,    1 groups
 vasp.5.2.2 15Apr09 complex 
 POSCAR found type information on POSCAR  Fe
 01/POSCAR found :  1 types and    3 ions
 LDA part: xc-table for Ceperly-Alder, standard interpolation
 POSCAR found type information on POSCAR  Fe
 00/POSCAR found :  1 types and    3 ions
 POSCAR found type information on POSCAR  Fe
 02/POSCAR found :  1 types and    3 ions
 POSCAR, INCAR and KPOINTS ok, starting setup
 FFT: planning ...(           2 )
 reading WAVECAR
 entering main loop
       N       E                     dE             d eps       ncg     rms          rms(c)
DAV:   1     0.122627857247E+03    0.12263E+03   -0.81377E+03    64   0.128E+03
DAV:   2    -0.149632415791E+02   -0.13759E+03   -0.13373E+03    64   0.315E+02
DAV:   3    -0.232652757099E+02   -0.83020E+01   -0.81401E+01   112   0.771E+01
DAV:   4    -0.234326337698E+02   -0.16736E+00   -0.16729E+00    80   0.131E+01
DAV:   5    -0.234347123878E+02   -0.20786E-02   -0.20786E-02    72   0.114E+00    0.132E+01
DAV:   6    -0.228630009767E+02    0.57171E+00   -0.54565E+01    96   0.100E+02    0.188E+01
DAV:   7    -0.284536717958E+02   -0.55907E+01   -0.45009E+01   104   0.136E+02    0.359E+01
DAV:   8    -0.205887701164E+02    0.78649E+01   -0.25891E+01   104   0.620E+01    0.256E+00
DAV:   9    -0.205200921521E+02    0.68678E-01   -0.79290E-01    80   0.118E+01    0.137E+00
DAV:  10    -0.205028095178E+02    0.17283E-01   -0.11012E-01    96   0.425E+00    0.451E-01
DAV:  11    -0.205024462978E+02    0.36322E-03   -0.62988E-03    96   0.878E-01    0.225E-01
DAV:  12    -0.205024597507E+02   -0.13453E-04   -0.21754E-03    80   0.515E-01    0.921E-02
DAV:  13    -0.205024323008E+02    0.27450E-04   -0.46383E-04    32   0.239E-01
   1 F= -.20502432E+02 E0= -.20487675E+02  d E =-.205024E+02
 BRION: g(F)=  0.394E+00 g(S)=  0.000E+00
 bond charge predicted
       N       E                     dE             d eps       ncg     rms          rms(c)
DAV:   1    -0.207841453340E+02   -0.28169E+00   -0.79072E+01    64   0.720E+01    0.182E+00
DAV:   2    -0.208668028121E+02   -0.82657E-01   -0.14372E+00    80   0.135E+01    0.146E+00
DAV:   3    -0.209486681705E+02   -0.81865E-01   -0.56810E-01   104   0.110E+01    0.561E+00
DAV:   4    -0.208573128095E+02    0.91355E-01   -0.59048E-01   112   0.890E+00    0.921E-01
DAV:   5    -0.208486902077E+02    0.86226E-02   -0.38206E-02    96   0.204E+00    0.306E-01
DAV:   6    -0.208474272494E+02    0.12630E-02   -0.49162E-03    88   0.915E-01    0.143E-01
DAV:   7    -0.208473975984E+02    0.29651E-04   -0.59956E-04    48   0.322E-01
   2 F= -.20847398E+02 E0= -.20840952E+02  d E =-.344965E+00
 BRION: g(F)=  0.257E+00 g(S)=  0.000E+00 retain N=  1 mean eig= 5.18
 eig:   5.181
 bond charge predicted
       N       E                     dE             d eps       ncg     rms          rms(c)
DAV:   1    -0.573878927774E+01    0.15109E+02   -0.19979E+03    64   0.568E+02    0.949E+00
DAV:   2    -0.218599808705E+02   -0.16121E+02   -0.18709E+02    64   0.156E+02    0.205E+01
DAV:   3    -0.214290469736E+02    0.43093E+00   -0.54169E+01   112   0.655E+01    0.187E+01
DAV:   4    -0.185667475817E+02    0.28623E+01   -0.83939E+00    96   0.477E+01    0.466E+00
DAV:   5    -0.182700552835E+02    0.29669E+00   -0.16834E+00    88   0.177E+01    0.244E+00
DAV:   6    -0.182493497049E+02    0.20706E-01   -0.52438E-01    96   0.802E+00    0.180E+00
DAV:   7    -0.182891373409E+02   -0.39788E-01   -0.58644E-01    96   0.639E+00    0.455E+00
DAV:   8    -0.182568140513E+02    0.32323E-01   -0.79985E-01   112   0.559E+00    0.224E+00
DAV:   9    -0.182439403292E+02    0.12874E-01   -0.41244E-02   128   0.213E+00    0.850E-02
DAV:  10    -0.182438375320E+02    0.10280E-03   -0.64744E-04    56   0.259E-01    0.570E-02
DAV:  11    -0.182438455761E+02   -0.80441E-05   -0.29684E-04    32   0.169E-01
   3 F= -.18243846E+02 E0= -.18217209E+02  d E =0.260355E+01
 BRION: g(F)=  0.164E+02 g(S)=  0.000E+00 retain N=  1 mean eig= 0.58
 eig:   0.577
 bond charge predicted
       N       E                     dE             d eps       ncg     rms          rms(c)
DAV:   1    -0.125976092835E+02    0.56462E+01   -0.15513E+03    64   0.462E+02    0.128E+01
DAV:   2    -0.602098027838E+02   -0.47612E+02   -0.31746E+02   112   0.327E+02    0.537E+01
DAV:   3    -0.231054367595E+02    0.37104E+02   -0.83865E+01   112   0.102E+02    0.197E+01
DAV:   4    -0.217944529802E+02    0.13110E+01   -0.56236E+00   104   0.194E+01    0.922E+00
DAV:   5    -0.219779033099E+02   -0.18345E+00   -0.10759E+00    96   0.110E+01    0.145E+01
DAV:   6    -0.210209259106E+02    0.95698E+00   -0.81774E+00    96   0.306E+01    0.246E+00
DAV:   7    -0.210000604551E+02    0.20865E-01   -0.14422E-01    64   0.466E+00    0.184E+00
DAV:   8    -0.209952517067E+02    0.48087E-02   -0.86085E-02    96   0.317E+00    0.202E+00
DAV:   9    -0.209802112686E+02    0.15040E-01   -0.12171E-01    88   0.423E+00    0.640E-01
DAV:  10    -0.209797118268E+02    0.49944E-03   -0.23194E-02    80   0.194E+00    0.706E-01
DAV:  11    -0.209780382714E+02    0.16736E-02   -0.59320E-03    96   0.114E+00    0.318E-01
DAV:  12    -0.209771896442E+02    0.84863E-03   -0.12612E-03    80   0.423E-01    0.213E-01
DAV:  13    -0.209768770383E+02    0.31261E-03   -0.77353E-04    64   0.336E-01    0.202E-01
DAV:  14    -0.209768040972E+02    0.72941E-04   -0.16854E-04    32   0.144E-01
   4 F= -.20976804E+02 E0= -.20977079E+02  d E =-.273296E+01
 BRION: g(F)=  0.127E+00 g(S)=  0.000E+00 retain N=  1 mean eig= 0.53
 eig:   0.530
 bond charge predicted
       N       E                     dE             d eps       ncg     rms          rms(c)
DAV:   1    -0.210257382586E+02   -0.48861E-01   -0.68536E+00    64   0.197E+01    0.926E-01
DAV:   2    -0.214103609792E+02   -0.38462E+00   -0.24003E+00   104   0.199E+01    0.985E+00
DAV:   3    -0.210422067073E+02    0.36815E+00   -0.16119E+00   120   0.193E+01    0.704E-01
DAV:   4    -0.210302292838E+02    0.11977E-01   -0.65634E-02    96   0.262E+00    0.546E-01
DAV:   5    -0.210280183999E+02    0.22109E-02   -0.76184E-03    88   0.885E-01    0.131E-01
DAV:   6    -0.210277405525E+02    0.27785E-03   -0.13243E-03    64   0.338E-01    0.154E-01
DAV:   7    -0.210276597799E+02    0.80773E-04   -0.26336E-04    32   0.172E-01
   5 F= -.21027660E+02 E0= -.21029594E+02  d E =-.508557E-01
 BRION: g(F)=  0.334E-01 g(S)=  0.000E+00 retain N=  1 mean eig= 1.09
 eig:   1.089
 bond charge predicted
       N       E                     dE             d eps       ncg     rms          rms(c)
DAV:   1    -0.210402855096E+02   -0.12545E-01   -0.76212E+00    64   0.209E+01    0.859E-01
DAV:   2    -0.213943578667E+02   -0.35407E+00   -0.22073E+00   104   0.186E+01    0.957E+00
DAV:   3    -0.210564715213E+02    0.33789E+00   -0.13672E+00   128   0.181E+01    0.672E-01
DAV:   4    -0.210463411854E+02    0.10130E-01   -0.59048E-02    96   0.237E+00    0.628E-01
DAV:   5    -0.210438098762E+02    0.25313E-02   -0.79034E-03    96   0.870E-01    0.138E-01
DAV:   6    -0.210435847987E+02    0.22508E-03   -0.14396E-03    64   0.345E-01    0.209E-01
DAV:   7    -0.210434681881E+02    0.11661E-03   -0.32885E-04    32   0.186E-01    0.659E-02
DAV:   8    -0.210434686191E+02   -0.43097E-06   -0.48652E-05    32   0.869E-02
   6 F= -.21043469E+02 E0= -.21045421E+02  d E =-.158088E-01
 BRION: g(F)=  0.703E-03 g(S)=  0.000E+00 retain N=  1 mean eig= 0.95
 eig:   0.951
 bond charge predicted
       N       E                     dE             d eps       ncg     rms          rms(c)
DAV:   1    -0.210437887372E+02   -0.32055E-03   -0.12280E-01    64   0.261E+00    0.161E-01
DAV:   2    -0.210568348031E+02   -0.13046E-01   -0.71834E-02   104   0.353E+00    0.203E+00
DAV:   3    -0.210448816968E+02    0.11953E-01   -0.76203E-02   120   0.320E+00    0.217E-01
DAV:   4    -0.210439700144E+02    0.91168E-03   -0.35630E-03    96   0.558E-01    0.125E-01
DAV:   5    -0.210438007375E+02    0.16928E-03   -0.45343E-04    32   0.212E-01    0.207E-02
DAV:   6    -0.210437838517E+02    0.16886E-04   -0.55584E-05    32   0.960E-02
   7 F= -.21043784E+02 E0= -.21045711E+02  d E =-.315233E-03
 BRION: g(F)=  0.104E-05 g(S)=  0.000E+00 retain N=  1 mean eig= 0.92
 eig:   0.916
 reached required accuracy - stopping structural energy minimisation
