Processors received = 1
script running on host compute-0-1.local
PBS_NODEFILE
compute-0-1
 running on    1 nodes
 distr:  one band on    1 nodes,    1 groups
 vasp.5.2.2 15Apr09 complex 
 POSCAR found type information on POSCAR  Fe
 POSCAR found :  1 types and    3 ions
 LDA part: xc-table for Ceperly-Alder, standard interpolation
 POSCAR, INCAR and KPOINTS ok, starting setup
 FFT: planning ...(           1 )
 reading WAVECAR
 entering main loop
       N       E                     dE             d eps       ncg     rms          rms(c)
DAV:   1     0.114183645668E+03    0.11418E+03   -0.73541E+03    32   0.105E+03
DAV:   2    -0.165386708882E+02   -0.13072E+03   -0.12606E+03    32   0.280E+02
DAV:   3    -0.245599782997E+02   -0.80213E+01   -0.79826E+01    56   0.605E+01
DAV:   4    -0.246567567990E+02   -0.96778E-01   -0.96741E-01    40   0.883E+00
DAV:   5    -0.246594411132E+02   -0.26843E-02   -0.26843E-02    48   0.869E-01    0.730E+00
DAV:   6    -0.237728646427E+02    0.88658E+00   -0.29194E+00    32   0.240E+01    0.324E+00
DAV:   7    -0.238792975510E+02   -0.10643E+00   -0.49194E-02    32   0.332E+00    0.175E+00
DAV:   8    -0.239654179995E+02   -0.86120E-01   -0.26829E-02    40   0.213E+00    0.864E-02
DAV:   9    -0.239655578043E+02   -0.13980E-03   -0.11757E-03    24   0.468E-01    0.387E-02
DAV:  10    -0.239656284613E+02   -0.70657E-04   -0.38276E-05    16   0.702E-02
   1 F= -.23965628E+02 E0= -.23974383E+02  d E =0.262651E-01
