  31  31   0   0
  0.1706118E+02  0.8087052E-09  0.8087052E-09  0.8087052E-09  0.5000000E-15
  1.000000000000000E-004
  CAR 
 unknown system                          
     13.34236542     -4.95705696  301      7.85311424      1.00000000
     -4.957  0.0000E+00  0.0000E+00
     -4.896  0.0000E+00  0.0000E+00
     -4.835  0.0000E+00  0.0000E+00
     -4.774  0.0000E+00  0.0000E+00
     -4.713  0.0000E+00  0.0000E+00
     -4.652  0.0000E+00  0.0000E+00
     -4.591 -0.6942E-27 -0.4235E-28
     -4.530 -0.8856E-25 -0.5444E-26
     -4.469 -0.9423E-23 -0.5803E-24
     -4.408 -0.8309E-21 -0.5126E-22
     -4.347 -0.6069E-19 -0.3754E-20
     -4.286 -0.3672E-17 -0.2277E-18
     -4.225 -0.1840E-15 -0.1145E-16
     -4.164 -0.7628E-14 -0.4767E-15
     -4.103 -0.2535E-12 -0.1594E-13
     -4.042 -0.7177E-11 -0.4537E-12
     -3.981 -0.1676E-09 -0.1068E-10
     -3.920 -0.3230E-08 -0.2077E-09
     -3.859 -0.5130E-07 -0.3337E-08
     -3.798 -0.6709E-06 -0.4426E-07
     -3.737 -0.7208E-05 -0.4839E-06
     -3.676 -0.6347E-04 -0.4355E-05
     -3.615 -0.4565E-03 -0.3220E-04
     -3.554 -0.2669E-02 -0.1950E-03
     -3.493 -0.1259E-01 -0.9633E-03
     -3.432 -0.4740E-01 -0.3855E-02
     -3.371 -0.1393E+00 -0.1235E-01
     -3.310 -0.3061E+00 -0.3103E-01
     -3.249 -0.4446E+00 -0.5815E-01
     -3.188 -0.1877E+00 -0.6960E-01
     -3.127  0.1033E+01 -0.6611E-02
     -3.066  0.3468E+01  0.2049E+00
     -3.005  0.6395E+01  0.5950E+00
     -2.944  0.8231E+01  0.1097E+01
     -2.883  0.7770E+01  0.1571E+01
     -2.822  0.5326E+01  0.1896E+01
     -2.761  0.2428E+01  0.2044E+01
     -2.700  0.4276E+00  0.2070E+01
     -2.639 -0.3665E+00  0.2048E+01
     -2.578 -0.4128E+00  0.2023E+01
     -2.517 -0.2398E+00  0.2008E+01
     -2.456 -0.1114E+00  0.2001E+01
     -2.395 -0.9023E-01  0.1996E+01
     -2.334 -0.1934E+00  0.1984E+01
     -2.273 -0.4394E+00  0.1957E+01
     -2.212 -0.7307E+00  0.1912E+01
     -2.151 -0.6227E+00  0.1874E+01
     -2.090  0.7334E+00  0.1919E+01
     -2.029  0.4071E+01  0.2168E+01
     -1.968  0.9051E+01  0.2720E+01
     -1.907  0.1393E+02  0.3569E+01
     -1.846  0.1667E+02  0.4587E+01
     -1.785  0.1655E+02  0.5596E+01
     -1.724  0.1437E+02  0.6472E+01
     -1.663  0.1131E+02  0.7162E+01
     -1.602  0.7993E+01  0.7650E+01
     -1.541  0.4722E+01  0.7938E+01
     -1.480  0.1994E+01  0.8060E+01
     -1.419  0.2777E+00  0.8076E+01
     -1.358 -0.4080E+00  0.8052E+01
     -1.297 -0.4715E+00  0.8023E+01
     -1.236 -0.3857E+00  0.7999E+01
     -1.175 -0.4332E+00  0.7973E+01
     -1.114 -0.6379E+00  0.7934E+01
     -1.053 -0.6820E+00  0.7892E+01
     -0.992  0.1598E+00  0.7902E+01
     -0.931  0.2696E+01  0.8067E+01
     -0.870  0.6961E+01  0.8491E+01
     -0.809  0.1158E+02  0.9198E+01
     -0.748  0.1443E+02  0.1008E+02
     -0.687  0.1433E+02  0.1095E+02
     -0.626  0.1204E+02  0.1169E+02
     -0.565  0.9415E+01  0.1226E+02
     -0.504  0.7716E+01  0.1273E+02
     -0.443  0.6873E+01  0.1315E+02
     -0.382  0.6043E+01  0.1352E+02
     -0.321  0.4633E+01  0.1380E+02
     -0.260  0.2783E+01  0.1397E+02
     -0.199  0.1081E+01  0.1404E+02
     -0.138 -0.4487E-01  0.1403E+02
     -0.077 -0.6365E+00  0.1400E+02
     -0.016 -0.9630E+00  0.1394E+02
      0.045 -0.1002E+01  0.1388E+02
      0.106 -0.1113E+00  0.1387E+02
      0.167  0.2671E+01  0.1403E+02
      0.228  0.7653E+01  0.1450E+02
      0.289  0.1363E+02  0.1533E+02
      0.350  0.1830E+02  0.1645E+02
      0.411  0.1989E+02  0.1766E+02
      0.472  0.1847E+02  0.1879E+02
      0.533  0.1559E+02  0.1974E+02
      0.594  0.1274E+02  0.2051E+02
      0.655  0.1027E+02  0.2114E+02
      0.716  0.7718E+01  0.2161E+02
      0.777  0.4882E+01  0.2191E+02
      0.838  0.2223E+01  0.2205E+02
      0.899  0.3543E+00  0.2207E+02
      0.960 -0.6184E+00  0.2203E+02
      1.021 -0.1091E+01  0.2196E+02
      1.082 -0.1385E+01  0.2188E+02
      1.143 -0.1132E+01  0.2181E+02
      1.204  0.8729E+00  0.2186E+02
      1.265  0.5927E+01  0.2222E+02
      1.326  0.1392E+02  0.2307E+02
      1.387  0.2238E+02  0.2444E+02
      1.448  0.2750E+02  0.2612E+02
      1.509  0.2698E+02  0.2776E+02
      1.570  0.2194E+02  0.2910E+02
      1.631  0.1591E+02  0.3007E+02
      1.692  0.1190E+02  0.3080E+02
      1.753  0.1042E+02  0.3143E+02
      1.814  0.1022E+02  0.3206E+02
      1.875  0.9939E+01  0.3266E+02
      1.936  0.8891E+01  0.3320E+02
      1.997  0.6971E+01  0.3363E+02
      2.058  0.4492E+01  0.3390E+02
      2.119  0.2106E+01  0.3403E+02
      2.180  0.4063E+00  0.3406E+02
      2.241 -0.4904E+00  0.3403E+02
      2.302 -0.9045E+00  0.3397E+02
      2.363 -0.1097E+01  0.3390E+02
      2.424 -0.7617E+00  0.3386E+02
      2.485  0.1030E+01  0.3392E+02
      2.546  0.5132E+01  0.3423E+02
      2.607  0.1118E+02  0.3492E+02
      2.668  0.1711E+02  0.3596E+02
      2.729  0.2026E+02  0.3719E+02
      2.790  0.1922E+02  0.3837E+02
      2.851  0.1474E+02  0.3927E+02
      2.912  0.8975E+01  0.3981E+02
      2.973  0.4001E+01  0.4006E+02
      3.034  0.8636E+00  0.4011E+02
      3.095 -0.5375E+00  0.4008E+02
      3.156 -0.9499E+00  0.4002E+02
      3.217 -0.1135E+01  0.3995E+02
      3.278 -0.1378E+01  0.3987E+02
      3.339 -0.1188E+01  0.3979E+02
      3.400  0.7172E+00  0.3984E+02
      3.461  0.5798E+01  0.4019E+02
      3.522  0.1437E+02  0.4107E+02
      3.583  0.2446E+02  0.4256E+02
      3.644  0.3210E+02  0.4452E+02
      3.705  0.3363E+02  0.4657E+02
      3.766  0.2838E+02  0.4830E+02
      3.827  0.1943E+02  0.4949E+02
      3.888  0.1152E+02  0.5019E+02
      3.949  0.7560E+01  0.5065E+02
      4.010  0.6881E+01  0.5107E+02
      4.071  0.6773E+01  0.5148E+02
      4.132  0.5309E+01  0.5181E+02
      4.193  0.2633E+01  0.5197E+02
      4.254  0.2930E-01  0.5197E+02
      4.315 -0.1372E+01  0.5189E+02
      4.376 -0.7564E+00  0.5184E+02
      4.437  0.2683E+01  0.5200E+02
      4.498  0.9302E+01  0.5257E+02
      4.559  0.1801E+02  0.5367E+02
      4.620  0.2620E+02  0.5527E+02
      4.681  0.3123E+02  0.5717E+02
      4.742  0.3225E+02  0.5914E+02
      4.803  0.3051E+02  0.6100E+02
      4.864  0.2793E+02  0.6270E+02
      4.925  0.2540E+02  0.6425E+02
      4.986  0.2269E+02  0.6564E+02
      5.047  0.1955E+02  0.6683E+02
      5.108  0.1629E+02  0.6782E+02
      5.169  0.1329E+02  0.6863E+02
      5.230  0.1040E+02  0.6927E+02
      5.291  0.7253E+01  0.6971E+02
      5.352  0.3934E+01  0.6995E+02
      5.413  0.1108E+01  0.7002E+02
      5.474 -0.4523E+00  0.6999E+02
      5.535 -0.2369E+00  0.6998E+02
      5.596  0.1897E+01  0.7009E+02
      5.657  0.5481E+01  0.7043E+02
      5.718  0.9255E+01  0.7099E+02
      5.779  0.1167E+02  0.7170E+02
      5.840  0.1189E+02  0.7243E+02
      5.901  0.1020E+02  0.7305E+02
      5.962  0.7474E+01  0.7351E+02
      6.023  0.4686E+01  0.7379E+02
      6.084  0.2796E+01  0.7396E+02
      6.145  0.2625E+01  0.7412E+02
      6.206  0.4216E+01  0.7438E+02
      6.267  0.6396E+01  0.7477E+02
      6.328  0.7386E+01  0.7522E+02
      6.389  0.6161E+01  0.7560E+02
      6.450  0.3341E+01  0.7580E+02
      6.511  0.8965E+00  0.7585E+02
      6.572  0.1077E+01  0.7592E+02
      6.633  0.5109E+01  0.7623E+02
      6.694  0.1208E+02  0.7697E+02
      6.755  0.1911E+02  0.7813E+02
      6.816  0.2354E+02  0.7957E+02
      6.877  0.2550E+02  0.8113E+02
      6.938  0.2724E+02  0.8279E+02
      6.999  0.2972E+02  0.8460E+02
      7.060  0.3078E+02  0.8648E+02
      7.121  0.2750E+02  0.8816E+02
      7.182  0.1973E+02  0.8936E+02
      7.243  0.1051E+02  0.9000E+02
      7.304  0.3327E+01  0.9020E+02
      7.365 -0.4223E+00  0.9018E+02
      7.426 -0.1548E+01  0.9008E+02
      7.487 -0.1590E+01  0.8999E+02
      7.548 -0.1460E+01  0.8990E+02
      7.609 -0.9510E+00  0.8984E+02
      7.670  0.9728E+00  0.8990E+02
      7.731  0.5220E+01  0.9022E+02
      7.792  0.1140E+02  0.9091E+02
      7.853  0.1763E+02  0.9199E+02
      7.914  0.2201E+02  0.9333E+02
      7.975  0.2452E+02  0.9483E+02
      8.036  0.2699E+02  0.9647E+02
      8.097  0.3076E+02  0.9835E+02
      8.158  0.3479E+02  0.1005E+03
      8.219  0.3625E+02  0.1027E+03
      8.280  0.3309E+02  0.1047E+03
      8.341  0.2582E+02  0.1063E+03
      8.402  0.1698E+02  0.1073E+03
      8.463  0.9141E+01  0.1079E+03
      8.524  0.3672E+01  0.1081E+03
      8.585  0.6285E+00  0.1081E+03
      8.646 -0.6466E+00  0.1081E+03
      8.707 -0.1004E+01  0.1080E+03
      8.768 -0.1139E+01  0.1080E+03
      8.829 -0.1271E+01  0.1079E+03
      8.890 -0.8641E+00  0.1078E+03
      8.951  0.1268E+01  0.1079E+03
      9.012  0.6027E+01  0.1083E+03
      9.073  0.1264E+02  0.1090E+03
      9.133  0.1855E+02  0.1102E+03
      9.194  0.2156E+02  0.1115E+03
      9.255  0.2224E+02  0.1128E+03
      9.316  0.2306E+02  0.1143E+03
      9.377  0.2492E+02  0.1158E+03
      9.438  0.2558E+02  0.1173E+03
      9.499  0.2225E+02  0.1187E+03
      9.560  0.1496E+02  0.1196E+03
      9.621  0.6641E+01  0.1200E+03
      9.682  0.3761E+00  0.1200E+03
      9.743 -0.2274E+01  0.1199E+03
      9.804 -0.7308E+00  0.1199E+03
      9.865  0.5429E+01  0.1202E+03
      9.926  0.1568E+02  0.1211E+03
      9.987  0.2731E+02  0.1228E+03
     10.048  0.3599E+02  0.1250E+03
     10.109  0.3832E+02  0.1273E+03
     10.170  0.3367E+02  0.1294E+03
     10.231  0.2419E+02  0.1309E+03
     10.292  0.1353E+02  0.1317E+03
     10.353  0.5485E+01  0.1320E+03
     10.414  0.2607E+01  0.1322E+03
     10.475  0.5324E+01  0.1325E+03
     10.536  0.1169E+02  0.1332E+03
     10.597  0.1813E+02  0.1343E+03
     10.658  0.2106E+02  0.1356E+03
     10.719  0.1905E+02  0.1368E+03
     10.780  0.1383E+02  0.1376E+03
     10.841  0.8980E+01  0.1382E+03
     10.902  0.7112E+01  0.1386E+03
     10.963  0.8210E+01  0.1391E+03
     11.024  0.1039E+02  0.1397E+03
     11.085  0.1191E+02  0.1405E+03
     11.146  0.1231E+02  0.1412E+03
     11.207  0.1201E+02  0.1419E+03
     11.268  0.1127E+02  0.1426E+03
     11.329  0.9817E+01  0.1432E+03
     11.390  0.7393E+01  0.1437E+03
     11.451  0.4407E+01  0.1440E+03
     11.512  0.1775E+01  0.1441E+03
     11.573  0.1696E+00  0.1441E+03
     11.634 -0.4084E+00  0.1440E+03
     11.695 -0.3984E+00  0.1440E+03
     11.756 -0.2262E+00  0.1440E+03
     11.817 -0.9349E-01  0.1440E+03
     11.878 -0.2995E-01  0.1440E+03
     11.939 -0.7639E-02  0.1440E+03
     12.000 -0.1572E-02  0.1440E+03
     12.061 -0.2632E-03  0.1440E+03
     12.122 -0.3602E-04  0.1440E+03
     12.183 -0.4044E-05  0.1440E+03
     12.244 -0.3733E-06  0.1440E+03
     12.305 -0.2839E-07  0.1440E+03
     12.366 -0.1781E-08  0.1440E+03
     12.427 -0.9219E-10  0.1440E+03
     12.488 -0.3942E-11  0.1440E+03
     12.549 -0.1420E-12  0.1440E+03
     12.610 -0.3640E-14  0.1440E+03
     12.671  0.0000E+00  0.1440E+03
     12.732  0.0000E+00  0.1440E+03
     12.793  0.0000E+00  0.1440E+03
     12.854  0.0000E+00  0.1440E+03
     12.915  0.0000E+00  0.1440E+03
     12.976  0.0000E+00  0.1440E+03
     13.037  0.0000E+00  0.1440E+03
     13.098  0.0000E+00  0.1440E+03
     13.159  0.0000E+00  0.1440E+03
     13.220  0.0000E+00  0.1440E+03
     13.281  0.0000E+00  0.1440E+03
     13.342  0.0000E+00  0.1440E+03
