   31   31    1    1
  0.1706118E+02  0.8087052E-09  0.8087052E-09  0.8087052E-09  0.5000000E-15
  1.000000000000000E-004
  CAR 
 unknown system                          
   92    2   72
 
  0.2500000E+00  0.2500000E+00  0.2500000E+00  0.5000000E+00
   1       -2.954180
   2       -1.923892
   3       -1.873358
   4       -1.639606
   5       -0.802648
   6       -0.749274
   7       -0.383958
   8        0.293403
   9        0.332199
  10        0.504261
  11        0.613225
  12        1.347287
  13        1.401252
  14        1.419536
  15        1.553545
  16        1.729954
  17        1.966904
  18        2.662674
  19        2.678340
  20        2.849936
  21        3.542020
  22        3.612898
  23        3.659744
  24        3.713512
  25        3.751512
  26        4.038242
  27        4.541022
  28        4.595121
  29        4.634842
  30        4.756461
  31        4.813362
  32        4.884276
  33        4.934519
  34        5.057829
  35        5.241482
  36        5.718922
  37        5.833365
  38        6.334901
  39        6.736990
  40        6.762690
  41        6.796564
  42        6.970835
  43        7.013514
  44        7.072790
  45        7.114927
  46        7.814496
  47        7.846088
  48        7.940564
  49        8.079808
  50        8.165148
  51        8.229253
  52        8.257328
  53        8.330416
  54        8.417469
  55        9.091313
  56        9.154371
  57        9.164624
  58        9.394805
  59        9.416694
  60        9.479072
  61        9.980261
  62        9.985762
  63       10.069111
  64       10.117700
  65       10.187988
  66       10.212577
  67       10.530905
  68       10.673380
  69       10.699710
  70       10.926757
  71       11.015044
  72       11.272167
 
 -0.2500000E+00  0.2500000E+00  0.2500000E+00  0.5000000E+00
   1       -2.957057
   2       -1.917161
   3       -1.816385
   4       -1.707091
   5       -0.801285
   6       -0.666324
   7       -0.520244
   8        0.298678
   9        0.399526
  10        0.433986
  11        0.685278
  12        1.375980
  13        1.460346
  14        1.472509
  15        1.506115
  16        1.726729
  17        1.871886
  18        2.630867
  19        2.736059
  20        2.773547
  21        3.552389
  22        3.625374
  23        3.653879
  24        3.688326
  25        3.764820
  26        4.006554
  27        4.571194
  28        4.653866
  29        4.676015
  30        4.724101
  31        4.743057
  32        4.915783
  33        4.934586
  34        5.055684
  35        5.180526
  36        5.731883
  37        5.952637
  38        6.262404
  39        6.755543
  40        6.775873
  41        6.881263
  42        7.005195
  43        7.022887
  44        7.058980
  45        7.135281
  46        7.846167
  47        7.912505
  48        7.978937
  49        8.068830
  50        8.129002
  51        8.138146
  52        8.181359
  53        8.226748
  54        8.276257
  55        9.134756
  56        9.158301
  57        9.303064
  58        9.397235
  59        9.402185
  60        9.481584
  61        9.985754
  62        9.994275
  63       10.011597
  64       10.073856
  65       10.119618
  66       10.178901
  67       10.572349
  68       10.621300
  69       10.664232
  70       11.073730
  71       11.170575
  72       11.342365
