<?xml version="1.0" encoding="ISO-8859-1"?>
<modeling>
 <generator>
  <i name="program" type="string">vasp </i>
  <i name="version" type="string">5.2.2  </i>
  <i name="subversion" type="string">15Apr09 complex  parallel </i>
  <i name="platform" type="string">LinuxIFC </i>
  <i name="date" type="string">2017 03 17 </i>
  <i name="time" type="string">11:30:08 </i>
 </generator>
 <incar>
  <i type="string" name="PREC">accurate</i>
  <i type="int" name="IALGO">    48</i>
  <i type="int" name="IBRION">    -1</i>
  <i name="EDIFFG">      0.05000000</i>
  <i type="int" name="NSW">     0</i>
  <i type="int" name="ISIF">     2</i>
  <i name="ENCUT">    300.00000000</i>
  <i name="NELECT">     92.00000000</i>
  <i type="int" name="ISMEAR">     1</i>
  <i name="SIGMA">      0.20000000</i>
  <i type="logical" name="LWAVE"> F  </i>
  <i type="logical" name="LCHARG"> F  </i>
  <i type="logical" name="LPEAD"> F  </i>
  <i type="logical" name="LCALCPOL"> F  </i>
  <i type="logical" name="LCALCEPS"> F  </i>
  <v name="EFIELD_PEAD">      0.00000000      0.00000000      0.00000000</v>
  <i type="logical" name="LEFG"> F  </i>
 </incar>
 <kpoints>
  <generation param="Monkhorst-Pack">
   <v type="int" name="divisions">       2        2        2 </v>
   <v name="usershift">      0.00000000       0.00000000       0.00000000 </v>
   <v name="genvec1">      0.50000000       0.00000000       0.00000000 </v>
   <v name="genvec2">      0.00000000       0.50000000       0.00000000 </v>
   <v name="genvec3">      0.00000000       0.00000000       0.50000000 </v>
   <v name="shift">      0.50000000       0.50000000       0.50000000 </v>
  </generation>
  <varray name="kpointlist" >
   <v>       0.25000000       0.25000000       0.25000000 </v>
   <v>      -0.25000000       0.25000000       0.25000000 </v>
  </varray>
  <varray name="weights" >
   <v>       0.50000000 </v>
   <v>       0.50000000 </v>
  </varray>
 </kpoints>
 <parameters>
  <separator name="general" >
   <i type="string" name="SYSTEM">unknown system</i>
   <i type="logical" name="LCOMPAT"> F  </i>
  </separator>
  <separator name="electronic" >
   <i type="string" name="PREC">accura</i>
   <i name="ENMAX">    300.00000000</i>
   <i name="ENAUG">    291.05200000</i>
   <i name="EDIFF">      0.00010000</i>
   <i type="int" name="IALGO">    48</i>
   <i type="int" name="IWAVPR">    10</i>
   <i type="int" name="NBANDS">    72</i>
   <i name="NELECT">     92.00000000</i>
   <separator name="electronic smearing" >
    <i type="int" name="ISMEAR">     1</i>
    <i name="SIGMA">      0.20000000</i>
   </separator>
   <separator name="electronic projectors" >
    <i type="logical" name="LREAL"> F  </i>
    <v name="ROPT">      0.00000000      0.00000000</v>
    <i type="int" name="LMAXPAW">  -100</i>
    <i type="int" name="LMAXMIX">     2</i>
   </separator>
   <separator name="electronic startup" >
    <i type="int" name="ISTART">     0</i>
    <i type="int" name="ICHARG">     2</i>
    <i type="int" name="INIWAV">     1</i>
   </separator>
   <separator name="electronic spin" >
    <i type="int" name="ISPIN">     1</i>
    <i type="logical" name="LNONCOLLINEAR"> F  </i>
    <v name="MAGMOM">      1.00000000      1.00000000      1.00000000      1.00000000      1.00000000      1.00000000      1.00000000      1.00000000      1.00000000      1.00000000      1.00000000      1.00000000      1.00000000      1.00000000      1.00000000      1.00000000      1.00000000      1.00000000      1.00000000      1.00000000
      1.00000000      1.00000000      1.00000000      1.00000000      1.00000000      1.00000000      1.00000000      1.00000000      1.00000000      1.00000000      1.00000000</v>
    <i name="NUPDOWN">     -1.00000000</i>
    <i type="logical" name="LSORBIT"> F  </i>
    <v name="SAXIS">      0.00000000      0.00000000      1.00000000</v>
    <i type="logical" name="LSPIRAL"> F  </i>
    <v name="QSPIRAL">      0.00000000      0.00000000      0.00000000</v>
    <i type="logical" name="LZEROZ"> F  </i>
   </separator>
   <separator name="electronic exchange-correlation" >
    <i type="logical" name="LASPH"> F  </i>
    <i type="logical" name="LMETAGGA"> F  </i>
   </separator>
   <separator name="electronic convergence" >
    <i type="int" name="NELM">    60</i>
    <i type="int" name="NELMDL">   -12</i>
    <i type="int" name="NELMIN">     2</i>
    <i name="ENINI">    300.00000000</i>
    <separator name="electronic convergence detail" >
     <i type="logical" name="LDIAG"> T  </i>
     <i name="WEIMIN">      0.00000000</i>
     <i name="EBREAK">      0.00000040</i>
     <i name="DEPER">      0.30000000</i>
     <i type="int" name="NRMM">     4</i>
     <i name="TIME">      0.40000000</i>
    </separator>
   </separator>
   <separator name="electronic mixer" >
    <i name="AMIX">      0.40000000</i>
    <i name="BMIX">      1.00000000</i>
    <i name="AMIN">      0.10000000</i>
    <i name="AMIX_MAG">      1.60000000</i>
    <i name="BMIX_MAG">      1.00000000</i>
    <separator name="electronic mixer details" >
     <i type="int" name="IMIX">     4</i>
     <i type="int" name="MAXMIX">   -45</i>
     <i name="WC">    100.00000000</i>
     <i type="int" name="INIMIX">     1</i>
     <i type="int" name="MIXPRE">     1</i>
     <i type="int" name="MREMOVE">     5</i>
    </separator>
   </separator>
   <separator name="electronic dipolcorrection" >
    <i type="logical" name="LDIPOL"> F  </i>
    <i type="logical" name="LMONO"> F  </i>
    <i type="int" name="IDIPOL">     0</i>
    <i name="EPSILON">      1.00000000</i>
    <v name="DIPOL">   -100.00000000   -100.00000000   -100.00000000</v>
    <i name="EFIELD">      0.00000000</i>
   </separator>
  </separator>
  <separator name="grids" >
   <i type="int" name="NGX">    48</i>
   <i type="int" name="NGY">    48</i>
   <i type="int" name="NGZ">    48</i>
   <i type="int" name="NGXF">    96</i>
   <i type="int" name="NGYF">    96</i>
   <i type="int" name="NGZF">    96</i>
   <i type="logical" name="ADDGRID"> F  </i>
  </separator>
  <separator name="ionic" >
   <i type="int" name="NSW">     0</i>
   <i type="int" name="IBRION">    -1</i>
   <i type="int" name="ISIF">     2</i>
   <i name="PSTRESS">      0.00000000</i>
   <i name="EDIFFG">      0.05000000</i>
   <i type="int" name="NFREE">     0</i>
   <i name="POTIM">      0.50000000</i>
   <i name="SMASS">     -3.00000000</i>
  </separator>
  <separator name="ionic md" >
   <i name="TEBEG">      0.00010000</i>
   <i name="TEEND">      0.00010000</i>
   <i type="int" name="NBLOCK">     1</i>
   <i type="int" name="KBLOCK">     1</i>
   <i type="int" name="NPACO">   256</i>
   <i name="APACO">     16.00000000</i>
  </separator>
  <separator name="symmetry" >
   <i type="int" name="ISYM">     2</i>
   <i name="SYMPREC">      0.00001000</i>
  </separator>
  <separator name="dos" >
   <i type="logical" name="LORBIT"> F  </i>
   <v name="RWIGS">     -1.00000000     -1.00000000</v>
   <i type="int" name="NEDOS">   301</i>
   <i name="EMIN">     10.00000000</i>
   <i name="EMAX">    -10.00000000</i>
   <i name="EFERMI">      0.00000000</i>
  </separator>
  <separator name="writing" >
   <i type="int" name="NWRITE">     2</i>
   <i type="logical" name="LWAVE"> F  </i>
   <i type="logical" name="LCHARG"> F  </i>
   <i type="logical" name="LPARD"> F  </i>
   <i type="logical" name="LVTOT"> F  </i>
   <i type="logical" name="LELF"> F  </i>
   <i type="logical" name="LOPTICS"> F  </i>
   <v name="STM">      0.00000000      0.00000000      0.00000000      0.00000000      0.00000000</v>
  </separator>
  <separator name="performance" >
   <i type="int" name="NPAR">    12</i>
   <i type="int" name="NSIM">     4</i>
   <i type="int" name="NBLK">    32</i>
   <i type="logical" name="LPLANE"> T  </i>
   <i type="logical" name="LSCALAPACK"> F  </i>
   <i type="logical" name="LSCAAWARE"> F  </i>
   <i type="logical" name="LSCALU"> F  </i>
   <i type="logical" name="LASYNC"> F  </i>
  </separator>
  <separator name="miscellaneous" >
   <i type="int" name="IDIOT">     3</i>
   <i type="logical" name="LMUSIC"> F  </i>
   <v name="POMASS">     26.98200000     24.30500000</v>
   <i type="logical" name="LCORR"> T  </i>
  </separator>
  <i type="logical" name="LREAL_COMPAT"> F  </i>
  <i type="logical" name="GGA_COMPAT"> T  </i>
  <i type="logical" name="LBERRY"> F  </i>
  <i type="int" name="ICORELEVEL">     0</i>
  <i type="logical" name="LDAU"> F  </i>
  <i type="int" name="I_CONSTRAINED_M">     0</i>
  <separator name="electronic exchange-correlation" >
   <i type="string" name="GGA">--</i>
   <i type="int" name="VOSKOWN">     0</i>
   <i type="logical" name="LHFCALC"> F  </i>
   <i type="logical" name="LHFONE"> F  </i>
   <i type="logical" name="LRHFCALC"> F  </i>
   <i type="logical" name="LTHOMAS"> F  </i>
   <i type="logical" name="LMODELHF"> F  </i>
   <i name="ENCUTFOCK">      0.00000000</i>
   <i name="ENCUT4O">     -1.00000000</i>
   <i type="int" name="EXXOEP">     0</i>
   <i type="int" name="FOURORBIT">     0</i>
   <i name="AEXX">      0.00000000</i>
   <i name="HFALPHA">      0.00000000</i>
   <i name="ALDAX">      1.00000000</i>
   <i name="AGGAX">      1.00000000</i>
   <i name="ALDAC">      1.00000000</i>
   <i name="AGGAC">      1.00000000</i>
   <i type="int" name="NKREDX">     1</i>
   <i type="int" name="NKREDY">     1</i>
   <i type="int" name="NKREDZ">     1</i>
   <i type="logical" name="SHIFTRED"> F  </i>
   <i type="logical" name="ODDONLY"> F  </i>
   <i type="logical" name="EVENONLY"> F  </i>
   <i type="int" name="LMAXFOCK">     0</i>
   <i type="int" name="NMAXFOCKAE">     0</i>
   <i name="HFSCREEN">      0.00000000</i>
   <i name="HFSCREENC">      0.00000000</i>
  </separator>
  <separator name="model GW" >
   <i type="int" name="MODEL_GW">     0</i>
   <i name="MODEL_EPS0">     10.23670678</i>
   <i name="MODEL_ALPHA">      1.00000000</i>
  </separator>
  <separator name="linear response parameters" >
   <i type="logical" name="LEPSILON"> F  </i>
   <i type="logical" name="LRPA"> F  </i>
   <i type="logical" name="LNABLA"> F  </i>
   <i type="logical" name="LVEL"> F  </i>
   <i type="int" name="KINTER">     0</i>
   <i name="CSHIFT">      0.10000000</i>
   <i name="OMEGAMAX">     -1.00000000</i>
  </separator>
  <separator name="orbital magnetization" >
   <i type="logical" name="ORBITALMAG"> F  </i>
   <i type="logical" name="LMAGBLOCH"> F  </i>
   <i type="logical" name="LCHIMAG"> F  </i>
   <i type="logical" name="LGAUGE"> T  </i>
   <i type="int" name="MAGATOM">     0</i>
   <v name="MAGDIPOL">      0.00000000      0.00000000      0.00000000</v>
   <v name="AVECCONST">      0.00000000      0.00000000      0.00000000</v>
  </separator>
  <separator name="response functions" >
   <i type="logical" name="LRPA"> T  </i>
   <i type="logical" name="LTCTE"> F  </i>
   <i type="logical" name="LTETE"> F  </i>
   <i type="logical" name="L2ORDER"> F  </i>
   <i type="logical" name="LGWLF"> F  </i>
   <i name="ENCUTGW">    200.00000000</i>
   <i name="ENCUTGWSOFT">     -2.00000000</i>
   <i name="ENCUTLF">     -1.00000000</i>
   <i type="int" name="LMAXMP2">    -1</i>
   <i name="SCISSOR">      0.00000000</i>
   <i type="int" name="NOMEGA">     0</i>
   <i type="int" name="NOMEGAR">     0</i>
   <i type="int" name="NBANDSGW">    -1</i>
   <i type="int" name="NBANDSLF">    -1</i>
   <i type="int" name="NELM">     1</i>
   <i type="int" name="DIM">     3</i>
   <i type="int" name="ANTIRES">     0</i>
   <i type="logical" name="LUSEW"> F  </i>
   <i name="OMEGAMAX">    -30.00000000</i>
   <i name="OMEGATL">   -200.00000000</i>
   <i type="int" name="OMEGAGRID">     0</i>
   <i name="CSHIFT">     -0.10000000</i>
   <i type="logical" name="SELFENERGY"> F  </i>
   <i type="logical" name="LSPECTRAL"> F  </i>
   <i type="logical" name="ODDONLYGW"> F  </i>
   <i type="logical" name="EVENONLYGW"> F  </i>
   <i type="int" name="NKREDLFX">     1</i>
   <i type="int" name="NKREDLFY">     1</i>
   <i type="int" name="NKREDLFZ">     1</i>
   <i type="int" name="MAXMEM">  1024</i>
   <i type="int" name="TELESCOPE">     0</i>
  </separator>
 </parameters>
 <atominfo>
  <atoms>      31 </atoms>
  <types>       2 </types>
  <array name="atoms" >
   <dimension dim="1">ion</dimension>
   <field type="string">element</field>
   <field type="int">atomtype</field>
   <set>
    <rc><c>Al</c><c>   1</c></rc>
    <rc><c>Al</c><c>   1</c></rc>
    <rc><c>Al</c><c>   1</c></rc>
    <rc><c>Al</c><c>   1</c></rc>
    <rc><c>Al</c><c>   1</c></rc>
    <rc><c>Al</c><c>   1</c></rc>
    <rc><c>Al</c><c>   1</c></rc>
    <rc><c>Al</c><c>   1</c></rc>
    <rc><c>Al</c><c>   1</c></rc>
    <rc><c>Al</c><c>   1</c></rc>
    <rc><c>Al</c><c>   1</c></rc>
    <rc><c>Al</c><c>   1</c></rc>
    <rc><c>Al</c><c>   1</c></rc>
    <rc><c>Al</c><c>   1</c></rc>
    <rc><c>Al</c><c>   1</c></rc>
    <rc><c>Al</c><c>   1</c></rc>
    <rc><c>Al</c><c>   1</c></rc>
    <rc><c>Al</c><c>   1</c></rc>
    <rc><c>Al</c><c>   1</c></rc>
    <rc><c>Al</c><c>   1</c></rc>
    <rc><c>Al</c><c>   1</c></rc>
    <rc><c>Al</c><c>   1</c></rc>
    <rc><c>Al</c><c>   1</c></rc>
    <rc><c>Al</c><c>   1</c></rc>
    <rc><c>Al</c><c>   1</c></rc>
    <rc><c>Al</c><c>   1</c></rc>
    <rc><c>Al</c><c>   1</c></rc>
    <rc><c>Al</c><c>   1</c></rc>
    <rc><c>Al</c><c>   1</c></rc>
    <rc><c>Al</c><c>   1</c></rc>
    <rc><c>Mg</c><c>   2</c></rc>
   </set>
  </array>
  <array name="atomtypes" >
   <dimension dim="1">type</dimension>
   <field type="int">atomspertype</field>
   <field type="string">element</field>
   <field>mass</field>
   <field>valence</field>
   <field type="string">pseudopotential</field>
   <set>
    <rc><c>  30</c><c>Al</c><c>     26.98200000</c><c>      3.00000000</c><c> PAW_PBE Al 04Jan2001                   </c></rc>
    <rc><c>   1</c><c>Mg</c><c>     24.30500000</c><c>      2.00000000</c><c> PAW_PBE Mg 05Jan2001                   </c></rc>
   </set>
  </array>
 </atominfo>
 <structure name="initialpos" >
  <crystal>
   <varray name="basis" >
    <v>       8.08705200       0.00000000       0.00000000 </v>
    <v>       0.00000000       8.08705200       0.00000000 </v>
    <v>       0.00000000       0.00000000       8.08705200 </v>
   </varray>
   <i name="volume">    528.89651690 </i>
   <varray name="rec_basis" >
    <v>       0.12365445       0.00000000       0.00000000 </v>
    <v>       0.00000000       0.12365445       0.00000000 </v>
    <v>       0.00000000       0.00000000       0.12365445 </v>
   </varray>
  </crystal>
  <varray name="positions" >
   <v>       0.99956200       0.00000000       0.99956200 </v>
   <v>       0.24825000       0.00000000       0.24825000 </v>
   <v>       0.25002300       0.24960900       0.00033000 </v>
   <v>       0.00033000       0.24960900       0.25002300 </v>
   <v>       0.49964100       0.00000000       0.99616300 </v>
   <v>       0.75336300       0.00000000       0.24988300 </v>
   <v>       0.75206500       0.24905400       0.99902700 </v>
   <v>       0.50456100       0.24748200       0.24977900 </v>
   <v>       0.99906600       0.50000000       0.99906600 </v>
   <v>       0.25002300       0.75039100       0.00033000 </v>
   <v>       0.00033000       0.75039100       0.25002300 </v>
   <v>       0.50249100       0.50000000       0.99741400 </v>
   <v>       0.74687400       0.50000000       0.25123900 </v>
   <v>       0.75206500       0.75094600       0.99902700 </v>
   <v>       0.50456100       0.75251800       0.24977900 </v>
   <v>       0.99616300       0.00000000       0.49964100 </v>
   <v>       0.24988300       0.00000000       0.75336300 </v>
   <v>       0.24977900       0.24748200       0.50456100 </v>
   <v>       0.99902700       0.24905400       0.75206500 </v>
   <v>       0.50078600       0.00000000       0.50078600 </v>
   <v>       0.75104700       0.00000000       0.75104700 </v>
   <v>       0.74459400       0.25440000       0.49849800 </v>
   <v>       0.49849800       0.25440000       0.74459400 </v>
   <v>       0.99741400       0.50000000       0.50249100 </v>
   <v>       0.25123900       0.50000000       0.74687400 </v>
   <v>       0.24977900       0.75251800       0.50456100 </v>
   <v>       0.99902700       0.75094600       0.75206500 </v>
   <v>       0.74567600       0.50000000       0.74567600 </v>
   <v>       0.74459400       0.74560000       0.49849800 </v>
   <v>       0.49849800       0.74560000       0.74459400 </v>
   <v>       0.26078800       0.50000000       0.26078800 </v>
  </varray>
 </structure>
 <calculation>
  <scstep>
   <time name="diag">    0.30    0.30</time>
   <time name="diis">    0.69    0.69</time>
   <time name="orth">    0.02    0.02</time>
   <time name="total">    1.17    1.18</time>
   <energy>
    <i name="alphaZ">     -7.38313139 </i>
    <i name="ewald">  -2181.67816138 </i>
    <i name="hartreedc">    -23.88523760 </i>
    <i name="XCdc">   -796.35084833 </i>
    <i name="pawpsdc">   1078.21717227 </i>
    <i name="pawaedc">   -108.50372521 </i>
    <i name="eentropy">      0.03238651 </i>
    <i name="bandstr">    634.55710154 </i>
    <i name="atom">   1629.13144109 </i>
    <i name="e_fr_energy">    224.13699751 </i>
    <i name="e_wo_entrp">    224.10461100 </i>
    <i name="e_0_energy">    224.12620201 </i>
   </energy>
  </scstep>
  <scstep>
   <time name="diag">    0.30    0.30</time>
   <time name="diis">    0.69    0.69</time>
   <time name="orth">    0.02    0.02</time>
   <time name="total">    1.00    1.01</time>
   <energy>
    <i name="e_fr_energy">    -39.63952156 </i>
    <i name="e_wo_entrp">    -39.64824427 </i>
    <i name="e_0_energy">    -39.64242913 </i>
   </energy>
  </scstep>
  <scstep>
   <time name="diag">    0.30    0.30</time>
   <time name="diis">    0.69    0.69</time>
   <time name="orth">    0.02    0.02</time>
   <time name="total">    1.01    1.01</time>
   <energy>
    <i name="e_fr_energy">    -94.55741217 </i>
    <i name="e_wo_entrp">    -94.57243577 </i>
    <i name="e_0_energy">    -94.56242004 </i>
   </energy>
  </scstep>
  <scstep>
   <time name="diag">    0.30    0.30</time>
   <time name="diis">    0.68    0.68</time>
   <time name="orth">    0.02    0.02</time>
   <time name="total">    1.00    1.00</time>
   <energy>
    <i name="e_fr_energy">   -106.93287793 </i>
    <i name="e_wo_entrp">   -106.91293879 </i>
    <i name="e_0_energy">   -106.92623155 </i>
   </energy>
  </scstep>
  <scstep>
   <time name="diag">    0.30    0.30</time>
   <time name="diis">    0.69    0.69</time>
   <time name="orth">    0.02    0.02</time>
   <time name="total">    1.00    1.01</time>
   <energy>
    <i name="e_fr_energy">   -111.32570581 </i>
    <i name="e_wo_entrp">   -111.30094801 </i>
    <i name="e_0_energy">   -111.31745321 </i>
   </energy>
  </scstep>
  <scstep>
   <time name="diag">    0.30    0.30</time>
   <time name="diis">    0.68    0.68</time>
   <time name="orth">    0.02    0.02</time>
   <time name="total">    1.00    1.00</time>
   <energy>
    <i name="e_fr_energy">   -112.77789801 </i>
    <i name="e_wo_entrp">   -112.76270978 </i>
    <i name="e_0_energy">   -112.77283527 </i>
   </energy>
  </scstep>
  <scstep>
   <time name="diag">    0.30    0.30</time>
   <time name="diis">    0.68    0.68</time>
   <time name="orth">    0.02    0.02</time>
   <time name="total">    1.00    1.00</time>
   <energy>
    <i name="e_fr_energy">   -113.23649742 </i>
    <i name="e_wo_entrp">   -113.21596347 </i>
    <i name="e_0_energy">   -113.22965277 </i>
   </energy>
  </scstep>
  <scstep>
   <time name="diag">    0.30    0.30</time>
   <time name="diis">    0.69    0.69</time>
   <time name="orth">    0.02    0.02</time>
   <time name="total">    1.01    1.02</time>
   <energy>
    <i name="e_fr_energy">   -113.40151977 </i>
    <i name="e_wo_entrp">   -113.37687225 </i>
    <i name="e_0_energy">   -113.39330393 </i>
   </energy>
  </scstep>
  <scstep>
   <time name="diag">    0.30    0.30</time>
   <time name="diis">    1.59    1.59</time>
   <time name="orth">    0.02    0.02</time>
   <time name="total">    1.91    1.91</time>
   <energy>
    <i name="e_fr_energy">   -113.48676744 </i>
    <i name="e_wo_entrp">   -113.46145201 </i>
    <i name="e_0_energy">   -113.47832896 </i>
   </energy>
  </scstep>
  <scstep>
   <time name="diag">    0.30    0.30</time>
   <time name="diis">    1.50    1.51</time>
   <time name="orth">    0.02    0.02</time>
   <time name="total">    1.83    1.83</time>
   <energy>
    <i name="e_fr_energy">   -113.50077126 </i>
    <i name="e_wo_entrp">   -113.47452244 </i>
    <i name="e_0_energy">   -113.49202166 </i>
   </energy>
  </scstep>
  <scstep>
   <time name="diag">    0.30    0.30</time>
   <time name="diis">    1.35    1.35</time>
   <time name="orth">    0.02    0.02</time>
   <time name="total">    1.67    1.68</time>
   <energy>
    <i name="e_fr_energy">   -113.50150606 </i>
    <i name="e_wo_entrp">   -113.47526402 </i>
    <i name="e_0_energy">   -113.49275871 </i>
   </energy>
  </scstep>
  <scstep>
   <time name="diag">    0.30    0.30</time>
   <time name="diis">    1.10    1.10</time>
   <time name="orth">    0.02    0.02</time>
   <time name="total">    1.61    1.62</time>
   <energy>
    <i name="e_fr_energy">   -113.50153389 </i>
    <i name="e_wo_entrp">   -113.47529181 </i>
    <i name="e_0_energy">   -113.49278653 </i>
   </energy>
  </scstep>
  <scstep>
   <time name="diag">    0.30    0.30</time>
   <time name="diis">    1.36    1.36</time>
   <time name="orth">    0.02    0.02</time>
   <time name="total">    2.03    2.03</time>
   <energy>
    <i name="e_fr_energy">   -112.86469779 </i>
    <i name="e_wo_entrp">   -112.82561108 </i>
    <i name="e_0_energy">   -112.85166889 </i>
   </energy>
  </scstep>
  <scstep>
   <time name="diag">    0.30    0.30</time>
   <time name="diis">    1.44    1.44</time>
   <time name="orth">    0.02    0.02</time>
   <time name="total">    2.12    2.12</time>
   <energy>
    <i name="e_fr_energy">   -112.62131048 </i>
    <i name="e_wo_entrp">   -112.58281854 </i>
    <i name="e_0_energy">   -112.60847984 </i>
   </energy>
  </scstep>
  <scstep>
   <time name="diag">    0.30    0.30</time>
   <time name="diis">    1.44    1.44</time>
   <time name="orth">    0.02    0.02</time>
   <time name="total">    2.11    2.11</time>
   <energy>
    <i name="e_fr_energy">   -112.57529838 </i>
    <i name="e_wo_entrp">   -112.53693550 </i>
    <i name="e_0_energy">   -112.56251075 </i>
   </energy>
  </scstep>
  <scstep>
   <time name="diag">    0.30    0.30</time>
   <time name="diis">    1.49    1.49</time>
   <time name="orth">    0.02    0.02</time>
   <time name="total">    2.15    2.16</time>
   <energy>
    <i name="e_fr_energy">   -112.57423971 </i>
    <i name="e_wo_entrp">   -112.53539309 </i>
    <i name="e_0_energy">   -112.56129084 </i>
   </energy>
  </scstep>
  <scstep>
   <time name="diag">    0.30    0.30</time>
   <time name="diis">    1.21    1.21</time>
   <time name="orth">    0.02    0.02</time>
   <time name="total">    1.69    1.69</time>
   <energy>
    <i name="alphaZ">     -7.38313139 </i>
    <i name="ewald">  -2181.67816138 </i>
    <i name="hartreedc">    -27.10310307 </i>
    <i name="XCdc">   -792.88742069 </i>
    <i name="pawpsdc">   1083.54702982 </i>
    <i name="pawaedc">   -114.28387782 </i>
    <i name="eentropy">     -0.03874419 </i>
    <i name="bandstr">    298.12171327 </i>
    <i name="atom">   1629.13144109 </i>
    <i name="e_fr_energy">   -112.57425437 </i>
    <i name="e_wo_entrp">   -112.53551018 </i>
    <i name="e_0_energy">   -112.56133964 </i>
   </energy>
  </scstep>
  <structure>
   <crystal>
    <varray name="basis" >
     <v>       8.08705200       0.00000000       0.00000000 </v>
     <v>       0.00000000       8.08705200       0.00000000 </v>
     <v>       0.00000000       0.00000000       8.08705200 </v>
    </varray>
    <i name="volume">    528.89651690 </i>
    <varray name="rec_basis" >
     <v>       0.12365445       0.00000000       0.00000000 </v>
     <v>       0.00000000       0.12365445       0.00000000 </v>
     <v>       0.00000000       0.00000000       0.12365445 </v>
    </varray>
   </crystal>
   <varray name="positions" >
    <v>       0.99956200       0.00000000       0.99956200 </v>
    <v>       0.24825000       0.00000000       0.24825000 </v>
    <v>       0.25002300       0.24960900       0.00033000 </v>
    <v>       0.00033000       0.24960900       0.25002300 </v>
    <v>       0.49964100       0.00000000       0.99616300 </v>
    <v>       0.75336300       0.00000000       0.24988300 </v>
    <v>       0.75206500       0.24905400       0.99902700 </v>
    <v>       0.50456100       0.24748200       0.24977900 </v>
    <v>       0.99906600       0.50000000       0.99906600 </v>
    <v>       0.25002300       0.75039100       0.00033000 </v>
    <v>       0.00033000       0.75039100       0.25002300 </v>
    <v>       0.50249100       0.50000000       0.99741400 </v>
    <v>       0.74687400       0.50000000       0.25123900 </v>
    <v>       0.75206500       0.75094600       0.99902700 </v>
    <v>       0.50456100       0.75251800       0.24977900 </v>
    <v>       0.99616300       0.00000000       0.49964100 </v>
    <v>       0.24988300       0.00000000       0.75336300 </v>
    <v>       0.24977900       0.24748200       0.50456100 </v>
    <v>       0.99902700       0.24905400       0.75206500 </v>
    <v>       0.50078600       0.00000000       0.50078600 </v>
    <v>       0.75104700       0.00000000       0.75104700 </v>
    <v>       0.74459400       0.25440000       0.49849800 </v>
    <v>       0.49849800       0.25440000       0.74459400 </v>
    <v>       0.99741400       0.50000000       0.50249100 </v>
    <v>       0.25123900       0.50000000       0.74687400 </v>
    <v>       0.24977900       0.75251800       0.50456100 </v>
    <v>       0.99902700       0.75094600       0.75206500 </v>
    <v>       0.74567600       0.50000000       0.74567600 </v>
    <v>       0.74459400       0.74560000       0.49849800 </v>
    <v>       0.49849800       0.74560000       0.74459400 </v>
    <v>       0.26078800       0.50000000       0.26078800 </v>
   </varray>
  </structure>
  <varray name="forces" >
   <v>      -0.00762605       0.00000000      -0.00762605 </v>
   <v>       0.01979032       0.00000000       0.01979032 </v>
   <v>      -0.01038905      -0.03408501      -0.05029229 </v>
   <v>      -0.05029229      -0.03408501      -0.01038905 </v>
   <v>       0.02379446       0.00000000       0.02064040 </v>
   <v>      -0.01687300       0.00000000      -0.02274553 </v>
   <v>      -0.01092805      -0.01296210      -0.01169438 </v>
   <v>       0.00231241      -0.03642224       0.01922218 </v>
   <v>      -0.02349885       0.00000000      -0.02349885 </v>
   <v>      -0.01038905       0.03408501      -0.05029229 </v>
   <v>      -0.05029229       0.03408501      -0.01038905 </v>
   <v>       0.03122989       0.00000000       0.00722681 </v>
   <v>      -0.05144322       0.00000000      -0.00522778 </v>
   <v>      -0.01092805       0.01296210      -0.01169438 </v>
   <v>       0.00231241       0.03642224       0.01922218 </v>
   <v>       0.02064040       0.00000000       0.02379446 </v>
   <v>      -0.02274553       0.00000000      -0.01687300 </v>
   <v>       0.01922218      -0.03642224       0.00231241 </v>
   <v>      -0.01169438      -0.01296210      -0.01092805 </v>
   <v>      -0.01182548       0.00000000      -0.01182548 </v>
   <v>      -0.00101824       0.00000000      -0.00101824 </v>
   <v>       0.02347210      -0.01626116       0.04305942 </v>
   <v>       0.04305942      -0.01626116       0.02347210 </v>
   <v>       0.00722681       0.00000000       0.03122989 </v>
   <v>      -0.00522778       0.00000000      -0.05144322 </v>
   <v>       0.01922218       0.03642224       0.00231241 </v>
   <v>      -0.01169438       0.01296210      -0.01092805 </v>
   <v>       0.02902809       0.00000000       0.02902809 </v>
   <v>       0.02347210       0.01626116       0.04305942 </v>
   <v>       0.04305942       0.01626116       0.02347210 </v>
   <v>      -0.00097649       0.00000000      -0.00097649 </v>
  </varray>
  <varray name="stress" >
   <v>      -4.96632495       0.00000000       5.64902268 </v>
   <v>       0.00000000       8.09884725       0.00000000 </v>
   <v>       5.64902268       0.00000000      -4.96632495 </v>
  </varray>
  <energy>
   <i name="e_fr_energy">   -112.57425437 </i>
   <i name="e_wo_entrp">   -112.56133964 </i>
   <i name="e_0_energy">     -0.03874419 </i>
  </energy>
  <time name="totalsc">   27.44   27.48</time>
  <eigenvalues>
   <array>
    <dimension dim="1">band</dimension>
    <dimension dim="2">kpoint</dimension>
    <dimension dim="3">spin</dimension>
    <field>eigene</field>
    <field>occ</field>
    <set>
     <set comment="spin 1">
      <set comment="kpoint 1">
       <r>   -2.9542    1.0000 </r>
       <r>   -1.9239    1.0000 </r>
       <r>   -1.8734    1.0000 </r>
       <r>   -1.6396    1.0000 </r>
       <r>   -0.8026    1.0000 </r>
       <r>   -0.7493    1.0000 </r>
       <r>   -0.3840    1.0000 </r>
       <r>    0.2934    1.0000 </r>
       <r>    0.3322    1.0000 </r>
       <r>    0.5043    1.0000 </r>
       <r>    0.6132    1.0000 </r>
       <r>    1.3473    1.0000 </r>
       <r>    1.4013    1.0000 </r>
       <r>    1.4195    1.0000 </r>
       <r>    1.5535    1.0000 </r>
       <r>    1.7300    1.0000 </r>
       <r>    1.9669    1.0000 </r>
       <r>    2.6627    1.0000 </r>
       <r>    2.6783    1.0000 </r>
       <r>    2.8499    1.0000 </r>
       <r>    3.5420    1.0000 </r>
       <r>    3.6129    1.0000 </r>
       <r>    3.6597    1.0000 </r>
       <r>    3.7135    1.0000 </r>
       <r>    3.7515    1.0000 </r>
       <r>    4.0382    1.0000 </r>
       <r>    4.5410    1.0000 </r>
       <r>    4.5951    1.0000 </r>
       <r>    4.6348    1.0000 </r>
       <r>    4.7565    1.0000 </r>
       <r>    4.8134    1.0000 </r>
       <r>    4.8843    1.0000 </r>
       <r>    4.9345    1.0000 </r>
       <r>    5.0578    1.0000 </r>
       <r>    5.2415    1.0000 </r>
       <r>    5.7189    1.0000 </r>
       <r>    5.8334    1.0000 </r>
       <r>    6.3349    1.0000 </r>
       <r>    6.7370    1.0000 </r>
       <r>    6.7627    1.0000 </r>
       <r>    6.7966    1.0000 </r>
       <r>    6.9708    1.0000 </r>
       <r>    7.0135    1.0000 </r>
       <r>    7.0728    1.0000 </r>
       <r>    7.1149    1.0000 </r>
       <r>    7.8145    0.6601 </r>
       <r>    7.8461    0.5297 </r>
       <r>    7.9406    0.1663 </r>
       <r>    8.0798   -0.0340 </r>
       <r>    8.1651   -0.0249 </r>
       <r>    8.2293   -0.0115 </r>
       <r>    8.2573   -0.0075 </r>
       <r>    8.3304   -0.0019 </r>
       <r>    8.4175   -0.0002 </r>
       <r>    9.0913    0.0000 </r>
       <r>    9.1544    0.0000 </r>
       <r>    9.1646    0.0000 </r>
       <r>    9.3948    0.0000 </r>
       <r>    9.4167    0.0000 </r>
       <r>    9.4791    0.0000 </r>
       <r>    9.9803    0.0000 </r>
       <r>    9.9858    0.0000 </r>
       <r>   10.0691    0.0000 </r>
       <r>   10.1177    0.0000 </r>
       <r>   10.1880    0.0000 </r>
       <r>   10.2126    0.0000 </r>
       <r>   10.5309    0.0000 </r>
       <r>   10.6734    0.0000 </r>
       <r>   10.6997    0.0000 </r>
       <r>   10.9268    0.0000 </r>
       <r>   11.0150    0.0000 </r>
       <r>   11.2722    0.0000 </r>
      </set>
      <set comment="kpoint 2">
       <r>   -2.9571    1.0000 </r>
       <r>   -1.9172    1.0000 </r>
       <r>   -1.8164    1.0000 </r>
       <r>   -1.7071    1.0000 </r>
       <r>   -0.8013    1.0000 </r>
       <r>   -0.6663    1.0000 </r>
       <r>   -0.5202    1.0000 </r>
       <r>    0.2987    1.0000 </r>
       <r>    0.3995    1.0000 </r>
       <r>    0.4340    1.0000 </r>
       <r>    0.6853    1.0000 </r>
       <r>    1.3760    1.0000 </r>
       <r>    1.4603    1.0000 </r>
       <r>    1.4725    1.0000 </r>
       <r>    1.5061    1.0000 </r>
       <r>    1.7267    1.0000 </r>
       <r>    1.8719    1.0000 </r>
       <r>    2.6309    1.0000 </r>
       <r>    2.7361    1.0000 </r>
       <r>    2.7735    1.0000 </r>
       <r>    3.5524    1.0000 </r>
       <r>    3.6254    1.0000 </r>
       <r>    3.6539    1.0000 </r>
       <r>    3.6883    1.0000 </r>
       <r>    3.7648    1.0000 </r>
       <r>    4.0066    1.0000 </r>
       <r>    4.5712    1.0000 </r>
       <r>    4.6539    1.0000 </r>
       <r>    4.6760    1.0000 </r>
       <r>    4.7241    1.0000 </r>
       <r>    4.7431    1.0000 </r>
       <r>    4.9158    1.0000 </r>
       <r>    4.9346    1.0000 </r>
       <r>    5.0557    1.0000 </r>
       <r>    5.1805    1.0000 </r>
       <r>    5.7319    1.0000 </r>
       <r>    5.9526    1.0000 </r>
       <r>    6.2624    1.0000 </r>
       <r>    6.7555    1.0000 </r>
       <r>    6.7759    1.0000 </r>
       <r>    6.8813    1.0000 </r>
       <r>    7.0052    1.0000 </r>
       <r>    7.0229    1.0000 </r>
       <r>    7.0590    1.0000 </r>
       <r>    7.1353    1.0000 </r>
       <r>    7.8462    0.5294 </r>
       <r>    7.9125    0.2606 </r>
       <r>    7.9789    0.0673 </r>
       <r>    8.0688   -0.0315 </r>
       <r>    8.1290   -0.0325 </r>
       <r>    8.1381   -0.0308 </r>
       <r>    8.1814   -0.0212 </r>
       <r>    8.2267   -0.0120 </r>
       <r>    8.2763   -0.0054 </r>
       <r>    9.1348    0.0000 </r>
       <r>    9.1583    0.0000 </r>
       <r>    9.3031    0.0000 </r>
       <r>    9.3972    0.0000 </r>
       <r>    9.4022    0.0000 </r>
       <r>    9.4816    0.0000 </r>
       <r>    9.9858    0.0000 </r>
       <r>    9.9943    0.0000 </r>
       <r>   10.0116    0.0000 </r>
       <r>   10.0739    0.0000 </r>
       <r>   10.1196    0.0000 </r>
       <r>   10.1789    0.0000 </r>
       <r>   10.5723    0.0000 </r>
       <r>   10.6213    0.0000 </r>
       <r>   10.6642    0.0000 </r>
       <r>   11.0737    0.0000 </r>
       <r>   11.1706    0.0000 </r>
       <r>   11.3424    0.0000 </r>
      </set>
     </set>
    </set>
   </array>
  </eigenvalues>
  <separator name="orbital magnetization" >
   <v name="MAGDIPOLOUT">      0.00000000      0.00000000      0.00000000</v>
  </separator>
  <dos>
   <i name="efermi">      7.85311424 </i>
   <total>
    <array>
     <dimension dim="1">gridpoints</dimension>
     <dimension dim="2">spin</dimension>
     <field>energy</field>
     <field>total</field>
     <field>integrated</field>
     <set>
      <set comment="spin 1">
       <r>  -4.9571   0.0000   0.0000 </r>
       <r>  -4.8961   0.0000   0.0000 </r>
       <r>  -4.8351   0.0000   0.0000 </r>
       <r>  -4.7741   0.0000   0.0000 </r>
       <r>  -4.7131   0.0000   0.0000 </r>
       <r>  -4.6521   0.0000   0.0000 </r>
       <r>  -4.5911   0.0000   0.0000 </r>
       <r>  -4.5301   0.0000   0.0000 </r>
       <r>  -4.4691   0.0000   0.0000 </r>
       <r>  -4.4081   0.0000   0.0000 </r>
       <r>  -4.3471   0.0000   0.0000 </r>
       <r>  -4.2861   0.0000   0.0000 </r>
       <r>  -4.2251   0.0000   0.0000 </r>
       <r>  -4.1641   0.0000   0.0000 </r>
       <r>  -4.1031   0.0000   0.0000 </r>
       <r>  -4.0421   0.0000   0.0000 </r>
       <r>  -3.9811   0.0000   0.0000 </r>
       <r>  -3.9201   0.0000   0.0000 </r>
       <r>  -3.8591   0.0000   0.0000 </r>
       <r>  -3.7981   0.0000   0.0000 </r>
       <r>  -3.7371   0.0000   0.0000 </r>
       <r>  -3.6761  -0.0001   0.0000 </r>
       <r>  -3.6151  -0.0005   0.0000 </r>
       <r>  -3.5541  -0.0027  -0.0002 </r>
       <r>  -3.4931  -0.0126  -0.0010 </r>
       <r>  -3.4321  -0.0474  -0.0039 </r>
       <r>  -3.3711  -0.1393  -0.0124 </r>
       <r>  -3.3101  -0.3061  -0.0310 </r>
       <r>  -3.2491  -0.4446  -0.0581 </r>
       <r>  -3.1881  -0.1877  -0.0696 </r>
       <r>  -3.1271   1.0326  -0.0066 </r>
       <r>  -3.0661   3.4682   0.2049 </r>
       <r>  -3.0051   6.3949   0.5950 </r>
       <r>  -2.9441   8.2314   1.0971 </r>
       <r>  -2.8831   7.7699   1.5711 </r>
       <r>  -2.8221   5.3260   1.8959 </r>
       <r>  -2.7611   2.4275   2.0440 </r>
       <r>  -2.7001   0.4276   2.0701 </r>
       <r>  -2.6391  -0.3665   2.0478 </r>
       <r>  -2.5781  -0.4128   2.0226 </r>
       <r>  -2.5171  -0.2398   2.0079 </r>
       <r>  -2.4561  -0.1114   2.0012 </r>
       <r>  -2.3951  -0.0902   1.9956 </r>
       <r>  -2.3341  -0.1934   1.9839 </r>
       <r>  -2.2731  -0.4394   1.9570 </r>
       <r>  -2.2121  -0.7307   1.9125 </r>
       <r>  -2.1511  -0.6227   1.8745 </r>
       <r>  -2.0901   0.7334   1.9192 </r>
       <r>  -2.0291   4.0708   2.1675 </r>
       <r>  -1.9682   9.0511   2.7196 </r>
       <r>  -1.9072  13.9315   3.5694 </r>
       <r>  -1.8462  16.6746   4.5866 </r>
       <r>  -1.7852  16.5467   5.5959 </r>
       <r>  -1.7242  14.3682   6.4723 </r>
       <r>  -1.6632  11.3128   7.1624 </r>
       <r>  -1.6022   7.9925   7.6499 </r>
       <r>  -1.5412   4.7221   7.9379 </r>
       <r>  -1.4802   1.9939   8.0596 </r>
       <r>  -1.4192   0.2777   8.0765 </r>
       <r>  -1.3582  -0.4080   8.0516 </r>
       <r>  -1.2972  -0.4715   8.0228 </r>
       <r>  -1.2362  -0.3857   7.9993 </r>
       <r>  -1.1752  -0.4332   7.9729 </r>
       <r>  -1.1142  -0.6379   7.9340 </r>
       <r>  -1.0532  -0.6820   7.8924 </r>
       <r>  -0.9922   0.1598   7.9021 </r>
       <r>  -0.9312   2.6958   8.0666 </r>
       <r>  -0.8702   6.9608   8.4912 </r>
       <r>  -0.8092  11.5808   9.1976 </r>
       <r>  -0.7482  14.4301  10.0778 </r>
       <r>  -0.6872  14.3313  10.9520 </r>
       <r>  -0.6262  12.0432  11.6866 </r>
       <r>  -0.5652   9.4152  12.2609 </r>
       <r>  -0.5042   7.7165  12.7316 </r>
       <r>  -0.4432   6.8727  13.1508 </r>
       <r>  -0.3822   6.0428  13.5194 </r>
       <r>  -0.3212   4.6330  13.8020 </r>
       <r>  -0.2602   2.7829  13.9718 </r>
       <r>  -0.1992   1.0813  14.0377 </r>
       <r>  -0.1382  -0.0449  14.0350 </r>
       <r>  -0.0772  -0.6365  13.9962 </r>
       <r>  -0.0162  -0.9630  13.9374 </r>
       <r>   0.0448  -1.0019  13.8763 </r>
       <r>   0.1058  -0.1113  13.8695 </r>
       <r>   0.1668   2.6707  14.0324 </r>
       <r>   0.2278   7.6531  14.4992 </r>
       <r>   0.2888  13.6337  15.3309 </r>
       <r>   0.3498  18.3031  16.4473 </r>
       <r>   0.4108  19.8887  17.6605 </r>
       <r>   0.4718  18.4654  18.7868 </r>
       <r>   0.5328  15.5869  19.7376 </r>
       <r>   0.5938  12.7376  20.5146 </r>
       <r>   0.6548  10.2660  21.1408 </r>
       <r>   0.7158   7.7181  21.6116 </r>
       <r>   0.7768   4.8822  21.9094 </r>
       <r>   0.8378   2.2234  22.0450 </r>
       <r>   0.8988   0.3543  22.0666 </r>
       <r>   0.9598  -0.6184  22.0289 </r>
       <r>   1.0208  -1.0906  21.9624 </r>
       <r>   1.0818  -1.3846  21.8779 </r>
       <r>   1.1428  -1.1319  21.8089 </r>
       <r>   1.2037   0.8729  21.8621 </r>
       <r>   1.2647   5.9274  22.2237 </r>
       <r>   1.3257  13.9244  23.0730 </r>
       <r>   1.3867  22.3786  24.4381 </r>
       <r>   1.4477  27.4998  26.1155 </r>
       <r>   1.5087  26.9804  27.7613 </r>
       <r>   1.5697  21.9388  29.0995 </r>
       <r>   1.6307  15.9147  30.0703 </r>
       <r>   1.6917  11.8970  30.7960 </r>
       <r>   1.7527  10.4218  31.4317 </r>
       <r>   1.8137  10.2245  32.0554 </r>
       <r>   1.8747   9.9389  32.6616 </r>
       <r>   1.9357   8.8910  33.2039 </r>
       <r>   1.9967   6.9708  33.6291 </r>
       <r>   2.0577   4.4922  33.9032 </r>
       <r>   2.1187   2.1057  34.0316 </r>
       <r>   2.1797   0.4063  34.0564 </r>
       <r>   2.2407  -0.4904  34.0265 </r>
       <r>   2.3017  -0.9045  33.9713 </r>
       <r>   2.3627  -1.0971  33.9044 </r>
       <r>   2.4237  -0.7617  33.8579 </r>
       <r>   2.4847   1.0303  33.9208 </r>
       <r>   2.5457   5.1317  34.2338 </r>
       <r>   2.6067  11.1755  34.9155 </r>
       <r>   2.6677  17.1063  35.9589 </r>
       <r>   2.7287  20.2581  37.1946 </r>
       <r>   2.7897  19.2215  38.3671 </r>
       <r>   2.8507  14.7436  39.2664 </r>
       <r>   2.9117   8.9747  39.8139 </r>
       <r>   2.9727   4.0008  40.0579 </r>
       <r>   3.0337   0.8636  40.1106 </r>
       <r>   3.0947  -0.5375  40.0778 </r>
       <r>   3.1557  -0.9499  40.0199 </r>
       <r>   3.2167  -1.1348  39.9507 </r>
       <r>   3.2777  -1.3781  39.8666 </r>
       <r>   3.3387  -1.1885  39.7941 </r>
       <r>   3.3997   0.7172  39.8378 </r>
       <r>   3.4607   5.7980  40.1915 </r>
       <r>   3.5217  14.3734  41.0683 </r>
       <r>   3.5827  24.4576  42.5601 </r>
       <r>   3.6437  32.0998  44.5182 </r>
       <r>   3.7047  33.6334  46.5697 </r>
       <r>   3.7657  28.3760  48.3006 </r>
       <r>   3.8267  19.4286  49.4857 </r>
       <r>   3.8877  11.5247  50.1887 </r>
       <r>   3.9487   7.5598  50.6498 </r>
       <r>   4.0097   6.8812  51.0696 </r>
       <r>   4.0707   6.7728  51.4827 </r>
       <r>   4.1317   5.3086  51.8065 </r>
       <r>   4.1927   2.6335  51.9672 </r>
       <r>   4.2537   0.0293  51.9689 </r>
       <r>   4.3147  -1.3716  51.8853 </r>
       <r>   4.3756  -0.7564  51.8391 </r>
       <r>   4.4366   2.6827  52.0028 </r>
       <r>   4.4976   9.3019  52.5702 </r>
       <r>   4.5586  18.0126  53.6689 </r>
       <r>   4.6196  26.2032  55.2673 </r>
       <r>   4.6806  31.2318  57.1723 </r>
       <r>   4.7416  32.2476  59.1394 </r>
       <r>   4.8026  30.5139  61.0007 </r>
       <r>   4.8636  27.9322  62.7045 </r>
       <r>   4.9246  25.4006  64.2539 </r>
       <r>   4.9856  22.6917  65.6380 </r>
       <r>   5.0466  19.5465  66.8303 </r>
       <r>   5.1076  16.2851  67.8237 </r>
       <r>   5.1686  13.2855  68.6341 </r>
       <r>   5.2296  10.3995  69.2684 </r>
       <r>   5.2906   7.2525  69.7108 </r>
       <r>   5.3516   3.9336  69.9507 </r>
       <r>   5.4126   1.1084  70.0183 </r>
       <r>   5.4736  -0.4523  69.9908 </r>
       <r>   5.5346  -0.2369  69.9763 </r>
       <r>   5.5956   1.8966  70.0920 </r>
       <r>   5.6566   5.4813  70.4263 </r>
       <r>   5.7176   9.2547  70.9909 </r>
       <r>   5.7786  11.6703  71.7027 </r>
       <r>   5.8396  11.8915  72.4281 </r>
       <r>   5.9006  10.1961  73.0500 </r>
       <r>   5.9616   7.4742  73.5059 </r>
       <r>   6.0226   4.6862  73.7918 </r>
       <r>   6.0836   2.7964  73.9624 </r>
       <r>   6.1446   2.6252  74.1225 </r>
       <r>   6.2056   4.2163  74.3797 </r>
       <r>   6.2666   6.3964  74.7698 </r>
       <r>   6.3276   7.3857  75.2204 </r>
       <r>   6.3886   6.1608  75.5962 </r>
       <r>   6.4496   3.3409  75.7999 </r>
       <r>   6.5106   0.8965  75.8546 </r>
       <r>   6.5716   1.0766  75.9203 </r>
       <r>   6.6326   5.1089  76.2319 </r>
       <r>   6.6936  12.0848  76.9691 </r>
       <r>   6.7546  19.1083  78.1346 </r>
       <r>   6.8156  23.5446  79.5708 </r>
       <r>   6.8766  25.5034  81.1265 </r>
       <r>   6.9376  27.2413  82.7881 </r>
       <r>   6.9986  29.7205  84.6010 </r>
       <r>   7.0596  30.7813  86.4786 </r>
       <r>   7.1206  27.5020  88.1562 </r>
       <r>   7.1816  19.7326  89.3599 </r>
       <r>   7.2426  10.5123  90.0011 </r>
       <r>   7.3036   3.3267  90.2040 </r>
       <r>   7.3646  -0.4223  90.1783 </r>
       <r>   7.4256  -1.5475  90.0839 </r>
       <r>   7.4866  -1.5897  89.9869 </r>
       <r>   7.5475  -1.4601  89.8978 </r>
       <r>   7.6085  -0.9510  89.8398 </r>
       <r>   7.6695   0.9728  89.8992 </r>
       <r>   7.7305   5.2200  90.2176 </r>
       <r>   7.7915  11.4015  90.9130 </r>
       <r>   7.8525  17.6286  91.9884 </r>
       <r>   7.9135  22.0081  93.3308 </r>
       <r>   7.9745  24.5243  94.8267 </r>
       <r>   8.0355  26.9865  96.4729 </r>
       <r>   8.0965  30.7592  98.3491 </r>
       <r>   8.1575  34.7893 100.4712 </r>
       <r>   8.2185  36.2461 102.6821 </r>
       <r>   8.2795  33.0853 104.7003 </r>
       <r>   8.3405  25.8247 106.2755 </r>
       <r>   8.4015  16.9769 107.3111 </r>
       <r>   8.4625   9.1408 107.8687 </r>
       <r>   8.5235   3.6719 108.0927 </r>
       <r>   8.5845   0.6285 108.1310 </r>
       <r>   8.6455  -0.6466 108.0916 </r>
       <r>   8.7065  -1.0044 108.0303 </r>
       <r>   8.7675  -1.1394 107.9608 </r>
       <r>   8.8285  -1.2708 107.8833 </r>
       <r>   8.8895  -0.8641 107.8306 </r>
       <r>   8.9505   1.2680 107.9079 </r>
       <r>   9.0115   6.0268 108.2755 </r>
       <r>   9.0725  12.6418 109.0467 </r>
       <r>   9.1335  18.5470 110.1780 </r>
       <r>   9.1945  21.5602 111.4931 </r>
       <r>   9.2555  22.2407 112.8498 </r>
       <r>   9.3165  23.0606 114.2564 </r>
       <r>   9.3775  24.9199 115.7765 </r>
       <r>   9.4385  25.5774 117.3366 </r>
       <r>   9.4995  22.2455 118.6936 </r>
       <r>   9.5605  14.9642 119.6064 </r>
       <r>   9.6215   6.6406 120.0114 </r>
       <r>   9.6825   0.3761 120.0344 </r>
       <r>   9.7435  -2.2739 119.8957 </r>
       <r>   9.8045  -0.7308 119.8511 </r>
       <r>   9.8655   5.4289 120.1822 </r>
       <r>   9.9265  15.6834 121.1389 </r>
       <r>   9.9875  27.3070 122.8046 </r>
       <r>  10.0485  35.9933 125.0001 </r>
       <r>  10.1095  38.3215 127.3376 </r>
       <r>  10.1705  33.6726 129.3916 </r>
       <r>  10.2315  24.1884 130.8670 </r>
       <r>  10.2925  13.5349 131.6927 </r>
       <r>  10.3535   5.4846 132.0272 </r>
       <r>  10.4145   2.6072 132.1862 </r>
       <r>  10.4755   5.3240 132.5110 </r>
       <r>  10.5365  11.6948 133.2244 </r>
       <r>  10.5975  18.1299 134.3302 </r>
       <r>  10.6585  21.0614 135.6149 </r>
       <r>  10.7194  19.0529 136.7771 </r>
       <r>  10.7804  13.8346 137.6210 </r>
       <r>  10.8414   8.9800 138.1688 </r>
       <r>  10.9024   7.1117 138.6026 </r>
       <r>  10.9634   8.2102 139.1034 </r>
       <r>  11.0244  10.3909 139.7372 </r>
       <r>  11.0854  11.9086 140.4636 </r>
       <r>  11.1464  12.3060 141.2143 </r>
       <r>  11.2074  12.0051 141.9465 </r>
       <r>  11.2684  11.2688 142.6339 </r>
       <r>  11.3294   9.8169 143.2327 </r>
       <r>  11.3904   7.3928 143.6837 </r>
       <r>  11.4514   4.4071 143.9525 </r>
       <r>  11.5124   1.7750 144.0608 </r>
       <r>  11.5734   0.1696 144.0711 </r>
       <r>  11.6344  -0.4084 144.0462 </r>
       <r>  11.6954  -0.3984 144.0219 </r>
       <r>  11.7564  -0.2262 144.0081 </r>
       <r>  11.8174  -0.0935 144.0024 </r>
       <r>  11.8784  -0.0300 144.0006 </r>
       <r>  11.9394  -0.0076 144.0001 </r>
       <r>  12.0004  -0.0016 144.0000 </r>
       <r>  12.0614  -0.0003 144.0000 </r>
       <r>  12.1224   0.0000 144.0000 </r>
       <r>  12.1834   0.0000 144.0000 </r>
       <r>  12.2444   0.0000 144.0000 </r>
       <r>  12.3054   0.0000 144.0000 </r>
       <r>  12.3664   0.0000 144.0000 </r>
       <r>  12.4274   0.0000 144.0000 </r>
       <r>  12.4884   0.0000 144.0000 </r>
       <r>  12.5494   0.0000 144.0000 </r>
       <r>  12.6104   0.0000 144.0000 </r>
       <r>  12.6714   0.0000 144.0000 </r>
       <r>  12.7324   0.0000 144.0000 </r>
       <r>  12.7934   0.0000 144.0000 </r>
       <r>  12.8544   0.0000 144.0000 </r>
       <r>  12.9154   0.0000 144.0000 </r>
       <r>  12.9764   0.0000 144.0000 </r>
       <r>  13.0374   0.0000 144.0000 </r>
       <r>  13.0984   0.0000 144.0000 </r>
       <r>  13.1594   0.0000 144.0000 </r>
       <r>  13.2204   0.0000 144.0000 </r>
       <r>  13.2814   0.0000 144.0000 </r>
       <r>  13.3424   0.0000 144.0000 </r>
      </set>
     </set>
    </array>
   </total>
  </dos>
 </calculation>
 <structure name="finalpos" >
  <crystal>
   <varray name="basis" >
    <v>       8.08705200       0.00000000       0.00000000 </v>
    <v>       0.00000000       8.08705200       0.00000000 </v>
    <v>       0.00000000       0.00000000       8.08705200 </v>
   </varray>
   <i name="volume">    528.89651690 </i>
   <varray name="rec_basis" >
    <v>       0.12365445       0.00000000       0.00000000 </v>
    <v>       0.00000000       0.12365445       0.00000000 </v>
    <v>       0.00000000       0.00000000       0.12365445 </v>
   </varray>
  </crystal>
  <varray name="positions" >
   <v>       0.99956200       0.00000000       0.99956200 </v>
   <v>       0.24825000       0.00000000       0.24825000 </v>
   <v>       0.25002300       0.24960900       0.00033000 </v>
   <v>       0.00033000       0.24960900       0.25002300 </v>
   <v>       0.49964100       0.00000000       0.99616300 </v>
   <v>       0.75336300       0.00000000       0.24988300 </v>
   <v>       0.75206500       0.24905400       0.99902700 </v>
   <v>       0.50456100       0.24748200       0.24977900 </v>
   <v>       0.99906600       0.50000000       0.99906600 </v>
   <v>       0.25002300       0.75039100       0.00033000 </v>
   <v>       0.00033000       0.75039100       0.25002300 </v>
   <v>       0.50249100       0.50000000       0.99741400 </v>
   <v>       0.74687400       0.50000000       0.25123900 </v>
   <v>       0.75206500       0.75094600       0.99902700 </v>
   <v>       0.50456100       0.75251800       0.24977900 </v>
   <v>       0.99616300       0.00000000       0.49964100 </v>
   <v>       0.24988300       0.00000000       0.75336300 </v>
   <v>       0.24977900       0.24748200       0.50456100 </v>
   <v>       0.99902700       0.24905400       0.75206500 </v>
   <v>       0.50078600       0.00000000       0.50078600 </v>
   <v>       0.75104700       0.00000000       0.75104700 </v>
   <v>       0.74459400       0.25440000       0.49849800 </v>
   <v>       0.49849800       0.25440000       0.74459400 </v>
   <v>       0.99741400       0.50000000       0.50249100 </v>
   <v>       0.25123900       0.50000000       0.74687400 </v>
   <v>       0.24977900       0.75251800       0.50456100 </v>
   <v>       0.99902700       0.75094600       0.75206500 </v>
   <v>       0.74567600       0.50000000       0.74567600 </v>
   <v>       0.74459400       0.74560000       0.49849800 </v>
   <v>       0.49849800       0.74560000       0.74459400 </v>
   <v>       0.26078800       0.50000000       0.26078800 </v>
  </varray>
 </structure>
</modeling>
