Processors received = 12
script running on host compute-1-32.local
PBS_NODEFILE
compute-1-32
compute-1-32
compute-1-32
compute-1-32
compute-1-32
compute-1-32
compute-1-32
compute-1-32
compute-1-32
compute-1-32
compute-1-32
compute-1-32
 running on   12 nodes
 distr:  one band on    1 nodes,   12 groups
 vasp.5.2.2 15Apr09 complex 
 POSCAR found type information on POSCAR  Al Mg
 POSCAR found :  2 types and   31 ions

 ----------------------------------------------------------------------------- 
|                                                                             |
|  ADVICE TO THIS USER RUNNING 'VASP/VAMP'   (HEAR YOUR MASTER'S VOICE ...):  |
|                                                                             |
|      You have a (more or less) 'large supercell' and for larger cells       |
|      it might be more efficient to use real space projection operators      |
|      So try LREAL= Auto  in the INCAR   file.                               |
|      Mind: If you want to do a very accurate calculations keep the          |
|      reciprocal projection scheme          (i.e. LREAL=.FALSE.)             |
|                                                                             |
 ----------------------------------------------------------------------------- 

 LDA part: xc-table for Pade appr. of Perdew
 POSCAR, INCAR and KPOINTS ok, starting setup
 FFT: planning ...(           1 )
 reading WAVECAR
 entering main loop
       N       E                     dE             d eps       ncg     rms          rms(c)
RMM:   1     0.232552472287E+03    0.23255E+03   -0.15566E+04    72   0.534E+02
RMM:   2    -0.264502761101E+02   -0.25900E+03   -0.25185E+03    72   0.110E+02
RMM:   3    -0.738004802421E+02   -0.47350E+02   -0.46895E+02    72   0.349E+01
RMM:   4    -0.887980744739E+02   -0.14998E+02   -0.11213E+02    72   0.196E+01
RMM:   5    -0.954375759335E+02   -0.66395E+01   -0.44260E+01    72   0.113E+01
RMM:   6    -0.977920734636E+02   -0.23545E+01   -0.17484E+01    72   0.677E+00
RMM:   7    -0.986320370274E+02   -0.83996E+00   -0.70259E+00    72   0.406E+00
RMM:   8    -0.989887173246E+02   -0.35668E+00   -0.31147E+00    72   0.254E+00
RMM:   9    -0.992803066601E+02   -0.29159E+00   -0.27166E+00   174   0.166E+00
RMM:  10    -0.993128073497E+02   -0.32501E-01   -0.19656E-01   152   0.336E-01
RMM:  11    -0.993150492516E+02   -0.22419E-02   -0.12730E-02   138   0.834E-02
RMM:  12    -0.993150978173E+02   -0.48566E-04   -0.18523E-04    97   0.187E-02    0.652E+00
RMM:  13    -0.981780139216E+02    0.11371E+01   -0.24445E+00   144   0.196E+00    0.390E+00
RMM:  14    -0.979226574157E+02    0.25536E+00   -0.20455E-01   144   0.797E-01    0.240E+00
RMM:  15    -0.977920446127E+02    0.13061E+00   -0.12523E-01   146   0.679E-01    0.565E-01
RMM:  16    -0.977817786274E+02    0.10266E-01   -0.12570E-02   144   0.202E-01    0.161E-01
RMM:  17    -0.977807592117E+02    0.10194E-02   -0.26165E-03   144   0.908E-02    0.525E-02
RMM:  18    -0.977807355539E+02    0.23658E-04   -0.27184E-04   106   0.318E-02
   1 F= -.97780736E+02 E0= -.97751331E+02  d E =-.977807E+02
 curvature:   0.00 expect dE= 0.000E+00 dE for cont linesearch  0.000E+00
 trial: gam= 0.00000 g(F)=  0.967E-01 g(S)=  0.000E+00 ort = 0.000E+00 (trialstep = 0.100E+01)
 search vector abs. value=  0.967E-01
 bond charge predicted
       N       E                     dE             d eps       ncg     rms          rms(c)
RMM:   1    -0.978894264875E+02   -0.10867E+00   -0.57905E-01   144   0.194E+00    0.411E-01
RMM:   2    -0.978738918864E+02    0.15535E-01   -0.46024E-02   144   0.354E-01    0.136E-01
RMM:   3    -0.978720121023E+02    0.18798E-02   -0.32513E-03   136   0.926E-02    0.498E-02
RMM:   4    -0.978719692174E+02    0.42885E-04   -0.17601E-04   106   0.286E-02
   2 F= -.97871969E+02 E0= -.97849838E+02  d E =-.912337E-01
 ZBRENT: can't locate minimum, use default step
 trial-energy change:   -0.091234  1 .order   -0.091159   -0.096715   -0.085603
 step:   4.0000(harm=  8.7031)  dis= 0.07585  next Energy=   -98.201596 (dE=-0.421E+00)
 bond charge predicted
       N       E                     dE             d eps       ncg     rms          rms(c)
RMM:   1    -0.982035382602E+02   -0.33153E+00   -0.50648E+00   144   0.576E+00    0.111E+00
RMM:   2    -0.980872660904E+02    0.11627E+00   -0.36653E-01   144   0.102E+00    0.435E-01
RMM:   3    -0.980685661145E+02    0.18700E-01   -0.31893E-02   146   0.286E-01    0.155E-01
RMM:   4    -0.980682272754E+02    0.33884E-03   -0.15402E-03   150   0.811E-02    0.883E-02
RMM:   5    -0.980682550665E+02   -0.27791E-04   -0.34760E-04   110   0.390E-02
   3 F= -.98068255E+02 E0= -.98068212E+02  d E =-.287520E+00
 curvature:  -2.73 expect dE=-0.108E+00 dE for cont linesearch -0.526E-01
 ZBRENT: increasing intervall
 opt :  10.0000  next Energy=   -98.072480 (dE=-0.292E+00)
 bond charge predicted
       N       E                     dE             d eps       ncg     rms          rms(c)
RMM:   1    -0.984188831756E+02   -0.35066E+00   -0.19645E+01   144   0.114E+01    0.196E+00
RMM:   2    -0.980450007592E+02    0.37388E+00   -0.12244E+00   145   0.194E+00    0.784E-01
RMM:   3    -0.979848330870E+02    0.60168E-01   -0.10726E-01   146   0.551E-01    0.307E-01
RMM:   4    -0.979835368177E+02    0.12963E-02   -0.60066E-03   148   0.161E-01    0.170E-01
RMM:   5    -0.979835868161E+02   -0.49998E-04   -0.13244E-03   144   0.754E-02    0.755E-02
RMM:   6    -0.979836831584E+02   -0.96342E-04   -0.19095E-04    95   0.341E-02
   4 F= -.97983683E+02 E0= -.98025523E+02  d E =-.202948E+00
 curvature:  -0.22 expect dE=-0.535E-01 dE for cont linesearch -0.144E-01
 trial: gam= 0.00000 g(F)=  0.244E+00 g(S)=  0.000E+00 ort =-0.796E-01 (trialstep = 0.111E+01)
 search vector abs. value=  0.244E+00
 bond charge predicted
       N       E                     dE             d eps       ncg     rms          rms(c)
RMM:   1    -0.981814436835E+02   -0.19786E+00   -0.23718E+00   144   0.362E+00    0.471E-01
RMM:   2    -0.981645707475E+02    0.16873E-01   -0.57949E-02   145   0.513E-01    0.170E-01
RMM:   3    -0.981628722102E+02    0.16985E-02   -0.41879E-03   145   0.136E-01    0.916E-02
RMM:   4    -0.981625412000E+02    0.33101E-03   -0.76090E-04   136   0.531E-02    0.427E-02
RMM:   5    -0.981625170721E+02    0.24128E-04   -0.18155E-04    91   0.263E-02
   5 F= -.98162517E+02 E0= -.98196565E+02  d E =-.178834E+00
 trial-energy change:   -0.178834  1 .order   -0.181806   -0.270803   -0.092808
 step:   1.8026(harm=  1.6902)  dis= 0.07172  next Energy=   -98.190692 (dE=-0.207E+00)
 bond charge predicted
       N       E                     dE             d eps       ncg     rms          rms(c)
RMM:   1    -0.981972218304E+02   -0.34681E-01   -0.90609E-01   144   0.224E+00    0.287E-01
RMM:   2    -0.981910323960E+02    0.61894E-02   -0.20911E-02   144   0.316E-01    0.107E-01
RMM:   3    -0.981904268109E+02    0.60559E-03   -0.15762E-03   138   0.854E-02    0.578E-02
RMM:   4    -0.981903087944E+02    0.11802E-03   -0.30758E-04   104   0.358E-02    0.274E-02
RMM:   5    -0.981903054734E+02    0.33210E-05   -0.73591E-05    86   0.196E-02
   6 F= -.98190305E+02 E0= -.98217736E+02  d E =-.206622E+00
 curvature:  -0.81 expect dE=-0.166E-01 dE for cont linesearch -0.485E-05
 trial: gam= 0.08882 g(F)=  0.204E-01 g(S)=  0.000E+00 ort =-0.121E-02 (trialstep = 0.125E+01)
 search vector abs. value=  0.222E-01
 reached required accuracy - stopping structural energy minimisation
