  31  31   0   0
  0.1706118E+02  0.8087052E-09  0.8087052E-09  0.8087052E-09  0.5000000E-15
  1.000000000000000E-004
  CAR 
 unknown system                          
     12.31053843     -5.45457482  301      7.71911661      1.00000000
     -5.455  0.0000E+00  0.0000E+00
     -5.395  0.0000E+00  0.0000E+00
     -5.336  0.0000E+00  0.0000E+00
     -5.277  0.0000E+00  0.0000E+00
     -5.218  0.0000E+00  0.0000E+00
     -5.158  0.0000E+00  0.0000E+00
     -5.099 -0.1752E-29 -0.1037E-30
     -5.040 -0.1998E-27 -0.1194E-28
     -4.981 -0.1923E-25 -0.1151E-26
     -4.922 -0.1550E-23 -0.9296E-25
     -4.862 -0.1047E-21 -0.6292E-23
     -4.803 -0.5918E-20 -0.3567E-21
     -4.744 -0.2801E-18 -0.1694E-19
     -4.685 -0.1109E-16 -0.6737E-18
     -4.626 -0.3576E-15 -0.2185E-16
     -4.566 -0.9853E-14 -0.6053E-15
     -4.507 -0.2272E-12 -0.1406E-13
     -4.448 -0.4374E-11 -0.2731E-12
     -4.389 -0.7021E-10 -0.4430E-11
     -4.329 -0.9387E-09 -0.6002E-10
     -4.270 -0.1044E-07 -0.6781E-09
     -4.211 -0.9635E-07 -0.6384E-08
     -4.152 -0.7363E-06 -0.4999E-07
     -4.093 -0.4643E-05 -0.3249E-06
     -4.033 -0.2403E-04 -0.1748E-05
     -3.974 -0.1013E-03 -0.7744E-05
     -3.915 -0.3432E-03 -0.2807E-04
     -3.856 -0.9138E-03 -0.8218E-04
     -3.796 -0.1818E-02 -0.1898E-03
     -3.737 -0.2323E-02 -0.3274E-03
     -3.678 -0.3797E-03 -0.3499E-03
     -3.619  0.6738E-02  0.4909E-04
     -3.560  0.1974E-01  0.1218E-02
     -3.500  0.3452E-01  0.3263E-02
     -3.441  0.4330E-01  0.5827E-02
     -3.382  0.4057E-01  0.8229E-02
     -3.323  0.2809E-01  0.9893E-02
     -3.264  0.1327E-01  0.1068E-01
     -3.204  0.2746E-02  0.1084E-01
     -3.145 -0.1742E-02  0.1074E-01
     -3.086 -0.2243E-02  0.1061E-01
     -3.027 -0.1389E-02  0.1052E-01
     -2.967 -0.6062E-03  0.1049E-01
     -2.908 -0.2033E-03  0.1048E-01
     -2.849 -0.5426E-04  0.1047E-01
     -2.790 -0.1172E-04  0.1047E-01
     -2.731 -0.2070E-05  0.1047E-01
     -2.671 -0.3008E-06  0.1047E-01
     -2.612 -0.3612E-07  0.1047E-01
     -2.553 -0.3596E-08  0.1047E-01
     -2.494 -0.2975E-09  0.1047E-01
     -2.435 -0.2065E-10  0.1047E-01
     -2.375 -0.4615E-11  0.1047E-01
     -2.316 -0.5885E-10  0.1047E-01
     -2.257 -0.8383E-09  0.1047E-01
     -2.198 -0.9958E-08  0.1047E-01
     -2.138 -0.9843E-07  0.1047E-01
     -2.079 -0.8081E-06  0.1047E-01
     -2.020 -0.5497E-05  0.1047E-01
     -1.961 -0.3088E-04  0.1047E-01
     -1.902 -0.1425E-03  0.1046E-01
     -1.842 -0.5359E-03  0.1043E-01
     -1.783 -0.1620E-02  0.1033E-01
     -1.724 -0.3831E-02  0.1011E-01
     -1.665 -0.6653E-02  0.9712E-02
     -1.605 -0.6752E-02  0.9312E-02
     -1.546  0.3016E-02  0.9491E-02
     -1.487  0.3032E-01  0.1129E-01
     -1.428  0.7523E-01  0.1574E-01
     -1.369  0.1240E+00  0.2308E-01
     -1.309  0.1546E+00  0.3224E-01
     -1.250  0.1528E+00  0.4129E-01
     -1.191  0.1242E+00  0.4864E-01
     -1.132  0.8780E-01  0.5384E-01
     -1.073  0.5932E-01  0.5735E-01
     -1.013  0.4138E-01  0.5980E-01
     -0.954  0.2996E-01  0.6158E-01
     -0.895  0.2417E-01  0.6301E-01
     -0.836  0.2627E-01  0.6456E-01
     -0.776  0.3448E-01  0.6661E-01
     -0.717  0.4083E-01  0.6902E-01
     -0.658  0.3797E-01  0.7127E-01
     -0.599  0.2615E-01  0.7282E-01
     -0.540  0.1210E-01  0.7354E-01
     -0.480  0.2211E-02  0.7367E-01
     -0.421 -0.1881E-02  0.7356E-01
     -0.362 -0.2217E-02  0.7343E-01
     -0.303 -0.1338E-02  0.7335E-01
     -0.243 -0.5741E-03  0.7331E-01
     -0.184 -0.1900E-03  0.7330E-01
     -0.125 -0.5007E-04  0.7330E-01
     -0.066 -0.1070E-04  0.7330E-01
     -0.007 -0.1989E-05  0.7330E-01
      0.053 -0.1210E-05  0.7330E-01
      0.112 -0.6103E-05  0.7330E-01
      0.171 -0.3248E-04  0.7330E-01
      0.230 -0.1437E-03  0.7329E-01
      0.289 -0.5226E-03  0.7326E-01
      0.349 -0.1547E-02  0.7317E-01
      0.408 -0.3649E-02  0.7295E-01
      0.467 -0.6535E-02  0.7256E-01
      0.526 -0.7597E-02  0.7211E-01
      0.586 -0.6751E-03  0.7207E-01
      0.645  0.2222E-01  0.7339E-01
      0.704  0.6487E-01  0.7723E-01
      0.763  0.1204E+00  0.8436E-01
      0.822  0.1724E+00  0.9457E-01
      0.882  0.2053E+00  0.1067E+00
      0.941  0.2152E+00  0.1195E+00
      1.000  0.2085E+00  0.1318E+00
      1.059  0.1933E+00  0.1433E+00
      1.119  0.1733E+00  0.1535E+00
      1.178  0.1488E+00  0.1623E+00
      1.237  0.1193E+00  0.1694E+00
      1.296  0.8488E-01  0.1744E+00
      1.355  0.4877E-01  0.1773E+00
      1.415  0.1870E-01  0.1784E+00
      1.474  0.2660E-02  0.1786E+00
      1.533  0.3501E-02  0.1788E+00
      1.592  0.1685E-01  0.1798E+00
      1.651  0.3284E-01  0.1817E+00
      1.711  0.4090E-01  0.1842E+00
      1.770  0.3631E-01  0.1863E+00
      1.829  0.2384E-01  0.1877E+00
      1.888  0.1420E-01  0.1886E+00
      1.948  0.1549E-01  0.1895E+00
      2.007  0.2673E-01  0.1911E+00
      2.066  0.3879E-01  0.1934E+00
      2.125  0.4190E-01  0.1958E+00
      2.184  0.3342E-01  0.1978E+00
      2.244  0.1892E-01  0.1989E+00
      2.303  0.6248E-02  0.1993E+00
      2.362 -0.5658E-03  0.1993E+00
      2.421 -0.2339E-02  0.1991E+00
      2.481 -0.1803E-02  0.1990E+00
      2.540 -0.9888E-03  0.1990E+00
      2.599 -0.6981E-03  0.1989E+00
      2.658 -0.1108E-02  0.1989E+00
      2.717 -0.2164E-02  0.1987E+00
      2.777 -0.3279E-02  0.1985E+00
      2.836 -0.2783E-02  0.1984E+00
      2.895  0.1897E-02  0.1985E+00
      2.954  0.1291E-01  0.1993E+00
      3.013  0.3093E-01  0.2011E+00
      3.073  0.5606E-01  0.2044E+00
      3.132  0.8859E-01  0.2097E+00
      3.191  0.1263E+00  0.2171E+00
      3.250  0.1600E+00  0.2266E+00
      3.310  0.1761E+00  0.2370E+00
      3.369  0.1650E+00  0.2468E+00
      3.428  0.1293E+00  0.2545E+00
      3.487  0.8207E-01  0.2593E+00
      3.546  0.3962E-01  0.2617E+00
      3.606  0.1426E-01  0.2625E+00
      3.665  0.9843E-02  0.2631E+00
      3.724  0.2082E-01  0.2643E+00
      3.783  0.3512E-01  0.2664E+00
      3.843  0.4105E-01  0.2688E+00
      3.902  0.3446E-01  0.2709E+00
      3.961  0.2006E-01  0.2721E+00
      4.020  0.5995E-02  0.2724E+00
      4.079 -0.2320E-02  0.2723E+00
      4.139 -0.3294E-02  0.2721E+00
      4.198  0.3170E-02  0.2723E+00
      4.257  0.1616E-01  0.2732E+00
      4.316  0.3146E-01  0.2751E+00
      4.375  0.4123E-01  0.2775E+00
      4.435  0.3891E-01  0.2798E+00
      4.494  0.2538E-01  0.2813E+00
      4.553  0.1004E-01  0.2819E+00
      4.612  0.5843E-02  0.2823E+00
      4.672  0.2202E-01  0.2836E+00
      4.731  0.5761E-01  0.2870E+00
      4.790  0.9843E-01  0.2928E+00
      4.849  0.1229E+00  0.3001E+00
      4.908  0.1165E+00  0.3070E+00
      4.968  0.8343E-01  0.3119E+00
      5.027  0.4235E-01  0.3145E+00
      5.086  0.1138E-01  0.3151E+00
      5.145 -0.3328E-02  0.3149E+00
      5.204 -0.6178E-02  0.3146E+00
      5.264 -0.4266E-02  0.3143E+00
      5.323 -0.2020E-02  0.3142E+00
      5.382 -0.7333E-03  0.3142E+00
      5.441 -0.2281E-03  0.3141E+00
      5.501 -0.1298E-03  0.3141E+00
      5.560 -0.2953E-03  0.3141E+00
      5.619 -0.8020E-03  0.3141E+00
      5.678 -0.1711E-02  0.3140E+00
      5.737 -0.2529E-02  0.3138E+00
      5.797 -0.1589E-02  0.3137E+00
      5.856  0.3687E-02  0.3139E+00
      5.915  0.1476E-01  0.3148E+00
      5.974  0.2958E-01  0.3166E+00
      6.034  0.4316E-01  0.3191E+00
      6.093  0.5178E-01  0.3222E+00
      6.152  0.5601E-01  0.3255E+00
      6.211  0.5861E-01  0.3290E+00
      6.270  0.6017E-01  0.3325E+00
      6.330  0.5882E-01  0.3360E+00
      6.389  0.5457E-01  0.3393E+00
      6.448  0.5341E-01  0.3424E+00
      6.507  0.6558E-01  0.3463E+00
      6.566  0.9768E-01  0.3521E+00
      6.626  0.1445E+00  0.3606E+00
      6.685  0.1892E+00  0.3718E+00
      6.744  0.2129E+00  0.3845E+00
      6.803  0.2072E+00  0.3967E+00
      6.863  0.1797E+00  0.4074E+00
      6.922  0.1456E+00  0.4160E+00
      6.981  0.1163E+00  0.4229E+00
      7.040  0.9395E-01  0.4284E+00
      7.099  0.7829E-01  0.4331E+00
      7.159  0.7203E-01  0.4373E+00
      7.218  0.7844E-01  0.4420E+00
      7.277  0.9441E-01  0.4476E+00
      7.336  0.1094E+00  0.4540E+00
      7.396  0.1129E+00  0.4607E+00
      7.455  0.1029E+00  0.4668E+00
      7.514  0.8441E-01  0.4718E+00
      7.573  0.6376E-01  0.4756E+00
      7.632  0.4592E-01  0.4783E+00
      7.692  0.3748E-01  0.4805E+00
      7.751  0.4600E-01  0.4833E+00
      7.810  0.7221E-01  0.4875E+00
      7.869  0.1050E+00  0.4938E+00
      7.928  0.1286E+00  0.5014E+00
      7.988  0.1351E+00  0.5094E+00
      8.047  0.1276E+00  0.5169E+00
      8.106  0.1115E+00  0.5235E+00
      8.165  0.8843E-01  0.5288E+00
      8.225  0.5894E-01  0.5323E+00
      8.284  0.2759E-01  0.5339E+00
      8.343  0.1339E-02  0.5340E+00
      8.402 -0.1411E-01  0.5331E+00
      8.461 -0.1300E-01  0.5324E+00
      8.521  0.1340E-01  0.5332E+00
      8.580  0.7168E-01  0.5374E+00
      8.639  0.1535E+00  0.5465E+00
      8.698  0.2306E+00  0.5601E+00
      8.758  0.2700E+00  0.5761E+00
      8.817  0.2566E+00  0.5913E+00
      8.876  0.2043E+00  0.6034E+00
      8.935  0.1452E+00  0.6120E+00
      8.994  0.1104E+00  0.6186E+00
      9.054  0.1131E+00  0.6253E+00
      9.113  0.1416E+00  0.6336E+00
      9.172  0.1675E+00  0.6436E+00
      9.231  0.1664E+00  0.6534E+00
      9.290  0.1352E+00  0.6614E+00
      9.350  0.9418E-01  0.6670E+00
      9.409  0.7201E-01  0.6713E+00
      9.468  0.8417E-01  0.6762E+00
      9.527  0.1206E+00  0.6834E+00
      9.587  0.1534E+00  0.6925E+00
      9.646  0.1596E+00  0.7019E+00
      9.705  0.1372E+00  0.7100E+00
      9.764  0.1004E+00  0.7160E+00
      9.823  0.6392E-01  0.7198E+00
      9.883  0.3391E-01  0.7218E+00
      9.942  0.1101E-01  0.7224E+00
     10.001 -0.3629E-02  0.7222E+00
     10.060 -0.5675E-02  0.7219E+00
     10.120  0.1080E-01  0.7225E+00
     10.179  0.4726E-01  0.7253E+00
     10.238  0.9301E-01  0.7308E+00
     10.297  0.1256E+00  0.7383E+00
     10.356  0.1258E+00  0.7457E+00
     10.416  0.9376E-01  0.7513E+00
     10.475  0.4925E-01  0.7542E+00
     10.534  0.1398E-01  0.7550E+00
     10.593 -0.3311E-02  0.7548E+00
     10.652 -0.6878E-02  0.7544E+00
     10.712 -0.4798E-02  0.7541E+00
     10.771 -0.2263E-02  0.7540E+00
     10.830 -0.8099E-03  0.7539E+00
     10.889 -0.2294E-03  0.7539E+00
     10.949 -0.5249E-04  0.7539E+00
     11.008 -0.9809E-05  0.7539E+00
     11.067 -0.1508E-05  0.7539E+00
     11.126 -0.1916E-06  0.7539E+00
     11.185 -0.2019E-07  0.7539E+00
     11.245 -0.1768E-08  0.7539E+00
     11.304 -0.1290E-09  0.7539E+00
     11.363 -0.7843E-11  0.7539E+00
     11.422 -0.3981E-12  0.7539E+00
     11.481 -0.1684E-13  0.7539E+00
     11.541 -0.6675E-15  0.7539E+00
     11.600  0.0000E+00  0.7539E+00
     11.659  0.0000E+00  0.7539E+00
     11.718  0.0000E+00  0.7539E+00
     11.778  0.0000E+00  0.7539E+00
     11.837  0.0000E+00  0.7539E+00
     11.896  0.0000E+00  0.7539E+00
     11.955  0.0000E+00  0.7539E+00
     12.014  0.0000E+00  0.7539E+00
     12.074  0.0000E+00  0.7539E+00
     12.133  0.0000E+00  0.7539E+00
     12.192  0.0000E+00  0.7539E+00
     12.251  0.0000E+00  0.7539E+00
     12.311  0.0000E+00  0.7539E+00
