   31   31  191    1
  0.1706118E+02  0.8087052E-09  0.8087052E-09  0.8087052E-09  0.5000000E-15
  1.000000000000000E-004
  CAR 
 unknown system                          
   92    1   72
 
  0.0000000E+00  0.0000000E+00  0.0000000E+00  0.1000000E+01
   1       -3.454575
   2       -1.364581
   3       -1.360454
   4       -1.290463
   5       -1.250020
   6       -1.047518
   7       -0.733908
   8        0.745879
   9        0.818327
  10        0.850599
  11        0.860877
  12        0.930892
  13        1.039509
  14        1.043876
  15        1.064542
  16        1.212936
  17        1.242500
  18        1.687645
  19        2.076764
  20        3.057202
  21        3.206963
  22        3.269537
  23        3.271750
  24        3.353857
  25        3.427186
  26        3.802275
  27        4.372037
  28        4.787428
  29        4.850937
  30        4.868748
  31        6.030079
  32        6.228043
  33        6.384883
  34        6.606482
  35        6.613475
  36        6.702143
  37        6.760374
  38        6.764681
  39        6.780760
  40        6.931701
  41        6.974099
  42        7.114830
  43        7.304851
  44        7.317148
  45        7.435800
  46        7.582066
  47        7.852954
  48        7.884786
  49        7.952947
  50        8.080402
  51        8.144730
  52        8.667195
  53        8.687686
  54        8.703387
  55        8.720383
  56        8.732289
  57        8.811627
  58        8.848496
  59        8.905182
  60        9.108686
  61        9.116410
  62        9.157726
  63        9.236919
  64        9.271790
  65        9.524251
  66        9.561631
  67        9.589209
  68        9.644855
  69        9.790595
  70       10.281787
  71       10.298264
  72       10.310538
