<?xml version="1.0" encoding="ISO-8859-1"?>
<modeling>
 <generator>
  <i name="program" type="string">vasp </i>
  <i name="version" type="string">5.2.2  </i>
  <i name="subversion" type="string">15Apr09 complex  parallel </i>
  <i name="platform" type="string">LinuxIFC </i>
  <i name="date" type="string">2017 03 17 </i>
  <i name="time" type="string">11:23:23 </i>
 </generator>
 <incar>
  <i type="string" name="PREC">accurate</i>
  <i type="int" name="IALGO">    48</i>
  <i type="int" name="IBRION">     2</i>
  <i name="EDIFFG">      0.05000000</i>
  <i type="int" name="NSW">   191</i>
  <i type="int" name="ISIF">     2</i>
  <i name="ENCUT">    300.00000000</i>
  <i name="NELECT">     92.00000000</i>
  <i type="int" name="ISMEAR">     1</i>
  <i name="SIGMA">      0.20000000</i>
  <i type="logical" name="LWAVE"> F  </i>
  <i type="logical" name="LCHARG"> F  </i>
  <i type="logical" name="LPEAD"> F  </i>
  <i type="logical" name="LCALCPOL"> F  </i>
  <i type="logical" name="LCALCEPS"> F  </i>
  <v name="EFIELD_PEAD">      0.00000000      0.00000000      0.00000000</v>
  <i type="logical" name="LEFG"> F  </i>
 </incar>
 <kpoints>
  <generation param="Gamma">
   <v type="int" name="divisions">       1        1        1 </v>
   <v name="usershift">      0.00000000       0.00000000       0.00000000 </v>
   <v name="genvec1">      1.00000000       0.00000000       0.00000000 </v>
   <v name="genvec2">      0.00000000       1.00000000       0.00000000 </v>
   <v name="genvec3">      0.00000000       0.00000000       1.00000000 </v>
   <v name="shift">      0.00000000       0.00000000       0.00000000 </v>
  </generation>
  <varray name="kpointlist" >
   <v>       0.00000000       0.00000000       0.00000000 </v>
  </varray>
  <varray name="weights" >
   <v>       1.00000000 </v>
  </varray>
 </kpoints>
 <parameters>
  <separator name="general" >
   <i type="string" name="SYSTEM">unknown system</i>
   <i type="logical" name="LCOMPAT"> F  </i>
  </separator>
  <separator name="electronic" >
   <i type="string" name="PREC">accura</i>
   <i name="ENMAX">    300.00000000</i>
   <i name="ENAUG">    291.05200000</i>
   <i name="EDIFF">      0.00010000</i>
   <i type="int" name="IALGO">    48</i>
   <i type="int" name="IWAVPR">    11</i>
   <i type="int" name="NBANDS">    72</i>
   <i name="NELECT">     92.00000000</i>
   <separator name="electronic smearing" >
    <i type="int" name="ISMEAR">     1</i>
    <i name="SIGMA">      0.20000000</i>
   </separator>
   <separator name="electronic projectors" >
    <i type="logical" name="LREAL"> F  </i>
    <v name="ROPT">      0.00000000      0.00000000</v>
    <i type="int" name="LMAXPAW">  -100</i>
    <i type="int" name="LMAXMIX">     2</i>
   </separator>
   <separator name="electronic startup" >
    <i type="int" name="ISTART">     0</i>
    <i type="int" name="ICHARG">     2</i>
    <i type="int" name="INIWAV">     1</i>
   </separator>
   <separator name="electronic spin" >
    <i type="int" name="ISPIN">     1</i>
    <i type="logical" name="LNONCOLLINEAR"> F  </i>
    <v name="MAGMOM">      1.00000000      1.00000000      1.00000000      1.00000000      1.00000000      1.00000000      1.00000000      1.00000000      1.00000000      1.00000000      1.00000000      1.00000000      1.00000000      1.00000000      1.00000000      1.00000000      1.00000000      1.00000000      1.00000000      1.00000000
      1.00000000      1.00000000      1.00000000      1.00000000      1.00000000      1.00000000      1.00000000      1.00000000      1.00000000      1.00000000      1.00000000</v>
    <i name="NUPDOWN">     -1.00000000</i>
    <i type="logical" name="LSORBIT"> F  </i>
    <v name="SAXIS">      0.00000000      0.00000000      1.00000000</v>
    <i type="logical" name="LSPIRAL"> F  </i>
    <v name="QSPIRAL">      0.00000000      0.00000000      0.00000000</v>
    <i type="logical" name="LZEROZ"> F  </i>
   </separator>
   <separator name="electronic exchange-correlation" >
    <i type="logical" name="LASPH"> F  </i>
    <i type="logical" name="LMETAGGA"> F  </i>
   </separator>
   <separator name="electronic convergence" >
    <i type="int" name="NELM">    60</i>
    <i type="int" name="NELMDL">   -12</i>
    <i type="int" name="NELMIN">     2</i>
    <i name="ENINI">    300.00000000</i>
    <separator name="electronic convergence detail" >
     <i type="logical" name="LDIAG"> T  </i>
     <i name="WEIMIN">      0.00100000</i>
     <i name="EBREAK">      0.00000040</i>
     <i name="DEPER">      0.30000000</i>
     <i type="int" name="NRMM">     4</i>
     <i name="TIME">      0.40000000</i>
    </separator>
   </separator>
   <separator name="electronic mixer" >
    <i name="AMIX">      0.40000000</i>
    <i name="BMIX">      1.00000000</i>
    <i name="AMIN">      0.10000000</i>
    <i name="AMIX_MAG">      1.60000000</i>
    <i name="BMIX_MAG">      1.00000000</i>
    <separator name="electronic mixer details" >
     <i type="int" name="IMIX">     4</i>
     <i type="int" name="MAXMIX">   -45</i>
     <i name="WC">    100.00000000</i>
     <i type="int" name="INIMIX">     1</i>
     <i type="int" name="MIXPRE">     1</i>
     <i type="int" name="MREMOVE">     5</i>
    </separator>
   </separator>
   <separator name="electronic dipolcorrection" >
    <i type="logical" name="LDIPOL"> F  </i>
    <i type="logical" name="LMONO"> F  </i>
    <i type="int" name="IDIPOL">     0</i>
    <i name="EPSILON">      1.00000000</i>
    <v name="DIPOL">   -100.00000000   -100.00000000   -100.00000000</v>
    <i name="EFIELD">      0.00000000</i>
   </separator>
  </separator>
  <separator name="grids" >
   <i type="int" name="NGX">    48</i>
   <i type="int" name="NGY">    48</i>
   <i type="int" name="NGZ">    48</i>
   <i type="int" name="NGXF">    96</i>
   <i type="int" name="NGYF">    96</i>
   <i type="int" name="NGZF">    96</i>
   <i type="logical" name="ADDGRID"> F  </i>
  </separator>
  <separator name="ionic" >
   <i type="int" name="NSW">   191</i>
   <i type="int" name="IBRION">     2</i>
   <i type="int" name="ISIF">     2</i>
   <i name="PSTRESS">      0.00000000</i>
   <i name="EDIFFG">      0.05000000</i>
   <i type="int" name="NFREE">     1</i>
   <i name="POTIM">      0.50000000</i>
   <i name="SMASS">     -3.00000000</i>
  </separator>
  <separator name="ionic md" >
   <i name="TEBEG">      0.00010000</i>
   <i name="TEEND">      0.00010000</i>
   <i type="int" name="NBLOCK">     1</i>
   <i type="int" name="KBLOCK">   191</i>
   <i type="int" name="NPACO">   256</i>
   <i name="APACO">     16.00000000</i>
  </separator>
  <separator name="symmetry" >
   <i type="int" name="ISYM">     2</i>
   <i name="SYMPREC">      0.00001000</i>
  </separator>
  <separator name="dos" >
   <i type="logical" name="LORBIT"> F  </i>
   <v name="RWIGS">     -1.00000000     -1.00000000</v>
   <i type="int" name="NEDOS">   301</i>
   <i name="EMIN">     10.00000000</i>
   <i name="EMAX">    -10.00000000</i>
   <i name="EFERMI">      0.00000000</i>
  </separator>
  <separator name="writing" >
   <i type="int" name="NWRITE">     2</i>
   <i type="logical" name="LWAVE"> F  </i>
   <i type="logical" name="LCHARG"> F  </i>
   <i type="logical" name="LPARD"> F  </i>
   <i type="logical" name="LVTOT"> F  </i>
   <i type="logical" name="LELF"> F  </i>
   <i type="logical" name="LOPTICS"> F  </i>
   <v name="STM">      0.00000000      0.00000000      0.00000000      0.00000000      0.00000000</v>
  </separator>
  <separator name="performance" >
   <i type="int" name="NPAR">    12</i>
   <i type="int" name="NSIM">     4</i>
   <i type="int" name="NBLK">    32</i>
   <i type="logical" name="LPLANE"> T  </i>
   <i type="logical" name="LSCALAPACK"> F  </i>
   <i type="logical" name="LSCAAWARE"> F  </i>
   <i type="logical" name="LSCALU"> F  </i>
   <i type="logical" name="LASYNC"> F  </i>
  </separator>
  <separator name="miscellaneous" >
   <i type="int" name="IDIOT">     3</i>
   <i type="logical" name="LMUSIC"> F  </i>
   <v name="POMASS">     26.98200000     24.30500000</v>
   <i type="logical" name="LCORR"> T  </i>
  </separator>
  <i type="logical" name="LREAL_COMPAT"> F  </i>
  <i type="logical" name="GGA_COMPAT"> T  </i>
  <i type="logical" name="LBERRY"> F  </i>
  <i type="int" name="ICORELEVEL">     0</i>
  <i type="logical" name="LDAU"> F  </i>
  <i type="int" name="I_CONSTRAINED_M">     0</i>
  <separator name="electronic exchange-correlation" >
   <i type="string" name="GGA">--</i>
   <i type="int" name="VOSKOWN">     0</i>
   <i type="logical" name="LHFCALC"> F  </i>
   <i type="logical" name="LHFONE"> F  </i>
   <i type="logical" name="LRHFCALC"> F  </i>
   <i type="logical" name="LTHOMAS"> F  </i>
   <i type="logical" name="LMODELHF"> F  </i>
   <i name="ENCUTFOCK">      0.00000000</i>
   <i name="ENCUT4O">     -1.00000000</i>
   <i type="int" name="EXXOEP">     0</i>
   <i type="int" name="FOURORBIT">     0</i>
   <i name="AEXX">      0.00000000</i>
   <i name="HFALPHA">      0.00000000</i>
   <i name="ALDAX">      1.00000000</i>
   <i name="AGGAX">      1.00000000</i>
   <i name="ALDAC">      1.00000000</i>
   <i name="AGGAC">      1.00000000</i>
   <i type="int" name="NKREDX">     1</i>
   <i type="int" name="NKREDY">     1</i>
   <i type="int" name="NKREDZ">     1</i>
   <i type="logical" name="SHIFTRED"> F  </i>
   <i type="logical" name="ODDONLY"> F  </i>
   <i type="logical" name="EVENONLY"> F  </i>
   <i type="int" name="LMAXFOCK">     0</i>
   <i type="int" name="NMAXFOCKAE">     0</i>
   <i name="HFSCREEN">      0.00000000</i>
   <i name="HFSCREENC">      0.00000000</i>
  </separator>
  <separator name="model GW" >
   <i type="int" name="MODEL_GW">     0</i>
   <i name="MODEL_EPS0">     10.23670678</i>
   <i name="MODEL_ALPHA">      1.00000000</i>
  </separator>
  <separator name="linear response parameters" >
   <i type="logical" name="LEPSILON"> F  </i>
   <i type="logical" name="LRPA"> F  </i>
   <i type="logical" name="LNABLA"> F  </i>
   <i type="logical" name="LVEL"> F  </i>
   <i type="int" name="KINTER">     0</i>
   <i name="CSHIFT">      0.10000000</i>
   <i name="OMEGAMAX">     -1.00000000</i>
  </separator>
  <separator name="orbital magnetization" >
   <i type="logical" name="ORBITALMAG"> F  </i>
   <i type="logical" name="LMAGBLOCH"> F  </i>
   <i type="logical" name="LCHIMAG"> F  </i>
   <i type="logical" name="LGAUGE"> T  </i>
   <i type="int" name="MAGATOM">     0</i>
   <v name="MAGDIPOL">      0.00000000      0.00000000      0.00000000</v>
   <v name="AVECCONST">      0.00000000      0.00000000      0.00000000</v>
  </separator>
  <separator name="response functions" >
   <i type="logical" name="LRPA"> T  </i>
   <i type="logical" name="LTCTE"> F  </i>
   <i type="logical" name="LTETE"> F  </i>
   <i type="logical" name="L2ORDER"> F  </i>
   <i type="logical" name="LGWLF"> F  </i>
   <i name="ENCUTGW">    200.00000000</i>
   <i name="ENCUTGWSOFT">     -2.00000000</i>
   <i name="ENCUTLF">     -1.00000000</i>
   <i type="int" name="LMAXMP2">    -1</i>
   <i name="SCISSOR">      0.00000000</i>
   <i type="int" name="NOMEGA">     0</i>
   <i type="int" name="NOMEGAR">     0</i>
   <i type="int" name="NBANDSGW">    -1</i>
   <i type="int" name="NBANDSLF">    -1</i>
   <i type="int" name="NELM">     1</i>
   <i type="int" name="DIM">     3</i>
   <i type="int" name="ANTIRES">     0</i>
   <i type="logical" name="LUSEW"> F  </i>
   <i name="OMEGAMAX">    -30.00000000</i>
   <i name="OMEGATL">   -200.00000000</i>
   <i type="int" name="OMEGAGRID">     0</i>
   <i name="CSHIFT">     -0.10000000</i>
   <i type="logical" name="SELFENERGY"> F  </i>
   <i type="logical" name="LSPECTRAL"> F  </i>
   <i type="logical" name="ODDONLYGW"> F  </i>
   <i type="logical" name="EVENONLYGW"> F  </i>
   <i type="int" name="NKREDLFX">     1</i>
   <i type="int" name="NKREDLFY">     1</i>
   <i type="int" name="NKREDLFZ">     1</i>
   <i type="int" name="MAXMEM">  1024</i>
   <i type="int" name="TELESCOPE">     0</i>
  </separator>
 </parameters>
 <atominfo>
  <atoms>      31 </atoms>
  <types>       2 </types>
  <array name="atoms" >
   <dimension dim="1">ion</dimension>
   <field type="string">element</field>
   <field type="int">atomtype</field>
   <set>
    <rc><c>Al</c><c>   1</c></rc>
    <rc><c>Al</c><c>   1</c></rc>
    <rc><c>Al</c><c>   1</c></rc>
    <rc><c>Al</c><c>   1</c></rc>
    <rc><c>Al</c><c>   1</c></rc>
    <rc><c>Al</c><c>   1</c></rc>
    <rc><c>Al</c><c>   1</c></rc>
    <rc><c>Al</c><c>   1</c></rc>
    <rc><c>Al</c><c>   1</c></rc>
    <rc><c>Al</c><c>   1</c></rc>
    <rc><c>Al</c><c>   1</c></rc>
    <rc><c>Al</c><c>   1</c></rc>
    <rc><c>Al</c><c>   1</c></rc>
    <rc><c>Al</c><c>   1</c></rc>
    <rc><c>Al</c><c>   1</c></rc>
    <rc><c>Al</c><c>   1</c></rc>
    <rc><c>Al</c><c>   1</c></rc>
    <rc><c>Al</c><c>   1</c></rc>
    <rc><c>Al</c><c>   1</c></rc>
    <rc><c>Al</c><c>   1</c></rc>
    <rc><c>Al</c><c>   1</c></rc>
    <rc><c>Al</c><c>   1</c></rc>
    <rc><c>Al</c><c>   1</c></rc>
    <rc><c>Al</c><c>   1</c></rc>
    <rc><c>Al</c><c>   1</c></rc>
    <rc><c>Al</c><c>   1</c></rc>
    <rc><c>Al</c><c>   1</c></rc>
    <rc><c>Al</c><c>   1</c></rc>
    <rc><c>Al</c><c>   1</c></rc>
    <rc><c>Al</c><c>   1</c></rc>
    <rc><c>Mg</c><c>   2</c></rc>
   </set>
  </array>
  <array name="atomtypes" >
   <dimension dim="1">type</dimension>
   <field type="int">atomspertype</field>
   <field type="string">element</field>
   <field>mass</field>
   <field>valence</field>
   <field type="string">pseudopotential</field>
   <set>
    <rc><c>  30</c><c>Al</c><c>     26.98200000</c><c>      3.00000000</c><c> PAW_PBE Al 04Jan2001                   </c></rc>
    <rc><c>   1</c><c>Mg</c><c>     24.30500000</c><c>      2.00000000</c><c> PAW_PBE Mg 05Jan2001                   </c></rc>
   </set>
  </array>
 </atominfo>
 <structure name="initialpos" >
  <crystal>
   <varray name="basis" >
    <v>       8.08705200       0.00000000       0.00000000 </v>
    <v>       0.00000000       8.08705200       0.00000000 </v>
    <v>       0.00000000       0.00000000       8.08705200 </v>
   </varray>
   <i name="volume">    528.89651690 </i>
   <varray name="rec_basis" >
    <v>       0.12365445       0.00000000       0.00000000 </v>
    <v>       0.00000000       0.12365445       0.00000000 </v>
    <v>       0.00000000       0.00000000       0.12365445 </v>
   </varray>
  </crystal>
  <varray name="positions" >
   <v>       0.00000000       0.00000000       0.00000000 </v>
   <v>       0.25000000       0.00000000       0.25000000 </v>
   <v>       0.25000000       0.25000000       0.00000000 </v>
   <v>       0.00000000       0.25000000       0.25000000 </v>
   <v>       0.50000000       0.00000000       0.00000000 </v>
   <v>       0.75000000       0.00000000       0.25000000 </v>
   <v>       0.75000000       0.25000000       0.00000000 </v>
   <v>       0.50000000       0.25000000       0.25000000 </v>
   <v>       0.00000000       0.50000000       0.00000000 </v>
   <v>       0.25000000       0.75000000       0.00000000 </v>
   <v>       0.00000000       0.75000000       0.25000000 </v>
   <v>       0.50000000       0.50000000       0.00000000 </v>
   <v>       0.75000000       0.50000000       0.25000000 </v>
   <v>       0.75000000       0.75000000       0.00000000 </v>
   <v>       0.50000000       0.75000000       0.25000000 </v>
   <v>       0.00000000       0.00000000       0.50000000 </v>
   <v>       0.25000000       0.00000000       0.75000000 </v>
   <v>       0.25000000       0.25000000       0.50000000 </v>
   <v>       0.00000000       0.25000000       0.75000000 </v>
   <v>       0.50000000       0.00000000       0.50000000 </v>
   <v>       0.75000000       0.00000000       0.75000000 </v>
   <v>       0.75000000       0.25000000       0.50000000 </v>
   <v>       0.50000000       0.25000000       0.75000000 </v>
   <v>       0.00000000       0.50000000       0.50000000 </v>
   <v>       0.25000000       0.50000000       0.75000000 </v>
   <v>       0.25000000       0.75000000       0.50000000 </v>
   <v>       0.00000000       0.75000000       0.75000000 </v>
   <v>       0.75000000       0.50000000       0.75000000 </v>
   <v>       0.75000000       0.75000000       0.50000000 </v>
   <v>       0.50000000       0.75000000       0.75000000 </v>
   <v>       0.25000000       0.50000000       0.25000000 </v>
  </varray>
 </structure>
 <calculation>
  <scstep>
   <time name="diag">    0.15    0.15</time>
   <time name="diis">    0.34    0.34</time>
   <time name="orth">    0.01    0.01</time>
   <time name="total">    0.67    0.67</time>
   <energy>
    <i name="alphaZ">     -7.38313139 </i>
    <i name="ewald">  -2179.22378212 </i>
    <i name="hartreedc">    -25.65025294 </i>
    <i name="XCdc">   -796.30843288 </i>
    <i name="pawpsdc">   1078.21717227 </i>
    <i name="pawaedc">   -108.50372521 </i>
    <i name="eentropy">     -0.10443293 </i>
    <i name="bandstr">    642.37761640 </i>
    <i name="atom">   1629.13144109 </i>
    <i name="e_fr_energy">    232.55247229 </i>
    <i name="e_wo_entrp">    232.65690522 </i>
    <i name="e_0_energy">    232.58728326 </i>
   </energy>
  </scstep>
  <scstep>
   <time name="diag">    0.15    0.15</time>
   <time name="diis">    0.34    0.34</time>
   <time name="orth">    0.01    0.01</time>
   <time name="total">    0.50    0.51</time>
   <energy>
    <i name="e_fr_energy">    -26.45027611 </i>
    <i name="e_wo_entrp">    -26.40685530 </i>
    <i name="e_0_energy">    -26.43580251 </i>
   </energy>
  </scstep>
  <scstep>
   <time name="diag">    0.15    0.15</time>
   <time name="diis">    0.34    0.34</time>
   <time name="orth">    0.01    0.01</time>
   <time name="total">    0.50    0.50</time>
   <energy>
    <i name="e_fr_energy">    -73.80048024 </i>
    <i name="e_wo_entrp">    -73.87960601 </i>
    <i name="e_0_energy">    -73.82685550 </i>
   </energy>
  </scstep>
  <scstep>
   <time name="diag">    0.16    0.16</time>
   <time name="diis">    0.34    0.34</time>
   <time name="orth">    0.01    0.01</time>
   <time name="total">    0.50    0.51</time>
   <energy>
    <i name="e_fr_energy">    -88.79807447 </i>
    <i name="e_wo_entrp">    -88.75893550 </i>
    <i name="e_0_energy">    -88.78502815 </i>
   </energy>
  </scstep>
  <scstep>
   <time name="diag">    0.15    0.15</time>
   <time name="diis">    0.34    0.34</time>
   <time name="orth">    0.01    0.01</time>
   <time name="total">    0.50    0.51</time>
   <energy>
    <i name="e_fr_energy">    -95.43757593 </i>
    <i name="e_wo_entrp">    -95.45864437 </i>
    <i name="e_0_energy">    -95.44459874 </i>
   </energy>
  </scstep>
  <scstep>
   <time name="diag">    0.15    0.15</time>
   <time name="diis">    0.34    0.34</time>
   <time name="orth">    0.03    0.03</time>
   <time name="total">    0.52    0.52</time>
   <energy>
    <i name="e_fr_energy">    -97.79207346 </i>
    <i name="e_wo_entrp">    -97.80484553 </i>
    <i name="e_0_energy">    -97.79633082 </i>
   </energy>
  </scstep>
  <scstep>
   <time name="diag">    0.15    0.15</time>
   <time name="diis">    0.34    0.34</time>
   <time name="orth">    0.01    0.01</time>
   <time name="total">    0.49    0.50</time>
   <energy>
    <i name="e_fr_energy">    -98.63203703 </i>
    <i name="e_wo_entrp">    -98.64926487 </i>
    <i name="e_0_energy">    -98.63777964 </i>
   </energy>
  </scstep>
  <scstep>
   <time name="diag">    0.16    0.17</time>
   <time name="diis">    0.32    0.33</time>
   <time name="orth">    0.01    0.01</time>
   <time name="total">    0.49    0.51</time>
   <energy>
    <i name="e_fr_energy">    -98.98871732 </i>
    <i name="e_wo_entrp">    -99.00614702 </i>
    <i name="e_0_energy">    -98.99452722 </i>
   </energy>
  </scstep>
  <scstep>
   <time name="diag">    0.15    0.15</time>
   <time name="diis">    0.76    0.76</time>
   <time name="orth">    0.01    0.01</time>
   <time name="total">    0.92    0.92</time>
   <energy>
    <i name="e_fr_energy">    -99.28030666 </i>
    <i name="e_wo_entrp">    -99.29428320 </i>
    <i name="e_0_energy">    -99.28496551 </i>
   </energy>
  </scstep>
  <scstep>
   <time name="diag">    0.15    0.15</time>
   <time name="diis">    0.67    0.67</time>
   <time name="orth">    0.01    0.01</time>
   <time name="total">    0.83    0.84</time>
   <energy>
    <i name="e_fr_energy">    -99.31280735 </i>
    <i name="e_wo_entrp">    -99.32458066 </i>
    <i name="e_0_energy">    -99.31673179 </i>
   </energy>
  </scstep>
  <scstep>
   <time name="diag">    0.15    0.15</time>
   <time name="diis">    0.57    0.57</time>
   <time name="orth">    0.01    0.01</time>
   <time name="total">    0.73    0.74</time>
   <energy>
    <i name="e_fr_energy">    -99.31504925 </i>
    <i name="e_wo_entrp">    -99.32642895 </i>
    <i name="e_0_energy">    -99.31884248 </i>
   </energy>
  </scstep>
  <scstep>
   <time name="diag">    0.15    0.15</time>
   <time name="diis">    0.46    0.46</time>
   <time name="orth">    0.01    0.01</time>
   <time name="total">    0.75    0.75</time>
   <energy>
    <i name="e_fr_energy">    -99.31509782 </i>
    <i name="e_wo_entrp">    -99.32645911 </i>
    <i name="e_0_energy">    -99.31888491 </i>
   </energy>
  </scstep>
  <scstep>
   <time name="diag">    0.15    0.15</time>
   <time name="diis">    0.61    0.61</time>
   <time name="orth">    0.01    0.01</time>
   <time name="total">    1.06    1.06</time>
   <energy>
    <i name="e_fr_energy">    -98.17801392 </i>
    <i name="e_wo_entrp">    -98.09033966 </i>
    <i name="e_0_energy">    -98.14878917 </i>
   </energy>
  </scstep>
  <scstep>
   <time name="diag">    0.15    0.15</time>
   <time name="diis">    0.60    0.60</time>
   <time name="orth">    0.01    0.01</time>
   <time name="total">    1.06    1.06</time>
   <energy>
    <i name="e_fr_energy">    -97.92265742 </i>
    <i name="e_wo_entrp">    -97.82668685 </i>
    <i name="e_0_energy">    -97.89066723 </i>
   </energy>
  </scstep>
  <scstep>
   <time name="diag">    0.15    0.15</time>
   <time name="diis">    0.67    0.67</time>
   <time name="orth">    0.01    0.01</time>
   <time name="total">    1.12    1.12</time>
   <energy>
    <i name="e_fr_energy">    -97.79204461 </i>
    <i name="e_wo_entrp">    -97.71737711 </i>
    <i name="e_0_energy">    -97.76715545 </i>
   </energy>
  </scstep>
  <scstep>
   <time name="diag">    0.15    0.15</time>
   <time name="diis">    0.61    0.62</time>
   <time name="orth">    0.01    0.01</time>
   <time name="total">    1.07    1.07</time>
   <energy>
    <i name="e_fr_energy">    -97.78177863 </i>
    <i name="e_wo_entrp">    -97.69255028 </i>
    <i name="e_0_energy">    -97.75203584 </i>
   </energy>
  </scstep>
  <scstep>
   <time name="diag">    0.15    0.15</time>
   <time name="diis">    0.61    0.61</time>
   <time name="orth">    0.01    0.01</time>
   <time name="total">    1.07    1.07</time>
   <energy>
    <i name="e_fr_energy">    -97.78075921 </i>
    <i name="e_wo_entrp">    -97.69233906 </i>
    <i name="e_0_energy">    -97.75128583 </i>
   </energy>
  </scstep>
  <scstep>
   <time name="diag">    0.15    0.15</time>
   <time name="diis">    0.48    0.48</time>
   <time name="orth">    0.01    0.01</time>
   <time name="total">    0.80    0.81</time>
   <energy>
    <i name="alphaZ">     -7.38313139 </i>
    <i name="ewald">  -2179.22378212 </i>
    <i name="hartreedc">    -30.76469848 </i>
    <i name="XCdc">   -792.36192891 </i>
    <i name="pawpsdc">   1077.65608209 </i>
    <i name="pawaedc">   -108.18652092 </i>
    <i name="eentropy">     -0.08821506 </i>
    <i name="bandstr">    313.44001815 </i>
    <i name="atom">   1629.13144109 </i>
    <i name="e_fr_energy">    -97.78073555 </i>
    <i name="e_wo_entrp">    -97.69252050 </i>
    <i name="e_0_energy">    -97.75133053 </i>
   </energy>
  </scstep>
  <structure>
   <crystal>
    <varray name="basis" >
     <v>       8.08705200       0.00000000       0.00000000 </v>
     <v>       0.00000000       8.08705200       0.00000000 </v>
     <v>       0.00000000       0.00000000       8.08705200 </v>
    </varray>
    <i name="volume">    528.89651690 </i>
    <varray name="rec_basis" >
     <v>       0.12365445       0.00000000       0.00000000 </v>
     <v>       0.00000000       0.12365445       0.00000000 </v>
     <v>       0.00000000       0.00000000       0.12365445 </v>
    </varray>
   </crystal>
   <varray name="positions" >
    <v>       0.00000000       0.00000000       0.00000000 </v>
    <v>       0.25000000       0.00000000       0.25000000 </v>
    <v>       0.25000000       0.25000000       0.00000000 </v>
    <v>       0.00000000       0.25000000       0.25000000 </v>
    <v>       0.50000000       0.00000000       0.00000000 </v>
    <v>       0.75000000       0.00000000       0.25000000 </v>
    <v>       0.75000000       0.25000000       0.00000000 </v>
    <v>       0.50000000       0.25000000       0.25000000 </v>
    <v>       0.00000000       0.50000000       0.00000000 </v>
    <v>       0.25000000       0.75000000       0.00000000 </v>
    <v>       0.00000000       0.75000000       0.25000000 </v>
    <v>       0.50000000       0.50000000       0.00000000 </v>
    <v>       0.75000000       0.50000000       0.25000000 </v>
    <v>       0.75000000       0.75000000       0.00000000 </v>
    <v>       0.50000000       0.75000000       0.25000000 </v>
    <v>       0.00000000       0.00000000       0.50000000 </v>
    <v>       0.25000000       0.00000000       0.75000000 </v>
    <v>       0.25000000       0.25000000       0.50000000 </v>
    <v>       0.00000000       0.25000000       0.75000000 </v>
    <v>       0.50000000       0.00000000       0.50000000 </v>
    <v>       0.75000000       0.00000000       0.75000000 </v>
    <v>       0.75000000       0.25000000       0.50000000 </v>
    <v>       0.50000000       0.25000000       0.75000000 </v>
    <v>       0.00000000       0.50000000       0.50000000 </v>
    <v>       0.25000000       0.50000000       0.75000000 </v>
    <v>       0.25000000       0.75000000       0.50000000 </v>
    <v>       0.00000000       0.75000000       0.75000000 </v>
    <v>       0.75000000       0.50000000       0.75000000 </v>
    <v>       0.75000000       0.75000000       0.50000000 </v>
    <v>       0.50000000       0.75000000       0.75000000 </v>
    <v>       0.25000000       0.50000000       0.25000000 </v>
   </varray>
  </structure>
  <varray name="forces" >
   <v>      -0.10421820       0.00000000      -0.10421820 </v>
   <v>       0.07031454       0.00000000       0.07031454 </v>
   <v>       0.00150556      -0.17754884      -0.20491420 </v>
   <v>      -0.20491420      -0.17754884       0.00150556 </v>
   <v>       0.04407406       0.00000000      -0.08413734 </v>
   <v>       0.03884963       0.00000000      -0.01019502 </v>
   <v>       0.07626390      -0.08374703      -0.10077970 </v>
   <v>       0.17973863      -0.39308537      -0.10429429 </v>
   <v>      -0.31635524       0.00000000      -0.31635524 </v>
   <v>       0.00150556       0.17754884      -0.20491420 </v>
   <v>      -0.20491420       0.17754884       0.00150556 </v>
   <v>       0.18625195       0.00000000      -0.19884900 </v>
   <v>       0.13208601       0.00000000      -0.16453278 </v>
   <v>       0.07626390       0.08374703      -0.10077970 </v>
   <v>       0.17973863       0.39308537      -0.10429429 </v>
   <v>      -0.08413734       0.00000000       0.04407406 </v>
   <v>      -0.01019502       0.00000000       0.03884963 </v>
   <v>      -0.10429429      -0.39308537       0.17973863 </v>
   <v>      -0.10077970      -0.08374703       0.07626390 </v>
   <v>      -0.01089487       0.00000000      -0.01089487 </v>
   <v>       0.01478313       0.00000000       0.01478313 </v>
   <v>       0.13337821      -0.17311296       0.04894436 </v>
   <v>       0.04894436      -0.17311296       0.13337821 </v>
   <v>      -0.19884900       0.00000000       0.18625195 </v>
   <v>      -0.16453278       0.00000000       0.13208601 </v>
   <v>      -0.10429429       0.39308537       0.17973863 </v>
   <v>      -0.10077970       0.08374703       0.07626390 </v>
   <v>       0.23938335       0.00000000       0.23938335 </v>
   <v>       0.13337821       0.17311296       0.04894436 </v>
   <v>       0.04894436       0.17311296       0.13337821 </v>
   <v>       0.10375484       0.00000000       0.10375484 </v>
  </varray>
  <varray name="stress" >
   <v>     -15.89800841       0.00000000      -2.04488536 </v>
   <v>       0.00000000      -6.80919207       0.00000000 </v>
   <v>      -2.04488536       0.00000000     -15.89800841 </v>
  </varray>
  <energy>
   <i name="e_fr_energy">    -97.78073555 </i>
   <i name="e_wo_entrp">    -97.75133053 </i>
   <i name="e_0_energy">     -0.08821506 </i>
  </energy>
  <time name="totalsc">   14.98   15.05</time>
 </calculation>
 <calculation>
  <scstep>
   <time name="diag">    0.15    0.15</time>
   <time name="diis">    0.59    0.59</time>
   <time name="orth">    0.01    0.01</time>
   <time name="total">    1.04    1.05</time>
   <energy>
    <i name="alphaZ">     -7.38313139 </i>
    <i name="ewald">  -2176.20141328 </i>
    <i name="hartreedc">    -33.36636354 </i>
    <i name="XCdc">   -792.29872293 </i>
    <i name="pawpsdc">   1077.69150807 </i>
    <i name="pawaedc">   -108.22650612 </i>
    <i name="eentropy">     -0.04846939 </i>
    <i name="bandstr">    312.81223099 </i>
    <i name="atom">   1629.13144109 </i>
    <i name="e_fr_energy">    -97.88942649 </i>
    <i name="e_wo_entrp">    -97.84095710 </i>
    <i name="e_0_energy">    -97.87327003 </i>
   </energy>
  </scstep>
  <scstep>
   <time name="diag">    0.15    0.15</time>
   <time name="diis">    0.60    0.60</time>
   <time name="orth">    0.01    0.01</time>
   <time name="total">    1.05    1.05</time>
   <energy>
    <i name="e_fr_energy">    -97.87389189 </i>
    <i name="e_wo_entrp">    -97.80830261 </i>
    <i name="e_0_energy">    -97.85202880 </i>
   </energy>
  </scstep>
  <scstep>
   <time name="diag">    0.15    0.15</time>
   <time name="diis">    0.57    0.57</time>
   <time name="orth">    0.01    0.01</time>
   <time name="total">    1.02    1.02</time>
   <energy>
    <i name="e_fr_energy">    -97.87201210 </i>
    <i name="e_wo_entrp">    -97.80485401 </i>
    <i name="e_0_energy">    -97.84962607 </i>
   </energy>
  </scstep>
  <scstep>
   <time name="diag">    0.15    0.15</time>
   <time name="diis">    0.47    0.47</time>
   <time name="orth">    0.01    0.01</time>
   <time name="total">    0.79    0.79</time>
   <energy>
    <i name="alphaZ">     -7.38313139 </i>
    <i name="ewald">  -2176.20141328 </i>
    <i name="hartreedc">    -33.67123370 </i>
    <i name="XCdc">   -792.29393516 </i>
    <i name="pawpsdc">   1077.74103122 </i>
    <i name="pawaedc">   -108.27872155 </i>
    <i name="eentropy">     -0.06639421 </i>
    <i name="bandstr">    313.15038776 </i>
    <i name="atom">   1629.13144109 </i>
    <i name="e_fr_energy">    -97.87196922 </i>
    <i name="e_wo_entrp">    -97.80557501 </i>
    <i name="e_0_energy">    -97.84983781 </i>
   </energy>
  </scstep>
  <structure>
   <crystal>
    <varray name="basis" >
     <v>       8.08705200       0.00000000       0.00000000 </v>
     <v>       0.00000000       8.08705200       0.00000000 </v>
     <v>       0.00000000       0.00000000       8.08705200 </v>
    </varray>
    <i name="volume">    528.89651690 </i>
    <varray name="rec_basis" >
     <v>       0.12365445       0.00000000       0.00000000 </v>
     <v>       0.00000000       0.12365445       0.00000000 </v>
     <v>       0.00000000       0.00000000       0.12365445 </v>
    </varray>
   </crystal>
   <varray name="positions" >
    <v>      -0.00062171       0.00000000      -0.00062171 </v>
    <v>       0.25041946       0.00000000       0.25041946 </v>
    <v>       0.25000898       0.24894085      -0.00122240 </v>
    <v>      -0.00122240       0.24894085       0.25000898 </v>
    <v>       0.50026292       0.00000000      -0.00050191 </v>
    <v>       0.75023175       0.00000000       0.24993918 </v>
    <v>       0.75045495       0.24950041      -0.00060119 </v>
    <v>       0.50107222       0.24765508       0.24937784 </v>
    <v>      -0.00188719       0.50000000      -0.00188719 </v>
    <v>       0.25000898       0.75105915      -0.00122240 </v>
    <v>      -0.00122240       0.75105915       0.25000898 </v>
    <v>       0.50111107       0.50000000      -0.00118622 </v>
    <v>       0.75078795       0.50000000       0.24901849 </v>
    <v>       0.75045495       0.75049959      -0.00060119 </v>
    <v>       0.50107222       0.75234492       0.24937784 </v>
    <v>      -0.00050191       0.00000000       0.50026292 </v>
    <v>       0.24993918       0.00000000       0.75023175 </v>
    <v>       0.24937784       0.24765508       0.50107222 </v>
    <v>      -0.00060119       0.24950041       0.75045495 </v>
    <v>       0.49993501       0.00000000       0.49993501 </v>
    <v>       0.75008819       0.00000000       0.75008819 </v>
    <v>       0.75079566       0.24896731       0.50029197 </v>
    <v>       0.50029197       0.24896731       0.75079566 </v>
    <v>      -0.00118622       0.50000000       0.50111107 </v>
    <v>       0.24901849       0.50000000       0.75078795 </v>
    <v>       0.24937784       0.75234492       0.50107222 </v>
    <v>      -0.00060119       0.75049959       0.75045495 </v>
    <v>       0.75142802       0.50000000       0.75142802 </v>
    <v>       0.75079566       0.75103269       0.50029197 </v>
    <v>       0.50029197       0.75103269       0.75079566 </v>
    <v>       0.25061894       0.50000000       0.25061894 </v>
   </varray>
  </structure>
  <varray name="forces" >
   <v>      -0.07823208       0.00000000      -0.07823208 </v>
   <v>       0.06730335       0.00000000       0.06730335 </v>
   <v>      -0.00576844      -0.15618139      -0.17425394 </v>
   <v>      -0.17425394      -0.15618139      -0.00576844 </v>
   <v>       0.04762195       0.00000000      -0.06043728 </v>
   <v>       0.02568865       0.00000000      -0.02674905 </v>
   <v>       0.03397410      -0.06212009      -0.06011040 </v>
   <v>       0.18246031      -0.36297112      -0.12790018 </v>
   <v>      -0.24913273       0.00000000      -0.24913273 </v>
   <v>      -0.00576844       0.15618139      -0.17425394 </v>
   <v>      -0.17425394       0.15618139      -0.00576844 </v>
   <v>       0.21373814       0.00000000      -0.16607917 </v>
   <v>       0.10304092       0.00000000      -0.17068058 </v>
   <v>       0.03397410       0.06212009      -0.06011040 </v>
   <v>       0.18246031       0.36297112      -0.12790018 </v>
   <v>      -0.06043728       0.00000000       0.04762195 </v>
   <v>      -0.02674905       0.00000000       0.02568865 </v>
   <v>      -0.12790018      -0.36297112       0.18246031 </v>
   <v>      -0.06011040      -0.06212009       0.03397410 </v>
   <v>      -0.01986204       0.00000000      -0.01986204 </v>
   <v>       0.00972045       0.00000000       0.00972045 </v>
   <v>       0.11120142      -0.13977416       0.05072009 </v>
   <v>       0.05072009      -0.13977416       0.11120142 </v>
   <v>      -0.16607917       0.00000000       0.21373814 </v>
   <v>      -0.17068058       0.00000000       0.10304092 </v>
   <v>      -0.12790018       0.36297112       0.18246031 </v>
   <v>      -0.06011040       0.06212009       0.03397410 </v>
   <v>       0.20316774       0.00000000       0.20316774 </v>
   <v>       0.11120142       0.13977416       0.05072009 </v>
   <v>       0.05072009       0.13977416       0.11120142 </v>
   <v>       0.08024580       0.00000000       0.08024580 </v>
  </varray>
  <varray name="stress" >
   <v>     -15.88011333       0.00000000      -2.73687196 </v>
   <v>       0.00000000      -6.25073562       0.00000000 </v>
   <v>      -2.73687196       0.00000000     -15.88011333 </v>
  </varray>
  <energy>
   <i name="e_fr_energy">    -97.87196922 </i>
   <i name="e_wo_entrp">    -97.84983781 </i>
   <i name="e_0_energy">     -0.06639421 </i>
  </energy>
  <time name="totalsc">    5.28    5.29</time>
 </calculation>
 <calculation>
  <scstep>
   <time name="diag">    0.15    0.15</time>
   <time name="diis">    0.59    0.59</time>
   <time name="orth">    0.01    0.01</time>
   <time name="total">    1.04    1.04</time>
   <energy>
    <i name="alphaZ">     -7.38313139 </i>
    <i name="ewald">  -2165.26218471 </i>
    <i name="hartreedc">    -42.77767818 </i>
    <i name="XCdc">   -792.11163251 </i>
    <i name="pawpsdc">   1077.74723606 </i>
    <i name="pawaedc">   -108.28576210 </i>
    <i name="eentropy">      0.04343008 </i>
    <i name="bandstr">    310.69474340 </i>
    <i name="atom">   1629.13144109 </i>
    <i name="e_fr_energy">    -98.20353826 </i>
    <i name="e_wo_entrp">    -98.24696834 </i>
    <i name="e_0_energy">    -98.21801495 </i>
   </energy>
  </scstep>
  <scstep>
   <time name="diag">    0.15    0.15</time>
   <time name="diis">    0.59    0.59</time>
   <time name="orth">    0.01    0.01</time>
   <time name="total">    1.04    1.04</time>
   <energy>
    <i name="e_fr_energy">    -98.08726609 </i>
    <i name="e_wo_entrp">    -98.10067863 </i>
    <i name="e_0_energy">    -98.09173694 </i>
   </energy>
  </scstep>
  <scstep>
   <time name="diag">    0.15    0.15</time>
   <time name="diis">    0.61    0.61</time>
   <time name="orth">    0.01    0.01</time>
   <time name="total">    1.06    1.06</time>
   <energy>
    <i name="e_fr_energy">    -98.06856611 </i>
    <i name="e_wo_entrp">    -98.06880174 </i>
    <i name="e_0_energy">    -98.06864466 </i>
   </energy>
  </scstep>
  <scstep>
   <time name="diag">    0.15    0.15</time>
   <time name="diis">    0.64    0.64</time>
   <time name="orth">    0.01    0.01</time>
   <time name="total">    1.09    1.09</time>
   <energy>
    <i name="e_fr_energy">    -98.06822728 </i>
    <i name="e_wo_entrp">    -98.06872460 </i>
    <i name="e_0_energy">    -98.06839305 </i>
   </energy>
  </scstep>
  <scstep>
   <time name="diag">    0.15    0.15</time>
   <time name="diis">    0.49    0.49</time>
   <time name="orth">    0.01    0.01</time>
   <time name="total">    0.81    0.81</time>
   <energy>
    <i name="alphaZ">     -7.38313139 </i>
    <i name="ewald">  -2165.26218471 </i>
    <i name="hartreedc">    -43.90505741 </i>
    <i name="XCdc">   -792.09072135 </i>
    <i name="pawpsdc">   1078.15415345 </i>
    <i name="pawaedc">   -108.70824672 </i>
    <i name="eentropy">     -0.00013017 </i>
    <i name="bandstr">    311.99562214 </i>
    <i name="atom">   1629.13144109 </i>
    <i name="e_fr_energy">    -98.06825507 </i>
    <i name="e_wo_entrp">    -98.06812490 </i>
    <i name="e_0_energy">    -98.06821168 </i>
   </energy>
  </scstep>
  <structure>
   <crystal>
    <varray name="basis" >
     <v>       8.08705200       0.00000000       0.00000000 </v>
     <v>       0.00000000       8.08705200       0.00000000 </v>
     <v>       0.00000000       0.00000000       8.08705200 </v>
    </varray>
    <i name="volume">    528.89651690 </i>
    <varray name="rec_basis" >
     <v>       0.12365445       0.00000000       0.00000000 </v>
     <v>       0.00000000       0.12365445       0.00000000 </v>
     <v>       0.00000000       0.00000000       0.12365445 </v>
    </varray>
   </crystal>
   <varray name="positions" >
    <v>      -0.00248682       0.00000000      -0.00248682 </v>
    <v>       0.25167782       0.00000000       0.25167782 </v>
    <v>       0.25003593       0.24576339      -0.00488960 </v>
    <v>      -0.00488960       0.24576339       0.25003593 </v>
    <v>       0.50105168       0.00000000      -0.00200766 </v>
    <v>       0.75092702       0.00000000       0.24975673 </v>
    <v>       0.75181978       0.24800166      -0.00240477 </v>
    <v>       0.50428886       0.24062032       0.24751136 </v>
    <v>      -0.00754877       0.50000000      -0.00754877 </v>
    <v>       0.25003593       0.75423661      -0.00488960 </v>
    <v>      -0.00488960       0.75423661       0.25003593 </v>
    <v>       0.50444428       0.50000000      -0.00474487 </v>
    <v>       0.75315179       0.50000000       0.24607397 </v>
    <v>       0.75181978       0.75199834      -0.00240477 </v>
    <v>       0.50428886       0.75937968       0.24751136 </v>
    <v>      -0.00200766       0.00000000       0.50105168 </v>
    <v>       0.24975673       0.00000000       0.75092702 </v>
    <v>       0.24751136       0.24062032       0.50428886 </v>
    <v>      -0.00240477       0.24800166       0.75181978 </v>
    <v>       0.49974003       0.00000000       0.49974003 </v>
    <v>       0.75035275       0.00000000       0.75035275 </v>
    <v>       0.75318263       0.24586923       0.50116789 </v>
    <v>       0.50116789       0.24586923       0.75318263 </v>
    <v>      -0.00474487       0.50000000       0.50444428 </v>
    <v>       0.24607397       0.50000000       0.75315179 </v>
    <v>       0.24751136       0.75937968       0.50428886 </v>
    <v>      -0.00240477       0.75199834       0.75181978 </v>
    <v>       0.75571209       0.50000000       0.75571209 </v>
    <v>       0.75318263       0.75413077       0.50116789 </v>
    <v>       0.50116789       0.75413077       0.75318263 </v>
    <v>       0.25247576       0.50000000       0.25247576 </v>
   </varray>
  </structure>
  <varray name="forces" >
   <v>      -0.02401637       0.00000000      -0.02401637 </v>
   <v>      -0.00848284       0.00000000      -0.00848284 </v>
   <v>      -0.04051819      -0.09851350      -0.06287337 </v>
   <v>      -0.06287337      -0.09851350      -0.04051819 </v>
   <v>       0.06598343       0.00000000      -0.01112966 </v>
   <v>       0.03404784       0.00000000      -0.10177143 </v>
   <v>      -0.06875264      -0.05277194       0.04532531 </v>
   <v>       0.17897276      -0.21404317      -0.18286320 </v>
   <v>      -0.00195705       0.00000000      -0.00195705 </v>
   <v>      -0.04051819       0.09851350      -0.06287337 </v>
   <v>      -0.06287337       0.09851350      -0.04051819 </v>
   <v>       0.27590572       0.00000000      -0.07220795 </v>
   <v>      -0.00331514       0.00000000      -0.16149420 </v>
   <v>      -0.06875264       0.05277194       0.04532531 </v>
   <v>       0.17897276       0.21404317      -0.18286320 </v>
   <v>      -0.01112966       0.00000000       0.06598343 </v>
   <v>      -0.10177143       0.00000000       0.03404784 </v>
   <v>      -0.18286320      -0.21404317       0.17897276 </v>
   <v>       0.04532531      -0.05277194      -0.06875264 </v>
   <v>      -0.00254340       0.00000000      -0.00254340 </v>
   <v>       0.03571881       0.00000000       0.03571881 </v>
   <v>       0.02402262      -0.01062289       0.06673405 </v>
   <v>       0.06673405      -0.01062289       0.02402262 </v>
   <v>      -0.07220795       0.00000000       0.27590572 </v>
   <v>      -0.16149420       0.00000000      -0.00331514 </v>
   <v>      -0.18286320       0.21404317       0.17897276 </v>
   <v>       0.04532531       0.05277194      -0.06875264 </v>
   <v>       0.02320482       0.00000000       0.02320482 </v>
   <v>       0.02402262       0.01062289       0.06673405 </v>
   <v>       0.06673405       0.01062289       0.02402262 </v>
   <v>       0.03196274       0.00000000       0.03196274 </v>
  </varray>
  <varray name="stress" >
   <v>     -14.08909959       0.00000000      -4.49653516 </v>
   <v>       0.00000000      -3.85234541       0.00000000 </v>
   <v>      -4.49653516       0.00000000     -14.08909959 </v>
  </varray>
  <energy>
   <i name="e_fr_energy">    -98.06825507 </i>
   <i name="e_wo_entrp">    -98.06821168 </i>
   <i name="e_0_energy">     -0.00013017 </i>
  </energy>
  <time name="totalsc">    6.42    6.44</time>
 </calculation>
 <calculation>
  <scstep>
   <time name="diag">    0.15    0.15</time>
   <time name="diis">    0.60    0.60</time>
   <time name="orth">    0.01    0.01</time>
   <time name="total">    1.05    1.05</time>
   <energy>
    <i name="alphaZ">     -7.38313139 </i>
    <i name="ewald">  -2135.13894806 </i>
    <i name="hartreedc">    -68.02828267 </i>
    <i name="XCdc">   -791.64473992 </i>
    <i name="pawpsdc">   1078.18107440 </i>
    <i name="pawaedc">   -108.73629680 </i>
    <i name="eentropy">      0.12934040 </i>
    <i name="bandstr">    305.07065977 </i>
    <i name="atom">   1629.13144109 </i>
    <i name="e_fr_energy">    -98.41888318 </i>
    <i name="e_wo_entrp">    -98.54822357 </i>
    <i name="e_0_energy">    -98.46199664 </i>
   </energy>
  </scstep>
  <scstep>
   <time name="diag">    0.15    0.15</time>
   <time name="diis">    0.62    0.62</time>
   <time name="orth">    0.01    0.01</time>
   <time name="total">    1.06    1.07</time>
   <energy>
    <i name="e_fr_energy">    -98.04500076 </i>
    <i name="e_wo_entrp">    -98.17295669 </i>
    <i name="e_0_energy">    -98.08765273 </i>
   </energy>
  </scstep>
  <scstep>
   <time name="diag">    0.15    0.15</time>
   <time name="diis">    0.62    0.62</time>
   <time name="orth">    0.01    0.01</time>
   <time name="total">    1.06    1.07</time>
   <energy>
    <i name="e_fr_energy">    -97.98483309 </i>
    <i name="e_wo_entrp">    -98.11235167 </i>
    <i name="e_0_energy">    -98.02733928 </i>
   </energy>
  </scstep>
  <scstep>
   <time name="diag">    0.15    0.15</time>
   <time name="diis">    0.66    0.66</time>
   <time name="orth">    0.01    0.01</time>
   <time name="total">    1.11    1.11</time>
   <energy>
    <i name="e_fr_energy">    -97.98353682 </i>
    <i name="e_wo_entrp">    -98.10966768 </i>
    <i name="e_0_energy">    -98.02558044 </i>
   </energy>
  </scstep>
  <scstep>
   <time name="diag">    0.15    0.15</time>
   <time name="diis">    0.61    0.61</time>
   <time name="orth">    0.01    0.01</time>
   <time name="total">    1.06    1.06</time>
   <energy>
    <i name="e_fr_energy">    -97.98358682 </i>
    <i name="e_wo_entrp">    -98.10923129 </i>
    <i name="e_0_energy">    -98.02546831 </i>
   </energy>
  </scstep>
  <scstep>
   <time name="diag">    0.15    0.15</time>
   <time name="diis">    0.44    0.44</time>
   <time name="orth">    0.01    0.01</time>
   <time name="total">    0.76    0.76</time>
   <energy>
    <i name="alphaZ">     -7.38313139 </i>
    <i name="ewald">  -2135.13894806 </i>
    <i name="hartreedc">    -71.17342337 </i>
    <i name="XCdc">   -791.52238601 </i>
    <i name="pawpsdc">   1080.20296571 </i>
    <i name="pawaedc">   -110.85030854 </i>
    <i name="eentropy">      0.12551956 </i>
    <i name="bandstr">    308.62458785 </i>
    <i name="atom">   1629.13144109 </i>
    <i name="e_fr_energy">    -97.98368316 </i>
    <i name="e_wo_entrp">    -98.10920272 </i>
    <i name="e_0_energy">    -98.02552301 </i>
   </energy>
  </scstep>
  <structure>
   <crystal>
    <varray name="basis" >
     <v>       8.08705200       0.00000000       0.00000000 </v>
     <v>       0.00000000       8.08705200       0.00000000 </v>
     <v>       0.00000000       0.00000000       8.08705200 </v>
    </varray>
    <i name="volume">    528.89651690 </i>
    <varray name="rec_basis" >
     <v>       0.12365445       0.00000000       0.00000000 </v>
     <v>       0.00000000       0.12365445       0.00000000 </v>
     <v>       0.00000000       0.00000000       0.12365445 </v>
    </varray>
   </crystal>
   <varray name="positions" >
    <v>      -0.00621705       0.00000000      -0.00621705 </v>
    <v>       0.25419456       0.00000000       0.25419456 </v>
    <v>       0.25008981       0.23940847      -0.01222399 </v>
    <v>      -0.01222399       0.23940847       0.25008981 </v>
    <v>       0.50262920       0.00000000      -0.00501914 </v>
    <v>       0.75231754       0.00000000       0.24939182 </v>
    <v>       0.75454946       0.24500414      -0.00601193 </v>
    <v>       0.51072216       0.22655081       0.24377841 </v>
    <v>      -0.01887192       0.50000000      -0.01887192 </v>
    <v>       0.25008981       0.76059153      -0.01222399 </v>
    <v>      -0.01222399       0.76059153       0.25008981 </v>
    <v>       0.51111071       0.50000000      -0.01186218 </v>
    <v>       0.75787948       0.50000000       0.24018493 </v>
    <v>       0.75454946       0.75499586      -0.00601193 </v>
    <v>       0.51072216       0.77344919       0.24377841 </v>
    <v>      -0.00501914       0.00000000       0.50262920 </v>
    <v>       0.24939182       0.00000000       0.75231754 </v>
    <v>       0.24377841       0.22655081       0.51072216 </v>
    <v>      -0.00601193       0.24500414       0.75454946 </v>
    <v>       0.49935008       0.00000000       0.49935008 </v>
    <v>       0.75088188       0.00000000       0.75088188 </v>
    <v>       0.75795657       0.23967309       0.50291974 </v>
    <v>       0.50291974       0.23967309       0.75795657 </v>
    <v>      -0.01186218       0.50000000       0.51111071 </v>
    <v>       0.24018493       0.50000000       0.75787948 </v>
    <v>       0.24377841       0.77344919       0.51072216 </v>
    <v>      -0.00601193       0.75499586       0.75454946 </v>
    <v>       0.76428022       0.50000000       0.76428022 </v>
    <v>       0.75795657       0.76032691       0.50291974 </v>
    <v>       0.50291974       0.76032691       0.75795657 </v>
    <v>       0.25618941       0.50000000       0.25618941 </v>
   </varray>
  </structure>
  <varray name="forces" >
   <v>       0.06620075       0.00000000       0.06620075 </v>
   <v>      -0.35594747       0.00000000      -0.35594747 </v>
   <v>      -0.17328904       0.03726758       0.29355666 </v>
   <v>       0.29355666       0.03726758      -0.17328904 </v>
   <v>       0.11312348       0.00000000      -0.01661394 </v>
   <v>       0.19038572       0.00000000      -0.25013155 </v>
   <v>      -0.16995595      -0.13923002       0.12523516 </v>
   <v>       0.04129495       0.19754051      -0.18205197 </v>
   <v>       0.82472769       0.00000000       0.82472769 </v>
   <v>      -0.17328904      -0.03726758       0.29355666 </v>
   <v>       0.29355666      -0.03726758      -0.17328904 </v>
   <v>       0.26340966       0.00000000       0.04255456 </v>
   <v>      -0.15181257       0.00000000      -0.09057371 </v>
   <v>      -0.16995595       0.13923002       0.12523516 </v>
   <v>       0.04129495      -0.19754051      -0.18205197 </v>
   <v>      -0.01661394       0.00000000       0.11312348 </v>
   <v>      -0.25013155       0.00000000       0.19038572 </v>
   <v>      -0.18205197       0.19754051       0.04129495 </v>
   <v>       0.12523516      -0.13923002      -0.16995595 </v>
   <v>       0.23095914       0.00000000       0.23095914 </v>
   <v>       0.11918851       0.00000000       0.11918851 </v>
   <v>      -0.25166692       0.25947427       0.21625820 </v>
   <v>       0.21625820       0.25947427      -0.25166692 </v>
   <v>       0.04255456       0.00000000       0.26340966 </v>
   <v>      -0.09057371       0.00000000      -0.15181257 </v>
   <v>      -0.18205197      -0.19754051       0.04129495 </v>
   <v>       0.12523516       0.13923002      -0.16995595 </v>
   <v>      -0.75271728       0.00000000      -0.75271728 </v>
   <v>      -0.25166692      -0.25947427       0.21625820 </v>
   <v>       0.21625820      -0.25947427      -0.25166692 </v>
   <v>      -0.03151518       0.00000000      -0.03151518 </v>
  </varray>
  <varray name="stress" >
   <v>      -2.91614673       0.00000000      -3.86177564 </v>
   <v>       0.00000000       6.67305069       0.00000000 </v>
   <v>      -3.86177564       0.00000000      -2.91614673 </v>
  </varray>
  <energy>
   <i name="e_fr_energy">    -97.98368316 </i>
   <i name="e_wo_entrp">    -98.02552301 </i>
   <i name="e_0_energy">      0.12551956 </i>
  </energy>
  <time name="totalsc">    7.50    7.53</time>
 </calculation>
 <calculation>
  <scstep>
   <time name="diag">    0.15    0.15</time>
   <time name="diis">    0.60    0.60</time>
   <time name="orth">    0.01    0.01</time>
   <time name="total">    1.05    1.06</time>
   <energy>
    <i name="alphaZ">     -7.38313139 </i>
    <i name="ewald">  -2139.63665404 </i>
    <i name="hartreedc">    -67.89238681 </i>
    <i name="XCdc">   -791.59589319 </i>
    <i name="pawpsdc">   1080.24439862 </i>
    <i name="pawaedc">   -110.89335040 </i>
    <i name="eentropy">      0.09183080 </i>
    <i name="bandstr">    309.75230164 </i>
    <i name="atom">   1629.13144109 </i>
    <i name="e_fr_energy">    -98.18144368 </i>
    <i name="e_wo_entrp">    -98.27327448 </i>
    <i name="e_0_energy">    -98.21205395 </i>
   </energy>
  </scstep>
  <scstep>
   <time name="diag">    0.15    0.15</time>
   <time name="diis">    0.63    0.63</time>
   <time name="orth">    0.01    0.01</time>
   <time name="total">    1.08    1.08</time>
   <energy>
    <i name="e_fr_energy">    -98.16457075 </i>
    <i name="e_wo_entrp">    -98.26556439 </i>
    <i name="e_0_energy">    -98.19823530 </i>
   </energy>
  </scstep>
  <scstep>
   <time name="diag">    0.15    0.15</time>
   <time name="diis">    0.62    0.62</time>
   <time name="orth">    0.01    0.01</time>
   <time name="total">    1.06    1.07</time>
   <energy>
    <i name="e_fr_energy">    -98.16287221 </i>
    <i name="e_wo_entrp">    -98.26495281 </i>
    <i name="e_0_energy">    -98.19689908 </i>
   </energy>
  </scstep>
  <scstep>
   <time name="diag">    0.15    0.15</time>
   <time name="diis">    0.58    0.58</time>
   <time name="orth">    0.01    0.01</time>
   <time name="total">    1.03    1.03</time>
   <energy>
    <i name="e_fr_energy">    -98.16254120 </i>
    <i name="e_wo_entrp">    -98.26458968 </i>
    <i name="e_0_energy">    -98.19655736 </i>
   </energy>
  </scstep>
  <scstep>
   <time name="diag">    0.15    0.15</time>
   <time name="diis">    0.41    0.41</time>
   <time name="orth">    0.01    0.01</time>
   <time name="total">    0.73    0.73</time>
   <energy>
    <i name="alphaZ">     -7.38313139 </i>
    <i name="ewald">  -2139.63665404 </i>
    <i name="hartreedc">    -67.47404164 </i>
    <i name="XCdc">   -791.62327827 </i>
    <i name="pawpsdc">   1079.77916905 </i>
    <i name="pawaedc">   -110.40633229 </i>
    <i name="eentropy">      0.10214516 </i>
    <i name="bandstr">    309.34816526 </i>
    <i name="atom">   1629.13144109 </i>
    <i name="e_fr_energy">    -98.16251707 </i>
    <i name="e_wo_entrp">    -98.26466223 </i>
    <i name="e_0_energy">    -98.19656546 </i>
   </energy>
  </scstep>
  <structure>
   <crystal>
    <varray name="basis" >
     <v>       8.08705200       0.00000000       0.00000000 </v>
     <v>       0.00000000       8.08705200       0.00000000 </v>
     <v>       0.00000000       0.00000000       8.08705200 </v>
    </varray>
    <i name="volume">    528.89651690 </i>
    <varray name="rec_basis" >
     <v>       0.12365445       0.00000000       0.00000000 </v>
     <v>       0.00000000       0.12365445       0.00000000 </v>
     <v>       0.00000000       0.00000000       0.12365445 </v>
    </varray>
   </crystal>
   <varray name="positions" >
    <v>      -0.00577833       0.00000000      -0.00577833 </v>
    <v>       0.25183562       0.00000000       0.25183562 </v>
    <v>       0.24894139       0.23965545      -0.01027853 </v>
    <v>      -0.01027853       0.23965545       0.24894139 </v>
    <v>       0.50337889       0.00000000      -0.00512925 </v>
    <v>       0.75357927       0.00000000       0.24773415 </v>
    <v>       0.75342313       0.24408143      -0.00518197 </v>
    <v>       0.51099583       0.22785995       0.24257191 </v>
    <v>      -0.01340628       0.50000000      -0.01340628 </v>
    <v>       0.24894139       0.76034455      -0.01027853 </v>
    <v>      -0.01027853       0.76034455       0.24894139 </v>
    <v>       0.51285638       0.50000000      -0.01158016 </v>
    <v>       0.75687339       0.50000000       0.23958468 </v>
    <v>       0.75342313       0.75591857      -0.00518197 </v>
    <v>       0.51099583       0.77214005       0.24257191 </v>
    <v>      -0.00512925       0.00000000       0.50337889 </v>
    <v>       0.24773415       0.00000000       0.75357927 </v>
    <v>       0.24257191       0.22785995       0.51099583 </v>
    <v>      -0.00518197       0.24408143       0.75342313 </v>
    <v>       0.50088069       0.00000000       0.50088069 </v>
    <v>       0.75167176       0.00000000       0.75167176 </v>
    <v>       0.75628872       0.24139267       0.50435292 </v>
    <v>       0.50435292       0.24139267       0.75628872 </v>
    <v>      -0.01158016       0.50000000       0.51285638 </v>
    <v>       0.23958468       0.50000000       0.75687339 </v>
    <v>       0.24257191       0.77214005       0.51099583 </v>
    <v>      -0.00518197       0.75591857       0.75342313 </v>
    <v>       0.75929181       0.50000000       0.75929181 </v>
    <v>       0.75628872       0.75860733       0.50435292 </v>
    <v>       0.50435292       0.75860733       0.75628872 </v>
    <v>       0.25598055       0.50000000       0.25598055 </v>
   </varray>
  </structure>
  <varray name="forces" >
   <v>      -0.02954515       0.00000000      -0.02954515 </v>
   <v>      -0.08284402       0.00000000      -0.08284402 </v>
   <v>      -0.04259475       0.05276203       0.10321559 </v>
   <v>       0.10321559       0.05276203      -0.04259475 </v>
   <v>      -0.02202635       0.00000000      -0.08040414 </v>
   <v>       0.15527247       0.00000000      -0.06990933 </v>
   <v>      -0.04348090      -0.05057078       0.06713948 </v>
   <v>      -0.01262789       0.11506239      -0.06529969 </v>
   <v>       0.25502086       0.00000000       0.25502086 </v>
   <v>      -0.04259475      -0.05276203       0.10321559 </v>
   <v>       0.10321559      -0.05276203      -0.04259475 </v>
   <v>       0.16594621       0.00000000       0.04374271 </v>
   <v>      -0.10310918       0.00000000      -0.03939752 </v>
   <v>      -0.04348090       0.05057078       0.06713948 </v>
   <v>      -0.01262789      -0.11506239      -0.06529969 </v>
   <v>      -0.08040414       0.00000000      -0.02202635 </v>
   <v>      -0.06990933       0.00000000       0.15527247 </v>
   <v>      -0.06529969       0.11506239      -0.01262789 </v>
   <v>       0.06713948      -0.05057078      -0.04348090 </v>
   <v>      -0.00224792       0.00000000      -0.00224792 </v>
   <v>       0.15721763       0.00000000       0.15721763 </v>
   <v>      -0.12126286       0.17173787       0.01724772 </v>
   <v>       0.01724772       0.17173787      -0.12126286 </v>
   <v>       0.04374271       0.00000000       0.16594621 </v>
   <v>      -0.03939752       0.00000000      -0.10310918 </v>
   <v>      -0.06529969      -0.11506239      -0.01262789 </v>
   <v>       0.06713948       0.05057078      -0.04348090 </v>
   <v>      -0.19895984       0.00000000      -0.19895984 </v>
   <v>      -0.12126286      -0.17173787       0.01724772 </v>
   <v>       0.01724772      -0.17173787      -0.12126286 </v>
   <v>       0.04657016       0.00000000       0.04657016 </v>
  </varray>
  <varray name="stress" >
   <v>      -7.10568580       0.00000000      -5.95491171 </v>
   <v>       0.00000000       6.34454309       0.00000000 </v>
   <v>      -5.95491171       0.00000000      -7.10568580 </v>
  </varray>
  <energy>
   <i name="e_fr_energy">    -98.16251707 </i>
   <i name="e_wo_entrp">    -98.19656546 </i>
   <i name="e_0_energy">      0.10214516 </i>
  </energy>
  <time name="totalsc">    6.34    6.35</time>
 </calculation>
 <calculation>
  <scstep>
   <time name="diag">    0.15    0.15</time>
   <time name="diis">    0.60    0.60</time>
   <time name="orth">    0.01    0.01</time>
   <time name="total">    1.05    1.05</time>
   <energy>
    <i name="alphaZ">     -7.38313139 </i>
    <i name="ewald">  -2142.03766443 </i>
    <i name="hartreedc">    -65.62746455 </i>
    <i name="XCdc">   -791.66656817 </i>
    <i name="pawpsdc">   1079.76281756 </i>
    <i name="pawaedc">   -110.38910335 </i>
    <i name="eentropy">      0.07349453 </i>
    <i name="bandstr">    309.93895688 </i>
    <i name="atom">   1629.13144109 </i>
    <i name="e_fr_energy">    -98.19722183 </i>
    <i name="e_wo_entrp">    -98.27071636 </i>
    <i name="e_0_energy">    -98.22172001 </i>
   </energy>
  </scstep>
  <scstep>
   <time name="diag">    0.15    0.15</time>
   <time name="diis">    0.59    0.59</time>
   <time name="orth">    0.01    0.01</time>
   <time name="total">    1.04    1.04</time>
   <energy>
    <i name="e_fr_energy">    -98.19103240 </i>
    <i name="e_wo_entrp">    -98.27240467 </i>
    <i name="e_0_energy">    -98.21815649 </i>
   </energy>
  </scstep>
  <scstep>
   <time name="diag">    0.15    0.15</time>
   <time name="diis">    0.59    0.59</time>
   <time name="orth">    0.01    0.01</time>
   <time name="total">    1.04    1.04</time>
   <energy>
    <i name="e_fr_energy">    -98.19042681 </i>
    <i name="e_wo_entrp">    -98.27264476 </i>
    <i name="e_0_energy">    -98.21783279 </i>
   </energy>
  </scstep>
  <scstep>
   <time name="diag">    0.15    0.15</time>
   <time name="diis">    0.47    0.47</time>
   <time name="orth">    0.01    0.01</time>
   <time name="total">    0.92    0.92</time>
   <energy>
    <i name="e_fr_energy">    -98.19030879 </i>
    <i name="e_wo_entrp">    -98.27260245 </i>
    <i name="e_0_energy">    -98.21774001 </i>
   </energy>
  </scstep>
  <scstep>
   <time name="diag">    0.15    0.15</time>
   <time name="diis">    0.40    0.40</time>
   <time name="orth">    0.01    0.01</time>
   <time name="total">    0.72    0.72</time>
   <energy>
    <i name="alphaZ">     -7.38313139 </i>
    <i name="ewald">  -2142.03766443 </i>
    <i name="hartreedc">    -65.39897504 </i>
    <i name="XCdc">   -791.67880876 </i>
    <i name="pawpsdc">   1079.55496416 </i>
    <i name="pawaedc">   -110.17174416 </i>
    <i name="eentropy">      0.08229251 </i>
    <i name="bandstr">    309.71132055 </i>
    <i name="atom">   1629.13144109 </i>
    <i name="e_fr_energy">    -98.19030547 </i>
    <i name="e_wo_entrp">    -98.27259798 </i>
    <i name="e_0_energy">    -98.21773631 </i>
   </energy>
  </scstep>
  <structure>
   <crystal>
    <varray name="basis" >
     <v>       8.08705200       0.00000000       0.00000000 </v>
     <v>       0.00000000       8.08705200       0.00000000 </v>
     <v>       0.00000000       0.00000000       8.08705200 </v>
    </varray>
    <i name="volume">    528.89651690 </i>
    <varray name="rec_basis" >
     <v>       0.12365445       0.00000000       0.00000000 </v>
     <v>       0.00000000       0.12365445       0.00000000 </v>
     <v>       0.00000000       0.00000000       0.12365445 </v>
    </varray>
   </crystal>
   <varray name="positions" >
    <v>      -0.00550517       0.00000000      -0.00550517 </v>
    <v>       0.25036691       0.00000000       0.25036691 </v>
    <v>       0.24822637       0.23980922      -0.00906726 </v>
    <v>      -0.00906726       0.23980922       0.24822637 </v>
    <v>       0.50384567       0.00000000      -0.00519780 </v>
    <v>       0.75436484       0.00000000       0.24670206 </v>
    <v>       0.75272186       0.24350694      -0.00466523 </v>
    <v>       0.51116622       0.22867504       0.24182073 </v>
    <v>      -0.01000328       0.50000000      -0.01000328 </v>
    <v>       0.24822637       0.76019078      -0.00906726 </v>
    <v>      -0.00906726       0.76019078       0.24822637 </v>
    <v>       0.51394326       0.50000000      -0.01140457 </v>
    <v>       0.75624698       0.50000000       0.23921095 </v>
    <v>       0.75272186       0.75649306      -0.00466523 </v>
    <v>       0.51116622       0.77132496       0.24182073 </v>
    <v>      -0.00519780       0.00000000       0.50384567 </v>
    <v>       0.24670206       0.00000000       0.75436484 </v>
    <v>       0.24182073       0.22867504       0.51116622 </v>
    <v>      -0.00466523       0.24350694       0.75272186 </v>
    <v>       0.50183367       0.00000000       0.50183367 </v>
    <v>       0.75216356       0.00000000       0.75216356 </v>
    <v>       0.75525029       0.24246332       0.50524525 </v>
    <v>       0.50524525       0.24246332       0.75525029 </v>
    <v>      -0.01140457       0.50000000       0.51394326 </v>
    <v>       0.23921095       0.50000000       0.75624698 </v>
    <v>       0.24182073       0.77132496       0.51116622 </v>
    <v>      -0.00466523       0.75649306       0.75272186 </v>
    <v>       0.75618595       0.50000000       0.75618595 </v>
    <v>       0.75525029       0.75753668       0.50524525 </v>
    <v>       0.50524525       0.75753668       0.75525029 </v>
    <v>       0.25585052       0.50000000       0.25585052 </v>
   </varray>
  </structure>
  <varray name="forces" >
   <v>      -0.07995619       0.00000000      -0.07995619 </v>
   <v>       0.07240629       0.00000000       0.07240629 </v>
   <v>       0.02933176       0.05944548      -0.00650346 </v>
   <v>      -0.00650346       0.05944548       0.02933176 </v>
   <v>      -0.10679852       0.00000000      -0.12009835 </v>
   <v>       0.13704676       0.00000000       0.04255055 </v>
   <v>       0.03858794       0.00355080       0.02741888 </v>
   <v>      -0.04399451       0.06743475       0.00801975 </v>
   <v>      -0.02016137       0.00000000      -0.02016137 </v>
   <v>       0.02933176      -0.05944548      -0.00650346 </v>
   <v>      -0.00650346      -0.05944548       0.02933176 </v>
   <v>       0.09968347       0.00000000       0.03965297 </v>
   <v>      -0.07179767       0.00000000      -0.00511285 </v>
   <v>       0.03858794      -0.00355080       0.02741888 </v>
   <v>      -0.04399451      -0.06743475       0.00801975 </v>
   <v>      -0.12009835       0.00000000      -0.10679852 </v>
   <v>       0.04255055       0.00000000       0.13704676 </v>
   <v>       0.00801975       0.06743475      -0.04399451 </v>
   <v>       0.02741888       0.00355080       0.03858794 </v>
   <v>      -0.13241894       0.00000000      -0.13241894 </v>
   <v>       0.17219414       0.00000000       0.17219414 </v>
   <v>      -0.04538581       0.11752618      -0.09715899 </v>
   <v>      -0.09715899       0.11752618      -0.04538581 </v>
   <v>       0.03965297       0.00000000       0.09968347 </v>
   <v>      -0.00511285       0.00000000      -0.07179767 </v>
   <v>       0.00801975      -0.06743475      -0.04399451 </v>
   <v>       0.02741888      -0.00355080       0.03858794 </v>
   <v>       0.05507744       0.00000000       0.05507744 </v>
   <v>      -0.04538581      -0.11752618      -0.09715899 </v>
   <v>      -0.09715899      -0.11752618      -0.04538581 </v>
   <v>       0.09710117       0.00000000       0.09710117 </v>
  </varray>
  <varray name="stress" >
   <v>      -9.17177165       0.00000000      -6.52893406 </v>
   <v>       0.00000000       6.94034542       0.00000000 </v>
   <v>      -6.52893406       0.00000000      -9.17177165 </v>
  </varray>
  <energy>
   <i name="e_fr_energy">    -98.19030547 </i>
   <i name="e_wo_entrp">    -98.21773631 </i>
   <i name="e_0_energy">      0.08229251 </i>
  </energy>
  <time name="totalsc">    6.02    6.07</time>
  <eigenvalues>
   <array>
    <dimension dim="1">band</dimension>
    <dimension dim="2">kpoint</dimension>
    <dimension dim="3">spin</dimension>
    <field>eigene</field>
    <field>occ</field>
    <set>
     <set comment="spin 1">
      <set comment="kpoint 1">
       <r>   -3.4546    1.0000 </r>
       <r>   -1.3646    1.0000 </r>
       <r>   -1.3605    1.0000 </r>
       <r>   -1.2905    1.0000 </r>
       <r>   -1.2500    1.0000 </r>
       <r>   -1.0475    1.0000 </r>
       <r>   -0.7339    1.0000 </r>
       <r>    0.7459    1.0000 </r>
       <r>    0.8183    1.0000 </r>
       <r>    0.8506    1.0000 </r>
       <r>    0.8609    1.0000 </r>
       <r>    0.9309    1.0000 </r>
       <r>    1.0395    1.0000 </r>
       <r>    1.0439    1.0000 </r>
       <r>    1.0645    1.0000 </r>
       <r>    1.2129    1.0000 </r>
       <r>    1.2425    1.0000 </r>
       <r>    1.6876    1.0000 </r>
       <r>    2.0768    1.0000 </r>
       <r>    3.0572    1.0000 </r>
       <r>    3.2070    1.0000 </r>
       <r>    3.2695    1.0000 </r>
       <r>    3.2718    1.0000 </r>
       <r>    3.3539    1.0000 </r>
       <r>    3.4272    1.0000 </r>
       <r>    3.8023    1.0000 </r>
       <r>    4.3720    1.0000 </r>
       <r>    4.7874    1.0000 </r>
       <r>    4.8509    1.0000 </r>
       <r>    4.8687    1.0000 </r>
       <r>    6.0301    1.0000 </r>
       <r>    6.2280    1.0000 </r>
       <r>    6.3849    1.0000 </r>
       <r>    6.6065    1.0000 </r>
       <r>    6.6135    1.0000 </r>
       <r>    6.7021    1.0000 </r>
       <r>    6.7604    1.0000 </r>
       <r>    6.7647    1.0000 </r>
       <r>    6.7808    1.0000 </r>
       <r>    6.9317    1.0000 </r>
       <r>    6.9741    1.0000 </r>
       <r>    7.1148    1.0001 </r>
       <r>    7.3049    1.0063 </r>
       <r>    7.3171    1.0077 </r>
       <r>    7.4358    1.0312 </r>
       <r>    7.5821    0.9546 </r>
       <r>    7.8530    0.0513 </r>
       <r>    7.8848    0.0031 </r>
       <r>    7.9529   -0.0349 </r>
       <r>    8.0804   -0.0142 </r>
       <r>    8.1447   -0.0052 </r>
       <r>    8.6672    0.0000 </r>
       <r>    8.6877    0.0000 </r>
       <r>    8.7034    0.0000 </r>
       <r>    8.7204    0.0000 </r>
       <r>    8.7323    0.0000 </r>
       <r>    8.8116    0.0000 </r>
       <r>    8.8485    0.0000 </r>
       <r>    8.9052    0.0000 </r>
       <r>    9.1087    0.0000 </r>
       <r>    9.1164    0.0000 </r>
       <r>    9.1577    0.0000 </r>
       <r>    9.2369    0.0000 </r>
       <r>    9.2718    0.0000 </r>
       <r>    9.5243    0.0000 </r>
       <r>    9.5616    0.0000 </r>
       <r>    9.5892    0.0000 </r>
       <r>    9.6449    0.0000 </r>
       <r>    9.7906    0.0000 </r>
       <r>   10.2818    0.0000 </r>
       <r>   10.2983    0.0000 </r>
       <r>   10.3105    0.0000 </r>
      </set>
     </set>
    </set>
   </array>
  </eigenvalues>
  <separator name="orbital magnetization" >
   <v name="MAGDIPOLOUT">      0.00000000      0.00000000      0.00000000</v>
  </separator>
  <dos>
   <i name="efermi">      7.71911661 </i>
   <total>
    <array>
     <dimension dim="1">gridpoints</dimension>
     <dimension dim="2">spin</dimension>
     <field>energy</field>
     <field>total</field>
     <field>integrated</field>
     <set>
      <set comment="spin 1">
       <r>  -5.4546   0.0000   0.0000 </r>
       <r>  -5.3954   0.0000   0.0000 </r>
       <r>  -5.3361   0.0000   0.0000 </r>
       <r>  -5.2769   0.0000   0.0000 </r>
       <r>  -5.2177   0.0000   0.0000 </r>
       <r>  -5.1585   0.0000   0.0000 </r>
       <r>  -5.0993   0.0000   0.0000 </r>
       <r>  -5.0401   0.0000   0.0000 </r>
       <r>  -4.9808   0.0000   0.0000 </r>
       <r>  -4.9216   0.0000   0.0000 </r>
       <r>  -4.8624   0.0000   0.0000 </r>
       <r>  -4.8032   0.0000   0.0000 </r>
       <r>  -4.7440   0.0000   0.0000 </r>
       <r>  -4.6848   0.0000   0.0000 </r>
       <r>  -4.6255   0.0000   0.0000 </r>
       <r>  -4.5663   0.0000   0.0000 </r>
       <r>  -4.5071   0.0000   0.0000 </r>
       <r>  -4.4479   0.0000   0.0000 </r>
       <r>  -4.3887   0.0000   0.0000 </r>
       <r>  -4.3295   0.0000   0.0000 </r>
       <r>  -4.2702   0.0000   0.0000 </r>
       <r>  -4.2110   0.0000   0.0000 </r>
       <r>  -4.1518  -0.0001   0.0000 </r>
       <r>  -4.0926  -0.0009  -0.0001 </r>
       <r>  -4.0334  -0.0046  -0.0003 </r>
       <r>  -3.9741  -0.0193  -0.0015 </r>
       <r>  -3.9149  -0.0656  -0.0054 </r>
       <r>  -3.8557  -0.1745  -0.0157 </r>
       <r>  -3.7965  -0.3473  -0.0363 </r>
       <r>  -3.7373  -0.4437  -0.0625 </r>
       <r>  -3.6781  -0.0725  -0.0668 </r>
       <r>  -3.6188   1.2869   0.0094 </r>
       <r>  -3.5596   3.7709   0.2327 </r>
       <r>  -3.5004   6.5941   0.6232 </r>
       <r>  -3.4412   8.2711   1.1129 </r>
       <r>  -3.3820   7.7485   1.5718 </r>
       <r>  -3.3228   5.3656   1.8895 </r>
       <r>  -3.2635   2.5352   2.0397 </r>
       <r>  -3.2043   0.5245   2.0707 </r>
       <r>  -3.1451  -0.3327   2.0510 </r>
       <r>  -3.0859  -0.4283   2.0256 </r>
       <r>  -3.0267  -0.2653   2.0099 </r>
       <r>  -2.9675  -0.1158   2.0031 </r>
       <r>  -2.9082  -0.0388   2.0008 </r>
       <r>  -2.8490  -0.0104   2.0002 </r>
       <r>  -2.7898  -0.0022   2.0000 </r>
       <r>  -2.7306  -0.0004   2.0000 </r>
       <r>  -2.6714  -0.0001   2.0000 </r>
       <r>  -2.6122   0.0000   2.0000 </r>
       <r>  -2.5529   0.0000   2.0000 </r>
       <r>  -2.4937   0.0000   2.0000 </r>
       <r>  -2.4345   0.0000   2.0000 </r>
       <r>  -2.3753   0.0000   2.0000 </r>
       <r>  -2.3161   0.0000   2.0000 </r>
       <r>  -2.2569   0.0000   2.0000 </r>
       <r>  -2.1976   0.0000   2.0000 </r>
       <r>  -2.1384   0.0000   2.0000 </r>
       <r>  -2.0792  -0.0002   2.0000 </r>
       <r>  -2.0200  -0.0010   1.9999 </r>
       <r>  -1.9608  -0.0059   1.9996 </r>
       <r>  -1.9016  -0.0272   1.9980 </r>
       <r>  -1.8423  -0.1024   1.9919 </r>
       <r>  -1.7831  -0.3094   1.9736 </r>
       <r>  -1.7239  -0.7318   1.9303 </r>
       <r>  -1.6647  -1.2708   1.8550 </r>
       <r>  -1.6055  -1.2896   1.7786 </r>
       <r>  -1.5462   0.5760   1.8127 </r>
       <r>  -1.4870   5.7919   2.1557 </r>
       <r>  -1.4278  14.3695   3.0066 </r>
       <r>  -1.3686  23.6855   4.4092 </r>
       <r>  -1.3094  29.5260   6.1577 </r>
       <r>  -1.2502  29.1867   7.8860 </r>
       <r>  -1.1909  23.7152   9.2904 </r>
       <r>  -1.1317  16.7703  10.2835 </r>
       <r>  -1.0725  11.3301  10.9544 </r>
       <r>  -1.0133   7.9045  11.4225 </r>
       <r>  -0.9541   5.7232  11.7614 </r>
       <r>  -0.8949   4.6165  12.0348 </r>
       <r>  -0.8356   5.0177  12.3319 </r>
       <r>  -0.7764   6.5860  12.7219 </r>
       <r>  -0.7172   7.7992  13.1837 </r>
       <r>  -0.6580   7.2524  13.6132 </r>
       <r>  -0.5988   4.9946  13.9090 </r>
       <r>  -0.5396   2.3112  14.0458 </r>
       <r>  -0.4803   0.4223  14.0708 </r>
       <r>  -0.4211  -0.3592  14.0496 </r>
       <r>  -0.3619  -0.4235  14.0245 </r>
       <r>  -0.3027  -0.2555  14.0094 </r>
       <r>  -0.2435  -0.1096  14.0029 </r>
       <r>  -0.1843  -0.0363  14.0007 </r>
       <r>  -0.1250  -0.0096  14.0001 </r>
       <r>  -0.0658  -0.0020  14.0000 </r>
       <r>  -0.0066  -0.0004  14.0000 </r>
       <r>   0.0526  -0.0002  14.0000 </r>
       <r>   0.1118  -0.0012  13.9999 </r>
       <r>   0.1710  -0.0062  13.9996 </r>
       <r>   0.2303  -0.0274  13.9979 </r>
       <r>   0.2895  -0.0998  13.9920 </r>
       <r>   0.3487  -0.2954  13.9745 </r>
       <r>   0.4079  -0.6970  13.9332 </r>
       <r>   0.4671  -1.2482  13.8593 </r>
       <r>   0.5263  -1.4510  13.7734 </r>
       <r>   0.5856  -0.1289  13.7658 </r>
       <r>   0.6448   4.2442  14.0171 </r>
       <r>   0.7040  12.3908  14.7508 </r>
       <r>   0.7632  23.0018  16.1129 </r>
       <r>   0.8224  32.9305  18.0630 </r>
       <r>   0.8816  39.2190  20.3854 </r>
       <r>   0.9409  41.0968  22.8191 </r>
       <r>   1.0001  39.8243  25.1773 </r>
       <r>   1.0593  36.9241  27.3639 </r>
       <r>   1.1185  33.0937  29.3236 </r>
       <r>   1.1777  28.4211  31.0066 </r>
       <r>   1.2370  22.7957  32.3565 </r>
       <r>   1.2962  16.2130  33.3166 </r>
       <r>   1.3554   9.3150  33.8682 </r>
       <r>   1.4146   3.5719  34.0797 </r>
       <r>   1.4738   0.5082  34.1098 </r>
       <r>   1.5330   0.6687  34.1494 </r>
       <r>   1.5923   3.2189  34.3400 </r>
       <r>   1.6515   6.2731  34.7115 </r>
       <r>   1.7107   7.8125  35.1741 </r>
       <r>   1.7699   6.9351  35.5848 </r>
       <r>   1.8291   4.5528  35.8544 </r>
       <r>   1.8883   2.7119  36.0150 </r>
       <r>   1.9476   2.9584  36.1902 </r>
       <r>   2.0068   5.1059  36.4925 </r>
       <r>   2.0660   7.4097  36.9313 </r>
       <r>   2.1252   8.0037  37.4052 </r>
       <r>   2.1844   6.3841  37.7833 </r>
       <r>   2.2436   3.6133  37.9973 </r>
       <r>   2.3029   1.1934  38.0679 </r>
       <r>   2.3621  -0.1081  38.0615 </r>
       <r>   2.4213  -0.4467  38.0351 </r>
       <r>   2.4805  -0.3444  38.0147 </r>
       <r>   2.5397  -0.1889  38.0035 </r>
       <r>   2.5989  -0.1333  37.9956 </r>
       <r>   2.6582  -0.2117  37.9831 </r>
       <r>   2.7174  -0.4132  37.9586 </r>
       <r>   2.7766  -0.6263  37.9215 </r>
       <r>   2.8358  -0.5316  37.8900 </r>
       <r>   2.8950   0.3624  37.9115 </r>
       <r>   2.9542   2.4652  38.0575 </r>
       <r>   3.0135   5.9075  38.4073 </r>
       <r>   3.0727  10.7067  39.0413 </r>
       <r>   3.1319  16.9211  40.0433 </r>
       <r>   3.1911  24.1139  41.4713 </r>
       <r>   3.2503  30.5618  43.2811 </r>
       <r>   3.3095  33.6309  45.2726 </r>
       <r>   3.3688  31.5216  47.1392 </r>
       <r>   3.4280  24.7021  48.6020 </r>
       <r>   3.4872  15.6763  49.5303 </r>
       <r>   3.5464   7.5683  49.9785 </r>
       <r>   3.6056   2.7230  50.1397 </r>
       <r>   3.6648   1.8800  50.2510 </r>
       <r>   3.7241   3.9768  50.4865 </r>
       <r>   3.7833   6.7070  50.8837 </r>
       <r>   3.8425   7.8399  51.3480 </r>
       <r>   3.9017   6.5809  51.7377 </r>
       <r>   3.9609   3.8314  51.9646 </r>
       <r>   4.0202   1.1450  52.0324 </r>
       <r>   4.0794  -0.4431  52.0061 </r>
       <r>   4.1386  -0.6292  51.9689 </r>
       <r>   4.1978   0.6054  52.0047 </r>
       <r>   4.2570   3.0861  52.1875 </r>
       <r>   4.3162   6.0081  52.5432 </r>
       <r>   4.3755   7.8749  53.0096 </r>
       <r>   4.4347   7.4313  53.4496 </r>
       <r>   4.4939   4.8467  53.7366 </r>
       <r>   4.5531   1.9183  53.8502 </r>
       <r>   4.6123   1.1160  53.9163 </r>
       <r>   4.6715   4.2062  54.1654 </r>
       <r>   4.7308  11.0032  54.8170 </r>
       <r>   4.7900  18.8010  55.9303 </r>
       <r>   4.8492  23.4755  57.3205 </r>
       <r>   4.9084  22.2598  58.6386 </r>
       <r>   4.9676  15.9347  59.5822 </r>
       <r>   5.0268   8.0888  60.0612 </r>
       <r>   5.0861   2.1731  60.1899 </r>
       <r>   5.1453  -0.6357  60.1523 </r>
       <r>   5.2045  -1.1800  60.0824 </r>
       <r>   5.2637  -0.8148  60.0341 </r>
       <r>   5.3229  -0.3858  60.0113 </r>
       <r>   5.3821  -0.1401  60.0030 </r>
       <r>   5.4414  -0.0436  60.0004 </r>
       <r>   5.5006  -0.0248  59.9990 </r>
       <r>   5.5598  -0.0564  59.9956 </r>
       <r>   5.6190  -0.1532  59.9865 </r>
       <r>   5.6782  -0.3267  59.9672 </r>
       <r>   5.7374  -0.4831  59.9386 </r>
       <r>   5.7967  -0.3036  59.9206 </r>
       <r>   5.8559   0.7042  59.9623 </r>
       <r>   5.9151   2.8196  60.1293 </r>
       <r>   5.9743   5.6504  60.4639 </r>
       <r>   6.0335   8.2444  60.9521 </r>
       <r>   6.0927   9.8900  61.5377 </r>
       <r>   6.1520  10.6988  62.1713 </r>
       <r>   6.2112  11.1942  62.8342 </r>
       <r>   6.2704  11.4921  63.5147 </r>
       <r>   6.3296  11.2342  64.1800 </r>
       <r>   6.3888  10.4238  64.7972 </r>
       <r>   6.4481  10.2009  65.4013 </r>
       <r>   6.5073  12.5259  66.1430 </r>
       <r>   6.5665  18.6567  67.2478 </r>
       <r>   6.6257  27.6061  68.8826 </r>
       <r>   6.6849  36.1415  71.0228 </r>
       <r>   6.7441  40.6560  73.4303 </r>
       <r>   6.8034  39.5772  75.7740 </r>
       <r>   6.8626  34.3136  77.8059 </r>
       <r>   6.9218  27.8186  79.4532 </r>
       <r>   6.9810  22.2115  80.7685 </r>
       <r>   7.0402  17.9450  81.8312 </r>
       <r>   7.0994  14.9527  82.7167 </r>
       <r>   7.1587  13.7584  83.5314 </r>
       <r>   7.2179  14.9824  84.4186 </r>
       <r>   7.2771  18.0319  85.4864 </r>
       <r>   7.3363  20.8896  86.7234 </r>
       <r>   7.3955  21.5726  88.0009 </r>
       <r>   7.4547  19.6522  89.1646 </r>
       <r>   7.5140  16.1229  90.1194 </r>
       <r>   7.5732  12.1791  90.8406 </r>
       <r>   7.6324   8.7701  91.3599 </r>
       <r>   7.6916   7.1582  91.7838 </r>
       <r>   7.7508   8.7859  92.3041 </r>
       <r>   7.8100  13.7913  93.1208 </r>
       <r>   7.8693  20.0519  94.3082 </r>
       <r>   7.9285  24.5546  95.7622 </r>
       <r>   7.9877  25.7987  97.2900 </r>
       <r>   8.0469  24.3624  98.7326 </r>
       <r>   8.1061  21.2962  99.9937 </r>
       <r>   8.1653  16.8893 100.9939 </r>
       <r>   8.2246  11.2580 101.6605 </r>
       <r>   8.2838   5.2698 101.9726 </r>
       <r>   8.3430   0.2558 101.9877 </r>
       <r>   8.4022  -2.6949 101.8282 </r>
       <r>   8.4614  -2.4838 101.6811 </r>
       <r>   8.5206   2.5598 101.8327 </r>
       <r>   8.5799  13.6906 102.6434 </r>
       <r>   8.6391  29.3130 104.3792 </r>
       <r>   8.6983  44.0521 106.9878 </r>
       <r>   8.7575  51.5626 110.0412 </r>
       <r>   8.8167  49.0117 112.9435 </r>
       <r>   8.8759  39.0210 115.2543 </r>
       <r>   8.9352  27.7335 116.8966 </r>
       <r>   8.9944  21.0909 118.1455 </r>
       <r>   9.0536  21.6051 119.4249 </r>
       <r>   9.1128  27.0371 121.0259 </r>
       <r>   9.1720  31.9896 122.9203 </r>
       <r>   9.2313  31.7788 124.8021 </r>
       <r>   9.2905  25.8202 126.3311 </r>
       <r>   9.3497  17.9875 127.3963 </r>
       <r>   9.4089  13.7536 128.2107 </r>
       <r>   9.4681  16.0773 129.1628 </r>
       <r>   9.5273  23.0271 130.5264 </r>
       <r>   9.5866  29.2922 132.2610 </r>
       <r>   9.6458  30.4859 134.0663 </r>
       <r>   9.7050  26.2072 135.6182 </r>
       <r>   9.7642  19.1799 136.7539 </r>
       <r>   9.8234  12.2091 137.4769 </r>
       <r>   9.8826   6.4775 137.8605 </r>
       <r>   9.9419   2.1030 137.9850 </r>
       <r>  10.0011  -0.6931 137.9440 </r>
       <r>  10.0603  -1.0840 137.8798 </r>
       <r>  10.1195   2.0619 138.0019 </r>
       <r>  10.1787   9.0272 138.5365 </r>
       <r>  10.2379  17.7644 139.5884 </r>
       <r>  10.2972  23.9964 141.0094 </r>
       <r>  10.3564  24.0238 142.4320 </r>
       <r>  10.4156  17.9075 143.4925 </r>
       <r>  10.4748   9.4059 144.0495 </r>
       <r>  10.5340   2.6702 144.2076 </r>
       <r>  10.5932  -0.6324 144.1701 </r>
       <r>  10.6525  -1.3137 144.0923 </r>
       <r>  10.7117  -0.9163 144.0381 </r>
       <r>  10.7709  -0.4322 144.0125 </r>
       <r>  10.8301  -0.1547 144.0033 </r>
       <r>  10.8893  -0.0438 144.0007 </r>
       <r>  10.9485  -0.0100 144.0001 </r>
       <r>  11.0078  -0.0019 144.0000 </r>
       <r>  11.0670  -0.0003 144.0000 </r>
       <r>  11.1262   0.0000 144.0000 </r>
       <r>  11.1854   0.0000 144.0000 </r>
       <r>  11.2446   0.0000 144.0000 </r>
       <r>  11.3038   0.0000 144.0000 </r>
       <r>  11.3631   0.0000 144.0000 </r>
       <r>  11.4223   0.0000 144.0000 </r>
       <r>  11.4815   0.0000 144.0000 </r>
       <r>  11.5407   0.0000 144.0000 </r>
       <r>  11.5999   0.0000 144.0000 </r>
       <r>  11.6592   0.0000 144.0000 </r>
       <r>  11.7184   0.0000 144.0000 </r>
       <r>  11.7776   0.0000 144.0000 </r>
       <r>  11.8368   0.0000 144.0000 </r>
       <r>  11.8960   0.0000 144.0000 </r>
       <r>  11.9552   0.0000 144.0000 </r>
       <r>  12.0145   0.0000 144.0000 </r>
       <r>  12.0737   0.0000 144.0000 </r>
       <r>  12.1329   0.0000 144.0000 </r>
       <r>  12.1921   0.0000 144.0000 </r>
       <r>  12.2513   0.0000 144.0000 </r>
       <r>  12.3105   0.0000 144.0000 </r>
      </set>
     </set>
    </array>
   </total>
  </dos>
 </calculation>
 <structure name="finalpos" >
  <crystal>
   <varray name="basis" >
    <v>       8.08705200       0.00000000       0.00000000 </v>
    <v>       0.00000000       8.08705200       0.00000000 </v>
    <v>       0.00000000       0.00000000       8.08705200 </v>
   </varray>
   <i name="volume">    528.89651690 </i>
   <varray name="rec_basis" >
    <v>       0.12365445       0.00000000       0.00000000 </v>
    <v>       0.00000000       0.12365445       0.00000000 </v>
    <v>       0.00000000       0.00000000       0.12365445 </v>
   </varray>
  </crystal>
  <varray name="positions" >
   <v>      -0.00550517       0.00000000      -0.00550517 </v>
   <v>       0.25036691       0.00000000       0.25036691 </v>
   <v>       0.24822637       0.23980922      -0.00906726 </v>
   <v>      -0.00906726       0.23980922       0.24822637 </v>
   <v>       0.50384567       0.00000000      -0.00519780 </v>
   <v>       0.75436484       0.00000000       0.24670206 </v>
   <v>       0.75272186       0.24350694      -0.00466523 </v>
   <v>       0.51116622       0.22867504       0.24182073 </v>
   <v>      -0.01000328       0.50000000      -0.01000328 </v>
   <v>       0.24822637       0.76019078      -0.00906726 </v>
   <v>      -0.00906726       0.76019078       0.24822637 </v>
   <v>       0.51394326       0.50000000      -0.01140457 </v>
   <v>       0.75624698       0.50000000       0.23921095 </v>
   <v>       0.75272186       0.75649306      -0.00466523 </v>
   <v>       0.51116622       0.77132496       0.24182073 </v>
   <v>      -0.00519780       0.00000000       0.50384567 </v>
   <v>       0.24670206       0.00000000       0.75436484 </v>
   <v>       0.24182073       0.22867504       0.51116622 </v>
   <v>      -0.00466523       0.24350694       0.75272186 </v>
   <v>       0.50183367       0.00000000       0.50183367 </v>
   <v>       0.75216356       0.00000000       0.75216356 </v>
   <v>       0.75525029       0.24246332       0.50524525 </v>
   <v>       0.50524525       0.24246332       0.75525029 </v>
   <v>      -0.01140457       0.50000000       0.51394326 </v>
   <v>       0.23921095       0.50000000       0.75624698 </v>
   <v>       0.24182073       0.77132496       0.51116622 </v>
   <v>      -0.00466523       0.75649306       0.75272186 </v>
   <v>       0.75618595       0.50000000       0.75618595 </v>
   <v>       0.75525029       0.75753668       0.50524525 </v>
   <v>       0.50524525       0.75753668       0.75525029 </v>
   <v>       0.25585052       0.50000000       0.25585052 </v>
  </varray>
 </structure>
</modeling>
