    3    3    1    1
  0.1429167E+02  0.3500000E-09  0.3500000E-09  0.3500000E-09  0.5000000E-15
  1.000000000000000E-004
  CAR 
 unknown system                          
    9    2    8
 
  0.2500000E+00  0.2500000E+00  0.2500000E+00  0.5000000E+00
   1       -0.624367
   2        5.072106
   3        5.220747
   4        5.283614
   5       10.502797
   6       10.778521
   7       11.422182
   8       15.881272
 
 -0.2500000E+00  0.2500000E+00  0.2500000E+00  0.5000000E+00
   1       -0.626842
   2        5.102852
   3        5.236842
   4        5.321720
   5       10.074707
   6       10.915569
   7       11.356266
   8       15.864432
