Processors received = 1
script running on host compute-0-2.local
PBS_NODEFILE
compute-0-2
 running on    1 nodes
 distr:  one band on    1 nodes,    1 groups
 vasp.5.2.2 15Apr09 complex 
 POSCAR found type information on POSCAR  Al
 POSCAR found :  1 types and    3 ions
 LDA part: xc-table for Ceperly-Alder, standard interpolation
 found WAVECAR, reading the header
 POSCAR, INCAR and KPOINTS ok, starting setup
 FFT: planning ...(           1 )
 reading WAVECAR
 the WAVECAR file was read sucessfully
 WARNING: chargedensity file is incomplete
 entering main loop
       N       E                     dE             d eps       ncg     rms          rms(c)
DAV:   1    -0.892545901502E+01   -0.89255E+01   -0.76384E-01    16   0.482E+00    0.211E+00
DAV:   2    -0.875632090109E+01    0.16914E+00   -0.23460E-01    16   0.274E+00    0.118E+00
DAV:   3    -0.870590193848E+01    0.50419E-01   -0.19039E-01    16   0.241E+00    0.286E-01
DAV:   4    -0.870561473638E+01    0.28720E-03   -0.64583E-03    16   0.649E-01    0.254E-02
DAV:   5    -0.870558899993E+01    0.25736E-04   -0.37564E-04    32   0.135E-01    0.129E-02
DAV:   6    -0.870557720973E+01    0.11790E-04   -0.10806E-05    16   0.304E-02    0.128E-03
DAV:   7    -0.870557713273E+01    0.77001E-07   -0.24904E-07    32   0.412E-03
   1 F= -.87055771E+01 E0= -.86780695E+01  d E =-.825229E-01
 Finite differences POTIM= 0.01000 DOF=   1
 bond charge predicted
       N       E                     dE             d eps       ncg     rms          rms(c)
DAV:   1    -0.870472192374E+01    0.85529E-03   -0.18313E-02    16   0.997E-01    0.442E-02
DAV:   2    -0.870463745222E+01    0.84472E-04   -0.68902E-04    32   0.202E-01    0.195E-02
DAV:   3    -0.870462122597E+01    0.16226E-04   -0.12209E-04    16   0.572E-02    0.484E-03
DAV:   4    -0.870462170772E+01   -0.48175E-06   -0.75440E-06    32   0.221E-02
   2 F= -.87046217E+01 E0= -.86771141E+01  d E =-.825228E-01
 Finite differences progress:
  Degree of freedom:   1/  1
  Displacement:        1/  2
  Total:               1/  2
 bond charge predicted
       N       E                     dE             d eps       ncg     rms          rms(c)
DAV:   1    -0.870502229257E+01   -0.40107E-03   -0.73402E-02    16   0.200E+00    0.884E-02
DAV:   2    -0.870468333671E+01    0.33896E-03   -0.27270E-03    16   0.403E-01    0.394E-02
DAV:   3    -0.870462119370E+01    0.62143E-04   -0.56799E-04    32   0.125E-01    0.969E-03
DAV:   4    -0.870462215555E+01   -0.96184E-06   -0.36007E-05    16   0.454E-02    0.520E-03
DAV:   5    -0.870462168423E+01    0.47132E-06   -0.33926E-06    32   0.110E-02
   3 F= -.87046217E+01 E0= -.86771141E+01  d E =-.825228E-01
 Finite differences progress:
  Degree of freedom:   1/  1
  Displacement:        2/  2
  Total:               2/  2
 Finite differences POTIM=  1.000000000000000E-002
