   33   33  191    1
  0.1602717E+02  0.8087052E-09  0.8087052E-09  0.8087052E-09  0.5000000E-15
  1.000000000000000E-004
  CAR 
 unknown system                          
   98    3   72
 
  0.2500000E+00  0.2500000E+00  0.2500000E+00  0.2500000E+00
   1       -2.669718
   2       -1.672848
   3       -1.661080
   4       -1.321371
   5       -0.569965
   6       -0.560054
   7       -0.112224
   8        0.604347
   9        0.619708
  10        0.700065
  11        0.953314
  12        1.602720
  13        1.605563
  14        1.672724
  15        1.945962
  16        1.973239
  17        2.161033
  18        2.827988
  19        2.953949
  20        2.958280
  21        3.853156
  22        3.854712
  23        3.906954
  24        4.028525
  25        4.042931
  26        4.254831
  27        4.758024
  28        4.765757
  29        4.823212
  30        5.034274
  31        5.097708
  32        5.114326
  33        5.190888
  34        5.236756
  35        5.333498
  36        5.980540
  37        5.994390
  38        6.437665
  39        6.960125
  40        6.983980
  41        7.017979
  42        7.206771
  43        7.272040
  44        7.291395
  45        7.448208
  46        7.959915
  47        7.964270
  48        8.060434
  49        8.254693
  50        8.352069
  51        8.362110
  52        8.484957
  53        8.521689
  54        8.631325
  55        9.208464
  56        9.227928
  57        9.447801
  58        9.623512
  59        9.670322
  60        9.745317
  61       10.128372
  62       10.134057
  63       10.211654
  64       10.359011
  65       10.380585
  66       10.470655
  67       10.479163
  68       10.591942
  69       10.973590
  70       11.134069
  71       11.145594
  72       11.517792
 
 -0.2500000E+00  0.2500000E+00  0.2500000E+00  0.5000000E+00
   1       -2.669468
   2       -1.670048
   3       -1.667398
   4       -1.317043
   5       -0.567492
   6       -0.564668
   7       -0.107113
   8        0.603487
   9        0.612685
  10        0.703336
  11        0.951130
  12        1.596912
  13        1.609755
  14        1.669130
  15        1.953397
  16        1.969227
  17        2.166963
  18        2.828138
  19        2.952966
  20        2.960983
  21        3.850708
  22        3.854925
  23        3.910340
  24        4.028454
  25        4.039507
  26        4.258550
  27        4.751323
  28        4.767961
  29        4.817412
  30        5.033794
  31        5.100387
  32        5.116367
  33        5.195965
  34        5.230313
  35        5.337558
  36        5.982025
  37        5.987576
  38        6.442828
  39        6.954700
  40        6.986502
  41        7.013036
  42        7.203920
  43        7.275387
  44        7.287211
  45        7.453198
  46        7.957521
  47        7.967253
  48        8.059951
  49        8.254333
  50        8.346674
  51        8.371309
  52        8.486735
  53        8.519779
  54        8.642051
  55        9.209792
  56        9.220912
  57        9.441018
  58        9.625806
  59        9.671742
  60        9.751047
  61       10.131160
  62       10.133212
  63       10.210105
  64       10.361973
  65       10.380519
  66       10.463341
  67       10.483961
  68       10.596835
  69       10.975664
  70       11.124786
  71       11.146881
  72       11.507550
 
 -0.2500000E+00 -0.2500000E+00  0.2500000E+00  0.2500000E+00
   1       -2.670032
   2       -1.670116
   3       -1.660963
   4       -1.323533
   5       -0.569846
   6       -0.560742
   7       -0.116415
   8        0.611967
   9        0.620737
  10        0.685864
  11        0.966671
  12        1.611876
  13        1.618254
  14        1.658849
  15        1.957241
  16        1.970447
  17        2.141271
  18        2.827391
  19        2.951873
  20        2.952120
  21        3.847391
  22        3.854016
  23        3.901628
  24        4.043154
  25        4.047273
  26        4.254123
  27        4.769006
  28        4.774243
  29        4.815931
  30        5.034826
  31        5.104880
  32        5.107636
  33        5.219625
  34        5.232120
  35        5.295232
  36        5.980277
  37        5.990642
  38        6.427442
  39        6.975079
  40        6.998140
  41        7.007767
  42        7.209908
  43        7.291225
  44        7.299170
  45        7.443600
  46        7.958164
  47        7.961294
  48        8.046401
  49        8.283959
  50        8.351442
  51        8.361147
  52        8.518998
  53        8.525347
  54        8.546241
  55        9.219325
  56        9.226235
  57        9.466854
  58        9.634888
  59        9.640178
  60        9.726856
  61       10.133667
  62       10.136411
  63       10.228444
  64       10.334334
  65       10.343891
  66       10.472237
  67       10.481779
  68       10.580778
  69       10.974025
  70       11.145890
  71       11.155150
  72       11.470373
