Automatically generated mesh
       3
Reciprocal lattice
    0.25000000000000    0.25000000000000    0.25000000000000             2
   -0.25000000000000    0.25000000000000    0.25000000000000             4
   -0.25000000000000   -0.25000000000000    0.25000000000000             2
