Processors received = 12
script running on host compute-1-26.local
PBS_NODEFILE
compute-1-26
compute-1-26
compute-1-26
compute-1-26
compute-1-26
compute-1-26
compute-1-26
compute-1-26
compute-1-26
compute-1-26
compute-1-26
compute-1-26
 running on   12 nodes
 distr:  one band on    1 nodes,   12 groups
 vasp.5.2.2 15Apr09 complex 
 POSCAR found type information on POSCAR  Al Pt Au Ag
 POSCAR found :  4 types and   32 ions

 ----------------------------------------------------------------------------- 
|                                                                             |
|  ADVICE TO THIS USER RUNNING 'VASP/VAMP'   (HEAR YOUR MASTER'S VOICE ...):  |
|                                                                             |
|      You have a (more or less) 'large supercell' and for larger cells       |
|      it might be more efficient to use real space projection operators      |
|      So try LREAL= Auto  in the INCAR   file.                               |
|      Mind: If you want to do a very accurate calculations keep the          |
|      reciprocal projection scheme          (i.e. LREAL=.FALSE.)             |
|                                                                             |
 ----------------------------------------------------------------------------- 

 LDA part: xc-table for Pade appr. of Perdew
 POSCAR, INCAR and KPOINTS ok, starting setup
 FFT: planning ...(           1 )
 reading WAVECAR
 entering main loop
       N       E                     dE             d eps       ncg     rms          rms(c)
RMM:   1     0.465926072001E+03    0.46593E+03   -0.22570E+04   336   0.627E+02
RMM:   2     0.393556286750E+02   -0.42657E+03   -0.41538E+03   336   0.143E+02
RMM:   3    -0.646955454128E+02   -0.10405E+03   -0.93738E+02   336   0.622E+01
RMM:   4    -0.100245239769E+03   -0.35550E+02   -0.26476E+02   336   0.535E+01
RMM:   5    -0.114739591742E+03   -0.14494E+02   -0.11366E+02   336   0.396E+01
RMM:   6    -0.121390887635E+03   -0.66513E+01   -0.58860E+01   336   0.277E+01
RMM:   7    -0.124906447681E+03   -0.35156E+01   -0.30501E+01   336   0.201E+01
RMM:   8    -0.126652815925E+03   -0.17464E+01   -0.16108E+01   336   0.139E+01
RMM:   9    -0.128461818405E+03   -0.18090E+01   -0.17218E+01   781   0.100E+01
RMM:  10    -0.128636385952E+03   -0.17457E+00   -0.13783E+00   766   0.134E+00
RMM:  11    -0.128648972915E+03   -0.12587E-01   -0.67467E-02   695   0.773E-01
RMM:  12    -0.128650581449E+03   -0.16085E-02   -0.14786E-02   622   0.125E-01    0.141E+01
RMM:  13    -0.125102919185E+03    0.35477E+01   -0.61536E+01   674   0.224E+01    0.629E+00
RMM:  14    -0.122929764683E+03    0.21732E+01   -0.30127E+00   672   0.625E+00    0.278E+00
RMM:  15    -0.122738158742E+03    0.19161E+00   -0.19160E+00   672   0.402E+00    0.181E+00
RMM:  16    -0.122620363213E+03    0.11780E+00   -0.12739E-01   672   0.115E+00    0.420E-01
RMM:  17    -0.122614820492E+03    0.55427E-02   -0.26765E-02   683   0.517E-01    0.938E-02
RMM:  18    -0.122615029473E+03   -0.20898E-03   -0.74541E-03   682   0.255E-01    0.110E-01
RMM:  19    -0.122614702676E+03    0.32680E-03   -0.21140E-03   646   0.147E-01    0.349E-02
RMM:  20    -0.122614636329E+03    0.66347E-04   -0.11195E-04   431   0.346E-02
   1 F= -.12261464E+03 E0= -.12260875E+03  d E =-.122615E+03
 curvature:   0.00 expect dE= 0.000E+00 dE for cont linesearch  0.000E+00
 trial: gam= 0.00000 g(F)=  0.480E+00 g(S)=  0.000E+00 ort = 0.000E+00 (trialstep = 0.100E+01)
 search vector abs. value=  0.480E+00
 bond charge predicted
       N       E                     dE             d eps       ncg     rms          rms(c)
RMM:   1    -0.123017915659E+03   -0.40321E+00   -0.39892E+00   672   0.524E+00    0.390E-01
RMM:   2    -0.123008453603E+03    0.94621E-02   -0.63195E-02   693   0.790E-01    0.177E-01
RMM:   3    -0.123007629865E+03    0.82374E-03   -0.79906E-03   674   0.302E-01    0.807E-02
RMM:   4    -0.123007584876E+03    0.44988E-04   -0.92793E-04   621   0.116E-01
   2 F= -.12300758E+03 E0= -.12300294E+03  d E =-.392949E+00
 trial-energy change:   -0.392949  1 .order   -0.393321   -0.479920   -0.306722
 step:   2.7709(harm=  2.7709)  dis= 0.09078  next Energy=  -123.279548 (dE=-0.665E+00)
 bond charge predicted
       N       E                     dE             d eps       ncg     rms          rms(c)
RMM:   1    -0.123330162276E+03   -0.32253E+00   -0.12362E+01   672   0.924E+00    0.697E-01
RMM:   2    -0.123298613169E+03    0.31549E-01   -0.19817E-01   692   0.134E+00    0.315E-01
RMM:   3    -0.123296347030E+03    0.22661E-02   -0.20524E-02   679   0.552E-01    0.151E-01
RMM:   4    -0.123296203284E+03    0.14375E-03   -0.29989E-03   681   0.173E-01    0.831E-02
RMM:   5    -0.123296178974E+03    0.24310E-04   -0.39754E-04   518   0.707E-02
   3 F= -.12329618E+03 E0= -.12329398E+03  d E =-.681543E+00
 curvature:  -1.39 expect dE=-0.460E-01 dE for cont linesearch -0.142E-02
 trial: gam= 0.02298 g(F)=  0.332E-01 g(S)=  0.000E+00 ort = 0.222E-01 (trialstep = 0.135E+01)
 search vector abs. value=  0.345E-01
 bond charge predicted
       N       E                     dE             d eps       ncg     rms          rms(c)
RMM:   1    -0.123327416063E+03   -0.31213E-01   -0.42855E+00   672   0.500E+00    0.213E-01
RMM:   2    -0.123333459981E+03   -0.60439E-02   -0.10463E-01   807   0.875E-01    0.232E-01
RMM:   3    -0.123332401691E+03    0.10583E-02   -0.51625E-03   708   0.239E-01    0.139E-01
RMM:   4    -0.123332064254E+03    0.33744E-03   -0.53129E-04   525   0.691E-02    0.918E-02
RMM:   5    -0.123331872448E+03    0.19181E-03   -0.73039E-04   569   0.754E-02    0.208E-02
RMM:   6    -0.123331869150E+03    0.32983E-05   -0.12898E-04   414   0.496E-02
   4 F= -.12333187E+03 E0= -.12332968E+03  d E =-.356902E-01
 trial-energy change:   -0.035690  1 .order   -0.036034   -0.045690   -0.026377
 step:   3.2037(harm=  3.2037)  dis= 0.03784  next Energy=  -123.350225 (dE=-0.540E-01)
 bond charge predicted
       N       E                     dE             d eps       ncg     rms          rms(c)
RMM:   1    -0.123343434233E+03   -0.11562E-01   -0.80140E+00   672   0.684E+00    0.338E-01
RMM:   2    -0.123351127748E+03   -0.76935E-02   -0.19995E-01   718   0.141E+00    0.340E-01
RMM:   3    -0.123349993850E+03    0.11339E-02   -0.29772E-02   713   0.416E-01    0.222E-01
RMM:   4    -0.123349250365E+03    0.74348E-03   -0.19775E-03   620   0.191E-01    0.149E-01
RMM:   5    -0.123348686388E+03    0.56398E-03   -0.19978E-03   664   0.120E-01    0.303E-02
RMM:   6    -0.123348685501E+03    0.88741E-06   -0.21278E-04   446   0.685E-02
   5 F= -.12334869E+03 E0= -.12334657E+03  d E =-.525065E-01
 curvature:  -1.64 expect dE=-0.142E-01 dE for cont linesearch -0.461E-06
 trial: gam= 0.27786 g(F)=  0.867E-02 g(S)=  0.000E+00 ort =-0.986E-04 (trialstep = 0.172E+01)
 search vector abs. value=  0.113E-01
 reached required accuracy - stopping structural energy minimisation
