  32  32   0   0
  0.1652794E+02  0.8087040E-09  0.8087040E-09  0.8087040E-09  0.5000000E-15
  1.000000000000000E-004
  CAR 
 unknown system                          
     13.50042765     -4.79389081  301      7.84536838      1.00000000
     -4.794  0.0000E+00  0.0000E+00
     -4.733  0.0000E+00  0.0000E+00
     -4.672  0.0000E+00  0.0000E+00
     -4.611  0.0000E+00  0.0000E+00
     -4.550  0.0000E+00  0.0000E+00
     -4.489  0.0000E+00  0.0000E+00
     -4.428 -0.3735E-29 -0.2278E-30
     -4.367 -0.4754E-27 -0.2922E-28
     -4.306 -0.5048E-25 -0.3107E-26
     -4.245 -0.4442E-23 -0.2740E-24
     -4.184 -0.3238E-21 -0.2002E-22
     -4.123 -0.1956E-19 -0.1213E-20
     -4.062 -0.9779E-18 -0.6085E-19
     -4.001 -0.4048E-16 -0.2529E-17
     -3.940 -0.1344E-14 -0.8448E-16
     -3.879 -0.3797E-13 -0.2400E-14
     -3.818 -0.8855E-12 -0.5640E-13
     -3.757 -0.1704E-10 -0.1096E-11
     -3.696 -0.2704E-09 -0.1758E-10
     -3.635 -0.3532E-08 -0.2330E-09
     -3.574 -0.3791E-07 -0.2545E-08
     -3.513 -0.3335E-06 -0.2288E-07
     -3.452 -0.2397E-05 -0.1690E-06
     -3.391 -0.1400E-04 -0.1023E-05
     -3.330 -0.6604E-04 -0.5050E-05
     -3.269 -0.2484E-03 -0.2020E-04
     -3.208 -0.7299E-03 -0.6471E-04
     -3.147 -0.1603E-02 -0.1625E-03
     -3.086 -0.2328E-02 -0.3044E-03
     -3.025 -0.9842E-03 -0.3644E-03
     -2.964  0.5401E-02 -0.3512E-04
     -2.903  0.1815E-01  0.1071E-02
     -2.842  0.3347E-01  0.3112E-02
     -2.782  0.4309E-01  0.5740E-02
     -2.721  0.4070E-01  0.8222E-02
     -2.660  0.2791E-01  0.9924E-02
     -2.599  0.1274E-01  0.1070E-01
     -2.538  0.2255E-02  0.1084E-01
     -2.477 -0.1915E-02  0.1072E-01
     -2.416 -0.2161E-02  0.1059E-01
     -2.355 -0.1248E-02  0.1051E-01
     -2.294 -0.5371E-03  0.1048E-01
     -2.233 -0.3112E-03  0.1046E-01
     -2.172 -0.6066E-03  0.1043E-01
     -2.111 -0.1640E-02  0.1033E-01
     -2.050 -0.3544E-02  0.1011E-01
     -1.989 -0.5206E-02  0.9791E-02
     -1.928 -0.2742E-02  0.9624E-02
     -1.867  0.1008E-01  0.1024E-01
     -1.806  0.3708E-01  0.1250E-01
     -1.745  0.7310E-01  0.1696E-01
     -1.684  0.1033E+00  0.2326E-01
     -1.623  0.1127E+00  0.3013E-01
     -1.562  0.9688E-01  0.3604E-01
     -1.501  0.6525E-01  0.4002E-01
     -1.440  0.3257E-01  0.4200E-01
     -1.379  0.9461E-02  0.4258E-01
     -1.318 -0.1634E-02  0.4248E-01
     -1.257 -0.4226E-02  0.4222E-01
     -1.196 -0.3188E-02  0.4203E-01
     -1.135 -0.1770E-02  0.4192E-01
     -1.074 -0.1277E-02  0.4184E-01
     -1.013 -0.2028E-02  0.4172E-01
     -0.952 -0.3767E-02  0.4149E-01
     -0.891 -0.4746E-02  0.4120E-01
     -0.830 -0.5444E-03  0.4117E-01
     -0.769  0.1445E-01  0.4205E-01
     -0.708  0.4142E-01  0.4457E-01
     -0.647  0.7219E-01  0.4898E-01
     -0.586  0.9294E-01  0.5464E-01
     -0.525  0.9530E-01  0.6046E-01
     -0.464  0.8220E-01  0.6547E-01
     -0.403  0.6218E-01  0.6926E-01
     -0.342  0.4142E-01  0.7179E-01
     -0.281  0.2278E-01  0.7317E-01
     -0.220  0.8522E-02  0.7369E-01
     -0.159  0.2448E-03  0.7371E-01
     -0.098 -0.2751E-02  0.7354E-01
     -0.037 -0.3129E-02  0.7335E-01
      0.024 -0.3593E-02  0.7313E-01
      0.085 -0.5302E-02  0.7281E-01
      0.146 -0.6584E-02  0.7241E-01
      0.207 -0.1863E-02  0.7229E-01
      0.268  0.1665E-01  0.7331E-01
      0.329  0.5207E-01  0.7648E-01
      0.389  0.9551E-01  0.8231E-01
      0.450  0.1283E+00  0.9013E-01
      0.511  0.1355E+00  0.9839E-01
      0.572  0.1170E+00  0.1055E+00
      0.633  0.8465E-01  0.1107E+00
      0.694  0.5119E-01  0.1138E+00
      0.755  0.2381E-01  0.1153E+00
      0.816  0.4950E-02  0.1156E+00
      0.877 -0.5519E-02  0.1152E+00
      0.938 -0.8343E-02  0.1147E+00
      0.999 -0.2711E-02  0.1146E+00
      1.060  0.1412E-01  0.1154E+00
      1.121  0.4352E-01  0.1181E+00
      1.182  0.8137E-01  0.1230E+00
      1.243  0.1178E+00  0.1302E+00
      1.304  0.1418E+00  0.1389E+00
      1.365  0.1473E+00  0.1478E+00
      1.426  0.1363E+00  0.1562E+00
      1.487  0.1167E+00  0.1633E+00
      1.548  0.9619E-01  0.1691E+00
      1.609  0.7848E-01  0.1739E+00
      1.670  0.6432E-01  0.1778E+00
      1.731  0.5507E-01  0.1812E+00
      1.792  0.5313E-01  0.1844E+00
      1.853  0.5938E-01  0.1881E+00
      1.914  0.7209E-01  0.1925E+00
      1.975  0.8903E-01  0.1979E+00
      2.036  0.1085E+00  0.2045E+00
      2.097  0.1272E+00  0.2123E+00
      2.158  0.1398E+00  0.2208E+00
      2.219  0.1419E+00  0.2294E+00
      2.280  0.1339E+00  0.2376E+00
      2.341  0.1200E+00  0.2449E+00
      2.402  0.1055E+00  0.2514E+00
      2.463  0.9401E-01  0.2571E+00
      2.524  0.8636E-01  0.2623E+00
      2.585  0.8011E-01  0.2672E+00
      2.646  0.7194E-01  0.2716E+00
      2.707  0.6178E-01  0.2754E+00
      2.768  0.5411E-01  0.2787E+00
      2.829  0.5348E-01  0.2820E+00
      2.890  0.5965E-01  0.2856E+00
      2.951  0.6862E-01  0.2898E+00
      3.012  0.7683E-01  0.2945E+00
      3.073  0.8182E-01  0.2994E+00
      3.134  0.8040E-01  0.3044E+00
      3.195  0.7096E-01  0.3087E+00
      3.256  0.5912E-01  0.3123E+00
      3.317  0.5638E-01  0.3157E+00
      3.378  0.6921E-01  0.3199E+00
      3.439  0.9022E-01  0.3254E+00
      3.500  0.1031E+00  0.3317E+00
      3.561  0.9679E-01  0.3376E+00
      3.621  0.7445E-01  0.3422E+00
      3.682  0.4990E-01  0.3452E+00
      3.743  0.3659E-01  0.3474E+00
      3.804  0.3961E-01  0.3499E+00
      3.865  0.5506E-01  0.3532E+00
      3.926  0.7434E-01  0.3578E+00
      3.987  0.8899E-01  0.3632E+00
      4.048  0.9438E-01  0.3689E+00
      4.109  0.9156E-01  0.3745E+00
      4.170  0.8601E-01  0.3798E+00
      4.231  0.8354E-01  0.3849E+00
      4.292  0.8601E-01  0.3901E+00
      4.353  0.8990E-01  0.3956E+00
      4.414  0.8964E-01  0.4011E+00
      4.475  0.8343E-01  0.4061E+00
      4.536  0.7507E-01  0.4107E+00
      4.597  0.6912E-01  0.4149E+00
      4.658  0.6518E-01  0.4189E+00
      4.719  0.5855E-01  0.4225E+00
      4.780  0.4664E-01  0.4253E+00
      4.841  0.3390E-01  0.4274E+00
      4.902  0.2989E-01  0.4292E+00
      4.963  0.4128E-01  0.4317E+00
      5.024  0.6509E-01  0.4357E+00
      5.085  0.9065E-01  0.4412E+00
      5.146  0.1088E+00  0.4479E+00
      5.207  0.1177E+00  0.4550E+00
      5.268  0.1208E+00  0.4624E+00
      5.329  0.1206E+00  0.4698E+00
      5.390  0.1175E+00  0.4769E+00
      5.451  0.1112E+00  0.4837E+00
      5.512  0.1019E+00  0.4899E+00
      5.573  0.9145E-01  0.4955E+00
      5.634  0.8392E-01  0.5006E+00
      5.695  0.8207E-01  0.5056E+00
      5.756  0.8342E-01  0.5107E+00
      5.817  0.8044E-01  0.5156E+00
      5.878  0.6687E-01  0.5197E+00
      5.939  0.4399E-01  0.5224E+00
      6.000  0.1997E-01  0.5236E+00
      6.061  0.3599E-02  0.5238E+00
      6.122 -0.8032E-03  0.5238E+00
      6.183  0.5970E-02  0.5241E+00
      6.244  0.1974E-01  0.5253E+00
      6.305  0.3497E-01  0.5275E+00
      6.366  0.4721E-01  0.5303E+00
      6.427  0.5466E-01  0.5337E+00
      6.488  0.5709E-01  0.5371E+00
      6.549  0.5399E-01  0.5404E+00
      6.610  0.4554E-01  0.5432E+00
      6.671  0.3479E-01  0.5453E+00
      6.732  0.2684E-01  0.5470E+00
      6.793  0.2450E-01  0.5485E+00
      6.853  0.2576E-01  0.5500E+00
      6.914  0.2726E-01  0.5517E+00
      6.975  0.2990E-01  0.5535E+00
      7.036  0.3889E-01  0.5559E+00
      7.097  0.5702E-01  0.5594E+00
      7.158  0.7998E-01  0.5642E+00
      7.219  0.9986E-01  0.5703E+00
      7.280  0.1116E+00  0.5771E+00
      7.341  0.1142E+00  0.5841E+00
      7.402  0.1097E+00  0.5908E+00
      7.463  0.1015E+00  0.5970E+00
      7.524  0.9342E-01  0.6027E+00
      7.585  0.8541E-01  0.6079E+00
      7.646  0.7498E-01  0.6125E+00
      7.707  0.6244E-01  0.6163E+00
      7.768  0.5231E-01  0.6195E+00
      7.829  0.4686E-01  0.6223E+00
      7.890  0.4178E-01  0.6249E+00
      7.951  0.3137E-01  0.6268E+00
      8.012  0.1606E-01  0.6278E+00
      8.073  0.3106E-02  0.6280E+00
      8.134  0.1132E-02  0.6280E+00
      8.195  0.1460E-01  0.6289E+00
      8.256  0.4022E-01  0.6314E+00
      8.317  0.6711E-01  0.6355E+00
      8.378  0.8408E-01  0.6406E+00
      8.439  0.9027E-01  0.6461E+00
      8.500  0.9630E-01  0.6520E+00
      8.561  0.1120E+00  0.6588E+00
      8.622  0.1345E+00  0.6670E+00
      8.683  0.1520E+00  0.6763E+00
      8.744  0.1560E+00  0.6858E+00
      8.805  0.1481E+00  0.6948E+00
      8.866  0.1341E+00  0.7030E+00
      8.927  0.1162E+00  0.7101E+00
      8.988  0.9298E-01  0.7157E+00
      9.049  0.6461E-01  0.7197E+00
      9.110  0.3563E-01  0.7218E+00
      9.171  0.1223E-01  0.7226E+00
      9.232 -0.1123E-02  0.7225E+00
      9.293 -0.2237E-02  0.7224E+00
      9.354  0.9334E-02  0.7230E+00
      9.415  0.3107E-01  0.7249E+00
      9.476  0.5611E-01  0.7283E+00
      9.537  0.7601E-01  0.7329E+00
      9.598  0.8633E-01  0.7382E+00
      9.659  0.8859E-01  0.7436E+00
      9.720  0.8672E-01  0.7489E+00
      9.781  0.8351E-01  0.7540E+00
      9.842  0.8098E-01  0.7589E+00
      9.903  0.8127E-01  0.7638E+00
      9.964  0.8426E-01  0.7690E+00
     10.025  0.8517E-01  0.7742E+00
     10.085  0.7787E-01  0.7789E+00
     10.146  0.6264E-01  0.7827E+00
     10.207  0.4897E-01  0.7857E+00
     10.268  0.4854E-01  0.7887E+00
     10.329  0.6452E-01  0.7926E+00
     10.390  0.8770E-01  0.7980E+00
     10.451  0.1029E+00  0.8043E+00
     10.512  0.1013E+00  0.8104E+00
     10.573  0.8748E-01  0.8158E+00
     10.634  0.7462E-01  0.8203E+00
     10.695  0.7159E-01  0.8247E+00
     10.756  0.7686E-01  0.8294E+00
     10.817  0.8304E-01  0.8344E+00
     10.878  0.8409E-01  0.8396E+00
     10.939  0.7870E-01  0.8444E+00
     11.000  0.7008E-01  0.8486E+00
     11.061  0.6347E-01  0.8525E+00
     11.122  0.6208E-01  0.8563E+00
     11.183  0.6461E-01  0.8602E+00
     11.244  0.6662E-01  0.8643E+00
     11.305  0.6433E-01  0.8682E+00
     11.366  0.5734E-01  0.8717E+00
     11.427  0.4779E-01  0.8746E+00
     11.488  0.3742E-01  0.8769E+00
     11.549  0.2644E-01  0.8785E+00
     11.610  0.1535E-01  0.8795E+00
     11.671  0.6079E-02  0.8798E+00
     11.732  0.4327E-03  0.8799E+00
     11.793 -0.1598E-02  0.8798E+00
     11.854 -0.1520E-02  0.8797E+00
     11.915 -0.8575E-03  0.8796E+00
     11.976 -0.3527E-03  0.8796E+00
     12.037 -0.1123E-03  0.8796E+00
     12.098 -0.2840E-04  0.8796E+00
     12.159 -0.5788E-05  0.8796E+00
     12.220 -0.9583E-06  0.8796E+00
     12.281 -0.1296E-06  0.8796E+00
     12.342 -0.1437E-07  0.8796E+00
     12.403 -0.1309E-08  0.8796E+00
     12.464 -0.9823E-10  0.8796E+00
     12.525 -0.6080E-11  0.8796E+00
     12.586 -0.3107E-12  0.8796E+00
     12.647 -0.1313E-13  0.8796E+00
     12.708 -0.4575E-15  0.8796E+00
     12.769 -0.9532E-17  0.8796E+00
     12.830  0.0000E+00  0.8796E+00
     12.891  0.0000E+00  0.8796E+00
     12.952  0.0000E+00  0.8796E+00
     13.013  0.0000E+00  0.8796E+00
     13.074  0.0000E+00  0.8796E+00
     13.135  0.0000E+00  0.8796E+00
     13.196  0.0000E+00  0.8796E+00
     13.257  0.0000E+00  0.8796E+00
     13.317  0.0000E+00  0.8796E+00
     13.378  0.0000E+00  0.8796E+00
     13.439  0.0000E+00  0.8796E+00
     13.500  0.0000E+00  0.8796E+00
