   32   32  191    1
  0.1652794E+02  0.8087040E-09  0.8087040E-09  0.8087040E-09  0.5000000E-15
  1.000000000000000E-004
  CAR 
 unknown system                          
  119    4   84
 
  0.2500000E+00  0.2500000E+00  0.2500000E+00  0.2500000E+00
   1       -2.793655
   2       -1.706877
   3       -1.679199
   4       -1.579688
   5       -0.622786
   6       -0.593980
   7       -0.425004
   8        0.408658
   9        0.429497
  10        0.462009
  11        0.629336
  12        1.161810
  13        1.198664
  14        1.309532
  15        1.389717
  16        1.510986
  17        1.543550
  18        1.867096
  19        1.946491
  20        2.062251
  21        2.121871
  22        2.229213
  23        2.266859
  24        2.373194
  25        2.477031
  26        2.571091
  27        2.655666
  28        2.932748
  29        3.110635
  30        3.156816
  31        3.378666
  32        3.459623
  33        3.582728
  34        3.801071
  35        3.943183
  36        4.033412
  37        4.177658
  38        4.347751
  39        4.428536
  40        4.597388
  41        4.726558
  42        5.046743
  43        5.095172
  44        5.201571
  45        5.319916
  46        5.381872
  47        5.492037
  48        5.561671
  49        5.760732
  50        5.866663
  51        6.300788
  52        6.559386
  53        6.863897
  54        7.124932
  55        7.169959
  56        7.310135
  57        7.388000
  58        7.578142
  59        7.635049
  60        7.868429
  61        8.308121
  62        8.395833
  63        8.548230
  64        8.631699
  65        8.687701
  66        8.747584
  67        8.859286
  68        8.916127
  69        8.972622
  70        9.479585
  71        9.534389
  72        9.716909
  73        9.811493
  74       10.047524
  75       10.071197
  76       10.308489
  77       10.456504
  78       10.469347
  79       10.667960
  80       10.864080
  81       10.891377
  82       11.027441
  83       11.259717
  84       11.299118
 
 -0.2500000E+00  0.2500000E+00  0.2500000E+00  0.2500000E+00
   1       -2.791179
   2       -1.724026
   3       -1.689556
   4       -1.561236
   5       -0.629207
   6       -0.593864
   7       -0.440940
   8        0.422717
   9        0.452125
  10        0.511668
  11        0.645956
  12        1.270822
  13        1.299767
  14        1.328561
  15        1.347288
  16        1.460559
  17        1.625543
  18        1.668465
  19        1.832140
  20        2.019128
  21        2.080867
  22        2.193506
  23        2.217068
  24        2.322229
  25        2.363021
  26        2.590595
  27        2.788051
  28        2.922818
  29        3.089625
  30        3.182451
  31        3.400766
  32        3.503099
  33        3.511005
  34        3.902706
  35        3.987344
  36        4.113044
  37        4.251185
  38        4.342669
  39        4.522170
  40        4.631558
  41        4.747408
  42        5.044861
  43        5.098254
  44        5.220323
  45        5.281208
  46        5.362484
  47        5.458685
  48        5.595753
  49        5.723235
  50        5.841153
  51        6.418212
  52        6.464918
  53        6.674052
  54        7.221289
  55        7.278752
  56        7.345666
  57        7.404882
  58        7.487979
  59        7.551683
  60        7.843542
  61        8.329537
  62        8.369137
  63        8.577966
  64        8.618393
  65        8.630572
  66        8.677004
  67        8.792357
  68        8.808536
  69        8.834921
  70        9.625706
  71        9.673059
  72        9.769080
  73        9.900826
  74        9.941198
  75        9.964719
  76       10.261076
  77       10.442746
  78       10.460595
  79       10.689103
  80       10.742250
  81       10.768888
  82       11.120801
  83       11.274499
  84       11.500428
 
  0.2500000E+00 -0.2500000E+00  0.2500000E+00  0.2500000E+00
   1       -2.792976
   2       -1.722767
   3       -1.683862
   4       -1.559860
   5       -0.626076
   6       -0.617845
   7       -0.380344
   8        0.406582
   9        0.414822
  10        0.480113
  11        0.608432
  12        1.167451
  13        1.228523
  14        1.300222
  15        1.360770
  16        1.474453
  17        1.581838
  18        1.882692
  19        1.953675
  20        2.054715
  21        2.121792
  22        2.201734
  23        2.281981
  24        2.360344
  25        2.462885
  26        2.589747
  27        2.614606
  28        2.922296
  29        3.067510
  30        3.180073
  31        3.438907
  32        3.493654
  33        3.562903
  34        3.767255
  35        3.982297
  36        4.077072
  37        4.191896
  38        4.298819
  39        4.423713
  40        4.613392
  41        4.808918
  42        5.025890
  43        5.088916
  44        5.250217
  45        5.273277
  46        5.406509
  47        5.441466
  48        5.568717
  49        5.739122
  50        5.853173
  51        6.286430
  52        6.528126
  53        6.846676
  54        7.119228
  55        7.164238
  56        7.360757
  57        7.382526
  58        7.545803
  59        7.654909
  60        7.848668
  61        8.318819
  62        8.361718
  63        8.529807
  64        8.623312
  65        8.675895
  66        8.724216
  67        8.857988
  68        8.930893
  69        9.067595
  70        9.486207
  71        9.531610
  72        9.698128
  73        9.849661
  74       10.014341
  75       10.055058
  76       10.352641
  77       10.466475
  78       10.478694
  79       10.698528
  80       10.829150
  81       10.923531
  82       11.115167
  83       11.192344
  84       11.478594
 
 -0.2500000E+00 -0.2500000E+00  0.2500000E+00  0.2500000E+00
   1       -2.793891
   2       -1.704304
   3       -1.676380
   4       -1.586871
   5       -0.619324
   6       -0.592207
   7       -0.423631
   8        0.403237
   9        0.418080
  10        0.492566
  11        0.606956
  12        1.163701
  13        1.230543
  14        1.346728
  15        1.383109
  16        1.466910
  17        1.633293
  18        1.733306
  19        1.882024
  20        2.080844
  21        2.109361
  22        2.160436
  23        2.220482
  24        2.387906
  25        2.478494
  26        2.681822
  27        2.841974
  28        2.902190
  29        3.036580
  30        3.159404
  31        3.411581
  32        3.461045
  33        3.601066
  34        3.870371
  35        3.964010
  36        4.046560
  37        4.172035
  38        4.354062
  39        4.388518
  40        4.447632
  41        4.671978
  42        5.028993
  43        5.117935
  44        5.234755
  45        5.265090
  46        5.420125
  47        5.507793
  48        5.625818
  49        5.746237
  50        5.807789
  51        6.330116
  52        6.539818
  53        6.921484
  54        7.145500
  55        7.158106
  56        7.292681
  57        7.363548
  58        7.577438
  59        7.632871
  60        7.874007
  61        8.315055
  62        8.371091
  63        8.529827
  64        8.636852
  65        8.688600
  66        8.757608
  67        8.895147
  68        8.952051
  69        8.997752
  70        9.458889
  71        9.520582
  72        9.656103
  73        9.799395
  74       10.062971
  75       10.092969
  76       10.343928
  77       10.451891
  78       10.470158
  79       10.656459
  80       10.881206
  81       10.916872
  82       11.067855
  83       11.261322
  84       11.407825
