 vasp.5.2.2 15Apr09 complex 
 executed on             LinuxIFC date 2017.01.11  13:36:47
 running on   12 nodes
 distr:  one band on    1 nodes,   12 groups


--------------------------------------------------------------------------------------------------------


 INCAR:
 POTCAR:   PAW_PBE Al 04Jan2001                   
 POTCAR:   PAW_PBE Pt 05Jan2001                   
 POTCAR:   PAW_PBE Au 06Sep2000                   
 POTCAR:   PAW_PBE Ag 06Sep2000                   
 POTCAR:   PAW_PBE Al 04Jan2001                   
   VRHFIN =Al: s2p1                                                             
   LEXCH  = PE                                                                  
   EATOM  =    53.5387 eV,    3.9350 Ry                                         
                                                                                
   TITEL  = PAW_PBE Al 04Jan2001                                                
   LULTRA =        F    use ultrasoft PP ?                                      
   IUNSCR =        1    unscreen: 0-lin 1-nonlin 2-no                           
   RPACOR =    1.500    partial core radius                                     
   POMASS =   26.982; ZVAL   =    3.000    mass and valenz                      
   RCORE  =    1.900    outmost cutoff radius                                   
   RWIGS  =    2.650; RWIGS  =    1.402    wigner-seitz radius (au A)           
   ENMAX  =  240.300; ENMIN  =  180.225 eV                                      
   ICORE  =        2    local potential                                         
   LCOR   =        T    correct aug charges                                     
   LPAW   =        T    paw PP                                                  
   EAUG   =  291.052                                                            
   DEXC   =    -.041                                                            
   RMAX   =    2.974    core radius for proj-oper                               
   RAUG   =    1.300    factor for augmentation sphere                          
   RDEP   =    1.966    radius for radial grids                                 
   QCUT   =   -4.203; QGAM   =    8.405    optimization parameters              
                                                                                
   Description                                                                  
     l     E      TYP  RCUT    TYP  RCUT                                        
     0   .000     23  1.900                                                     
     0   .000     23  1.900                                                     
     1   .000     23  1.900                                                     
     1  1.000     23  1.900                                                     
     2   .000      7  1.900                                                     
  local pseudopotential read in
  partial core-charges read in
  atomic valenz-charges read in
  non local Contribution for L=           0  read in
    real space projection operators read in
  non local Contribution for L=           0  read in
    real space projection operators read in
  non local Contribution for L=           1  read in
    real space projection operators read in
  non local Contribution for L=           1  read in
    real space projection operators read in
    PAW grid and wavefunctions read in
 
   number of l-projection  operators is LMAX  =           4
   number of lm-projection operators is LMMAX =           8
 
 POTCAR:   PAW_PBE Pt 05Jan2001                   
   VRHFIN =Pt: s1d9                                                             
   LEXCH  = PE                                                                  
   EATOM  =   729.1171 eV,   53.5886 Ry                                         
                                                                                
   TITEL  = PAW_PBE Pt 05Jan2001                                                
   LULTRA =        F    use ultrasoft PP ?                                      
   IUNSCR =        1    unscreen: 0-lin 1-nonlin 2-no                           
   RPACOR =    2.330    partial core radius                                     
   POMASS =  195.080; ZVAL   =   10.000    mass and valenz                      
   RCORE  =    2.500    outmost cutoff radius                                   
   RWIGS  =    2.750; RWIGS  =    1.455    wigner-seitz radius (au A)           
   ENMAX  =  230.283; ENMIN  =  172.712 eV                                      
   RCLOC  =    1.896    cutoff for local pot                                    
   LCOR   =        T    correct aug charges                                     
   LPAW   =        T    paw PP                                                  
   EAUG   =  358.966                                                            
   DEXC   =    -.039                                                            
   RMAX   =    3.038    core radius for proj-oper                               
   RAUG   =    1.300    factor for augmentation sphere                          
   RDEP   =    2.590    radius for radial grids                                 
   QCUT   =   -4.114; QGAM   =    8.228    optimization parameters              
                                                                                
   Description                                                                  
     l     E      TYP  RCUT    TYP  RCUT                                        
     2   .000     23  2.500                                                     
     2   .000     23  2.500                                                     
     0   .000     23  2.500                                                     
     0   .000     23  2.500                                                     
     1  -.200     23  2.500                                                     
     1  1.500     23  2.500                                                     
     3   .000      7   .000                                                     
  local pseudopotential read in
  partial core-charges read in
  atomic valenz-charges read in
  non local Contribution for L=           2  read in
    real space projection operators read in
  non local Contribution for L=           2  read in
    real space projection operators read in
  non local Contribution for L=           0  read in
    real space projection operators read in
  non local Contribution for L=           0  read in
    real space projection operators read in
  non local Contribution for L=           1  read in
    real space projection operators read in
  non local Contribution for L=           1  read in
    real space projection operators read in
    PAW grid and wavefunctions read in
 
   number of l-projection  operators is LMAX  =           6
   number of lm-projection operators is LMMAX =          18
 
 POTCAR:   PAW_PBE Au 06Sep2000                   
   VRHFIN =Au: s1d10                                                            
   LEXCH  = PE                                                                  
   EATOM  =   926.0567 eV,   68.0632 Ry                                         
                                                                                
   TITEL  = PAW_PBE Au 06Sep2000                                                
   LULTRA =        F    use ultrasoft PP ?                                      
   IUNSCR =        1    unscreen: 0-lin 1-nonlin 2-no                           
   RPACOR =    2.330    partial core radius                                     
   POMASS =  196.966; ZVAL   =   11.000    mass and valenz                      
   RCORE  =    2.500    outmost cutoff radius                                   
   RWIGS  =    2.840; RWIGS  =    1.503    wigner-seitz radius (au A)           
   ENMAX  =  229.948; ENMIN  =  172.461 eV                                      
   RCLOC  =    1.964    cutoff for local pot                                    
   LCOR   =        T    correct aug charges                                     
   LPAW   =        T    paw PP                                                  
   EAUG   =  356.670                                                            
   DEXC   =    -.025                                                            
   RMAX   =    3.041    core radius for proj-oper                               
   RAUG   =    1.300    factor for augmentation sphere                          
   RDEP   =    2.598    radius for radial grids                                 
   QCUT   =   -4.111; QGAM   =    8.222    optimization parameters              
                                                                                
   Description                                                                  
     l     E      TYP  RCUT    TYP  RCUT                                        
     2   .000     23  2.500                                                     
     2   .000     23  2.500                                                     
     0   .000     23  2.500                                                     
     0   .000     23  2.500                                                     
     1  -.200     23  2.500                                                     
     1   .000     23  2.500                                                     
     3   .000      7   .000                                                     
  local pseudopotential read in
  partial core-charges read in
  atomic valenz-charges read in
  non local Contribution for L=           2  read in
    real space projection operators read in
  non local Contribution for L=           2  read in
    real space projection operators read in
  non local Contribution for L=           0  read in
    real space projection operators read in
  non local Contribution for L=           0  read in
    real space projection operators read in
  non local Contribution for L=           1  read in
    real space projection operators read in
  non local Contribution for L=           1  read in
    real space projection operators read in
    PAW grid and wavefunctions read in
 
   number of l-projection  operators is LMAX  =           6
   number of lm-projection operators is LMMAX =          18
 
 POTCAR:   PAW_PBE Ag 06Sep2000                   
   VRHFIN =Ag : s1 d10                                                          
   LEXCH  = PE                                                                  
   EATOM  =  1037.4134 eV,   76.2477 Ry                                         
                                                                                
   TITEL  = PAW_PBE Ag 06Sep2000                                                
   LULTRA =        F    use ultrasoft PP ?                                      
   IUNSCR =        1    unscreen: 0-lin 1-nonlin 2-no                           
   RPACOR =    2.000    partial core radius                                     
   POMASS =  107.868; ZVAL   =   11.000    mass and valenz                      
   RCORE  =    2.400    outmost cutoff radius                                   
   RWIGS  =    2.840; RWIGS  =    1.503    wigner-seitz radius (au A)           
   ENMAX  =  249.846; ENMIN  =  187.385 eV                                      
   RCLOC  =    1.962    cutoff for local pot                                    
   LCOR   =        T    correct aug charges                                     
   LPAW   =        T    paw PP                                                  
   EAUG   =  412.496                                                            
   DEXC   =    -.047                                                            
   RMAX   =    2.917    core radius for proj-oper                               
   RAUG   =    1.300    factor for augmentation sphere                          
   RDEP   =    2.416    radius for radial grids                                 
   QCUT   =   -4.285; QGAM   =    8.570    optimization parameters              
                                                                                
   Description                                                                  
     l     E      TYP  RCUT    TYP  RCUT                                        
     2   .000     23  2.400                                                     
     2   .000     23  2.400                                                     
     0   .000     23  2.400                                                     
     0   .000     23  2.400                                                     
     1  -.200     23  2.400                                                     
     1  1.500     23  2.400                                                     
     3   .000      7   .000                                                     
  local pseudopotential read in
  partial core-charges read in
  atomic valenz-charges read in
  non local Contribution for L=           2  read in
    real space projection operators read in
  non local Contribution for L=           2  read in
    real space projection operators read in
  non local Contribution for L=           0  read in
    real space projection operators read in
  non local Contribution for L=           0  read in
    real space projection operators read in
  non local Contribution for L=           1  read in
    real space projection operators read in
  non local Contribution for L=           1  read in
    real space projection operators read in
    PAW grid and wavefunctions read in
 
   number of l-projection  operators is LMAX  =           6
   number of lm-projection operators is LMMAX =          18
 

 ----------------------------------------------------------------------------- 
|                                                                             |
|  ADVICE TO THIS USER RUNNING 'VASP/VAMP'   (HEAR YOUR MASTER'S VOICE ...):  |
|                                                                             |
|      You have a (more or less) 'large supercell' and for larger cells       |
|      it might be more efficient to use real space projection operators      |
|      So try LREAL= Auto  in the INCAR   file.                               |
|      Mind: If you want to do a very accurate calculations keep the          |
|      reciprocal projection scheme          (i.e. LREAL=.FALSE.)             |
|                                                                             |
 ----------------------------------------------------------------------------- 

 PAW_PBE Al 04Jan2001                   :
 energy of atom  1       EATOM=  -53.5387
 kinetic energy error for atom=    0.0011 (will be added to EATOM!!)
 PAW_PBE Pt 05Jan2001                   :
 energy of atom  2       EATOM= -729.1171
 kinetic energy error for atom=    0.0416 (will be added to EATOM!!)
 PAW_PBE Au 06Sep2000                   :
 energy of atom  3       EATOM= -926.0567
 kinetic energy error for atom=    0.0455 (will be added to EATOM!!)
 PAW_PBE Ag 06Sep2000                   :
 energy of atom  4       EATOM=-1037.4134
 kinetic energy error for atom=    0.0535 (will be added to EATOM!!)
 
 
 POSCAR: Al29 Ag1 Pt1 Au1                        
  positions in direct lattice
  velocities in cartesian coordinates
 exchange correlation table for  LEXCH =        8
   RHO(1)=    0.500       N(1)  =     2000
   RHO(2)=  100.500       N(2)  =     4000

 VTST: version 2.03d, (02/18/09)

 CHAIN: initializing optimizer
 
 OPT: Using VASP Conjugate-Gradient optimizer
 CHAIN: Read ICHAIN            0
 


--------------------------------------------------------------------------------------------------------


 ion  position               nearest neighbor table
   1  0.997  0.994  1.000-  19 2.79   5 2.82  13 2.85  25 2.85  30 2.86   3 2.87  10 2.88  32 2.89
                             6 2.89   2 2.91   4 2.98  17 3.00
   2  0.255  0.990  0.250-  14 2.76  18 2.79  24 2.83  31 2.85  15 2.86  30 2.87  10 2.89   3 2.90
                             1 2.91  16 2.91   7 2.98   4 3.03
   3  0.241  0.253  0.008-   9 2.81   8 2.82   4 2.84   1 2.87  23 2.88   2 2.90  11 2.90  31 2.93
                            32 2.94  17 2.95   7 2.96  21 3.07
   4  0.993  0.257  0.257-  20 2.71  12 2.73  22 2.74  15 2.76  16 2.77   5 2.77   6 2.78   9 2.81
                             8 2.81   3 2.84   1 2.98   2 3.03
   5  0.760  0.006  0.255-  15 2.71   4 2.77  18 2.80  20 2.81   1 2.82  31 2.84  10 2.85   6 2.85
                             7 2.86  28 2.93  13 2.94  14 2.97
   6  0.756  0.258  0.007-  12 2.71   8 2.71   4 2.78  31 2.82   7 2.83  11 2.85   5 2.85   1 2.89
                            17 2.90  27 2.91  21 2.94  19 2.95
   7  0.510  0.257  0.256-  26 2.76  12 2.77  18 2.78  20 2.79  31 2.82   6 2.83  11 2.85   5 2.86
                             9 2.88  16 2.89   3 2.96   2 2.98
   8  0.991  0.497  0.005-  30 2.62   6 2.71  12 2.72  13 2.77   4 2.81   3 2.82  10 2.84  27 2.85
                            25 2.88  17 2.89   9 2.89  23 2.94
   9  0.246  0.496  0.257-  30 2.66  16 2.71  24 2.77  22 2.78   4 2.81   3 2.81  10 2.85  26 2.88
                             7 2.88  14 2.89   8 2.89  11 2.92
  10  0.996  0.745  0.254-  30 2.64  28 2.78  24 2.80  12 2.81  13 2.82   8 2.84  22 2.84   5 2.85
                             9 2.85  15 2.88   1 2.88   2 2.89
  11  0.500  0.501  0.001-  13 2.82  21 2.82  12 2.84  29 2.84   6 2.85   7 2.85  14 2.87  23 2.87
                            30 2.87   3 2.90   9 2.92  27 2.98
  12  0.754  0.495  0.244-   6 2.71   8 2.72   4 2.73   7 2.77  13 2.78  26 2.81  10 2.81  20 2.82
                            28 2.83  11 2.84  22 2.88  14 2.92
  13  0.751  0.743  0.005-   8 2.77  12 2.78  11 2.82  10 2.82  25 2.82   1 2.85  14 2.88  29 2.89
                            27 2.91  31 2.92   5 2.94  19 2.95
  14  0.497  0.749  0.254-   2 2.76  26 2.78  18 2.80  24 2.83  28 2.85  11 2.87  13 2.88   9 2.89
                            31 2.91  30 2.92  12 2.92   5 2.97
  15  0.997  0.009  0.491-   5 2.71   4 2.76  20 2.78  16 2.82  19 2.82  17 2.84   2 2.86  10 2.88
                            32 2.89  24 2.94  28 2.96  25 2.99
  16  0.241  0.257  0.493-   9 2.71  22 2.73   4 2.77  15 2.82  17 2.83  23 2.87   7 2.89  32 2.90
                             2 2.91  18 2.95  26 2.95  21 2.96
  17  0.993  0.259  0.739-  27 2.71  22 2.72  20 2.74  19 2.81  16 2.83  15 2.84  23 2.85   8 2.89
                             6 2.90  32 2.92   3 2.95   1 3.00
  18  0.504  0.004  0.488-   7 2.78   2 2.79  14 2.80   5 2.80  20 2.89  32 2.94  16 2.95  28 2.95
                            19 2.96  21 2.97  29 2.97  24 3.00
  19  0.761  0.001  0.749-  25 2.78   1 2.79  17 2.81  15 2.82  20 2.90  31 2.91  29 2.94  13 2.95
                             6 2.95  28 2.96  18 2.96  21 2.98
  20  0.758  0.255  0.496-   4 2.71  17 2.74  22 2.77  15 2.78  27 2.78   7 2.79   5 2.81  26 2.81
                            21 2.82  12 2.82  18 2.89  19 2.90
  21  0.510  0.270  0.741-  27 2.74  26 2.74  23 2.80  20 2.82  11 2.82   6 2.94  16 2.96  18 2.97
                            19 2.98  31 3.01  32 3.04   3 3.07
  22  0.002  0.495  0.499-  17 2.72  16 2.73   4 2.74  27 2.77  20 2.77   9 2.78  24 2.79  28 2.82
                            10 2.84  23 2.86  25 2.87  12 2.88
  23  0.250  0.500  0.750-  21 2.80  24 2.84  30 2.84  29 2.85  17 2.85  22 2.86  16 2.87  11 2.87
                             3 2.88  25 2.89   8 2.94  26 2.97
  24  0.243  0.741  0.496-   9 2.77  22 2.79  10 2.80   2 2.83  14 2.83  23 2.84  25 2.90  26 2.91
                            32 2.91  29 2.93  15 2.94  18 3.00
  25  0.990  0.745  0.750-  27 2.73  19 2.78  28 2.82  13 2.82   1 2.85  22 2.87   8 2.88  30 2.89
                            23 2.89  24 2.90  32 2.94  15 2.99
  26  0.512  0.501  0.493-  28 2.72  21 2.74   7 2.76  14 2.78  12 2.81  20 2.81  27 2.83   9 2.88
                            29 2.90  24 2.91  16 2.95  23 2.97
  27  0.759  0.499  0.740-  17 2.71  25 2.73  21 2.74  28 2.75  22 2.77  20 2.78  26 2.83   8 2.85
                             6 2.91  13 2.91  29 2.92  11 2.98
  28  0.752  0.737  0.496-  26 2.72  27 2.75  10 2.78  22 2.82  25 2.82  12 2.83  14 2.85  29 2.91
                             5 2.93  18 2.95  19 2.96  15 2.96
  29  0.499  0.749  0.752-  11 2.84  23 2.85  32 2.89  13 2.89  26 2.90  28 2.91  27 2.92  24 2.93
                            19 2.94  31 2.97  18 2.97  30 3.12
  30  0.223  0.723  0.020-   8 2.62  10 2.64   9 2.66  23 2.84   1 2.86   2 2.87  11 2.87  25 2.89
                            14 2.92  29 3.12  32 3.18  31 3.30
  31  0.510  0.011  0.007-   6 2.82   7 2.82   5 2.84   2 2.85  19 2.91  14 2.91  13 2.92   3 2.93
                            29 2.97  32 3.01  21 3.01  30 3.30
  32  0.247  0.002  0.745-  15 2.89  29 2.89   1 2.89  16 2.90  24 2.91  17 2.92  25 2.94  18 2.94
                             3 2.94  31 3.01  21 3.04  30 3.18
 
  LATTYP: Found a simple cubic cell.
 ALAT       =     8.0870400000
  
  Lattice vectors:
  
 A1 = (   8.0870400000,   0.0000000000,   0.0000000000)
 A2 = (   0.0000000000,   8.0870400000,   0.0000000000)
 A3 = (   0.0000000000,   0.0000000000,   8.0870400000)
 Subroutine PRICEL returns:
 Original cell was already a primitive cell.
 

Analysis of symmetry for initial positions (statically):

 Routine SETGRP: Setting up the symmetry group for a 
 simple cubic supercell.


 Subroutine GETGRP returns: Found  1 space group operations
 (whereof  1 operations were pure point group operations)
 out of a pool of 48 trial point group operations.


The static configuration has the point symmetry C_1 .

Analysis of symmetry for dynamics (positions and initial velocities):

 Subroutine DYNSYM returns: Found  1 space group operations
 (whereof  1 operations were pure point group operations)
 out of a pool of  1 trial space group operations
 (whereof  1 operations were pure point group operations)
 and found also     1 'primitive' translations


The dynamic configuration has the point symmetry C_1 .
 
 
 KPOINTS: Automatic kpoint scheme                 

Automatic generation of k-mesh.
 
 Subroutine IBZKPT returns following result:
 ===========================================
 
 Found      4 irreducible k-points:
 
 Following reciprocal coordinates:
            Coordinates               Weight
  0.250000  0.250000  0.250000      2.000000
 -0.250000  0.250000  0.250000      2.000000
  0.250000 -0.250000  0.250000      2.000000
 -0.250000 -0.250000  0.250000      2.000000
 
 Following cartesian coordinates:
            Coordinates               Weight
  0.030914  0.030914  0.030914      2.000000
 -0.030914  0.030914  0.030914      2.000000
  0.030914 -0.030914  0.030914      2.000000
 -0.030914 -0.030914  0.030914      2.000000
 


--------------------------------------------------------------------------------------------------------




 Dimension of arrays:
   k-points           NKPTS =      4   k-points in BZ     NKDIM =      4   number of bands    NBANDS=     84
   number of dos      NEDOS =    301   number of ions     NIONS =     32
   non local maximal  LDIM  =      6   non local SUM 2l+1 LMDIM =     18
   total plane-waves  NPLWV = 110592
   max r-space proj   IRMAX =      1   max aug-charges    IRDMAX=  12985
   dimension x,y,z NGX =    48 NGY =   48 NGZ =   48
   dimension x,y,z NGXF=    96 NGYF=   96 NGZF=   96
   support grid    NGXF=    96 NGYF=   96 NGZF=   96
   ions per type =              29   1   1   1
 NGX,Y,Z   is equivalent  to a cutoff of   9.87,  9.87,  9.87 a.u.
 NGXF,Y,Z  is equivalent  to a cutoff of  19.73, 19.73, 19.73 a.u.


 I would recommend the setting:
   dimension x,y,z NGX =    46 NGY =   46 NGZ =   46
 SYSTEM =  unknown system                          
 POSCAR =  Al29 Ag1 Pt1 Au1                        

 Startparameter for this run:
   NWRITE =      2    write-flag & timer
   PREC   = accura    medium, high low
   ISTART =      0    job   : 0-new  1-cont  2-samecut
   ICHARG =      2    charge: 1-file 2-atom 10-const
   ISPIN  =      1    spin polarized calculation?
   LNONCOLLINEAR =      F non collinear calculations
   LSORBIT =      F    spin-orbit coupling
   INIWAV =      1    electr: 0-lowe 1-rand  2-diag
   LASPH  =      F    aspherical Exc in radial PAW
   METAGGA=      F    non-selfconsistent MetaGGA calc.

 Electronic Relaxation 1
   ENCUT  =  300.0 eV  22.05 Ry    4.70 a.u.  11.42 11.42 11.42*2*pi/ulx,y,z
   ENINI  =  300.0     initial cutoff
   ENAUG  =  412.5 eV  augmentation charge cutoff
   NELM   =     60;   NELMIN=  2; NELMDL=-12     # of ELM steps 
   EDIFF  = 0.1E-03   stopping-criterion for ELM
   LREAL  =      F    real-space projection
   LCOMPAT=      F    compatible to vasp.4.4
   LREAL_COMPAT= F    compatible to vasp.4.5.1-3
   GGA_COMPAT  = T    GGA compatible to vasp.4.4-vasp.4.6
   LMAXPAW     = -100 max onsite density
   LMAXMIX     =    2 max onsite mixed and CHGCAR
   VOSKOWN=      0    Vosko Wilk Nusair interpolation
   ROPT   =    0.00000   0.00000   0.00000   0.00000
 Ionic relaxation
   EDIFFG = 0.5E-01   stopping-criterion for IOM
   NSW    =    191    number of steps for IOM
   NBLOCK =      1;   KBLOCK =    191    inner block; outer block 
   IBRION =      2    ionic relax: 0-MD 1-quasi-New 2-CG
   NFREE  =      1    steps in history (QN), initial steepest desc. (CG)
   ISIF   =      2    stress and relaxation
   IWAVPR =     11    prediction:  0-non 1-charg 2-wave 3-comb
   ISYM   =      2    0-nonsym 1-usesym 2-fastsym
   LCORR  =      T    Harris-Foulkes like correction to forces

   POTIM  = 0.5000    time-step for ionic-motion
   TEIN   =    0.0    initial temperature
   TEBEG  =    0.0;   TEEND  =   0.0 temperature during run
   SMASS  =  -3.00    Nose mass-parameter (am)
   estimated Nose-frequenzy (Omega)   =  0.10E-29 period in steps =****** mass=  -0.149E-26a.u.
   NPACO  =    256;   APACO  = 16.0  distance and # of slots for P.C.
   PSTRESS=    0.0 pullay stress

  Mass of Ions in am
   POMASS =  26.98195.08196.97107.87
  Ionic Valenz
   ZVAL   =   3.00 10.00 11.00 11.00
  Atomic Wigner-Seitz radii
   RWIGS  =  -1.00 -1.00 -1.00 -1.00
   NELECT =     119.0000    total number of electrons
   NUPDOWN=      -1.0000    fix difference up-down

 DOS related values:
   EMIN   =  10.00;   EMAX   =-10.00  energy-range for DOS
   EFERMI =   0.00
   ISMEAR =     1;   SIGMA  =   0.20  broadening in eV -4-tet -1-fermi 0-gaus

 Electronic relaxation 2 (details)
   IALGO  =     48    algorithm
   LDIAG  =      T    sub-space diagonalisation
   IMIX   =      4    mixing-type and parameters
     AMIX     =   0.40;   BMIX     =  1.00
     AMIX_MAG =   1.60;   BMIX_MAG =  1.00
     AMIN     =   0.10
     WC   =   100.;   INIMIX=   1;  MIXPRE=   1

 Intra band minimization:
   WEIMIN = 0.0010     energy-eigenvalue tresh-hold
   EBREAK =  0.33E-06  absolut break condition
   DEPER  =   0.30     relativ break condition  

   TIME   =   0.40     timestep for ELM

  volume/ion in A,a.u.               =      16.53       111.54
  Fermi-wavevector in a.u.,A,eV,Ry     =   0.995713  1.881625 13.489423  0.991445
  Thomas-Fermi vector in A             =   2.127752
 
 Write flags
   LWAVE  =      F    write WAVECAR
   LCHARG =      F    write CHGCAR
   LVTOT  =      F    write LOCPOT, local potential
   LELF   =      F    write electronic localiz. function (ELF)
   LORBIT =      0    0 simple, 1 ext, 2 COOP (PROOUT)


 Dipole corrections
   LMONO  =      F    monopole corrections only (constant potential shift)
   LDIPOL =      F    correct potential (dipole corrections)
   IDIPOL =      0    1-x, 2-y, 3-z, 4-all directions 
   EPSILON=  1.0000000 bulk dielectric constant

 Exchange correlation treatment:
   GGA     =    --    GGA type
   LEXCH   =     8    internal setting for exchange type
   VOSKOWN=      0    Vosko Wilk Nusair interpolation
   LHFCALC =     F    Hartree Fock is set to
   LHFONE  =     F    Hartree Fock one center treatment
   AEXX    =    0.0000 exact exchange contribution

 Linear response parameters
   LEPSILON=     F    determine dielectric tensor
   LRPA    =     F    only Hartree local field effects (RPA)
   LNABLA  =     F    use nabla operator in PAW spheres
   LVEL    =     F    velocity operator in full k-point grid
   LINTERFAST=   F  fast interpolation
   KINTER  =     0    interpolate to denser k-point grid
   CSHIFT  =0.1000    complex shift for real part using Kramers Kronig
   OMEGAMAX=  -1.0    maximum frequency

 Orbital magnetization related:
   ORBITALMAG=     F  switch on orbital magnetization
   LCHIMAG   =     F  perturbation theory with respect to B field



--------------------------------------------------------------------------------------------------------


 conjugate gradient relaxation of ions
 charge density and potential will be updated during run
 non-spin polarized calculation
 RMM-DIIS sequential band-by-band
 perform sub-space diagonalisation
    before iterative eigenvector-optimisation
 modified Broyden-mixing scheme, WC =      100.0
 initial mixing is a Kerker type mixing with AMIX =  0.4000 and BMIX =      1.0000
 Hartree-type preconditioning will be used
 using additional bands           24
 reciprocal scheme for non local part
 use partial core corrections
 calculate Harris-corrections to forces 
   (improved forces if not selfconsistent)
 use gradient corrections 
 use of overlap-Matrix (Vanderbilt PP)
 Methfessel and Paxton  Order N= 1 SIGMA  =   0.20


--------------------------------------------------------------------------------------------------------


  energy-cutoff  :      300.00
  volume of cell :      528.89
      direct lattice vectors                 reciprocal lattice vectors
     8.087040000  0.000000000  0.000000000     0.123654638  0.000000000  0.000000000
     0.000000000  8.087040000  0.000000000     0.000000000  0.123654638  0.000000000
     0.000000000  0.000000000  8.087040000     0.000000000  0.000000000  0.123654638

  length of vectors
     8.087040000  8.087040000  8.087040000     0.123654638  0.123654638  0.123654638


 
 k-points in units of 2pi/SCALE and weight: Automatic kpoint scheme                 
   0.03091366  0.03091366  0.03091366       0.250
  -0.03091366  0.03091366  0.03091366       0.250
   0.03091366 -0.03091366  0.03091366       0.250
  -0.03091366 -0.03091366  0.03091366       0.250
 
 k-points in reciprocal lattice and weights: Automatic kpoint scheme                 
   0.25000000  0.25000000  0.25000000       0.250
  -0.25000000  0.25000000  0.25000000       0.250
   0.25000000 -0.25000000  0.25000000       0.250
  -0.25000000 -0.25000000  0.25000000       0.250
 
 position of ions in fractional coordinates (direct lattice) 
   0.99735100  0.99437900  0.99976300
   0.25529200  0.99042100  0.25046700
   0.24071800  0.25325100  0.00780400
   0.99275800  0.25738700  0.25706700
   0.75956100  0.00638100  0.25450600
   0.75616600  0.25837500  0.00735800
   0.50964000  0.25650100  0.25579000
   0.99129100  0.49724400  0.00525600
   0.24572800  0.49570400  0.25705700
   0.99598300  0.74489500  0.25354500
   0.50042900  0.50115200  0.00145600
   0.75411100  0.49534800  0.24363000
   0.75137800  0.74252300  0.00504300
   0.49692700  0.74924300  0.25447100
   0.99658500  0.00905400  0.49147700
   0.24134500  0.25664000  0.49252200
   0.99347100  0.25856300  0.73887400
   0.50410200  0.00402900  0.48843300
   0.76087000  0.00129400  0.74867100
   0.75750800  0.25535200  0.49635900
   0.50977800  0.27028900  0.74050200
   0.00208100  0.49451100  0.49907600
   0.25002500  0.49972200  0.75033900
   0.24322400  0.74121500  0.49601200
   0.99032100  0.74539700  0.75045200
   0.51210500  0.50131000  0.49283300
   0.75933500  0.49880700  0.73985700
   0.75215900  0.73699300  0.49648700
   0.49876100  0.74852200  0.75202400
   0.22318700  0.72257600  0.02028100
   0.51048000  0.01128800  0.00745500
   0.24733000  0.00163600  0.74513300
 
 position of ions in cartesian coordinates  (Angst):
   8.06561743  8.04158275  8.08512337
   2.06455662  8.00957424  2.02553665
   1.94669609  2.04805097  0.06311126
   8.02847366  2.08149896  2.07891111
   6.14260019  0.05160340  2.05820020
   6.11514469  2.08948896  0.05950444
   4.12147907  2.07433385  2.06858396
   8.01660997  4.02123212  0.04250548
   1.98721217  4.00877808  2.07883024
   8.05455436  6.02399566  2.05042856
   4.04698934  4.05283627  0.01177473
   6.09852582  4.00589909  1.97024556
   6.07642394  6.00481320  0.04078294
   4.01866853  6.05915811  2.05791716
   8.05942276  0.07322006  3.97459416
   1.95176667  2.07545795  3.98304511
   8.03423972  2.09100932  5.97530359
   4.07669304  0.03258268  3.94997721
   6.15318612  0.01046463  6.05453232
   6.12599750  2.06504184  4.01407509
   4.12259508  2.18583795  5.98846929
   0.01682913  3.99913024  4.03604758
   2.02196218  4.04127180  6.06802151
   1.96696222  5.99423535  4.01126888
   8.00876554  6.02805535  6.06893534
   4.14141362  4.05411402  3.98556018
   6.14077252  4.03387216  5.98325315
   6.08273992  5.96009187  4.01511023
   4.03350016  6.05332735  6.08164817
   1.80492220  5.84350102  0.16401326
   4.12827218  0.09128651  0.06028888
   2.00016760  0.01323040  6.02592038
 


--------------------------------------------------------------------------------------------------------


 k-point  1 :  0.25000.25000.2500  plane waves:    6238
 k-point  2 :  -.25000.25000.2500  plane waves:    6238
 k-point  3 :  0.2500-.25000.2500  plane waves:    6238
 k-point  4 :  -.2500-.25000.2500  plane waves:    6238

 maximum and minimum number of plane-waves per node :    6238   6238

 maximum number of plane-waves:    6238
 maximal index in each direction: 
   IXMAX= 11   IYMAX= 11   IZMAX= 11
   IXMIN=-11   IYMIN=-11   IZMIN=-11

 NGX is ok and might be reduce to  46
 NGY is ok and might be reduce to  46
 NGZ is ok and might be reduce to  46

 serial   3D FFT for wavefunctions
 parallel 3D FFT for charge:
    minimum data exchange during FFTs selected (reduces bandwidth)


 total amount of memory used by VASP on root node  76806. kBytes
========================================================================

   base      :    30000. kBytes
   nonl-proj :    17571. kBytes
   fftplans  :     2983. kBytes
   grid      :    22831. kBytes
   one-center:      497. kBytes
   wavefun   :     2924. kBytes
 
 Broyden mixing: mesh for mixing (old mesh)
   NGX = 23   NGY = 23   NGZ = 23
  (NGX  = 96   NGY  = 96   NGZ  = 96)
  gives a total of  12167 points

 initial charge density was supplied:
 charge density of overlapping atoms calculated
 number of electron  119.0000000 magnetization 
 keeping initial charge density in first step


--------------------------------------------------------------------------------------------------------


 Maximum index for augmentation-charges         1032 (set IRDMAX)


--------------------------------------------------------------------------------------------------------


 First call to EWALD:  gamma=   0.219
 Maximum number of real-space cells 3x 3x 3
 Maximum number of reciprocal cells 3x 3x 3

    FEWALD:  cpu time    0.01: real time    0.01
   RESPFUN:  cpu time    0.00: real time    0.00


----------------------------------------- Iteration    1(   1)  ---------------------------------------


    POTLOK:  cpu time    0.16: real time    0.16
    SETDIJ:  cpu time    0.02: real time    0.02
    EDDIAG:  cpu time    0.71: real time    0.71
  RMM-DIIS:  cpu time    1.64: real time    1.64
    ORTHCH:  cpu time    0.05: real time    0.05
       DOS:  cpu time    0.00: real time    0.00
    --------------------------------------------
      LOOP:  cpu time    2.57: real time    2.58

 eigenvalue-minimisations  :   336
 total energy-change (2. order) : 0.4659261E+03  (-0.2256991E+04)
 number of electron  119.0000000 magnetization 
 augmentation part   119.0000000 magnetization 

 Free energy of the ion-electron system (eV)
  ---------------------------------------------------
  alpha Z        PSCENC =       100.06042719
  Ewald energy   TEWEN  =     -3988.36375732
  -1/2 Hartree   DENC   =     -1203.51242571
  -exchange  EXHF       =         0.00000000
  -V(xc)+E(xc)   XCENC  =      -752.29123924
  PAW double counting   =      3222.50049718    -2197.73173776
  entropy T*S    EENTRO =        -0.02650447
  eigenvalues    EBANDS =      1040.25305515
  atomic energy  EATOM  =      4245.03775698
  ---------------------------------------------------
  free energy    TOTEN  =       465.92607200 eV

  energy without entropy =      465.95257647  energy(sigma->0) =      465.93490683


--------------------------------------------------------------------------------------------------------




----------------------------------------- Iteration    1(   2)  ---------------------------------------


    EDDIAG:  cpu time    0.71: real time    0.71
  RMM-DIIS:  cpu time    1.62: real time    1.62
    ORTHCH:  cpu time    0.04: real time    0.05
       DOS:  cpu time    0.00: real time    0.00
    --------------------------------------------
      LOOP:  cpu time    2.38: real time    2.38

 eigenvalue-minimisations  :   336
 total energy-change (2. order) :-0.4265704E+03  (-0.4153817E+03)
 number of electron  119.0000000 magnetization 
 augmentation part   119.0000000 magnetization 

 Free energy of the ion-electron system (eV)
  ---------------------------------------------------
  alpha Z        PSCENC =       100.06042719
  Ewald energy   TEWEN  =     -3988.36375732
  -1/2 Hartree   DENC   =     -1203.51242571
  -exchange  EXHF       =         0.00000000
  -V(xc)+E(xc)   XCENC  =      -752.29123924
  PAW double counting   =      3222.50049718    -2197.73173776
  entropy T*S    EENTRO =         0.02075050
  eigenvalues    EBANDS =       613.63535685
  atomic energy  EATOM  =      4245.03775698
  ---------------------------------------------------
  free energy    TOTEN  =        39.35562868 eV

  energy without entropy =       39.33487818  energy(sigma->0) =       39.34871184


--------------------------------------------------------------------------------------------------------




----------------------------------------- Iteration    1(   3)  ---------------------------------------


    EDDIAG:  cpu time    0.71: real time    0.71
  RMM-DIIS:  cpu time    1.62: real time    1.62
    ORTHCH:  cpu time    0.04: real time    0.05
       DOS:  cpu time    0.00: real time    0.00
    --------------------------------------------
      LOOP:  cpu time    2.38: real time    2.38

 eigenvalue-minimisations  :   336
 total energy-change (2. order) :-0.1040512E+03  (-0.9373848E+02)
 number of electron  119.0000000 magnetization 
 augmentation part   119.0000000 magnetization 

 Free energy of the ion-electron system (eV)
  ---------------------------------------------------
  alpha Z        PSCENC =       100.06042719
  Ewald energy   TEWEN  =     -3988.36375732
  -1/2 Hartree   DENC   =     -1203.51242571
  -exchange  EXHF       =         0.00000000
  -V(xc)+E(xc)   XCENC  =      -752.29123924
  PAW double counting   =      3222.50049718    -2197.73173776
  entropy T*S    EENTRO =         0.01660643
  eigenvalues    EBANDS =       509.58832683
  atomic energy  EATOM  =      4245.03775698
  ---------------------------------------------------
  free energy    TOTEN  =       -64.69554541 eV

  energy without entropy =      -64.71215185  energy(sigma->0) =      -64.70108089


--------------------------------------------------------------------------------------------------------




----------------------------------------- Iteration    1(   4)  ---------------------------------------


    EDDIAG:  cpu time    0.71: real time    0.71
  RMM-DIIS:  cpu time    1.62: real time    1.62
    ORTHCH:  cpu time    0.05: real time    0.05
       DOS:  cpu time    0.00: real time    0.00
    --------------------------------------------
      LOOP:  cpu time    2.38: real time    2.38

 eigenvalue-minimisations  :   336
 total energy-change (2. order) :-0.3554969E+02  (-0.2647578E+02)
 number of electron  119.0000000 magnetization 
 augmentation part   119.0000000 magnetization 

 Free energy of the ion-electron system (eV)
  ---------------------------------------------------
  alpha Z        PSCENC =       100.06042719
  Ewald energy   TEWEN  =     -3988.36375732
  -1/2 Hartree   DENC   =     -1203.51242571
  -exchange  EXHF       =         0.00000000
  -V(xc)+E(xc)   XCENC  =      -752.29123924
  PAW double counting   =      3222.50049718    -2197.73173776
  entropy T*S    EENTRO =        -0.04175948
  eigenvalues    EBANDS =       474.09699839
  atomic energy  EATOM  =      4245.03775698
  ---------------------------------------------------
  free energy    TOTEN  =      -100.24523977 eV

  energy without entropy =     -100.20348029  energy(sigma->0) =     -100.23131994


--------------------------------------------------------------------------------------------------------




----------------------------------------- Iteration    1(   5)  ---------------------------------------


    EDDIAG:  cpu time    0.71: real time    0.71
  RMM-DIIS:  cpu time    1.62: real time    1.62
    ORTHCH:  cpu time    0.05: real time    0.05
       DOS:  cpu time    0.00: real time    0.00
    --------------------------------------------
      LOOP:  cpu time    2.37: real time    2.37

 eigenvalue-minimisations  :   336
 total energy-change (2. order) :-0.1449435E+02  (-0.1136637E+02)
 number of electron  119.0000000 magnetization 
 augmentation part   119.0000000 magnetization 

 Free energy of the ion-electron system (eV)
  ---------------------------------------------------
  alpha Z        PSCENC =       100.06042719
  Ewald energy   TEWEN  =     -3988.36375732
  -1/2 Hartree   DENC   =     -1203.51242571
  -exchange  EXHF       =         0.00000000
  -V(xc)+E(xc)   XCENC  =      -752.29123924
  PAW double counting   =      3222.50049718    -2197.73173776
  entropy T*S    EENTRO =         0.02003591
  eigenvalues    EBANDS =       459.54085103
  atomic energy  EATOM  =      4245.03775698
  ---------------------------------------------------
  free energy    TOTEN  =      -114.73959174 eV

  energy without entropy =     -114.75962765  energy(sigma->0) =     -114.74627038


--------------------------------------------------------------------------------------------------------




----------------------------------------- Iteration    1(   6)  ---------------------------------------


    EDDIAG:  cpu time    0.71: real time    0.71
  RMM-DIIS:  cpu time    1.63: real time    1.63
    ORTHCH:  cpu time    0.04: real time    0.05
       DOS:  cpu time    0.00: real time    0.00
    --------------------------------------------
      LOOP:  cpu time    2.39: real time    2.39

 eigenvalue-minimisations  :   336
 total energy-change (2. order) :-0.6651296E+01  (-0.5885951E+01)
 number of electron  119.0000000 magnetization 
 augmentation part   119.0000000 magnetization 

 Free energy of the ion-electron system (eV)
  ---------------------------------------------------
  alpha Z        PSCENC =       100.06042719
  Ewald energy   TEWEN  =     -3988.36375732
  -1/2 Hartree   DENC   =     -1203.51242571
  -exchange  EXHF       =         0.00000000
  -V(xc)+E(xc)   XCENC  =      -752.29123924
  PAW double counting   =      3222.50049718    -2197.73173776
  entropy T*S    EENTRO =         0.01423587
  eigenvalues    EBANDS =       452.89535517
  atomic energy  EATOM  =      4245.03775698
  ---------------------------------------------------
  free energy    TOTEN  =      -121.39088763 eV

  energy without entropy =     -121.40512351  energy(sigma->0) =     -121.39563293


--------------------------------------------------------------------------------------------------------




----------------------------------------- Iteration    1(   7)  ---------------------------------------


    EDDIAG:  cpu time    0.71: real time    0.71
  RMM-DIIS:  cpu time    1.62: real time    1.62
    ORTHCH:  cpu time    0.04: real time    0.05
       DOS:  cpu time    0.00: real time    0.00
    --------------------------------------------
      LOOP:  cpu time    2.38: real time    2.38

 eigenvalue-minimisations  :   336
 total energy-change (2. order) :-0.3515560E+01  (-0.3050135E+01)
 number of electron  119.0000000 magnetization 
 augmentation part   119.0000000 magnetization 

 Free energy of the ion-electron system (eV)
  ---------------------------------------------------
  alpha Z        PSCENC =       100.06042719
  Ewald energy   TEWEN  =     -3988.36375732
  -1/2 Hartree   DENC   =     -1203.51242571
  -exchange  EXHF       =         0.00000000
  -V(xc)+E(xc)   XCENC  =      -752.29123924
  PAW double counting   =      3222.50049718    -2197.73173776
  entropy T*S    EENTRO =         0.01462790
  eigenvalues    EBANDS =       449.37940309
  atomic energy  EATOM  =      4245.03775698
  ---------------------------------------------------
  free energy    TOTEN  =      -124.90644768 eV

  energy without entropy =     -124.92107559  energy(sigma->0) =     -124.91132365


--------------------------------------------------------------------------------------------------------




----------------------------------------- Iteration    1(   8)  ---------------------------------------


    EDDIAG:  cpu time    0.71: real time    0.71
  RMM-DIIS:  cpu time    1.62: real time    1.62
    ORTHCH:  cpu time    0.04: real time    0.05
       DOS:  cpu time    0.00: real time    0.00
    --------------------------------------------
      LOOP:  cpu time    2.38: real time    2.38

 eigenvalue-minimisations  :   336
 total energy-change (2. order) :-0.1746368E+01  (-0.1610818E+01)
 number of electron  119.0000000 magnetization 
 augmentation part   119.0000000 magnetization 

 Free energy of the ion-electron system (eV)
  ---------------------------------------------------
  alpha Z        PSCENC =       100.06042719
  Ewald energy   TEWEN  =     -3988.36375732
  -1/2 Hartree   DENC   =     -1203.51242571
  -exchange  EXHF       =         0.00000000
  -V(xc)+E(xc)   XCENC  =      -752.29123924
  PAW double counting   =      3222.50049718    -2197.73173776
  entropy T*S    EENTRO =         0.01526139
  eigenvalues    EBANDS =       447.63240136
  atomic energy  EATOM  =      4245.03775698
  ---------------------------------------------------
  free energy    TOTEN  =      -126.65281593 eV

  energy without entropy =     -126.66807731  energy(sigma->0) =     -126.65790306


--------------------------------------------------------------------------------------------------------




----------------------------------------- Iteration    1(   9)  ---------------------------------------


    EDDIAG:  cpu time    0.71: real time    0.71
  RMM-DIIS:  cpu time    3.40: real time    3.40
    ORTHCH:  cpu time    0.05: real time    0.05
       DOS:  cpu time    0.00: real time    0.00
    --------------------------------------------
      LOOP:  cpu time    4.15: real time    4.16

 eigenvalue-minimisations  :   781
 total energy-change (2. order) :-0.1809002E+01  (-0.1721789E+01)
 number of electron  119.0000000 magnetization 
 augmentation part   119.0000000 magnetization 

 Free energy of the ion-electron system (eV)
  ---------------------------------------------------
  alpha Z        PSCENC =       100.06042719
  Ewald energy   TEWEN  =     -3988.36375732
  -1/2 Hartree   DENC   =     -1203.51242571
  -exchange  EXHF       =         0.00000000
  -V(xc)+E(xc)   XCENC  =      -752.29123924
  PAW double counting   =      3222.50049718    -2197.73173776
  entropy T*S    EENTRO =         0.01829243
  eigenvalues    EBANDS =       445.82036784
  atomic energy  EATOM  =      4245.03775698
  ---------------------------------------------------
  free energy    TOTEN  =      -128.46181840 eV

  energy without entropy =     -128.48011084  energy(sigma->0) =     -128.46791588


--------------------------------------------------------------------------------------------------------




----------------------------------------- Iteration    1(  10)  ---------------------------------------


    EDDIAG:  cpu time    0.71: real time    0.71
  RMM-DIIS:  cpu time    3.31: real time    3.31
    ORTHCH:  cpu time    0.04: real time    0.05
       DOS:  cpu time    0.00: real time    0.00
    --------------------------------------------
      LOOP:  cpu time    4.06: real time    4.07

 eigenvalue-minimisations  :   766
 total energy-change (2. order) :-0.1745675E+00  (-0.1378287E+00)
 number of electron  119.0000000 magnetization 
 augmentation part   119.0000000 magnetization 

 Free energy of the ion-electron system (eV)
  ---------------------------------------------------
  alpha Z        PSCENC =       100.06042719
  Ewald energy   TEWEN  =     -3988.36375732
  -1/2 Hartree   DENC   =     -1203.51242571
  -exchange  EXHF       =         0.00000000
  -V(xc)+E(xc)   XCENC  =      -752.29123924
  PAW double counting   =      3222.50049718    -2197.73173776
  entropy T*S    EENTRO =         0.01998168
  eigenvalues    EBANDS =       445.64411105
  atomic energy  EATOM  =      4245.03775698
  ---------------------------------------------------
  free energy    TOTEN  =      -128.63638595 eV

  energy without entropy =     -128.65636763  energy(sigma->0) =     -128.64304651


--------------------------------------------------------------------------------------------------------




----------------------------------------- Iteration    1(  11)  ---------------------------------------


    EDDIAG:  cpu time    0.72: real time    0.72
  RMM-DIIS:  cpu time    3.01: real time    3.04
    ORTHCH:  cpu time    0.05: real time    0.05
       DOS:  cpu time    0.00: real time    0.00
    --------------------------------------------
      LOOP:  cpu time    3.77: real time    3.80

 eigenvalue-minimisations  :   695
 total energy-change (2. order) :-0.1258696E-01  (-0.6746717E-02)
 number of electron  119.0000000 magnetization 
 augmentation part   119.0000000 magnetization 

 Free energy of the ion-electron system (eV)
  ---------------------------------------------------
  alpha Z        PSCENC =       100.06042719
  Ewald energy   TEWEN  =     -3988.36375732
  -1/2 Hartree   DENC   =     -1203.51242571
  -exchange  EXHF       =         0.00000000
  -V(xc)+E(xc)   XCENC  =      -752.29123924
  PAW double counting   =      3222.50049718    -2197.73173776
  entropy T*S    EENTRO =         0.02077312
  eigenvalues    EBANDS =       445.63073264
  atomic energy  EATOM  =      4245.03775698
  ---------------------------------------------------
  free energy    TOTEN  =      -128.64897291 eV

  energy without entropy =     -128.66974604  energy(sigma->0) =     -128.65589729


--------------------------------------------------------------------------------------------------------




----------------------------------------- Iteration    1(  12)  ---------------------------------------


    EDDIAG:  cpu time    0.71: real time    0.71
  RMM-DIIS:  cpu time    2.77: real time    2.77
    ORTHCH:  cpu time    0.05: real time    0.05
       DOS:  cpu time    0.00: real time    0.00
    CHARGE:  cpu time    0.32: real time    0.32
    MIXING:  cpu time    0.00: real time    0.00
    --------------------------------------------
      LOOP:  cpu time    3.85: real time    3.85

 eigenvalue-minimisations  :   622
 total energy-change (2. order) :-0.1608534E-02  (-0.1478563E-02)
 number of electron  119.0000000 magnetization 
 augmentation part     9.4787631 magnetization 

 Broyden mixing:
  rms(total) = 0.14089E+01    rms(broyden)= 0.14088E+01
  rms(prec ) = 0.28412E+01
  weight for this iteration     100.00

 Free energy of the ion-electron system (eV)
  ---------------------------------------------------
  alpha Z        PSCENC =       100.06042719
  Ewald energy   TEWEN  =     -3988.36375732
  -1/2 Hartree   DENC   =     -1203.51242571
  -exchange  EXHF       =         0.00000000
  -V(xc)+E(xc)   XCENC  =      -752.29123924
  PAW double counting   =      3222.50049718    -2197.73173776
  entropy T*S    EENTRO =         0.02096634
  eigenvalues    EBANDS =       445.62893089
  atomic energy  EATOM  =      4245.03775698
  ---------------------------------------------------
  free energy    TOTEN  =      -128.65058145 eV

  energy without entropy =     -128.67154779  energy(sigma->0) =     -128.65757023


--------------------------------------------------------------------------------------------------------




----------------------------------------- Iteration    1(  13)  ---------------------------------------


    POTLOK:  cpu time    0.16: real time    0.16
    SETDIJ:  cpu time    0.02: real time    0.02
    EDDIAG:  cpu time    0.71: real time    0.71
  RMM-DIIS:  cpu time    2.94: real time    2.95
    ORTHCH:  cpu time    0.05: real time    0.05
       DOS:  cpu time    0.00: real time    0.00
    CHARGE:  cpu time    0.32: real time    0.32
    MIXING:  cpu time    0.00: real time    0.00
    --------------------------------------------
      LOOP:  cpu time    4.20: real time    4.20

 eigenvalue-minimisations  :   674
 total energy-change (2. order) : 0.3547662E+01  (-0.6153644E+01)
 number of electron  119.0000000 magnetization 
 augmentation part    11.8277992 magnetization 

 Broyden mixing:
  rms(total) = 0.62934E+00    rms(broyden)= 0.62915E+00
  rms(prec ) = 0.12098E+01
  weight for this iteration     100.00

 eigenvalues of (default mixing * dielectric matrix)
  average eigenvalue GAMMA=   0.7427
  0.7427

 Free energy of the ion-electron system (eV)
  ---------------------------------------------------
  alpha Z        PSCENC =       100.06042719
  Ewald energy   TEWEN  =     -3988.36375732
  -1/2 Hartree   DENC   =     -1096.73254889
  -exchange  EXHF       =         0.00000000
  -V(xc)+E(xc)   XCENC  =      -753.71185418
  PAW double counting   =      3055.85786920    -2035.34693422
  entropy T*S    EENTRO =        -0.01106766
  eigenvalues    EBANDS =       348.10718973
  atomic energy  EATOM  =      4245.03775698
  ---------------------------------------------------
  free energy    TOTEN  =      -125.10291918 eV

  energy without entropy =     -125.09185152  energy(sigma->0) =     -125.09922996


--------------------------------------------------------------------------------------------------------




----------------------------------------- Iteration    1(  14)  ---------------------------------------


    POTLOK:  cpu time    0.16: real time    0.16
    SETDIJ:  cpu time    0.02: real time    0.02
    EDDIAG:  cpu time    0.71: real time    0.71
  RMM-DIIS:  cpu time    2.98: real time    2.99
    ORTHCH:  cpu time    0.05: real time    0.05
       DOS:  cpu time    0.00: real time    0.00
    CHARGE:  cpu time    0.32: real time    0.32
    MIXING:  cpu time    0.00: real time    0.00
    --------------------------------------------
      LOOP:  cpu time    4.25: real time    4.25

 eigenvalue-minimisations  :   672
 total energy-change (2. order) : 0.2173155E+01  (-0.3012682E+00)
 number of electron  119.0000000 magnetization 
 augmentation part    11.3705803 magnetization 

 Broyden mixing:
  rms(total) = 0.27773E+00    rms(broyden)= 0.27772E+00
  rms(prec ) = 0.46762E+00
  weight for this iteration     100.00

 eigenvalues of (default mixing * dielectric matrix)
  average eigenvalue GAMMA=   1.4395
  0.7971  2.0819

 Free energy of the ion-electron system (eV)
  ---------------------------------------------------
  alpha Z        PSCENC =       100.06042719
  Ewald energy   TEWEN  =     -3988.36375732
  -1/2 Hartree   DENC   =     -1128.29078445
  -exchange  EXHF       =         0.00000000
  -V(xc)+E(xc)   XCENC  =      -752.48406228
  PAW double counting   =      3162.08253872    -2143.70818202
  entropy T*S    EENTRO =        -0.01673741
  eigenvalues    EBANDS =       382.75303591
  atomic energy  EATOM  =      4245.03775698
  ---------------------------------------------------
  free energy    TOTEN  =      -122.92976468 eV

  energy without entropy =     -122.91302728  energy(sigma->0) =     -122.92418555


--------------------------------------------------------------------------------------------------------




----------------------------------------- Iteration    1(  15)  ---------------------------------------


    POTLOK:  cpu time    0.16: real time    0.16
    SETDIJ:  cpu time    0.02: real time    0.02
    EDDIAG:  cpu time    0.72: real time    0.72
  RMM-DIIS:  cpu time    2.97: real time    2.97
    ORTHCH:  cpu time    0.05: real time    0.05
       DOS:  cpu time    0.00: real time    0.00
    CHARGE:  cpu time    0.32: real time    0.32
    MIXING:  cpu time    0.01: real time    0.00
    --------------------------------------------
      LOOP:  cpu time    4.24: real time    4.24

 eigenvalue-minimisations  :   672
 total energy-change (2. order) : 0.1916059E+00  (-0.1916042E+00)
 number of electron  119.0000000 magnetization 
 augmentation part    10.9881430 magnetization 

 Broyden mixing:
  rms(total) = 0.18139E+00    rms(broyden)= 0.18137E+00
  rms(prec ) = 0.32610E+00
  weight for this iteration     100.00

 eigenvalues of (default mixing * dielectric matrix)
  average eigenvalue GAMMA=   1.3878
  2.5266  0.8183  0.8183

 Free energy of the ion-electron system (eV)
  ---------------------------------------------------
  alpha Z        PSCENC =       100.06042719
  Ewald energy   TEWEN  =     -3988.36375732
  -1/2 Hartree   DENC   =     -1144.04393756
  -exchange  EXHF       =         0.00000000
  -V(xc)+E(xc)   XCENC  =      -751.24963824
  PAW double counting   =      3247.06904457    -2231.20066889
  entropy T*S    EENTRO =        -0.01866399
  eigenvalues    EBANDS =       399.97127852
  atomic energy  EATOM  =      4245.03775698
  ---------------------------------------------------
  free energy    TOTEN  =      -122.73815874 eV

  energy without entropy =     -122.71949475  energy(sigma->0) =     -122.73193741


--------------------------------------------------------------------------------------------------------




----------------------------------------- Iteration    1(  16)  ---------------------------------------


    POTLOK:  cpu time    0.16: real time    0.16
    SETDIJ:  cpu time    0.02: real time    0.02
    EDDIAG:  cpu time    0.72: real time    0.72
  RMM-DIIS:  cpu time    2.99: real time    2.99
    ORTHCH:  cpu time    0.05: real time    0.05
       DOS:  cpu time    0.00: real time    0.00
    CHARGE:  cpu time    0.32: real time    0.32
    MIXING:  cpu time    0.00: real time    0.00
    --------------------------------------------
      LOOP:  cpu time    4.26: real time    4.26

 eigenvalue-minimisations  :   672
 total energy-change (2. order) : 0.1177955E+00  (-0.1273855E-01)
 number of electron  119.0000000 magnetization 
 augmentation part    11.1044373 magnetization 

 Broyden mixing:
  rms(total) = 0.42034E-01    rms(broyden)= 0.42032E-01
  rms(prec ) = 0.75969E-01
  weight for this iteration     100.00

 eigenvalues of (default mixing * dielectric matrix)
  average eigenvalue GAMMA=   1.2660
  2.5498  0.8615  0.8615  0.7913

 Free energy of the ion-electron system (eV)
  ---------------------------------------------------
  alpha Z        PSCENC =       100.06042719
  Ewald energy   TEWEN  =     -3988.36375732
  -1/2 Hartree   DENC   =     -1136.47068683
  -exchange  EXHF       =         0.00000000
  -V(xc)+E(xc)   XCENC  =      -750.84935829
  PAW double counting   =      3257.07319053    -2242.47589068
  entropy T*S    EENTRO =        -0.01783673
  eigenvalues    EBANDS =       393.38579195
  atomic energy  EATOM  =      4245.03775698
  ---------------------------------------------------
  free energy    TOTEN  =      -122.62036321 eV

  energy without entropy =     -122.60252648  energy(sigma->0) =     -122.61441763


--------------------------------------------------------------------------------------------------------




----------------------------------------- Iteration    1(  17)  ---------------------------------------


    POTLOK:  cpu time    0.16: real time    0.16
    SETDIJ:  cpu time    0.02: real time    0.02
    EDDIAG:  cpu time    0.71: real time    0.71
  RMM-DIIS:  cpu time    3.04: real time    3.04
    ORTHCH:  cpu time    0.04: real time    0.05
       DOS:  cpu time    0.00: real time    0.00
    CHARGE:  cpu time    0.32: real time    0.32
    MIXING:  cpu time    0.00: real time    0.00
    --------------------------------------------
      LOOP:  cpu time    4.30: real time    4.30

 eigenvalue-minimisations  :   683
 total energy-change (2. order) : 0.5542720E-02  (-0.2676534E-02)
 number of electron  119.0000000 magnetization 
 augmentation part    11.1419839 magnetization 

 Broyden mixing:
  rms(total) = 0.93757E-02    rms(broyden)= 0.93679E-02
  rms(prec ) = 0.18126E-01
  weight for this iteration     100.00

 eigenvalues of (default mixing * dielectric matrix)
  average eigenvalue GAMMA=   1.2845
  2.5927  1.3872  0.8338  0.8338  0.7751

 Free energy of the ion-electron system (eV)
  ---------------------------------------------------
  alpha Z        PSCENC =       100.06042719
  Ewald energy   TEWEN  =     -3988.36375732
  -1/2 Hartree   DENC   =     -1134.78924519
  -exchange  EXHF       =         0.00000000
  -V(xc)+E(xc)   XCENC  =      -750.80360877
  PAW double counting   =      3256.41160837    -2241.84134348
  entropy T*S    EENTRO =        -0.01778436
  eigenvalues    EBANDS =       391.69112610
  atomic energy  EATOM  =      4245.03775698
  ---------------------------------------------------
  free energy    TOTEN  =      -122.61482049 eV

  energy without entropy =     -122.59703613  energy(sigma->0) =     -122.60889237


--------------------------------------------------------------------------------------------------------




----------------------------------------- Iteration    1(  18)  ---------------------------------------


    POTLOK:  cpu time    0.16: real time    0.16
    SETDIJ:  cpu time    0.02: real time    0.02
    EDDIAG:  cpu time    0.71: real time    0.71
  RMM-DIIS:  cpu time    3.08: real time    3.11
    ORTHCH:  cpu time    0.05: real time    0.05
       DOS:  cpu time    0.00: real time    0.00
    CHARGE:  cpu time    0.32: real time    0.32
    MIXING:  cpu time    0.00: real time    0.00
    --------------------------------------------
      LOOP:  cpu time    4.34: real time    4.37

 eigenvalue-minimisations  :   682
 total energy-change (2. order) :-0.2089807E-03  (-0.7454111E-03)
 number of electron  119.0000000 magnetization 
 augmentation part    11.1633240 magnetization 

 Broyden mixing:
  rms(total) = 0.10955E-01    rms(broyden)= 0.10953E-01
  rms(prec ) = 0.20088E-01
  weight for this iteration     100.00

 eigenvalues of (default mixing * dielectric matrix)
  average eigenvalue GAMMA=   1.3724
  2.5886  2.2406  0.8842  0.8842  0.8183  0.8183

 Free energy of the ion-electron system (eV)
  ---------------------------------------------------
  alpha Z        PSCENC =       100.06042719
  Ewald energy   TEWEN  =     -3988.36375732
  -1/2 Hartree   DENC   =     -1134.00507622
  -exchange  EXHF       =         0.00000000
  -V(xc)+E(xc)   XCENC  =      -750.79460857
  PAW double counting   =      3254.66836061    -2240.03793035
  entropy T*S    EENTRO =        -0.01759231
  eigenvalues    EBANDS =       390.83739052
  atomic energy  EATOM  =      4245.03775698
  ---------------------------------------------------
  free energy    TOTEN  =      -122.61502947 eV

  energy without entropy =     -122.59743716  energy(sigma->0) =     -122.60916537


--------------------------------------------------------------------------------------------------------




----------------------------------------- Iteration    1(  19)  ---------------------------------------


    POTLOK:  cpu time    0.16: real time    0.16
    SETDIJ:  cpu time    0.02: real time    0.02
    EDDIAG:  cpu time    0.71: real time    0.71
  RMM-DIIS:  cpu time    2.89: real time    2.89
    ORTHCH:  cpu time    0.05: real time    0.05
       DOS:  cpu time    0.00: real time    0.00
    CHARGE:  cpu time    0.32: real time    0.32
    MIXING:  cpu time    0.00: real time    0.00
    --------------------------------------------
      LOOP:  cpu time    4.14: real time    4.15

 eigenvalue-minimisations  :   646
 total energy-change (2. order) : 0.3267967E-03  (-0.2113960E-03)
 number of electron  119.0000000 magnetization 
 augmentation part    11.1474775 magnetization 

 Broyden mixing:
  rms(total) = 0.34918E-02    rms(broyden)= 0.34911E-02
  rms(prec ) = 0.75879E-02
  weight for this iteration     100.00

 eigenvalues of (default mixing * dielectric matrix)
  average eigenvalue GAMMA=   1.3646
  2.6418  2.2767  1.3077  0.8886  0.8886  0.7745  0.7745

 Free energy of the ion-electron system (eV)
  ---------------------------------------------------
  alpha Z        PSCENC =       100.06042719
  Ewald energy   TEWEN  =     -3988.36375732
  -1/2 Hartree   DENC   =     -1134.87097588
  -exchange  EXHF       =         0.00000000
  -V(xc)+E(xc)   XCENC  =      -750.76143586
  PAW double counting   =      3256.34825125    -2241.66914600
  entropy T*S    EENTRO =        -0.01770207
  eigenvalues    EBANDS =       391.62187904
  atomic energy  EATOM  =      4245.03775698
  ---------------------------------------------------
  free energy    TOTEN  =      -122.61470268 eV

  energy without entropy =     -122.59700060  energy(sigma->0) =     -122.60880198


--------------------------------------------------------------------------------------------------------




----------------------------------------- Iteration    1(  20)  ---------------------------------------


    POTLOK:  cpu time    0.16: real time    0.16
    SETDIJ:  cpu time    0.02: real time    0.02
    EDDIAG:  cpu time    0.71: real time    0.71
  RMM-DIIS:  cpu time    2.01: real time    2.01
    ORTHCH:  cpu time    0.05: real time    0.05
       DOS:  cpu time    0.00: real time    0.00
    --------------------------------------------
      LOOP:  cpu time    2.94: real time    2.94

 eigenvalue-minimisations  :   431
 total energy-change (2. order) : 0.6634699E-04  (-0.1119546E-04)
 number of electron  119.0000000 magnetization 
 augmentation part    11.1474775 magnetization 

 Free energy of the ion-electron system (eV)
  ---------------------------------------------------
  alpha Z        PSCENC =       100.06042719
  Ewald energy   TEWEN  =     -3988.36375732
  -1/2 Hartree   DENC   =     -1134.69805517
  -exchange  EXHF       =         0.00000000
  -V(xc)+E(xc)   XCENC  =      -750.75857530
  PAW double counting   =      3255.77309611    -2241.07154587
  entropy T*S    EENTRO =        -0.01766609
  eigenvalues    EBANDS =       391.42368316
  atomic energy  EATOM  =      4245.03775698
  ---------------------------------------------------
  free energy    TOTEN  =      -122.61463633 eV

  energy without entropy =     -122.59697024  energy(sigma->0) =     -122.60874763


--------------------------------------------------------------------------------------------------------




 average (electrostatic) potential at core
  the test charge radii are     1.0406  1.2059  1.2098  1.1249
  (the norm of the test charge is              1.0000)
       1 -72.9539       2 -73.0008       3 -72.9671       4 -72.7835       5 -72.8287
       6 -72.8528       7 -72.8804       8 -72.7512       9 -72.7600      10 -72.8142
      11 -72.8906      12 -72.6814      13 -72.8870      14 -72.9503      15 -72.7965
      16 -72.8116      17 -72.8478      18 -72.8913      19 -72.9370      20 -72.7215
      21 -72.9262      22 -72.7161      23 -72.9096      24 -72.8641      25 -72.9218
      26 -72.7912      27 -72.7972      28 -72.8097      29 -73.0855      30 -49.2650
      31 -44.3839      32 -37.7203
 
 
 
 E-fermi :   7.7626     XC(G=0): -10.4220     alpha+bet :-14.4403
   add alpha+bet to get absolut eigen values

 k-point   1 :       0.2500    0.2500    0.2500
  band No.  band energies     occupation 
      1      -2.9084      2.00000
      2      -1.8094      2.00000
      3      -1.7685      2.00000
      4      -1.6206      2.00000
      5      -0.6652      2.00000
      6      -0.6013      2.00000
      7      -0.4070      2.00000
      8       0.3357      2.00000
      9       0.3791      2.00000
     10       0.5043      2.00000
     11       0.6766      2.00000
     12       1.2480      2.00000
     13       1.2918      2.00000
     14       1.3849      2.00000
     15       1.4867      2.00000
     16       1.5923      2.00000
     17       1.7379      2.00000
     18       2.0306      2.00000
     19       2.2092      2.00000
     20       2.2610      2.00000
     21       2.3123      2.00000
     22       2.4324      2.00000
     23       2.5023      2.00000
     24       2.5891      2.00000
     25       2.6994      2.00000
     26       2.7897      2.00000
     27       2.8444      2.00000
     28       3.1283      2.00000
     29       3.2259      2.00000
     30       3.2601      2.00000
     31       3.4532      2.00000
     32       3.5606      2.00000
     33       3.6192      2.00000
     34       3.7863      2.00000
     35       3.9222      2.00000
     36       3.9825      2.00000
     37       4.0852      2.00000
     38       4.3064      2.00000
     39       4.4161      2.00000
     40       4.5511      2.00000
     41       4.7138      2.00000
     42       5.0180      2.00000
     43       5.0373      2.00000
     44       5.1806      2.00000
     45       5.2995      2.00000
     46       5.4020      2.00000
     47       5.4503      2.00000
     48       5.5790      2.00000
     49       5.7592      2.00000
     50       5.8914      2.00000
     51       6.3880      2.00000
     52       6.6881      2.00000
     53       6.9228      2.00000
     54       7.0067      2.00000
     55       7.0723      2.00001
     56       7.2367      2.00127
     57       7.3031      2.00546
     58       7.4800      2.06256
     59       7.5761      2.03329
     60       7.7711      0.92779
     61       8.3630     -0.00018
     62       8.3847     -0.00010
     63       8.4303     -0.00002
     64       8.5410      0.00000
     65       8.5617      0.00000
     66       8.7542      0.00000
     67       8.8668      0.00000
     68       8.9369      0.00000
     69       9.0304      0.00000
     70       9.4004      0.00000
     71       9.4473      0.00000
     72       9.6617      0.00000
     73       9.7350      0.00000
     74       9.9090      0.00000
     75       9.9636      0.00000
     76      10.2994      0.00000
     77      10.3639      0.00000
     78      10.4036      0.00000
     79      10.6350      0.00000
     80      10.8580      0.00000
     81      11.1446      0.00000
     82      11.3723      0.00000
     83      11.3887      0.00000
     84      11.5907      0.00000

 k-point   2 :      -0.2500    0.2500    0.2500
  band No.  band energies     occupation 
      1      -2.9078      2.00000
      2      -1.8123      2.00000
      3      -1.7482      2.00000
      4      -1.6445      2.00000
      5      -0.6512      2.00000
      6      -0.6069      2.00000
      7      -0.4509      2.00000
      8       0.3611      2.00000
      9       0.4019      2.00000
     10       0.5247      2.00000
     11       0.7031      2.00000
     12       1.3028      2.00000
     13       1.3944      2.00000
     14       1.4269      2.00000
     15       1.4966      2.00000
     16       1.5404      2.00000
     17       1.7472      2.00000
     18       1.9265      2.00000
     19       2.0963      2.00000
     20       2.2462      2.00000
     21       2.2638      2.00000
     22       2.3544      2.00000
     23       2.4218      2.00000
     24       2.4980      2.00000
     25       2.6408      2.00000
     26       2.8372      2.00000
     27       2.9644      2.00000
     28       3.1512      2.00000
     29       3.2281      2.00000
     30       3.2717      2.00000
     31       3.3960      2.00000
     32       3.5228      2.00000
     33       3.5505      2.00000
     34       3.9006      2.00000
     35       4.0262      2.00000
     36       4.0720      2.00000
     37       4.1775      2.00000
     38       4.2536      2.00000
     39       4.5267      2.00000
     40       4.5550      2.00000
     41       4.7752      2.00000
     42       4.9429      2.00000
     43       5.0250      2.00000
     44       5.2320      2.00000
     45       5.2896      2.00000
     46       5.3926      2.00000
     47       5.4696      2.00000
     48       5.5912      2.00000
     49       5.7571      2.00000
     50       5.8562      2.00000
     51       6.5181      2.00000
     52       6.6035      2.00000
     53       6.7766      2.00000
     54       7.0660      2.00001
     55       7.1959      2.00046
     56       7.2650      2.00245
     57       7.3121      2.00651
     58       7.3847      2.02247
     59       7.5083      2.07028
     60       7.7733      0.90985
     61       8.3431     -0.00032
     62       8.3742     -0.00013
     63       8.4524     -0.00001
     64       8.4809      0.00000
     65       8.5029      0.00000
     66       8.7314      0.00000
     67       8.7780      0.00000
     68       8.8182      0.00000
     69       8.8665      0.00000
     70       9.5281      0.00000
     71       9.5883      0.00000
     72       9.7159      0.00000
     73       9.7860      0.00000
     74       9.8132      0.00000
     75       9.8619      0.00000
     76      10.3089      0.00000
     77      10.3318      0.00000
     78      10.3632      0.00000
     79      10.6941      0.00000
     80      10.7737      0.00000
     81      10.8249      0.00000
     82      11.2614      0.00000
     83      11.3951      0.00000
     84      11.5452      0.00000

 k-point   3 :       0.2500   -0.2500    0.2500
  band No.  band energies     occupation 
      1      -2.9093      2.00000
      2      -1.7995      2.00000
      3      -1.7382      2.00000
      4      -1.6658      2.00000
      5      -0.6722      2.00000
      6      -0.5999      2.00000
      7      -0.3937      2.00000
      8       0.3349      2.00000
      9       0.4050      2.00000
     10       0.5193      2.00000
     11       0.6342      2.00000
     12       1.2536      2.00000
     13       1.3167      2.00000
     14       1.3578      2.00000
     15       1.5041      2.00000
     16       1.6035      2.00000
     17       1.7169      2.00000
     18       2.0290      2.00000
     19       2.1991      2.00000
     20       2.2642      2.00000
     21       2.3123      2.00000
     22       2.4201      2.00000
     23       2.4931      2.00000
     24       2.5937      2.00000
     25       2.6956      2.00000
     26       2.7859      2.00000
     27       2.8100      2.00000
     28       3.0868      2.00000
     29       3.2189      2.00000
     30       3.2873      2.00000
     31       3.4814      2.00000
     32       3.5933      2.00000
     33       3.6413      2.00000
     34       3.7483      2.00000
     35       3.9339      2.00000
     36       4.0027      2.00000
     37       4.1180      2.00000
     38       4.2543      2.00000
     39       4.4227      2.00000
     40       4.5594      2.00000
     41       4.8167      2.00000
     42       4.9974      2.00000
     43       5.0545      2.00000
     44       5.1982      2.00000
     45       5.2555      2.00000
     46       5.4037      2.00000
     47       5.4446      2.00000
     48       5.5870      2.00000
     49       5.7485      2.00000
     50       5.8650      2.00000
     51       6.3628      2.00000
     52       6.6723      2.00000
     53       6.9101      2.00000
     54       6.9918      2.00000
     55       7.0799      2.00002
     56       7.2670      2.00255
     57       7.2914      2.00430
     58       7.4390      2.04448
     59       7.6266      1.90538
     60       7.7415      1.17737
     61       8.3352     -0.00039
     62       8.3632     -0.00018
     63       8.4302     -0.00002
     64       8.5095      0.00000
     65       8.5736      0.00000
     66       8.7320      0.00000
     67       8.8975      0.00000
     68       8.9181      0.00000
     69       9.1142      0.00000
     70       9.4156      0.00000
     71       9.4373      0.00000
     72       9.6813      0.00000
     73       9.7270      0.00000
     74       9.8950      0.00000
     75       9.9676      0.00000
     76      10.3234      0.00000
     77      10.3626      0.00000
     78      10.4364      0.00000
     79      10.6760      0.00000
     80      10.8632      0.00000
     81      11.1360      0.00000
     82      11.2392      0.00000
     83      11.4469      0.00000
     84      11.6708      0.00000

 k-point   4 :      -0.2500   -0.2500    0.2500
  band No.  band energies     occupation 
      1      -2.9093      2.00000
      2      -1.7896      2.00000
      3      -1.7585      2.00000
      4      -1.6550      2.00000
      5      -0.6449      2.00000
      6      -0.6177      2.00000
      7      -0.4042      2.00000
      8       0.3429      2.00000
      9       0.3827      2.00000
     10       0.5314      2.00000
     11       0.6288      2.00000
     12       1.2388      2.00000
     13       1.3084      2.00000
     14       1.4278      2.00000
     15       1.4655      2.00000
     16       1.6149      2.00000
     17       1.7912      2.00000
     18       1.9473      2.00000
     19       2.1232      2.00000
     20       2.2568      2.00000
     21       2.2745      2.00000
     22       2.3764      2.00000
     23       2.4772      2.00000
     24       2.6092      2.00000
     25       2.7146      2.00000
     26       2.9085      2.00000
     27       2.9994      2.00000
     28       3.0861      2.00000
     29       3.1499      2.00000
     30       3.2472      2.00000
     31       3.4601      2.00000
     32       3.5397      2.00000
     33       3.6622      2.00000
     34       3.8879      2.00000
     35       3.9746      2.00000
     36       4.0317      2.00000
     37       4.0935      2.00000
     38       4.2650      2.00000
     39       4.3885      2.00000
     40       4.4083      2.00000
     41       4.6170      2.00000
     42       4.9847      2.00000
     43       5.1026      2.00000
     44       5.2430      2.00000
     45       5.2593      2.00000
     46       5.4037      2.00000
     47       5.4599      2.00000
     48       5.6395      2.00000
     49       5.7313      2.00000
     50       5.8469      2.00000
     51       6.4395      2.00000
     52       6.6214      2.00000
     53       6.9948      2.00000
     54       7.0268      2.00000
     55       7.0755      2.00001
     56       7.1643      2.00020
     57       7.2761      2.00312
     58       7.4878      2.06535
     59       7.5701      2.04150
     60       7.7968      0.71512
     61       8.3504     -0.00026
     62       8.3684     -0.00016
     63       8.4769     -0.00001
     64       8.5332      0.00000
     65       8.5518      0.00000
     66       8.6799      0.00000
     67       8.9453      0.00000
     68       8.9957      0.00000
     69       9.0653      0.00000
     70       9.4117      0.00000
     71       9.4444      0.00000
     72       9.5781      0.00000
     73       9.7224      0.00000
     74       9.9496      0.00000
     75       9.9807      0.00000
     76      10.3188      0.00000
     77      10.3275      0.00000
     78      10.4311      0.00000
     79      10.6542      0.00000
     80      10.9369      0.00000
     81      11.0542      0.00000
     82      11.2755      0.00000
     83      11.4917      0.00000
     84      11.5507      0.00000


--------------------------------------------------------------------------------------------------------


[...]
     70       9.6257      0.00000
     71       9.6731      0.00000
     72       9.7691      0.00000
     73       9.9008      0.00000
     74       9.9412      0.00000
     75       9.9647      0.00000
     76      10.2611      0.00000
     77      10.4427      0.00000
     78      10.4606      0.00000
     79      10.6891      0.00000
     80      10.7422      0.00000
     81      10.7689      0.00000
     82      11.1208      0.00000
     83      11.2745      0.00000
     84      11.5004      0.00000

 k-point   3 :       0.2500   -0.2500    0.2500
  band No.  band energies     occupation 
      1      -2.7930      2.00000
      2      -1.7228      2.00000
      3      -1.6839      2.00000
      4      -1.5599      2.00000
      5      -0.6261      2.00000
      6      -0.6178      2.00000
      7      -0.3803      2.00000
      8       0.4066      2.00000
      9       0.4148      2.00000
     10       0.4801      2.00000
     11       0.6084      2.00000
     12       1.1675      2.00000
     13       1.2285      2.00000
     14       1.3002      2.00000
     15       1.3608      2.00000
     16       1.4745      2.00000
     17       1.5818      2.00000
     18       1.8827      2.00000
     19       1.9537      2.00000
     20       2.0547      2.00000
     21       2.1218      2.00000
     22       2.2017      2.00000
     23       2.2820      2.00000
     24       2.3603      2.00000
     25       2.4629      2.00000
     26       2.5897      2.00000
     27       2.6146      2.00000
     28       2.9223      2.00000
     29       3.0675      2.00000
     30       3.1801      2.00000
     31       3.4389      2.00000
     32       3.4937      2.00000
     33       3.5629      2.00000
     34       3.7673      2.00000
     35       3.9823      2.00000
     36       4.0771      2.00000
     37       4.1919      2.00000
     38       4.2988      2.00000
     39       4.4237      2.00000
     40       4.6134      2.00000
     41       4.8089      2.00000
     42       5.0259      2.00000
     43       5.0889      2.00000
     44       5.2502      2.00000
     45       5.2733      2.00000
     46       5.4065      2.00000
     47       5.4415      2.00000
     48       5.5687      2.00000
     49       5.7391      2.00000
     50       5.8532      2.00000
     51       6.2864      2.00000
     52       6.5281      2.00000
     53       6.8467      2.00000
     54       7.1192      2.00000
     55       7.1642      2.00002
     56       7.3608      2.00324
     57       7.3825      2.00510
     58       7.5458      2.05550
     59       7.6549      2.03888
     60       7.8487      0.97208
     61       8.3188     -0.00411
     62       8.3617     -0.00159
     63       8.5298     -0.00001
     64       8.6233      0.00000
     65       8.6759      0.00000
     66       8.7242      0.00000
     67       8.8580      0.00000
     68       8.9309      0.00000
     69       9.0676      0.00000
     70       9.4862      0.00000
     71       9.5316      0.00000
     72       9.6981      0.00000
     73       9.8497      0.00000
     74      10.0143      0.00000
     75      10.0551      0.00000
     76      10.3526      0.00000
     77      10.4665      0.00000
     78      10.4787      0.00000
     79      10.6985      0.00000
     80      10.8291      0.00000
     81      10.9235      0.00000
     82      11.1152      0.00000
     83      11.1923      0.00000
     84      11.4786      0.00000

 k-point   4 :      -0.2500   -0.2500    0.2500
  band No.  band energies     occupation 
      1      -2.7939      2.00000
      2      -1.7043      2.00000
      3      -1.6764      2.00000
      4      -1.5869      2.00000
      5      -0.6193      2.00000
      6      -0.5922      2.00000
      7      -0.4236      2.00000
      8       0.4032      2.00000
      9       0.4181      2.00000
     10       0.4926      2.00000
     11       0.6070      2.00000
     12       1.1637      2.00000
     13       1.2305      2.00000
     14       1.3467      2.00000
     15       1.3831      2.00000
     16       1.4669      2.00000
     17       1.6333      2.00000
     18       1.7333      2.00000
     19       1.8820      2.00000
     20       2.0808      2.00000
     21       2.1094      2.00000
     22       2.1604      2.00000
     23       2.2205      2.00000
     24       2.3879      2.00000
     25       2.4785      2.00000
     26       2.6818      2.00000
     27       2.8420      2.00000
     28       2.9022      2.00000
     29       3.0366      2.00000
     30       3.1594      2.00000
     31       3.4116      2.00000
     32       3.4610      2.00000
     33       3.6011      2.00000
     34       3.8704      2.00000
     35       3.9640      2.00000
     36       4.0466      2.00000
     37       4.1720      2.00000
     38       4.3541      2.00000
     39       4.3885      2.00000
     40       4.4476      2.00000
     41       4.6720      2.00000
     42       5.0290      2.00000
     43       5.1179      2.00000
     44       5.2348      2.00000
     45       5.2651      2.00000
     46       5.4201      2.00000
     47       5.5078      2.00000
     48       5.6258      2.00000
     49       5.7462      2.00000
     50       5.8078      2.00000
     51       6.3301      2.00000
     52       6.5398      2.00000
     53       6.9215      2.00000
     54       7.1455      2.00001
     55       7.1581      2.00001
     56       7.2927      2.00066
     57       7.3635      2.00344
     58       7.5774      2.06745
     59       7.6329      2.06091
     60       7.8740      0.76038
     61       8.3151     -0.00444
     62       8.3711     -0.00128
     63       8.5298     -0.00001
     64       8.6369      0.00000
     65       8.6886      0.00000
     66       8.7576      0.00000
     67       8.8951      0.00000
     68       8.9521      0.00000
     69       8.9978      0.00000
     70       9.4589      0.00000
     71       9.5206      0.00000
     72       9.6561      0.00000
     73       9.7994      0.00000
     74      10.0630      0.00000
     75      10.0930      0.00000
     76      10.3439      0.00000
     77      10.4519      0.00000
     78      10.4702      0.00000
     79      10.6565      0.00000
     80      10.8812      0.00000
     81      10.9169      0.00000
     82      11.0679      0.00000
     83      11.2613      0.00000
     84      11.4078      0.00000


--------------------------------------------------------------------------------------------------------


 soft charge-density along one line, spin component           1
         0         1         2         3         4         5         6         7         8         9
 total charge-density along one line
 
 pseudopotential strength for first ion, spin component:           1
  8.453  -0.006   0.000   0.000   0.000   0.000   0.000   0.000
 -0.006   0.000   0.000   0.000   0.000   0.000   0.000   0.000
  0.000   0.000   1.987   0.000   0.000  -0.026   0.000   0.000
  0.000   0.000   0.000   1.987   0.000   0.000  -0.026   0.000
  0.000   0.000   0.000   0.000   1.987   0.000   0.000  -0.026
  0.000   0.000  -0.026   0.000   0.000  -0.012   0.000   0.000
  0.000   0.000   0.000  -0.026   0.000   0.000  -0.012   0.000
  0.000   0.000   0.000   0.000  -0.026   0.000   0.000  -0.012
 total augmentation occupancy for first ion, spin component:           1
  1.297  -0.505   0.019   0.007  -0.025   0.006  -0.004  -0.001
 -0.505   0.489   0.042   0.001  -0.039  -0.013   0.000   0.011
  0.019   0.042   0.731   0.007  -0.005  -0.183  -0.002   0.004
  0.007   0.001   0.007   0.718   0.005  -0.002  -0.179  -0.001
 -0.025  -0.039  -0.005   0.005   0.746   0.004  -0.001  -0.183
  0.006  -0.013  -0.183  -0.002   0.004   0.051   0.000  -0.001
 -0.004   0.000  -0.002  -0.179  -0.001   0.000   0.050   0.000
 -0.001   0.011   0.004  -0.001  -0.183  -0.001   0.000   0.050


------------------------ aborting loop because EDIFF is reached ----------------------------------------




--------------------------------------------------------------------------------------------------------



  FREE ENERGIE OF THE ION-ELECTRON SYSTEM (eV)
  ---------------------------------------------------
  free  energy   TOTEN  =      -123.348686 eV

  energy  without entropy=     -123.342348  energy(sigma->0) =     -123.346573
 
    CHARGE:  cpu time    0.31: real time    0.31
    FORLOC:  cpu time    0.04: real time    0.04
    FORNL :  cpu time    1.18: real time    1.19
    STRESS:  cpu time    2.99: real time    2.99
    FORCOR:  cpu time    0.19: real time    0.19
    FORHAR:  cpu time    0.08: real time    0.08
    MIXING:  cpu time    0.00: real time    0.00

  FORCE on cell =-STRESS in cart. coord.  units (eV):
  Direction    XX          YY          ZZ          XY          YZ          ZX
  --------------------------------------------------------------------------------------
  Alpha Z   100.06043   100.06043   100.06043
  Ewald   -1292.75769 -1306.79711 -1301.28482    87.97088   -83.96746    96.76254
  Hartree   411.43932   399.52103   406.45956    78.54518   -76.26686    84.66756
  E(xc)    -400.62436  -400.62689  -400.60079    -0.12454     0.09668    -0.04699
  Local    -186.67076  -160.48251  -173.27875  -167.81986   161.43636  -182.32135
  n-local   406.92960   406.90044   406.82991     0.80595    -0.56906     0.36493
  augment    94.80261    94.82354    94.80429     0.30741    -0.31802     0.20223
  Kinetic   864.31093   864.59160   863.27874     1.07113    -1.13144     0.67463
  Fock        0.00000     0.00000     0.00000     0.00000     0.00000     0.00000
  -------------------------------------------------------------------------------------
  Total      -2.50993    -2.00948    -3.73143     0.75614    -0.71980     0.30356
  in kB      -7.60332    -6.08730   -11.30362     2.29059    -2.18048     0.91958
  external pressure =       -8.33 kB  Pullay stress =        0.00 kB


 VOLUME and BASIS-vectors are now :
 -----------------------------------------------------------------------------
  energy-cutoff  :      300.00
  volume of cell :      528.89
      direct lattice vectors                 reciprocal lattice vectors
     8.087040000  0.000000000  0.000000000     0.123654638  0.000000000  0.000000000
     0.000000000  8.087040000  0.000000000     0.000000000  0.123654638  0.000000000
     0.000000000  0.000000000  8.087040000     0.000000000  0.000000000  0.123654638

  length of vectors
     8.087040000  8.087040000  8.087040000     0.123654638  0.123654638  0.123654638


 FORCES acting on ions
    electron-ion (+dipol)            ewald-force                    non-local-force                 convergence-correction
 -----------------------------------------------------------------------------------------------
   0.466E+02 -.252E+02 -.228E+02   -.471E+02 0.253E+02 0.231E+02   0.447E+00 -.829E-01 -.317E+00   -.312E-03 -.196E-02 0.135E-02
   0.231E+02 -.240E+02 -.479E+02   -.235E+02 0.240E+02 0.486E+02   0.369E+00 0.461E-01 -.642E+00   -.598E-03 -.103E-02 0.610E-03
   0.241E+02 -.445E+02 -.229E+02   -.248E+02 0.453E+02 0.232E+02   0.671E+00 -.791E+00 -.453E+00   0.503E-03 0.438E-03 0.782E-03
   0.928E+01 -.785E+01 -.107E+02   -.968E+01 0.840E+01 0.110E+02   0.445E+00 -.626E+00 -.296E+00   -.642E-03 0.144E-02 0.151E-03
   -.238E+02 -.396E+01 -.301E+02   0.244E+02 0.403E+01 0.310E+02   -.621E+00 -.626E-01 -.939E+00   -.937E-04 0.408E-03 -.191E-03
   -.251E+02 -.293E+02 -.337E+01   0.256E+02 0.302E+02 0.347E+01   -.477E+00 -.892E+00 -.123E+00   -.174E-03 0.120E-02 0.116E-02
   -.878E+01 -.288E+02 -.308E+02   0.919E+01 0.296E+02 0.315E+02   -.381E+00 -.793E+00 -.687E+00   -.287E-04 -.438E-03 -.116E-02
   0.320E+02 0.279E+02 -.255E+01   -.325E+02 -.279E+02 0.267E+01   0.630E+00 0.141E+00 -.122E+00   0.256E-02 0.474E-02 0.232E-02
   0.253E+01 0.268E+02 -.327E+02   -.254E+01 -.270E+02 0.331E+02   -.400E-01 0.171E+00 -.548E+00   -.205E-02 0.386E-02 -.299E-02
   0.319E+02 0.744E+01 -.334E+02   -.322E+02 -.780E+01 0.337E+02   0.326E+00 0.301E+00 -.274E+00   0.419E-02 -.194E-02 -.517E-02
   -.301E+02 0.212E+02 -.207E+01   0.305E+02 -.215E+02 0.226E+01   -.429E+00 0.261E+00 -.174E+00   -.465E-04 -.858E-03 0.322E-03
   -.313E+01 0.441E+01 -.124E+02   0.340E+01 -.461E+01 0.125E+02   -.336E+00 0.243E+00 -.598E-02   0.179E-02 -.956E-03 -.119E-02
   -.202E+02 0.286E+02 -.235E+01   0.207E+02 -.295E+02 0.269E+01   -.493E+00 0.885E+00 -.357E+00   0.210E-02 -.138E-02 -.134E-03
   -.291E+02 0.281E+02 -.470E+02   0.294E+02 -.287E+02 0.475E+02   -.294E+00 0.561E+00 -.539E+00   -.147E-02 -.404E-03 0.169E-02
   0.284E+02 -.473E+01 0.235E+02   -.292E+02 0.490E+01 -.238E+02   0.756E+00 -.185E+00 0.354E+00   -.356E-03 0.449E-03 -.192E-03
   0.416E+01 -.278E+02 0.232E+02   -.426E+01 0.284E+02 -.235E+02   0.975E-01 -.666E+00 0.267E+00   -.538E-03 0.104E-02 -.352E-03
   0.284E+02 -.277E+02 0.993E+01   -.289E+02 0.283E+02 -.103E+02   0.514E+00 -.615E+00 0.421E+00   -.225E-03 0.614E-03 -.543E-03
   -.278E+02 -.291E+01 0.207E+02   0.286E+02 0.336E+01 -.211E+02   -.737E+00 -.435E+00 0.362E+00   -.222E-03 -.127E-02 -.630E-03
   -.207E+02 -.274E+01 0.289E+02   0.213E+02 0.308E+01 -.299E+02   -.624E+00 -.297E+00 0.960E+00   0.411E-03 -.945E-03 -.285E-03
   -.419E+01 -.108E+02 0.395E+01   0.437E+01 0.110E+02 -.410E+01   -.215E+00 -.167E+00 0.145E+00   0.136E-02 0.616E-03 -.822E-03
   -.269E+02 -.449E+02 0.287E+02   0.275E+02 0.458E+02 -.296E+02   -.530E+00 -.922E+00 0.846E+00   -.587E-03 0.683E-03 0.847E-03
   0.114E+02 0.488E+01 0.346E+01   -.116E+02 -.506E+01 -.369E+01   0.121E+00 0.226E+00 0.235E+00   0.128E-03 -.109E-02 -.106E-02
   0.194E+01 0.226E+02 0.310E+02   -.205E+01 -.229E+02 -.314E+02   0.433E-01 0.291E+00 0.468E+00   -.102E-03 -.187E-04 0.355E-03
   0.245E+01 0.283E+02 0.213E+02   -.283E+01 -.290E+02 -.217E+02   0.376E+00 0.692E+00 0.302E+00   0.104E-02 -.698E-03 -.140E-02
   0.476E+02 0.277E+02 0.308E+02   -.480E+02 -.281E+02 -.311E+02   0.444E+00 0.368E+00 0.367E+00   -.828E-03 -.863E-03 0.225E-02
   -.109E+02 0.283E+01 0.150E+01   0.112E+02 -.322E+01 -.198E+01   -.215E+00 0.402E+00 0.521E+00   -.897E-03 0.733E-03 0.321E-03
   -.133E+01 0.274E+01 0.117E+02   0.184E+01 -.316E+01 -.119E+02   -.589E+00 0.427E+00 0.120E+00   0.305E-03 0.478E-03 0.755E-03
   -.215E+01 0.106E+02 0.210E+01   0.248E+01 -.108E+02 -.247E+01   -.351E+00 0.200E+00 0.375E+00   -.522E-03 0.898E-04 0.595E-03
   -.457E+02 0.485E+02 0.439E+02   0.461E+02 -.490E+02 -.445E+02   -.511E+00 0.613E+00 0.709E+00   0.242E-02 -.142E-02 -.338E-02
   0.514E+02 0.114E+03 -.571E+02   -.517E+02 -.114E+03 0.572E+02   0.429E+00 0.383E+00 -.195E+00   -.825E-01 -.740E-01 0.619E-01
   -.135E+03 -.576E+02 -.705E+02   0.135E+03 0.578E+02 0.702E+02   -.233E-01 -.211E+00 0.206E+00   0.143E-01 0.300E-01 0.859E-02
   0.703E+02 -.626E+02 0.143E+03   -.704E+02 0.629E+02 -.143E+03   0.456E-01 -.203E+00 0.153E+00   0.578E-03 0.833E-02 -.107E-01
 -----------------------------------------------------------------------------------------------
   0.123E+01 0.785E+00 -.121E+01   0.284E-13 -.426E-13 0.568E-13   -.115E+01 -.740E+00 0.114E+01   -.605E-01 -.342E-01 0.538E-01
 
 
 POSITION                                       TOTAL-FORCE (eV/Angst)
 -----------------------------------------------------------------------------------
      0.04804      8.01932      8.08193        -0.012740      0.016202     -0.016289
      2.04456      8.01185      1.95717        -0.044592      0.037724      0.011438
      2.02367      1.98523      0.00240         0.038563      0.034118     -0.057194
      0.00545      2.02960      2.01075         0.048885     -0.072871     -0.007039
      6.09527      0.00441      2.02790        -0.003924      0.007011      0.027501
      6.07853      2.04912     -0.00852        -0.031456     -0.036645     -0.014528
      4.06388      2.05162      2.02120         0.024650      0.009614      0.042557
      8.05613      4.03410      0.00755         0.158551      0.093359      0.002275
      2.01928      4.03237      2.03451        -0.047785      0.051514     -0.074350
      8.07396      6.04158      2.02471         0.017869     -0.058783      0.009840
      4.00032      4.07403      0.00491        -0.003706     -0.024631      0.018280
      6.07045      4.04782      1.99216        -0.064709      0.039615      0.085519
      6.03559      6.05637      0.01174         0.061001      0.011232     -0.015486
      3.99502      6.07641      1.97032         0.023753     -0.053668     -0.029271
      0.00716      0.00684      4.02374        -0.006907     -0.012646     -0.016390
      2.03589      2.03449      4.02906        -0.006487     -0.008574      0.002434
      0.00597      2.04028      6.04819         0.000454     -0.018705      0.011948
      4.06427      0.01457      4.02761         0.021968      0.017382     -0.021781
      6.08579      0.01263      6.04820         0.007758      0.033835     -0.011830
      6.08516      2.02808      4.03009        -0.036754     -0.001033     -0.006203
      4.05574      2.06199      6.04831         0.013559     -0.071076      0.011471
      0.02258      4.04406      4.04004        -0.011180      0.044917      0.006947
      2.02088      4.06466      6.10033        -0.061658     -0.013424      0.014755
      2.01426      6.04956      4.05783        -0.003935      0.000312     -0.061712
      0.02322      6.06601      6.10250         0.042842     -0.043481      0.000785
      4.05833      4.06042      4.01356         0.013653      0.005159      0.048088
      6.09243      4.05371      6.05681        -0.086380      0.015436     -0.006294
      6.07709      6.06540      4.02468        -0.020135      0.002556      0.011277
      3.96917      6.12364      6.14671        -0.095602      0.045824      0.127968
      1.86397      5.89749      0.11746         0.041206     -0.092714     -0.045497
      4.12224      0.07452      0.04576         0.066689     -0.002863     -0.007377
      2.00428      0.00640      6.03193        -0.043450      0.045305     -0.041841
 -----------------------------------------------------------------------------------
    total drift:                                0.015423      0.010387     -0.011874
 d Force = 0.1792149E-01[-0.182E-03, 0.360E-01]  d Energy = 0.1681635E-01 0.111E-02
 d Force =-0.1155154E+02[-0.120E+02,-0.111E+02]  d Ewald  =-0.1155120E+02-0.341E-03


--------------------------------------------------------------------------------------------------------


    POTLOK:  cpu time    0.17: real time    0.17


--------------------------------------------------------------------------------------------------------


  FORCES: max atom, RMS     0.184010    0.074951
  FORCE total and by dimension    0.423989    0.158551


--------------------------------------------------------------------------------------------------------


  
 reached required accuracy - stopping structural energy minimisation
     LOOP+:  cpu time   29.30: real time   29.34
    4ORBIT:  cpu time    0.00: real time    0.00

 total amount of memory used by VASP on root node  76806. kBytes
========================================================================

   base      :    30000. kBytes
   nonl-proj :    17571. kBytes
   fftplans  :     2983. kBytes
   grid      :    22831. kBytes
   one-center:      497. kBytes
   wavefun   :     2924. kBytes
 
  
  
 General timing and accounting informations for this job:
 ========================================================
  
                  Total CPU time used (sec):      180.032
                            User time (sec):      179.888
                          System time (sec):        0.144
                         Elapsed time (sec):      181.281
  
                   Maximum memory used (kb):           0.
                   Average memory used (kb):           0.
  
                          Minor page faults:        26946
                          Major page faults:            0
                 Voluntary context switches:         1990
