       N       E                     dE             d eps       ncg     rms          rms(c)
RMM:   1     0.469367618807E+03    0.46937E+03   -0.22542E+04   336   0.626E+02
RMM:   2     0.411370716256E+02   -0.42823E+03   -0.41534E+03   336   0.143E+02
RMM:   3    -0.655810138212E+02   -0.10672E+03   -0.95905E+02   336   0.625E+01
RMM:   4    -0.101546620484E+03   -0.35966E+02   -0.26841E+02   336   0.545E+01
RMM:   5    -0.115854978108E+03   -0.14308E+02   -0.11333E+02   336   0.403E+01
RMM:   6    -0.122322912995E+03   -0.64679E+01   -0.57686E+01   336   0.276E+01
RMM:   7    -0.125678037620E+03   -0.33551E+01   -0.29273E+01   336   0.199E+01
RMM:   8    -0.127320391506E+03   -0.16424E+01   -0.15168E+01   336   0.135E+01
RMM:   9    -0.128972057893E+03   -0.16517E+01   -0.15748E+01   877   0.971E+00
RMM:  10    -0.129128704648E+03   -0.15665E+00   -0.10621E+00   901   0.129E+00
RMM:  11    -0.129136061276E+03   -0.73566E-02   -0.48511E-02   824   0.774E-01
RMM:  12    -0.129136937043E+03   -0.87577E-03   -0.79607E-03   738   0.111E-01    0.143E+01
RMM:  13    -0.125795863305E+03    0.33411E+01   -0.59737E+01   759   0.228E+01    0.614E+00
RMM:  14    -0.123656288870E+03    0.21396E+01   -0.28639E+00   735   0.620E+00    0.271E+00
RMM:  15    -0.123473342039E+03    0.18295E+00   -0.17671E+00   750   0.393E+00    0.181E+00
RMM:  16    -0.123359532874E+03    0.11381E+00   -0.98029E-02   786   0.103E+00    0.542E-01
RMM:  17    -0.123348870572E+03    0.10662E-01   -0.39436E-02   811   0.645E-01    0.113E-01
RMM:  18    -0.123349058055E+03   -0.18748E-03   -0.10739E-02   835   0.305E-01    0.105E-01
RMM:  19    -0.123348675613E+03    0.38244E-03   -0.86073E-04   744   0.967E-02    0.224E-02
RMM:  20    -0.123348680942E+03   -0.53290E-05   -0.61235E-05   477   0.300E-02
   1 F= -.12334868E+03 E0= -.12334657E+03  d E =-.633720E-02
