       N       E                     dE             d eps       ncg     rms          rms(c)
RMM:   1     0.253036724216E+03    0.25304E+03   -0.16678E+04    72   0.564E+02
RMM:   2    -0.347115826683E+02   -0.28775E+03   -0.27804E+03    72   0.116E+02
RMM:   3    -0.985337499948E+02   -0.63822E+02   -0.62654E+02    72   0.382E+01
RMM:   4    -0.111528734926E+03   -0.12995E+02   -0.12431E+02    72   0.203E+01
RMM:   5    -0.116347817814E+03   -0.48191E+01   -0.36069E+01    72   0.980E+00
RMM:   6    -0.117972899411E+03   -0.16251E+01   -0.11974E+01    72   0.514E+00
RMM:   7    -0.118515953568E+03   -0.54305E+00   -0.42240E+00    72   0.278E+00
RMM:   8    -0.118718015199E+03   -0.20206E+00   -0.15889E+00    72   0.153E+00
RMM:   9    -0.118822500781E+03   -0.10449E+00   -0.87420E-01   165   0.864E-01
RMM:  10    -0.118844153689E+03   -0.21653E-01   -0.12943E-01   143   0.221E-01
RMM:  11    -0.118844791470E+03   -0.63778E-03   -0.26269E-03   134   0.434E-02
RMM:  12    -0.118844797068E+03   -0.55980E-05   -0.41567E-05    97   0.138E-02    0.539E+00
RMM:  13    -0.118447722274E+03    0.39707E+00   -0.41490E-02   155   0.587E-01    0.336E+00
RMM:  14    -0.118148584812E+03    0.29914E+00   -0.14101E-01   151   0.101E+00    0.136E-01
RMM:  15    -0.118148884660E+03   -0.29985E-03   -0.17151E-03   159   0.136E-01    0.357E-02
RMM:  16    -0.118148899698E+03   -0.15038E-04   -0.30852E-05   114   0.162E-02
   1 F= -.11814890E+03 E0= -.11806109E+03  d E =-.263435E+00
