   3   3   0   0
  0.2274357E+02  0.4086266E-09  0.4086266E-09  0.4086266E-09  0.1000000E-16
  1.000000000000000E-004
  CAR 
 unknown system                          
     11.58167967     -4.96748357  301      5.62817970      1.00000000
     -4.967  0.0000E+00  0.0000E+00
     -4.912  0.0000E+00  0.0000E+00
     -4.857  0.0000E+00  0.0000E+00
     -4.802  0.0000E+00  0.0000E+00
     -4.747  0.0000E+00  0.0000E+00
     -4.692  0.0000E+00  0.0000E+00
     -4.637  0.0000E+00  0.0000E+00
     -4.581 -0.4349E-26 -0.2399E-27
     -4.526 -0.3294E-24 -0.1841E-25
     -4.471 -0.2164E-22 -0.1212E-23
     -4.416 -0.1218E-20 -0.6843E-22
     -4.361 -0.5883E-19 -0.3313E-20
     -4.306 -0.2434E-17 -0.1376E-18
     -4.250 -0.8630E-16 -0.4898E-17
     -4.195 -0.2621E-14 -0.1495E-15
     -4.140 -0.6617E-13 -0.3799E-14
     -4.085 -0.1470E-11 -0.8489E-13
     -4.030 -0.2792E-10 -0.1625E-11
     -3.975 -0.4532E-09 -0.2663E-10
     -3.919 -0.6285E-08 -0.3733E-09
     -3.864 -0.7437E-07 -0.4476E-08
     -3.809 -0.7503E-06 -0.4587E-07
     -3.754 -0.6444E-05 -0.4013E-06
     -3.699 -0.4702E-04 -0.2995E-05
     -3.644 -0.2909E-03 -0.1904E-04
     -3.588 -0.1520E-02 -0.1029E-03
     -3.533 -0.6679E-02 -0.4713E-03
     -3.478 -0.2450E-01 -0.1823E-02
     -3.423 -0.7416E-01 -0.5913E-02
     -3.368 -0.1815E+00 -0.1593E-01
     -3.313 -0.3441E+00 -0.3491E-01
     -3.257 -0.4487E+00 -0.5966E-01
     -3.202 -0.1886E+00 -0.7006E-01
     -3.147  0.8697E+00 -0.2208E-01
     -3.092  0.2949E+01  0.1406E+00
     -3.037  0.5627E+01  0.4510E+00
     -2.982  0.7795E+01  0.8810E+00
     -2.926  0.8312E+01  0.1340E+01
     -2.871  0.6881E+01  0.1719E+01
     -2.816  0.4301E+01  0.1956E+01
     -2.761  0.1813E+01  0.2056E+01
     -2.706  0.2281E+00  0.2069E+01
     -2.651 -0.3882E+00  0.2048E+01
     -2.595 -0.4192E+00  0.2024E+01
     -2.540 -0.2610E+00  0.2010E+01
     -2.485 -0.1206E+00  0.2003E+01
     -2.430 -0.4425E-01  0.2001E+01
     -2.375 -0.1328E-01  0.2000E+01
     -2.320 -0.3312E-02  0.2000E+01
     -2.264 -0.6920E-03  0.2000E+01
     -2.209 -0.1219E-03  0.2000E+01
     -2.154 -0.1817E-04  0.2000E+01
     -2.099 -0.2299E-05  0.2000E+01
     -2.044 -0.2473E-06  0.2000E+01
     -1.989 -0.2267E-07  0.2000E+01
     -1.933 -0.1773E-08  0.2000E+01
     -1.878 -0.1184E-09  0.2000E+01
     -1.823 -0.6754E-11  0.2000E+01
     -1.768 -0.3301E-12  0.2000E+01
     -1.713 -0.1610E-13  0.2000E+01
     -1.658  0.0000E+00  0.2000E+01
     -1.602  0.0000E+00  0.2000E+01
     -1.547  0.0000E+00  0.2000E+01
     -1.492  0.0000E+00  0.2000E+01
     -1.437  0.0000E+00  0.2000E+01
     -1.382  0.0000E+00  0.2000E+01
     -1.327  0.0000E+00  0.2000E+01
     -1.272  0.0000E+00  0.2000E+01
     -1.216  0.0000E+00  0.2000E+01
     -1.161  0.0000E+00  0.2000E+01
     -1.106  0.0000E+00  0.2000E+01
     -1.051  0.0000E+00  0.2000E+01
     -0.996  0.0000E+00  0.2000E+01
     -0.941  0.0000E+00  0.2000E+01
     -0.885  0.0000E+00  0.2000E+01
     -0.830  0.0000E+00  0.2000E+01
     -0.775  0.0000E+00  0.2000E+01
     -0.720  0.0000E+00  0.2000E+01
     -0.665  0.0000E+00  0.2000E+01
     -0.610  0.0000E+00  0.2000E+01
     -0.554  0.0000E+00  0.2000E+01
     -0.499  0.0000E+00  0.2000E+01
     -0.444  0.0000E+00  0.2000E+01
     -0.389  0.0000E+00  0.2000E+01
     -0.334 -0.7669E-27  0.2000E+01
     -0.279 -0.6316E-25  0.2000E+01
     -0.223 -0.4507E-23  0.2000E+01
     -0.168 -0.2758E-21  0.2000E+01
     -0.113 -0.1447E-19  0.2000E+01
     -0.058 -0.6507E-18  0.2000E+01
     -0.003 -0.2508E-16  0.2000E+01
      0.052 -0.8283E-15  0.2000E+01
      0.108 -0.2343E-13  0.2000E+01
      0.163 -0.5496E-12  0.2000E+01
      0.218 -0.1138E-10  0.2000E+01
      0.273 -0.2012E-09  0.2000E+01
      0.328 -0.3040E-08  0.2000E+01
      0.383 -0.3922E-07  0.2000E+01
      0.439 -0.4316E-06  0.2000E+01
      0.494 -0.4047E-05  0.2000E+01
      0.549 -0.3228E-04  0.2000E+01
      0.604 -0.2186E-03  0.2000E+01
      0.659 -0.1253E-02  0.2000E+01
      0.714 -0.6058E-02  0.2000E+01
      0.770 -0.2455E-01  0.1998E+01
      0.825 -0.8271E-01  0.1994E+01
      0.880 -0.2282E+00  0.1981E+01
      0.935 -0.5015E+00  0.1953E+01
      0.990 -0.8229E+00  0.1908E+01
      1.045 -0.8032E+00  0.1864E+01
      1.101  0.3314E+00  0.1882E+01
      1.156  0.3370E+01  0.2068E+01
      1.211  0.8265E+01  0.2524E+01
      1.266  0.1348E+02  0.3267E+01
      1.321  0.1655E+02  0.4180E+01
      1.376  0.1576E+02  0.5050E+01
      1.432  0.1157E+02  0.5688E+01
      1.487  0.6176E+01  0.6028E+01
      1.542  0.1832E+01  0.6129E+01
      1.597 -0.5423E+00  0.6100E+01
      1.652 -0.1300E+01  0.6028E+01
      1.707 -0.1119E+01  0.5966E+01
      1.763 -0.2570E+00  0.5952E+01
      1.818  0.1442E+01  0.6031E+01
      1.873  0.3967E+01  0.6250E+01
      1.928  0.6632E+01  0.6616E+01
      1.983  0.8245E+01  0.7071E+01
      2.038  0.7939E+01  0.7509E+01
      2.093  0.5897E+01  0.7834E+01
      2.149  0.3213E+01  0.8011E+01
      2.204  0.1038E+01  0.8069E+01
      2.259 -0.1232E+00  0.8062E+01
      2.314 -0.4457E+00  0.8037E+01
      2.369 -0.3611E+00  0.8017E+01
      2.424 -0.1964E+00  0.8007E+01
      2.480 -0.8220E-01  0.8002E+01
      2.535 -0.2773E-01  0.8001E+01
      2.590 -0.7705E-02  0.8000E+01
      2.645 -0.1786E-02  0.8000E+01
      2.700 -0.3479E-03  0.8000E+01
      2.755 -0.5722E-04  0.8000E+01
      2.811 -0.7976E-05  0.8000E+01
      2.866 -0.9444E-06  0.8000E+01
      2.921 -0.9517E-07  0.8000E+01
      2.976 -0.8175E-08  0.8000E+01
      3.031 -0.5993E-09  0.8000E+01
      3.086 -0.3752E-10  0.8000E+01
      3.142 -0.2005E-11  0.8000E+01
      3.197 -0.9660E-13  0.8000E+01
      3.252  0.0000E+00  0.8000E+01
      3.307  0.0000E+00  0.8000E+01
      3.362  0.0000E+00  0.8000E+01
      3.417  0.0000E+00  0.8000E+01
      3.473  0.0000E+00  0.8000E+01
      3.528  0.0000E+00  0.8000E+01
      3.583  0.0000E+00  0.8000E+01
      3.638  0.0000E+00  0.8000E+01
      3.693  0.0000E+00  0.8000E+01
      3.748  0.0000E+00  0.8000E+01
      3.804  0.0000E+00  0.8000E+01
      3.859  0.0000E+00  0.8000E+01
      3.914  0.0000E+00  0.8000E+01
      3.969  0.0000E+00  0.8000E+01
      4.024  0.0000E+00  0.8000E+01
      4.079 -0.1125E-25  0.8000E+01
      4.135 -0.8435E-24  0.8000E+01
      4.190 -0.5484E-22  0.8000E+01
      4.245 -0.3058E-20  0.8000E+01
      4.300 -0.1461E-18  0.8000E+01
      4.355 -0.5987E-17  0.8000E+01
      4.410 -0.2102E-15  0.8000E+01
      4.466 -0.6321E-14  0.8000E+01
      4.521 -0.1588E-12  0.8000E+01
      4.576 -0.3474E-11  0.8000E+01
      4.631 -0.6539E-10  0.8000E+01
      4.686 -0.1051E-08  0.8000E+01
      4.741 -0.1444E-07  0.8000E+01
      4.797 -0.1693E-06  0.8000E+01
      4.852 -0.1692E-05  0.8000E+01
      4.907 -0.1439E-04  0.8000E+01
      4.962 -0.1040E-03  0.8000E+01
      5.017 -0.6375E-03  0.8000E+01
      5.072 -0.3299E-02  0.8000E+01
      5.128 -0.1436E-01  0.7999E+01
      5.183 -0.5212E-01  0.7996E+01
      5.238 -0.1561E+00  0.7987E+01
      5.293 -0.3773E+00  0.7967E+01
      5.348 -0.7044E+00  0.7928E+01
      5.403 -0.8939E+00  0.7879E+01
      5.458 -0.3135E+00  0.7861E+01
      5.514  0.1902E+01  0.7966E+01
      5.569  0.6151E+01  0.8305E+01
      5.624  0.1151E+02  0.8940E+01
      5.679  0.1573E+02  0.9808E+01
      5.734  0.1656E+02  0.1072E+02
      5.789  0.1354E+02  0.1147E+02
      5.845  0.8334E+01  0.1193E+02
      5.900  0.3424E+01  0.1212E+02
      5.955  0.3583E+00  0.1214E+02
      6.010 -0.7970E+00  0.1209E+02
      6.065 -0.8261E+00  0.1205E+02
      6.120 -0.5069E+00  0.1202E+02
      6.176 -0.2361E+00  0.1201E+02
      6.231 -0.1036E+00  0.1200E+02
      6.286 -0.8657E-01  0.1200E+02
      6.341 -0.1632E+00  0.1199E+02
      6.396 -0.3146E+00  0.1197E+02
      6.451 -0.4453E+00  0.1194E+02
      6.507 -0.2824E+00  0.1193E+02
      6.562  0.6021E+00  0.1196E+02
      6.617  0.2505E+01  0.1210E+02
      6.672  0.5141E+01  0.1238E+02
      6.727  0.7498E+01  0.1280E+02
      6.782  0.8370E+01  0.1326E+02
      6.838  0.7261E+01  0.1366E+02
      6.893  0.4797E+01  0.1392E+02
      6.948  0.2210E+01  0.1405E+02
      7.003  0.4366E+00  0.1407E+02
      7.058 -0.3334E+00  0.1405E+02
      7.113 -0.4370E+00  0.1403E+02
      7.169 -0.2917E+00  0.1401E+02
      7.224 -0.1412E+00  0.1400E+02
      7.279 -0.5389E-01  0.1400E+02
      7.334 -0.1676E-01  0.1400E+02
      7.389 -0.4317E-02  0.1400E+02
      7.444 -0.9310E-03  0.1400E+02
      7.500 -0.1691E-03  0.1400E+02
      7.555 -0.2597E-04  0.1400E+02
      7.610 -0.3384E-05  0.1400E+02
      7.665 -0.3750E-06  0.1400E+02
      7.720 -0.3538E-07  0.1400E+02
      7.775 -0.2847E-08  0.1400E+02
      7.831 -0.1956E-09  0.1400E+02
      7.886 -0.1148E-10  0.1400E+02
      7.941 -0.5796E-12  0.1400E+02
      7.996 -0.2415E-13  0.1400E+02
      8.051 -0.2852E-23  0.1400E+02
      8.106 -0.1732E-21  0.1400E+02
      8.162 -0.9015E-20  0.1400E+02
      8.217 -0.4022E-18  0.1400E+02
      8.272 -0.1538E-16  0.1400E+02
      8.327 -0.5038E-15  0.1400E+02
      8.382 -0.1414E-13  0.1400E+02
      8.437 -0.3296E-12  0.1400E+02
      8.493 -0.6752E-11  0.1400E+02
      8.548 -0.1184E-09  0.1400E+02
      8.603 -0.1773E-08  0.1400E+02
      8.658 -0.2267E-07  0.1400E+02
      8.713 -0.2473E-06  0.1400E+02
      8.768 -0.2299E-05  0.1400E+02
      8.823 -0.1817E-04  0.1400E+02
      8.879 -0.1219E-03  0.1400E+02
      8.934 -0.6920E-03  0.1400E+02
      8.989 -0.3312E-02  0.1400E+02
      9.044 -0.1328E-01  0.1400E+02
      9.099 -0.4425E-01  0.1400E+02
      9.154 -0.1206E+00  0.1399E+02
      9.210 -0.2610E+00  0.1398E+02
      9.265 -0.4192E+00  0.1395E+02
      9.320 -0.3882E+00  0.1393E+02
      9.375  0.2281E+00  0.1394E+02
      9.430  0.1813E+01  0.1404E+02
      9.485  0.4301E+01  0.1428E+02
      9.541  0.6881E+01  0.1466E+02
      9.596  0.8312E+01  0.1512E+02
      9.651  0.7795E+01  0.1555E+02
      9.706  0.5627E+01  0.1586E+02
      9.761  0.2949E+01  0.1602E+02
      9.816  0.8697E+00  0.1607E+02
      9.872 -0.1886E+00  0.1606E+02
      9.927 -0.4487E+00  0.1603E+02
      9.982 -0.3441E+00  0.1602E+02
     10.037 -0.1815E+00  0.1601E+02
     10.092 -0.7416E-01  0.1600E+02
     10.147 -0.2450E-01  0.1600E+02
     10.203 -0.6679E-02  0.1600E+02
     10.258 -0.1520E-02  0.1600E+02
     10.313 -0.2909E-03  0.1600E+02
     10.368 -0.4702E-04  0.1600E+02
     10.423 -0.6444E-05  0.1600E+02
     10.478 -0.7503E-06  0.1600E+02
     10.534 -0.7437E-07  0.1600E+02
     10.589 -0.6285E-08  0.1600E+02
     10.644 -0.4532E-09  0.1600E+02
     10.699 -0.2792E-10  0.1600E+02
     10.754 -0.1465E-11  0.1600E+02
     10.809 -0.7245E-13  0.1600E+02
     10.865  0.0000E+00  0.1600E+02
     10.920  0.0000E+00  0.1600E+02
     10.975  0.0000E+00  0.1600E+02
     11.030  0.0000E+00  0.1600E+02
     11.085  0.0000E+00  0.1600E+02
     11.140  0.0000E+00  0.1600E+02
     11.196  0.0000E+00  0.1600E+02
     11.251  0.0000E+00  0.1600E+02
     11.306  0.0000E+00  0.1600E+02
     11.361  0.0000E+00  0.1600E+02
     11.416  0.0000E+00  0.1600E+02
     11.471  0.0000E+00  0.1600E+02
     11.527  0.0000E+00  0.1600E+02
     11.582  0.0000E+00  0.1600E+02
