   4   4   0   0
  0.1071875E+02  0.3500000E-09  0.3500000E-09  0.3500000E-09  0.5000000E-15
  1.000000000000000E-004
  CAR 
 unknown system                          
     13.62159284     -5.67721895  301      4.78880248      1.00000000
     -5.677  0.0000E+00  0.0000E+00
     -5.613  0.0000E+00  0.0000E+00
     -5.549  0.0000E+00  0.0000E+00
     -5.484  0.0000E+00  0.0000E+00
     -5.420  0.0000E+00  0.0000E+00
     -5.356  0.0000E+00  0.0000E+00
     -5.291 -0.1926E-28 -0.1239E-29
     -5.227 -0.2978E-26 -0.1928E-27
     -5.163 -0.3755E-24 -0.2435E-25
     -5.098 -0.3842E-22 -0.2496E-23
     -5.034 -0.3188E-20 -0.2076E-21
     -4.970 -0.2145E-18 -0.1401E-19
     -4.905 -0.1170E-16 -0.7666E-18
     -4.841 -0.4989E-15 -0.3286E-16
     -4.777 -0.1789E-13 -0.1184E-14
     -4.712 -0.5158E-12 -0.3436E-13
     -4.648 -0.1201E-10 -0.8071E-12
     -4.584 -0.2257E-09 -0.1533E-10
     -4.519 -0.3417E-08 -0.2352E-09
     -4.455 -0.4159E-07 -0.2911E-08
     -4.391 -0.4057E-06 -0.2901E-07
     -4.326 -0.3159E-05 -0.2322E-06
     -4.262 -0.1952E-04 -0.1488E-05
     -4.198 -0.9487E-04 -0.7591E-05
     -4.133 -0.3568E-03 -0.3055E-04
     -4.069 -0.1008E-02 -0.9541E-04
     -4.005 -0.1993E-02 -0.2236E-03
     -3.940 -0.2113E-02 -0.3596E-03
     -3.876  0.1605E-02 -0.2563E-03
     -3.812  0.1216E-01  0.5256E-03
     -3.747  0.2806E-01  0.2330E-02
     -3.683  0.4118E-01  0.4979E-02
     -3.619  0.4245E-01  0.7710E-02
     -3.554  0.3093E-01  0.9700E-02
     -3.490  0.1478E-01  0.1065E-01
     -3.426  0.2955E-02  0.1084E-01
     -3.361 -0.1835E-02  0.1072E-01
     -3.297 -0.2142E-02  0.1058E-01
     -3.233 -0.1174E-02  0.1051E-01
     -3.168 -0.4399E-03  0.1048E-01
     -3.104 -0.1228E-03  0.1047E-01
     -3.040 -0.2642E-04  0.1047E-01
     -2.975 -0.4461E-05  0.1047E-01
     -2.911 -0.5969E-06  0.1047E-01
     -2.847 -0.6370E-07  0.1047E-01
     -2.782 -0.5446E-08  0.1047E-01
     -2.718 -0.3741E-09  0.1047E-01
     -2.654 -0.2069E-10  0.1047E-01
     -2.589 -0.9234E-12  0.1047E-01
     -2.525 -0.3329E-13  0.1047E-01
     -2.461 -0.9397E-15  0.1047E-01
     -2.396 -0.3614E-16  0.1047E-01
     -2.332  0.0000E+00  0.1047E-01
     -2.268  0.0000E+00  0.1047E-01
     -2.203  0.0000E+00  0.1047E-01
     -2.139  0.0000E+00  0.1047E-01
     -2.075  0.0000E+00  0.1047E-01
     -2.010  0.0000E+00  0.1047E-01
     -1.946  0.0000E+00  0.1047E-01
     -1.882  0.0000E+00  0.1047E-01
     -1.817  0.0000E+00  0.1047E-01
     -1.753  0.0000E+00  0.1047E-01
     -1.689  0.0000E+00  0.1047E-01
     -1.624  0.0000E+00  0.1047E-01
     -1.560  0.0000E+00  0.1047E-01
     -1.496  0.0000E+00  0.1047E-01
     -1.431  0.0000E+00  0.1047E-01
     -1.367  0.0000E+00  0.1047E-01
     -1.303  0.0000E+00  0.1047E-01
     -1.238  0.0000E+00  0.1047E-01
     -1.174  0.0000E+00  0.1047E-01
     -1.110  0.0000E+00  0.1047E-01
     -1.046  0.0000E+00  0.1047E-01
     -0.981  0.0000E+00  0.1047E-01
     -0.917  0.0000E+00  0.1047E-01
     -0.853  0.0000E+00  0.1047E-01
     -0.788  0.0000E+00  0.1047E-01
     -0.724  0.0000E+00  0.1047E-01
     -0.660  0.0000E+00  0.1047E-01
     -0.595  0.0000E+00  0.1047E-01
     -0.531  0.0000E+00  0.1047E-01
     -0.467  0.0000E+00  0.1047E-01
     -0.402  0.0000E+00  0.1047E-01
     -0.338  0.0000E+00  0.1047E-01
     -0.274  0.0000E+00  0.1047E-01
     -0.209  0.0000E+00  0.1047E-01
     -0.145  0.0000E+00  0.1047E-01
     -0.081  0.0000E+00  0.1047E-01
     -0.016  0.0000E+00  0.1047E-01
      0.048  0.0000E+00  0.1047E-01
      0.112  0.0000E+00  0.1047E-01
      0.177  0.0000E+00  0.1047E-01
      0.241  0.0000E+00  0.1047E-01
      0.305  0.0000E+00  0.1047E-01
      0.370  0.0000E+00  0.1047E-01
      0.434  0.0000E+00  0.1047E-01
      0.498  0.0000E+00  0.1047E-01
      0.563  0.0000E+00  0.1047E-01
      0.627  0.0000E+00  0.1047E-01
      0.691  0.0000E+00  0.1047E-01
      0.756  0.0000E+00  0.1047E-01
      0.820  0.0000E+00  0.1047E-01
      0.884  0.0000E+00  0.1047E-01
      0.949  0.0000E+00  0.1047E-01
      1.013  0.0000E+00  0.1047E-01
      1.077  0.0000E+00  0.1047E-01
      1.142  0.0000E+00  0.1047E-01
      1.206  0.0000E+00  0.1047E-01
      1.270  0.0000E+00  0.1047E-01
      1.335  0.0000E+00  0.1047E-01
      1.399  0.0000E+00  0.1047E-01
      1.463  0.0000E+00  0.1047E-01
      1.528  0.0000E+00  0.1047E-01
      1.592  0.0000E+00  0.1047E-01
      1.656  0.0000E+00  0.1047E-01
      1.721  0.0000E+00  0.1047E-01
      1.785  0.0000E+00  0.1047E-01
      1.849  0.0000E+00  0.1047E-01
      1.914  0.0000E+00  0.1047E-01
      1.978  0.0000E+00  0.1047E-01
      2.042  0.0000E+00  0.1047E-01
      2.107  0.0000E+00  0.1047E-01
      2.171  0.0000E+00  0.1047E-01
      2.235 -0.1396E-27  0.1047E-01
      2.300 -0.2082E-25  0.1047E-01
      2.364 -0.2533E-23  0.1047E-01
      2.428 -0.2500E-21  0.1047E-01
      2.493 -0.2001E-19  0.1047E-01
      2.557 -0.1299E-17  0.1047E-01
      2.621 -0.6831E-16  0.1047E-01
      2.686 -0.2830E-14  0.1047E-01
      2.750 -0.9707E-13  0.1047E-01
      2.814 -0.2698E-11  0.1047E-01
      2.879 -0.6058E-10  0.1047E-01
      2.943 -0.1097E-08  0.1047E-01
      3.007 -0.1600E-07  0.1047E-01
      3.072 -0.1875E-06  0.1047E-01
      3.136 -0.1760E-05  0.1047E-01
      3.200 -0.1318E-04  0.1047E-01
      3.265 -0.7820E-04  0.1047E-01
      3.329 -0.3641E-03  0.1044E-01
      3.393 -0.1308E-02  0.1036E-01
      3.458 -0.3499E-02  0.1013E-01
      3.522 -0.6408E-02  0.9720E-02
      3.586 -0.5552E-02  0.9363E-02
      3.651  0.8665E-02  0.9921E-02
      3.715  0.4397E-01  0.1275E-01
      3.779  0.9241E-01  0.1869E-01
      3.844  0.1272E+00  0.2688E-01
      3.908  0.1237E+00  0.3484E-01
      3.972  0.8456E-01  0.4028E-01
      4.037  0.3681E-01  0.4264E-01
      4.101  0.4972E-02  0.4296E-01
      4.165 -0.6371E-02  0.4255E-01
      4.230 -0.6295E-02  0.4215E-01
      4.294 -0.4145E-02  0.4188E-01
      4.358 -0.4164E-02  0.4162E-01
      4.422 -0.6326E-02  0.4121E-01
      4.487 -0.6319E-02  0.4080E-01
      4.551  0.5258E-02  0.4114E-01
      4.615  0.3739E-01  0.4355E-01
      4.680  0.8523E-01  0.4903E-01
      4.744  0.1241E+00  0.5701E-01
      4.808  0.1270E+00  0.6518E-01
      4.873  0.9176E-01  0.7108E-01
      4.937  0.4335E-01  0.7387E-01
      5.001  0.8334E-02  0.7440E-01
      5.066 -0.5629E-02  0.7404E-01
      5.130 -0.6377E-02  0.7363E-01
      5.194 -0.3460E-02  0.7341E-01
      5.259 -0.1287E-02  0.7333E-01
      5.323 -0.3572E-03  0.7330E-01
      5.387 -0.7644E-04  0.7330E-01
      5.452 -0.1284E-04  0.7330E-01
      5.516 -0.1709E-05  0.7330E-01
      5.580 -0.1815E-06  0.7330E-01
      5.645 -0.1544E-07  0.7330E-01
      5.709 -0.1056E-08  0.7330E-01
      5.773 -0.5813E-10  0.7330E-01
      5.838 -0.2582E-11  0.7330E-01
      5.902 -0.9271E-13  0.7330E-01
      5.966 -0.2602E-14  0.7330E-01
      6.031 -0.1084E-15  0.7330E-01
      6.095  0.0000E+00  0.7330E-01
      6.159  0.0000E+00  0.7330E-01
      6.224  0.0000E+00  0.7330E-01
      6.288  0.0000E+00  0.7330E-01
      6.352  0.0000E+00  0.7330E-01
      6.417  0.0000E+00  0.7330E-01
      6.481  0.0000E+00  0.7330E-01
      6.545  0.0000E+00  0.7330E-01
      6.610  0.0000E+00  0.7330E-01
      6.674  0.0000E+00  0.7330E-01
      6.738  0.0000E+00  0.7330E-01
      6.803  0.0000E+00  0.7330E-01
      6.867  0.0000E+00  0.7330E-01
      6.931  0.0000E+00  0.7330E-01
      6.996  0.0000E+00  0.7330E-01
      7.060  0.0000E+00  0.7330E-01
      7.124  0.0000E+00  0.7330E-01
      7.189  0.0000E+00  0.7330E-01
      7.253  0.0000E+00  0.7330E-01
      7.317  0.0000E+00  0.7330E-01
      7.382  0.0000E+00  0.7330E-01
      7.446  0.0000E+00  0.7330E-01
      7.510  0.0000E+00  0.7330E-01
      7.575  0.0000E+00  0.7330E-01
      7.639  0.0000E+00  0.7330E-01
      7.703  0.0000E+00  0.7330E-01
      7.768  0.0000E+00  0.7330E-01
      7.832  0.0000E+00  0.7330E-01
      7.896  0.0000E+00  0.7330E-01
      7.961  0.0000E+00  0.7330E-01
      8.025  0.0000E+00  0.7330E-01
      8.089  0.0000E+00  0.7330E-01
      8.154  0.0000E+00  0.7330E-01
      8.218  0.0000E+00  0.7330E-01
      8.282  0.0000E+00  0.7330E-01
      8.347  0.0000E+00  0.7330E-01
      8.411  0.0000E+00  0.7330E-01
      8.475  0.0000E+00  0.7330E-01
      8.540  0.0000E+00  0.7330E-01
      8.604  0.0000E+00  0.7330E-01
      8.668  0.0000E+00  0.7330E-01
      8.733  0.0000E+00  0.7330E-01
      8.797  0.0000E+00  0.7330E-01
      8.861  0.0000E+00  0.7330E-01
      8.926  0.0000E+00  0.7330E-01
      8.990  0.0000E+00  0.7330E-01
      9.054  0.0000E+00  0.7330E-01
      9.119  0.0000E+00  0.7330E-01
      9.183  0.0000E+00  0.7330E-01
      9.247  0.0000E+00  0.7330E-01
      9.312  0.0000E+00  0.7330E-01
      9.376  0.0000E+00  0.7330E-01
      9.440  0.0000E+00  0.7330E-01
      9.505  0.0000E+00  0.7330E-01
      9.569  0.0000E+00  0.7330E-01
      9.633  0.0000E+00  0.7330E-01
      9.698  0.0000E+00  0.7330E-01
      9.762  0.0000E+00  0.7330E-01
      9.826  0.0000E+00  0.7330E-01
      9.890  0.0000E+00  0.7330E-01
      9.955  0.0000E+00  0.7330E-01
     10.019 -0.1455E-27  0.7330E-01
     10.083 -0.2167E-25  0.7330E-01
     10.148 -0.2632E-23  0.7330E-01
     10.212 -0.2593E-21  0.7330E-01
     10.276 -0.2072E-19  0.7330E-01
     10.341 -0.1343E-17  0.7330E-01
     10.405 -0.7050E-16  0.7330E-01
     10.469 -0.2918E-14  0.7330E-01
     10.534 -0.9985E-13  0.7330E-01
     10.598 -0.2770E-11  0.7330E-01
     10.662 -0.6208E-10  0.7330E-01
     10.727 -0.1122E-08  0.7330E-01
     10.791 -0.1634E-07  0.7330E-01
     10.855 -0.1911E-06  0.7330E-01
     10.920 -0.1791E-05  0.7330E-01
     10.984 -0.1338E-04  0.7330E-01
     11.048 -0.7927E-04  0.7329E-01
     11.113 -0.3684E-03  0.7327E-01
     11.177 -0.1320E-02  0.7318E-01
     11.241 -0.3523E-02  0.7296E-01
     11.306 -0.6426E-02  0.7254E-01
     11.370 -0.5505E-02  0.7219E-01
     11.434  0.8864E-02  0.7276E-01
     11.499  0.4434E-01  0.7561E-01
     11.563  0.9279E-01  0.8158E-01
     11.627  0.1274E+00  0.8977E-01
     11.692  0.1235E+00  0.9772E-01
     11.756  0.8417E-01  0.1031E+00
     11.820  0.3647E-01  0.1055E+00
     11.885  0.4814E-02  0.1058E+00
     11.949 -0.6340E-02  0.1054E+00
     12.013 -0.5979E-02  0.1050E+00
     12.078 -0.3025E-02  0.1048E+00
     12.142 -0.1071E-02  0.1047E+00
     12.206 -0.2846E-03  0.1047E+00
     12.271 -0.5857E-04  0.1047E+00
     12.335 -0.9478E-05  0.1047E+00
     12.399 -0.1217E-05  0.1047E+00
     12.464 -0.1248E-06  0.1047E+00
     12.528 -0.1025E-07  0.1047E+00
     12.592 -0.6772E-09  0.1047E+00
     12.657 -0.3604E-10  0.1047E+00
     12.721 -0.1547E-11  0.1047E+00
     12.785 -0.5367E-13  0.1047E+00
     12.850 -0.1518E-14  0.1047E+00
     12.914  0.0000E+00  0.1047E+00
     12.978  0.0000E+00  0.1047E+00
     13.043  0.0000E+00  0.1047E+00
     13.107  0.0000E+00  0.1047E+00
     13.171  0.0000E+00  0.1047E+00
     13.236  0.0000E+00  0.1047E+00
     13.300  0.0000E+00  0.1047E+00
     13.364  0.0000E+00  0.1047E+00
     13.429  0.0000E+00  0.1047E+00
     13.493  0.0000E+00  0.1047E+00
     13.557  0.0000E+00  0.1047E+00
     13.622  0.0000E+00  0.1047E+00
