   8   8   0   0
  0.2226630E+02  0.5626600E-09  0.5626600E-09  0.5626600E-09  0.5000000E-15
  1.000000000000000E-004
  CAR 
 unknown system                          
     11.44817131    -13.38180109  301      3.78260069      1.00000000
    -13.382  0.0000E+00  0.0000E+00  0.0000E+00  0.0000E+00
    -13.299  0.0000E+00  0.0000E+00  0.0000E+00  0.0000E+00
    -13.216  0.0000E+00  0.0000E+00  0.0000E+00  0.0000E+00
    -13.134  0.0000E+00  0.0000E+00  0.0000E+00  0.0000E+00
    -13.051 -0.1600E-30 -0.1631E-30 -0.1324E-31 -0.1350E-31
    -12.968 -0.1524E-27 -0.1552E-27 -0.1263E-28 -0.1286E-28
    -12.885 -0.8826E-25 -0.8980E-25 -0.7317E-26 -0.7445E-26
    -12.802 -0.3626E-22 -0.3686E-22 -0.3008E-23 -0.3058E-23
    -12.720 -0.1057E-19 -0.1073E-19 -0.8776E-21 -0.8912E-21
    -12.637 -0.2184E-17 -0.2216E-17 -0.1817E-18 -0.1843E-18
    -12.554 -0.3135E-15 -0.3178E-15 -0.2613E-16 -0.2649E-16
    -12.471 -0.3218E-13 -0.3259E-13 -0.2690E-14 -0.2724E-14
    -12.389 -0.2356E-11 -0.2383E-11 -0.1977E-12 -0.2000E-12
    -12.306 -0.1219E-09 -0.1232E-09 -0.1029E-10 -0.1040E-10
    -12.223 -0.4457E-08 -0.4500E-08 -0.3792E-09 -0.3828E-09
    -12.140 -0.1148E-06 -0.1158E-06 -0.9881E-08 -0.9967E-08
    -12.058 -0.2079E-05 -0.2095E-05 -0.1819E-06 -0.1834E-06
    -11.975 -0.2636E-04 -0.2654E-04 -0.2364E-05 -0.2380E-05
    -11.892 -0.2327E-03 -0.2340E-03 -0.2162E-04 -0.2175E-04
    -11.809 -0.1413E-02 -0.1419E-02 -0.1385E-03 -0.1392E-03
    -11.726 -0.5752E-02 -0.5772E-02 -0.6147E-03 -0.6169E-03
    -11.644 -0.1462E-01 -0.1464E-01 -0.1824E-02 -0.1829E-02
    -11.561 -0.1647E-01 -0.1643E-01 -0.3187E-02 -0.3189E-02
    -11.478  0.2857E-01  0.2882E-01 -0.8228E-03 -0.8039E-03
    -11.395  0.1686E+00  0.1691E+00  0.1313E-01  0.1320E-01
    -11.313  0.3815E+00  0.3821E+00  0.4471E-01  0.4482E-01
    -11.230  0.5284E+00  0.5286E+00  0.8845E-01  0.8857E-01
    -11.147  0.4722E+00  0.4717E+00  0.1275E+00  0.1276E+00
    -11.064  0.2575E+00  0.2568E+00  0.1488E+00  0.1489E+00
    -10.982  0.6250E-01  0.6210E-01  0.1540E+00  0.1540E+00
    -10.899 -0.1727E-01 -0.1735E-01  0.1526E+00  0.1526E+00
    -10.816 -0.2056E-01 -0.2052E-01  0.1509E+00  0.1509E+00
    -10.733 -0.8313E-02 -0.8284E-02  0.1502E+00  0.1502E+00
    -10.651 -0.1985E-02 -0.1975E-02  0.1500E+00  0.1500E+00
    -10.568 -0.3099E-03 -0.3081E-03  0.1500E+00  0.1500E+00
    -10.485 -0.3286E-04 -0.3264E-04  0.1500E+00  0.1500E+00
    -10.402 -0.2409E-05 -0.2390E-05  0.1500E+00  0.1500E+00
    -10.319 -0.1232E-06 -0.1221E-06  0.1500E+00  0.1500E+00
    -10.237 -0.4534E-08 -0.4491E-08  0.1500E+00  0.1500E+00
    -10.154 -0.3799E-08 -0.3803E-08  0.1500E+00  0.1500E+00
    -10.071 -0.8588E-07 -0.8598E-07  0.1500E+00  0.1500E+00
     -9.988 -0.1387E-05 -0.1388E-05  0.1500E+00  0.1500E+00
     -9.906 -0.1537E-04 -0.1538E-04  0.1500E+00  0.1500E+00
     -9.823 -0.1148E-03 -0.1149E-03  0.1500E+00  0.1500E+00
     -9.740 -0.5591E-03 -0.5594E-03  0.1499E+00  0.1499E+00
     -9.657 -0.1625E-02 -0.1626E-02  0.1498E+00  0.1498E+00
     -9.575 -0.1929E-02 -0.1928E-02  0.1496E+00  0.1496E+00
     -9.492  0.3826E-02  0.3830E-02  0.1500E+00  0.1500E+00
     -9.409  0.1999E-01  0.2000E-01  0.1516E+00  0.1516E+00
     -9.326  0.3772E-01  0.3773E-01  0.1547E+00  0.1547E+00
     -9.243  0.3930E-01  0.3930E-01  0.1580E+00  0.1580E+00
     -9.161  0.2294E-01  0.2293E-01  0.1599E+00  0.1599E+00
     -9.078  0.5571E-02  0.5566E-02  0.1604E+00  0.1604E+00
     -8.995 -0.1632E-02 -0.1633E-02  0.1602E+00  0.1602E+00
     -8.912 -0.1798E-02 -0.1797E-02  0.1601E+00  0.1601E+00
     -8.830 -0.6783E-03 -0.6779E-03  0.1600E+00  0.1600E+00
     -8.747 -0.1492E-03 -0.1491E-03  0.1600E+00  0.1600E+00
     -8.664 -0.2123E-04 -0.2121E-04  0.1600E+00  0.1600E+00
     -8.581 -0.2494E-05 -0.2493E-05  0.1600E+00  0.1600E+00
     -8.499 -0.6205E-05 -0.6210E-05  0.1600E+00  0.1600E+00
     -8.416 -0.5339E-04 -0.5344E-04  0.1600E+00  0.1600E+00
     -8.333 -0.3111E-03 -0.3113E-03  0.1600E+00  0.1600E+00
     -8.250 -0.1134E-02 -0.1135E-02  0.1599E+00  0.1599E+00
     -8.168 -0.2148E-02 -0.2148E-02  0.1597E+00  0.1597E+00
     -8.085  0.3172E-03  0.3198E-03  0.1597E+00  0.1597E+00
     -8.002  0.1235E-01  0.1236E-01  0.1607E+00  0.1607E+00
     -7.919  0.3152E-01  0.3152E-01  0.1634E+00  0.1634E+00
     -7.836  0.4102E-01  0.4102E-01  0.1667E+00  0.1668E+00
     -7.754  0.2944E-01  0.2943E-01  0.1692E+00  0.1692E+00
     -7.671  0.8023E-02  0.8015E-02  0.1699E+00  0.1699E+00
     -7.588 -0.3182E-02 -0.3182E-02  0.1696E+00  0.1696E+00
     -7.505  0.9145E-02  0.9156E-02  0.1703E+00  0.1703E+00
     -7.423  0.4500E-01  0.4502E-01  0.1741E+00  0.1741E+00
     -7.340  0.7841E-01  0.7842E-01  0.1806E+00  0.1806E+00
     -7.257  0.7526E-01  0.7525E-01  0.1868E+00  0.1868E+00
     -7.174  0.3976E-01  0.3975E-01  0.1901E+00  0.1901E+00
     -7.092  0.7535E-02  0.7526E-02  0.1907E+00  0.1907E+00
     -7.009 -0.3875E-02 -0.3876E-02  0.1904E+00  0.1904E+00
     -6.926 -0.3237E-02 -0.3236E-02  0.1901E+00  0.1901E+00
     -6.843 -0.1110E-02 -0.1110E-02  0.1900E+00  0.1900E+00
     -6.760 -0.2275E-03 -0.2273E-03  0.1900E+00  0.1900E+00
     -6.678 -0.3037E-04 -0.3034E-04  0.1900E+00  0.1900E+00
     -6.595 -0.2735E-05 -0.2732E-05  0.1900E+00  0.1900E+00
     -6.512 -0.1691E-06 -0.1689E-06  0.1900E+00  0.1900E+00
     -6.429 -0.7246E-08 -0.7235E-08  0.1900E+00  0.1900E+00
     -6.347 -0.2169E-09 -0.2166E-09  0.1900E+00  0.1900E+00
     -6.264 -0.1941E-10 -0.1942E-10  0.1900E+00  0.1900E+00
     -6.181 -0.5998E-09 -0.6005E-09  0.1900E+00  0.1900E+00
     -6.098 -0.1692E-07 -0.1693E-07  0.1900E+00  0.1900E+00
     -6.016 -0.3320E-06 -0.3323E-06  0.1900E+00  0.1900E+00
     -5.933 -0.4500E-05 -0.4503E-05  0.1900E+00  0.1900E+00
     -5.850 -0.4156E-04 -0.4159E-04  0.1900E+00  0.1900E+00
     -5.767 -0.2556E-03 -0.2557E-03  0.1900E+00  0.1900E+00
     -5.685 -0.9936E-03 -0.9939E-03  0.1899E+00  0.1899E+00
     -5.602 -0.2091E-02 -0.2091E-02  0.1897E+00  0.1897E+00
     -5.519 -0.4102E-03 -0.4087E-03  0.1897E+00  0.1897E+00
     -5.436  0.1025E-01  0.1025E-01  0.1905E+00  0.1905E+00
     -5.353  0.2926E-01  0.2927E-01  0.1930E+00  0.1930E+00
     -5.271  0.4120E-01  0.4120E-01  0.1964E+00  0.1964E+00
     -5.188  0.3300E-01  0.3300E-01  0.1991E+00  0.1991E+00
     -5.105  0.1383E-01  0.1383E-01  0.2002E+00  0.2002E+00
     -5.022  0.8887E-03  0.8865E-03  0.2003E+00  0.2003E+00
     -4.940 -0.2159E-02 -0.2159E-02  0.2001E+00  0.2001E+00
     -4.857 -0.1232E-02 -0.1232E-02  0.2000E+00  0.2000E+00
     -4.774 -0.3531E-03 -0.3530E-03  0.2000E+00  0.2000E+00
     -4.691 -0.6282E-04 -0.6278E-04  0.2000E+00  0.2000E+00
     -4.609 -0.7384E-05 -0.7378E-05  0.2000E+00  0.2000E+00
     -4.526 -0.5894E-06 -0.5889E-06  0.2000E+00  0.2000E+00
     -4.443 -0.3241E-07 -0.3238E-07  0.2000E+00  0.2000E+00
     -4.360 -0.1239E-08 -0.1237E-08  0.2000E+00  0.2000E+00
     -4.277 -0.3307E-10 -0.3304E-10  0.2000E+00  0.2000E+00
     -4.195 -0.6193E-12 -0.6186E-12  0.2000E+00  0.2000E+00
     -4.112 -0.8492E-14 -0.8493E-14  0.2000E+00  0.2000E+00
     -4.029 -0.3465E-13 -0.3476E-13  0.2000E+00  0.2000E+00
     -3.946 -0.2475E-11 -0.2483E-11  0.2000E+00  0.2000E+00
     -3.864 -0.1245E-09 -0.1249E-09  0.2000E+00  0.2000E+00
     -3.781 -0.4393E-08 -0.4405E-08  0.2000E+00  0.2000E+00
     -3.698 -0.1082E-06 -0.1084E-06  0.2000E+00  0.2000E+00
     -3.615 -0.1849E-05 -0.1853E-05  0.2000E+00  0.2000E+00
     -3.533 -0.2174E-04 -0.2178E-04  0.2000E+00  0.2000E+00
     -3.450 -0.1730E-03 -0.1732E-03  0.2000E+00  0.2000E+00
     -3.367 -0.9029E-03 -0.9039E-03  0.1999E+00  0.1999E+00
     -3.284 -0.2872E-02 -0.2874E-02  0.1997E+00  0.1997E+00
     -3.202 -0.4203E-02 -0.4202E-02  0.1993E+00  0.1993E+00
     -3.119  0.4542E-02  0.4556E-02  0.1997E+00  0.1997E+00
     -3.036  0.3394E-01  0.3397E-01  0.2025E+00  0.2025E+00
     -2.953  0.7131E-01  0.7133E-01  0.2084E+00  0.2084E+00
     -2.870  0.8098E-01  0.8097E-01  0.2151E+00  0.2151E+00
     -2.788  0.5203E-01  0.5200E-01  0.2194E+00  0.2194E+00
     -2.705  0.1534E-01  0.1531E-01  0.2207E+00  0.2207E+00
     -2.622 -0.2309E-02 -0.2315E-02  0.2205E+00  0.2205E+00
     -2.539 -0.3916E-02 -0.3915E-02  0.2202E+00  0.2202E+00
     -2.457 -0.1640E-02 -0.1639E-02  0.2200E+00  0.2200E+00
     -2.374 -0.3884E-03 -0.3879E-03  0.2200E+00  0.2200E+00
     -2.291 -0.5885E-04 -0.5875E-04  0.2200E+00  0.2200E+00
     -2.208 -0.5967E-05 -0.5955E-05  0.2200E+00  0.2200E+00
     -2.126 -0.4135E-06 -0.4126E-06  0.2200E+00  0.2200E+00
     -2.043 -0.2111E-07 -0.2106E-07  0.2200E+00  0.2200E+00
     -1.960 -0.3446E-07 -0.3452E-07  0.2200E+00  0.2200E+00
     -1.877 -0.6115E-06 -0.6125E-06  0.2200E+00  0.2200E+00
     -1.794 -0.7621E-05 -0.7632E-05  0.2200E+00  0.2200E+00
     -1.712 -0.6449E-04 -0.6457E-04  0.2200E+00  0.2200E+00
     -1.629 -0.3604E-03 -0.3607E-03  0.2200E+00  0.2200E+00
     -1.546 -0.1248E-02 -0.1249E-02  0.2199E+00  0.2199E+00
     -1.463 -0.2159E-02 -0.2159E-02  0.2197E+00  0.2197E+00
     -1.381  0.9889E-03  0.9935E-03  0.2198E+00  0.2198E+00
     -1.298  0.1408E-01  0.1409E-01  0.2209E+00  0.2209E+00
     -1.215  0.3323E-01  0.3324E-01  0.2237E+00  0.2237E+00
     -1.132  0.4116E-01  0.4116E-01  0.2271E+00  0.2271E+00
     -1.050  0.2897E-01  0.2896E-01  0.2295E+00  0.2295E+00
     -0.967  0.9816E-02  0.9806E-02  0.2303E+00  0.2303E+00
     -0.884 -0.1352E-02 -0.1356E-02  0.2302E+00  0.2302E+00
     -0.801 -0.4088E-02 -0.4088E-02  0.2298E+00  0.2298E+00
     -0.719 -0.1936E-02 -0.1932E-02  0.2297E+00  0.2297E+00
     -0.636  0.8118E-02  0.8127E-02  0.2304E+00  0.2304E+00
     -0.553  0.2654E-01  0.2655E-01  0.2326E+00  0.2326E+00
     -0.470  0.3892E-01  0.3892E-01  0.2358E+00  0.2358E+00
     -0.387  0.3077E-01  0.3076E-01  0.2383E+00  0.2383E+00
     -0.305  0.1454E-01  0.1454E-01  0.2395E+00  0.2395E+00
     -0.222  0.2033E-01  0.2034E-01  0.2412E+00  0.2412E+00
     -0.139  0.5404E-01  0.5406E-01  0.2457E+00  0.2457E+00
     -0.056  0.8066E-01  0.8066E-01  0.2524E+00  0.2524E+00
      0.026  0.6762E-01  0.6761E-01  0.2580E+00  0.2580E+00
      0.109  0.2985E-01  0.2983E-01  0.2604E+00  0.2604E+00
      0.192  0.2708E-02  0.2699E-02  0.2606E+00  0.2606E+00
      0.275 -0.4356E-02 -0.4356E-02  0.2603E+00  0.2603E+00
      0.357 -0.2963E-02 -0.2962E-02  0.2600E+00  0.2600E+00
      0.440 -0.2298E-02 -0.2298E-02  0.2599E+00  0.2599E+00
      0.523 -0.3937E-02 -0.3939E-02  0.2595E+00  0.2595E+00
      0.606 -0.2749E-02 -0.2745E-02  0.2593E+00  0.2593E+00
      0.689  0.1360E-01  0.1362E-01  0.2604E+00  0.2604E+00
      0.771  0.4959E-01  0.4962E-01  0.2645E+00  0.2645E+00
      0.854  0.8013E-01  0.8014E-01  0.2712E+00  0.2712E+00
      0.937  0.7287E-01  0.7285E-01  0.2772E+00  0.2772E+00
      1.020  0.3555E-01  0.3552E-01  0.2801E+00  0.2801E+00
      1.102  0.3807E-02  0.3793E-02  0.2805E+00  0.2805E+00
      1.185 -0.5443E-02 -0.5442E-02  0.2800E+00  0.2800E+00
      1.268  0.3865E-02  0.3876E-02  0.2803E+00  0.2803E+00
      1.351  0.2394E-01  0.2395E-01  0.2823E+00  0.2823E+00
      1.433  0.3993E-01  0.3994E-01  0.2856E+00  0.2856E+00
      1.516  0.3641E-01  0.3640E-01  0.2886E+00  0.2886E+00
      1.599  0.1803E-01  0.1802E-01  0.2901E+00  0.2901E+00
      1.682  0.2794E-02  0.2788E-02  0.2903E+00  0.2903E+00
      1.764 -0.2055E-02 -0.2055E-02  0.2902E+00  0.2902E+00
      1.847 -0.1509E-02 -0.1508E-02  0.2900E+00  0.2900E+00
      1.930 -0.5408E-03 -0.5404E-03  0.2900E+00  0.2900E+00
      2.013 -0.4523E-03 -0.4525E-03  0.2900E+00  0.2900E+00
      2.096 -0.1555E-02 -0.1556E-02  0.2898E+00  0.2898E+00
      2.178 -0.3818E-02 -0.3819E-02  0.2895E+00  0.2895E+00
      2.261 -0.2665E-02 -0.2661E-02  0.2893E+00  0.2893E+00
      2.344  0.1389E-01  0.1391E-01  0.2905E+00  0.2905E+00
      2.427  0.5001E-01  0.5003E-01  0.2946E+00  0.2946E+00
      2.509  0.8031E-01  0.8032E-01  0.3012E+00  0.3012E+00
      2.592  0.7276E-01  0.7274E-01  0.3073E+00  0.3073E+00
      2.675  0.3591E-01  0.3589E-01  0.3102E+00  0.3102E+00
      2.758  0.5506E-02  0.5494E-02  0.3107E+00  0.3107E+00
      2.840 -0.4117E-02 -0.4118E-02  0.3103E+00  0.3103E+00
      2.923 -0.2998E-02 -0.2997E-02  0.3101E+00  0.3101E+00
      3.006 -0.9783E-03 -0.9775E-03  0.3100E+00  0.3100E+00
      3.089 -0.2589E-03 -0.2587E-03  0.3100E+00  0.3100E+00
      3.172 -0.4030E-03 -0.4032E-03  0.3100E+00  0.3100E+00
      3.254 -0.1290E-02 -0.1291E-02  0.3099E+00  0.3099E+00
      3.337 -0.2155E-02 -0.2155E-02  0.3097E+00  0.3097E+00
      3.420  0.1243E-02  0.1245E-02  0.3098E+00  0.3098E+00
      3.503  0.1469E-01  0.1469E-01  0.3110E+00  0.3110E+00
      3.585  0.3378E-01  0.3378E-01  0.3138E+00  0.3138E+00
      3.668  0.4107E-01  0.4107E-01  0.3172E+00  0.3172E+00
      3.751  0.2837E-01  0.2837E-01  0.3195E+00  0.3195E+00
      3.834  0.9498E-02  0.9493E-02  0.3203E+00  0.3203E+00
      3.916 -0.6432E-03 -0.6449E-03  0.3203E+00  0.3203E+00
      3.999 -0.2059E-02 -0.2059E-02  0.3201E+00  0.3201E+00
      4.082 -0.9434E-03 -0.9430E-03  0.3200E+00  0.3200E+00
      4.165 -0.2370E-03 -0.2369E-03  0.3200E+00  0.3200E+00
      4.247 -0.3779E-04 -0.3776E-04  0.3200E+00  0.3200E+00
      4.330 -0.4017E-05 -0.4014E-05  0.3200E+00  0.3200E+00
      4.413 -0.3086E-06 -0.3083E-06  0.3200E+00  0.3200E+00
      4.496 -0.3537E-06 -0.3544E-06  0.3200E+00  0.3200E+00
      4.579 -0.4586E-05 -0.4594E-05  0.3200E+00  0.3200E+00
      4.661 -0.4230E-04 -0.4236E-04  0.3200E+00  0.3200E+00
      4.744 -0.2604E-03 -0.2607E-03  0.3200E+00  0.3200E+00
      4.827 -0.1023E-02 -0.1024E-02  0.3199E+00  0.3199E+00
      4.910 -0.2266E-02 -0.2267E-02  0.3197E+00  0.3197E+00
      4.992 -0.1267E-02 -0.1264E-02  0.3196E+00  0.3196E+00
      5.075  0.7510E-02  0.7520E-02  0.3202E+00  0.3202E+00
      5.158  0.2519E-01  0.2520E-01  0.3223E+00  0.3223E+00
      5.241  0.4565E-01  0.4567E-01  0.3261E+00  0.3261E+00
      5.323  0.6659E-01  0.6660E-01  0.3316E+00  0.3316E+00
      5.406  0.8483E-01  0.8484E-01  0.3386E+00  0.3386E+00
      5.489  0.8189E-01  0.8188E-01  0.3454E+00  0.3454E+00
      5.572  0.5010E-01  0.5008E-01  0.3495E+00  0.3495E+00
      5.655  0.1429E-01  0.1427E-01  0.3507E+00  0.3507E+00
      5.737 -0.2614E-02 -0.2618E-02  0.3505E+00  0.3505E+00
      5.820 -0.3989E-02 -0.3988E-02  0.3502E+00  0.3502E+00
      5.903 -0.1660E-02 -0.1658E-02  0.3500E+00  0.3500E+00
      5.986 -0.3957E-03 -0.3953E-03  0.3500E+00  0.3500E+00
      6.068 -0.8847E-04 -0.8843E-04  0.3500E+00  0.3500E+00
      6.151 -0.1973E-03 -0.1974E-03  0.3500E+00  0.3500E+00
      6.234 -0.8117E-03 -0.8122E-03  0.3499E+00  0.3499E+00
      6.317 -0.1949E-02 -0.1950E-02  0.3498E+00  0.3498E+00
      6.399 -0.1188E-02 -0.1187E-02  0.3497E+00  0.3497E+00
      6.482  0.7534E-02  0.7542E-02  0.3503E+00  0.3503E+00
      6.565  0.2582E-01  0.2583E-01  0.3524E+00  0.3524E+00
      6.648  0.4031E-01  0.4032E-01  0.3558E+00  0.3558E+00
      6.730  0.3511E-01  0.3510E-01  0.3587E+00  0.3587E+00
      6.813  0.1474E-01  0.1473E-01  0.3599E+00  0.3599E+00
      6.896 -0.1960E-02 -0.1965E-02  0.3597E+00  0.3597E+00
      6.979 -0.6711E-03 -0.6616E-03  0.3597E+00  0.3597E+00
      7.062  0.2533E-01  0.2536E-01  0.3618E+00  0.3618E+00
      7.144  0.6471E-01  0.6473E-01  0.3671E+00  0.3671E+00
      7.227  0.8242E-01  0.8242E-01  0.3739E+00  0.3739E+00
      7.310  0.5944E-01  0.5941E-01  0.3789E+00  0.3789E+00
      7.393  0.2130E-01  0.2128E-01  0.3806E+00  0.3806E+00
      7.475 -0.5587E-03 -0.5662E-03  0.3806E+00  0.3806E+00
      7.558 -0.4211E-02 -0.4210E-02  0.3802E+00  0.3802E+00
      7.641 -0.2049E-02 -0.2047E-02  0.3801E+00  0.3801E+00
      7.724 -0.6019E-03 -0.6014E-03  0.3800E+00  0.3800E+00
      7.806 -0.5349E-03 -0.5353E-03  0.3800E+00  0.3800E+00
      7.889 -0.1822E-02 -0.1824E-02  0.3798E+00  0.3798E+00
      7.972 -0.4066E-02 -0.4067E-02  0.3795E+00  0.3795E+00
      8.055 -0.1612E-02 -0.1606E-02  0.3793E+00  0.3793E+00
      8.138  0.1789E-01  0.1791E-01  0.3808E+00  0.3808E+00
      8.220  0.5535E-01  0.5537E-01  0.3854E+00  0.3854E+00
      8.303  0.8165E-01  0.8166E-01  0.3922E+00  0.3922E+00
      8.386  0.6782E-01  0.6779E-01  0.3978E+00  0.3978E+00
      8.469  0.2868E-01  0.2865E-01  0.4001E+00  0.4001E+00
      8.551  0.2127E-02  0.2118E-02  0.4003E+00  0.4003E+00
      8.634  0.4232E-02  0.4241E-02  0.4007E+00  0.4007E+00
      8.717  0.2449E-01  0.2450E-01  0.4027E+00  0.4027E+00
      8.800  0.4001E-01  0.4001E-01  0.4060E+00  0.4060E+00
      8.882  0.3461E-01  0.3460E-01  0.4089E+00  0.4089E+00
      8.965  0.1566E-01  0.1566E-01  0.4102E+00  0.4102E+00
      9.048  0.9614E-03  0.9926E-03  0.4102E+00  0.4103E+00
      9.131 -0.4069E-02 -0.4031E-02  0.4099E+00  0.4099E+00
      9.213 -0.2609E-02 -0.2738E-02  0.4097E+00  0.4097E+00
      9.296  0.6899E-02  0.6355E-02  0.4103E+00  0.4102E+00
      9.379  0.2545E-01  0.2467E-01  0.4124E+00  0.4123E+00
      9.462  0.4033E-01  0.4005E-01  0.4157E+00  0.4156E+00
      9.545  0.3601E-01  0.3655E-01  0.4187E+00  0.4186E+00
      9.627  0.1745E-01  0.1821E-01  0.4201E+00  0.4201E+00
      9.710  0.2502E-02  0.2879E-02  0.4203E+00  0.4203E+00
      9.793 -0.2082E-02 -0.2046E-02  0.4202E+00  0.4202E+00
      9.876 -0.1467E-02 -0.1515E-02  0.4200E+00  0.4201E+00
      9.958 -0.4676E-03 -0.4938E-03  0.4200E+00  0.4200E+00
     10.041 -0.9056E-04 -0.9734E-04  0.4200E+00  0.4200E+00
     10.124 -0.1150E-04 -0.1255E-04  0.4200E+00  0.4200E+00
     10.207 -0.9874E-06 -0.1094E-05  0.4200E+00  0.4200E+00
     10.289 -0.5829E-07 -0.6554E-07  0.4200E+00  0.4200E+00
     10.372 -0.2388E-08 -0.2723E-08  0.4200E+00  0.4200E+00
     10.455 -0.6830E-10 -0.7898E-10  0.4200E+00  0.4200E+00
     10.538 -0.1369E-11 -0.1605E-11  0.4200E+00  0.4200E+00
     10.621 -0.1929E-13 -0.2291E-13  0.4200E+00  0.4200E+00
     10.703 -0.1878E-15 -0.2415E-15  0.4200E+00  0.4200E+00
     10.786  0.0000E+00  0.0000E+00  0.4200E+00  0.4200E+00
     10.869  0.0000E+00  0.0000E+00  0.4200E+00  0.4200E+00
     10.952  0.0000E+00  0.0000E+00  0.4200E+00  0.4200E+00
     11.034  0.0000E+00  0.0000E+00  0.4200E+00  0.4200E+00
     11.117  0.0000E+00  0.0000E+00  0.4200E+00  0.4200E+00
     11.200  0.0000E+00  0.0000E+00  0.4200E+00  0.4200E+00
     11.283  0.0000E+00  0.0000E+00  0.4200E+00  0.4200E+00
     11.365  0.0000E+00  0.0000E+00  0.4200E+00  0.4200E+00
     11.448  0.0000E+00  0.0000E+00  0.4200E+00  0.4200E+00
