<?xml version="1.0" encoding="ISO-8859-1"?>
<modeling>
 <generator>
  <i name="program" type="string">vasp </i>
  <i name="version" type="string">5.2.2  </i>
  <i name="subversion" type="string">15Apr09 complex  parallel </i>
  <i name="platform" type="string">LinuxIFC </i>
  <i name="date" type="string">2013 08 21 </i>
  <i name="time" type="string">16:13:18 </i>
 </generator>
 <incar>
  <i type="int" name="ISTART">     1</i>
  <i type="string" name="PREC">accurate</i>
  <i type="int" name="ICHARG">     1</i>
  <i type="int" name="IBRION">     5</i>
  <i type="int" name="NFREE">     2</i>
  <i type="int" name="NSW">   191</i>
  <i type="int" name="ISIF">     2</i>
  <i name="ENCUT">    360.65550000</i>
  <i name="POTIM">      0.01000000</i>
  <i type="int" name="ISMEAR">     1</i>
  <i name="SIGMA">      0.20000000</i>
  <i type="logical" name="LWAVE"> F  </i>
  <i type="logical" name="LCHARG"> F  </i>
  <i type="logical" name="LPEAD"> F  </i>
  <i type="logical" name="LCALCPOL"> F  </i>
  <i type="logical" name="LCALCEPS"> F  </i>
  <v name="EFIELD_PEAD">      0.00000000      0.00000000      0.00000000</v>
  <i type="logical" name="LEFG"> F  </i>
 </incar>
 <kpoints>
  <generation param="Monkhorst-Pack">
   <v type="int" name="divisions">       2        2        2 </v>
   <v name="usershift">      0.00000000       0.00000000       0.00000000 </v>
   <v name="genvec1">      0.50000000       0.00000000       0.00000000 </v>
   <v name="genvec2">      0.00000000       0.50000000       0.00000000 </v>
   <v name="genvec3">      0.00000000       0.00000000       0.50000000 </v>
   <v name="shift">      0.50000000       0.50000000       0.50000000 </v>
  </generation>
  <varray name="kpointlist" >
   <v>       0.25000000       0.25000000       0.25000000 </v>
  </varray>
  <varray name="weights" >
   <v>       1.00000000 </v>
  </varray>
 </kpoints>
 <parameters>
  <separator name="general" >
   <i type="string" name="SYSTEM">unknown system</i>
   <i type="logical" name="LCOMPAT"> F  </i>
  </separator>
  <separator name="electronic" >
   <i type="string" name="PREC">accura</i>
   <i name="ENMAX">    360.65550000</i>
   <i name="ENAUG">    291.05200000</i>
   <i name="EDIFF">      0.00000100</i>
   <i type="int" name="IALGO">    38</i>
   <i type="int" name="IWAVPR">    11</i>
   <i type="int" name="NBANDS">     8</i>
   <i name="NELECT">      9.00000000</i>
   <separator name="electronic smearing" >
    <i type="int" name="ISMEAR">     1</i>
    <i name="SIGMA">      0.20000000</i>
   </separator>
   <separator name="electronic projectors" >
    <i type="logical" name="LREAL"> F  </i>
    <v name="ROPT">      0.00000000</v>
    <i type="int" name="LMAXPAW">  -100</i>
    <i type="int" name="LMAXMIX">     2</i>
   </separator>
   <separator name="electronic startup" >
    <i type="int" name="ISTART">     1</i>
    <i type="int" name="ICHARG">     1</i>
    <i type="int" name="INIWAV">     1</i>
   </separator>
   <separator name="electronic spin" >
    <i type="int" name="ISPIN">     1</i>
    <i type="logical" name="LNONCOLLINEAR"> F  </i>
    <v name="MAGMOM">      1.00000000      1.00000000      1.00000000</v>
    <i name="NUPDOWN">     -1.00000000</i>
    <i type="logical" name="LSORBIT"> F  </i>
    <v name="SAXIS">      0.00000000      0.00000000      1.00000000</v>
    <i type="logical" name="LSPIRAL"> F  </i>
    <v name="QSPIRAL">      0.00000000      0.00000000      0.00000000</v>
    <i type="logical" name="LZEROZ"> F  </i>
   </separator>
   <separator name="electronic exchange-correlation" >
    <i type="logical" name="LASPH"> F  </i>
    <i type="logical" name="LMETAGGA"> F  </i>
   </separator>
   <separator name="electronic convergence" >
    <i type="int" name="NELM">    60</i>
    <i type="int" name="NELMDL">     0</i>
    <i type="int" name="NELMIN">     2</i>
    <i name="ENINI">    360.65550000</i>
    <separator name="electronic convergence detail" >
     <i type="logical" name="LDIAG"> T  </i>
     <i name="WEIMIN">      0.00100000</i>
     <i name="EBREAK">      0.00000003</i>
     <i name="DEPER">      0.30000000</i>
     <i type="int" name="NRMM">     4</i>
     <i name="TIME">      0.40000000</i>
    </separator>
   </separator>
   <separator name="electronic mixer" >
    <i name="AMIX">      0.40000000</i>
    <i name="BMIX">      1.00000000</i>
    <i name="AMIN">      0.10000000</i>
    <i name="AMIX_MAG">      1.60000000</i>
    <i name="BMIX_MAG">      1.00000000</i>
    <separator name="electronic mixer details" >
     <i type="int" name="IMIX">     4</i>
     <i type="int" name="MAXMIX">   -45</i>
     <i name="WC">    100.00000000</i>
     <i type="int" name="INIMIX">     1</i>
     <i type="int" name="MIXPRE">     1</i>
     <i type="int" name="MREMOVE">     5</i>
    </separator>
   </separator>
   <separator name="electronic dipolcorrection" >
    <i type="logical" name="LDIPOL"> F  </i>
    <i type="logical" name="LMONO"> F  </i>
    <i type="int" name="IDIPOL">     0</i>
    <i name="EPSILON">      1.00000000</i>
    <v name="DIPOL">   -100.00000000   -100.00000000   -100.00000000</v>
    <i name="EFIELD">      0.00000000</i>
   </separator>
  </separator>
  <separator name="grids" >
   <i type="int" name="NGX">    24</i>
   <i type="int" name="NGY">    24</i>
   <i type="int" name="NGZ">    24</i>
   <i type="int" name="NGXF">    48</i>
   <i type="int" name="NGYF">    48</i>
   <i type="int" name="NGZF">    48</i>
   <i type="logical" name="ADDGRID"> F  </i>
  </separator>
  <separator name="ionic" >
   <i type="int" name="NSW">    73</i>
   <i type="int" name="IBRION">     5</i>
   <i type="int" name="ISIF">     2</i>
   <i name="PSTRESS">      0.00000000</i>
   <i name="EDIFFG">      0.00001000</i>
   <i type="int" name="NFREE">     2</i>
   <i name="POTIM">      0.01000000</i>
   <i name="SMASS">     -3.00000000</i>
  </separator>
  <separator name="ionic md" >
   <i name="TEBEG">      0.00010000</i>
   <i name="TEEND">      0.00010000</i>
   <i type="int" name="NBLOCK">     1</i>
   <i type="int" name="KBLOCK">     1</i>
   <i type="int" name="NPACO">   256</i>
   <i name="APACO">     16.00000000</i>
  </separator>
  <separator name="symmetry" >
   <i type="int" name="ISYM">     2</i>
   <i name="SYMPREC">      0.00001000</i>
  </separator>
  <separator name="dos" >
   <i type="logical" name="LORBIT"> F  </i>
   <v name="RWIGS">     -1.00000000</v>
   <i type="int" name="NEDOS">   301</i>
   <i name="EMIN">     10.00000000</i>
   <i name="EMAX">    -10.00000000</i>
   <i name="EFERMI">      0.00000000</i>
  </separator>
  <separator name="writing" >
   <i type="int" name="NWRITE">     2</i>
   <i type="logical" name="LWAVE"> F  </i>
   <i type="logical" name="LCHARG"> F  </i>
   <i type="logical" name="LPARD"> F  </i>
   <i type="logical" name="LVTOT"> F  </i>
   <i type="logical" name="LELF"> F  </i>
   <i type="logical" name="LOPTICS"> F  </i>
   <v name="STM">      0.00000000      0.00000000      0.00000000      0.00000000      0.00000000</v>
  </separator>
  <separator name="performance" >
   <i type="int" name="NPAR">     1</i>
   <i type="int" name="NSIM">     4</i>
   <i type="int" name="NBLK">    32</i>
   <i type="logical" name="LPLANE"> T  </i>
   <i type="logical" name="LSCALAPACK"> F  </i>
   <i type="logical" name="LSCAAWARE"> F  </i>
   <i type="logical" name="LSCALU"> F  </i>
   <i type="logical" name="LASYNC"> F  </i>
  </separator>
  <separator name="miscellaneous" >
   <i type="int" name="IDIOT">     3</i>
   <i type="logical" name="LMUSIC"> F  </i>
   <v name="POMASS">     26.98200000</v>
   <i type="logical" name="LCORR"> T  </i>
  </separator>
  <i type="logical" name="LREAL_COMPAT"> F  </i>
  <i type="logical" name="GGA_COMPAT"> T  </i>
  <i type="logical" name="LBERRY"> F  </i>
  <i type="int" name="ICORELEVEL">     0</i>
  <i type="logical" name="LDAU"> F  </i>
  <i type="int" name="I_CONSTRAINED_M">     0</i>
  <separator name="electronic exchange-correlation" >
   <i type="string" name="GGA">--</i>
   <i type="int" name="VOSKOWN">     0</i>
   <i type="logical" name="LHFCALC"> F  </i>
   <i type="logical" name="LHFONE"> F  </i>
   <i type="logical" name="LRHFCALC"> F  </i>
   <i type="logical" name="LTHOMAS"> F  </i>
   <i type="logical" name="LMODELHF"> F  </i>
   <i name="ENCUTFOCK">      0.00000000</i>
   <i name="ENCUT4O">     -1.00000000</i>
   <i type="int" name="EXXOEP">     0</i>
   <i type="int" name="FOURORBIT">     0</i>
   <i name="AEXX">      0.00000000</i>
   <i name="HFALPHA">      0.00000000</i>
   <i name="ALDAX">      1.00000000</i>
   <i name="AGGAX">      1.00000000</i>
   <i name="ALDAC">      1.00000000</i>
   <i name="AGGAC">      1.00000000</i>
   <i type="int" name="NKREDX">     1</i>
   <i type="int" name="NKREDY">     1</i>
   <i type="int" name="NKREDZ">     1</i>
   <i type="logical" name="SHIFTRED"> F  </i>
   <i type="logical" name="ODDONLY"> F  </i>
   <i type="logical" name="EVENONLY"> F  </i>
   <i type="int" name="LMAXFOCK">     0</i>
   <i type="int" name="NMAXFOCKAE">     0</i>
   <i name="HFSCREEN">      0.00000000</i>
   <i name="HFSCREENC">      0.00000000</i>
  </separator>
  <separator name="model GW" >
   <i type="int" name="MODEL_GW">     0</i>
   <i name="MODEL_EPS0">      8.57500000</i>
   <i name="MODEL_ALPHA">      1.00000000</i>
  </separator>
  <separator name="linear response parameters" >
   <i type="logical" name="LEPSILON"> F  </i>
   <i type="logical" name="LRPA"> F  </i>
   <i type="logical" name="LNABLA"> F  </i>
   <i type="logical" name="LVEL"> F  </i>
   <i type="int" name="KINTER">     0</i>
   <i name="CSHIFT">      0.10000000</i>
   <i name="OMEGAMAX">     -1.00000000</i>
  </separator>
  <separator name="orbital magnetization" >
   <i type="logical" name="ORBITALMAG"> F  </i>
   <i type="logical" name="LMAGBLOCH"> F  </i>
   <i type="logical" name="LCHIMAG"> F  </i>
   <i type="logical" name="LGAUGE"> T  </i>
   <i type="int" name="MAGATOM">     0</i>
   <v name="MAGDIPOL">      0.00000000      0.00000000      0.00000000</v>
   <v name="AVECCONST">      0.00000000      0.00000000      0.00000000</v>
  </separator>
  <separator name="response functions" >
   <i type="logical" name="LRPA"> T  </i>
   <i type="logical" name="LTCTE"> F  </i>
   <i type="logical" name="LTETE"> F  </i>
   <i type="logical" name="L2ORDER"> F  </i>
   <i type="logical" name="LGWLF"> F  </i>
   <i name="ENCUTGW">    240.43700000</i>
   <i name="ENCUTGWSOFT">     -2.00000000</i>
   <i name="ENCUTLF">     -1.00000000</i>
   <i type="int" name="LMAXMP2">    -1</i>
   <i name="SCISSOR">      0.00000000</i>
   <i type="int" name="NOMEGA">     0</i>
   <i type="int" name="NOMEGAR">     0</i>
   <i type="int" name="NBANDSGW">    -1</i>
   <i type="int" name="NBANDSLF">    -1</i>
   <i type="int" name="NELM">     1</i>
   <i type="int" name="DIM">     3</i>
   <i type="int" name="ANTIRES">     0</i>
   <i type="logical" name="LUSEW"> F  </i>
   <i name="OMEGAMAX">    -30.00000000</i>
   <i name="OMEGATL">   -200.00000000</i>
   <i type="int" name="OMEGAGRID">     0</i>
   <i name="CSHIFT">     -0.10000000</i>
   <i type="logical" name="SELFENERGY"> F  </i>
   <i type="logical" name="LSPECTRAL"> F  </i>
   <i type="logical" name="ODDONLYGW"> F  </i>
   <i type="logical" name="EVENONLYGW"> F  </i>
   <i type="int" name="NKREDLFX">     1</i>
   <i type="int" name="NKREDLFY">     1</i>
   <i type="int" name="NKREDLFZ">     1</i>
   <i type="int" name="MAXMEM">  1024</i>
   <i type="int" name="TELESCOPE">     0</i>
  </separator>
 </parameters>
 <atominfo>
  <atoms>       3 </atoms>
  <types>       1 </types>
  <array name="atoms" >
   <dimension dim="1">ion</dimension>
   <field type="string">element</field>
   <field type="int">atomtype</field>
   <set>
    <rc><c>Al</c><c>   1</c></rc>
    <rc><c>Al</c><c>   1</c></rc>
    <rc><c>Al</c><c>   1</c></rc>
   </set>
  </array>
  <array name="atomtypes" >
   <dimension dim="1">type</dimension>
   <field type="int">atomspertype</field>
   <field type="string">element</field>
   <field>mass</field>
   <field>valence</field>
   <field type="string">pseudopotential</field>
   <set>
    <rc><c>   3</c><c>Al</c><c>     26.98200000</c><c>      3.00000000</c><c> PAW_GGA Al 05Jan2001                   </c></rc>
   </set>
  </array>
 </atominfo>
 <structure name="initialpos" >
  <crystal>
   <varray name="basis" >
    <v>       3.50000000       0.00000000       0.00000000 </v>
    <v>       0.00000000       3.50000000       0.00000000 </v>
    <v>       0.00000000       0.00000000       3.50000000 </v>
   </varray>
   <i name="volume">     42.87500000 </i>
   <varray name="rec_basis" >
    <v>       0.28571429       0.00000000       0.00000000 </v>
    <v>       0.00000000       0.28571429       0.00000000 </v>
    <v>       0.00000000       0.00000000       0.28571429 </v>
   </varray>
  </crystal>
  <varray name="positions" >
   <v>       0.50000000       0.50000000       0.00000000 </v>
   <v>       0.00000000       0.50000000       0.50000000 </v>
   <v>       0.50000000       0.00000000       0.50000000 </v>
  </varray>
  <varray name="selective"  type="logical" >
   <v type="logical" >  F  F  T </v>
   <v type="logical" >  F  F  F </v>
   <v type="logical" >  F  F  F </v>
  </varray>
  <nose>
   <v>      -3.00000000       0.00000000       0.00010000       0.00010000 </v>
  </nose>
 </structure>
 <calculation>
  <scstep>
   <time name="dav">    0.21    0.06</time>
   <time name="total">    0.83    0.41</time>
   <energy>
    <i name="alphaZ">     -0.53451638 </i>
    <i name="ewald">   -222.29814539 </i>
    <i name="hartreedc">     -2.67604008 </i>
    <i name="XCdc">    -78.29240780 </i>
    <i name="pawpsdc">    106.97730018 </i>
    <i name="pawaedc">    -10.81747568 </i>
    <i name="eentropy">     -0.08252286 </i>
    <i name="bandstr">     37.72719496 </i>
    <i name="atom">    161.07115403 </i>
    <i name="e_fr_energy">     -8.92545902 </i>
    <i name="e_wo_entrp">     -8.84293615 </i>
    <i name="e_0_energy">     -8.89795139 </i>
   </energy>
  </scstep>
  <scstep>
   <time name="dav">    0.21    0.06</time>
   <time name="total">    0.72    0.40</time>
   <energy>
    <i name="e_fr_energy">     -8.75632090 </i>
    <i name="e_wo_entrp">     -8.67379804 </i>
    <i name="e_0_energy">     -8.72881328 </i>
   </energy>
  </scstep>
  <scstep>
   <time name="dav">    0.21    0.06</time>
   <time name="total">    0.72    0.40</time>
   <energy>
    <i name="e_fr_energy">     -8.70590194 </i>
    <i name="e_wo_entrp">     -8.62337908 </i>
    <i name="e_0_energy">     -8.67839432 </i>
   </energy>
  </scstep>
  <scstep>
   <time name="dav">    0.19    0.06</time>
   <time name="total">    0.72    0.38</time>
   <energy>
    <i name="e_fr_energy">     -8.70561474 </i>
    <i name="e_wo_entrp">     -8.62309187 </i>
    <i name="e_0_energy">     -8.67810712 </i>
   </energy>
  </scstep>
  <scstep>
   <time name="dav">    0.35    0.10</time>
   <time name="total">    0.90    0.40</time>
   <energy>
    <i name="e_fr_energy">     -8.70558900 </i>
    <i name="e_wo_entrp">     -8.62306614 </i>
    <i name="e_0_energy">     -8.67808138 </i>
   </energy>
  </scstep>
  <scstep>
   <time name="dav">    0.19    0.05</time>
   <time name="total">    0.78    0.37</time>
   <energy>
    <i name="e_fr_energy">     -8.70557721 </i>
    <i name="e_wo_entrp">     -8.62305435 </i>
    <i name="e_0_energy">     -8.67806959 </i>
   </energy>
  </scstep>
  <scstep>
   <time name="dav">    0.35    0.09</time>
   <time name="total">    0.79    0.37</time>
   <energy>
    <i name="alphaZ">     -0.53451638 </i>
    <i name="ewald">   -222.29814539 </i>
    <i name="hartreedc">     -4.23890769 </i>
    <i name="XCdc">    -77.71422599 </i>
    <i name="pawpsdc">    113.47109649 </i>
    <i name="pawaedc">    -17.64873128 </i>
    <i name="eentropy">     -0.08252286 </i>
    <i name="bandstr">     39.26922194 </i>
    <i name="atom">    161.07115403 </i>
    <i name="e_fr_energy">     -8.70557713 </i>
    <i name="e_wo_entrp">     -8.62305427 </i>
    <i name="e_0_energy">     -8.67806951 </i>
   </energy>
  </scstep>
  <structure>
   <crystal>
    <varray name="basis" >
     <v>       3.50000000       0.00000000       0.00000000 </v>
     <v>       0.00000000       3.50000000       0.00000000 </v>
     <v>       0.00000000       0.00000000       3.50000000 </v>
    </varray>
    <i name="volume">     42.87500000 </i>
    <varray name="rec_basis" >
     <v>       0.28571429       0.00000000       0.00000000 </v>
     <v>       0.00000000       0.28571429       0.00000000 </v>
     <v>       0.00000000       0.00000000       0.28571429 </v>
    </varray>
   </crystal>
   <varray name="positions" >
    <v>       0.50000000       0.50000000       0.00000000 </v>
    <v>       0.00000000       0.50000000       0.50000000 </v>
    <v>       0.50000000       0.00000000       0.50000000 </v>
   </varray>
  </structure>
  <varray name="forces" >
   <v>       0.00000000       0.00000000       0.00000000 </v>
   <v>       0.00000000       0.00000000       0.00000000 </v>
   <v>       0.00000000       0.00000000       0.00000000 </v>
  </varray>
  <varray name="stress" >
   <v>     445.90276771       0.00000000       0.00000000 </v>
   <v>       0.00000000     445.90276771       0.00000000 </v>
   <v>       0.00000000       0.00000000     445.90276771 </v>
  </varray>
  <energy>
   <i name="e_fr_energy">     -8.70557713 </i>
   <i name="e_wo_entrp">     -8.67806951 </i>
   <i name="e_0_energy">     -0.08252286 </i>
  </energy>
  <kpoints>
   <generation param="Monkhorst-Pack">
    <v type="int" name="divisions">       2        2        2 </v>
    <v name="usershift">      0.00000000       0.00000000       0.00000000 </v>
    <v name="genvec1">      0.50000000       0.00000000       0.00000000 </v>
    <v name="genvec2">      0.00000000       0.50000000       0.00000000 </v>
    <v name="genvec3">      0.00000000       0.00000000       0.50000000 </v>
    <v name="shift">      0.50000000       0.50000000       0.50000000 </v>
   </generation>
   <varray name="kpointlist" >
    <v>       0.25000000       0.25000000       0.25000000 </v>
   </varray>
   <varray name="weights" >
    <v>       1.00000000 </v>
   </varray>
  </kpoints>
  <time name="totalsc">    7.00    3.79</time>
 </calculation>
 <calculation>
  <scstep>
   <time name="dav">    0.19    0.06</time>
   <time name="total">    0.76    0.36</time>
   <energy>
    <i name="alphaZ">     -0.53451638 </i>
    <i name="ewald">   -222.29556930 </i>
    <i name="hartreedc">     -4.23947932 </i>
    <i name="XCdc">    -77.71427874 </i>
    <i name="pawpsdc">    113.48215048 </i>
    <i name="pawaedc">    -17.66026933 </i>
    <i name="eentropy">     -0.08252273 </i>
    <i name="bandstr">     39.26860935 </i>
    <i name="atom">    161.07115403 </i>
    <i name="e_fr_energy">     -8.70472192 </i>
    <i name="e_wo_entrp">     -8.62219920 </i>
    <i name="e_0_energy">     -8.67721435 </i>
   </energy>
  </scstep>
  <scstep>
   <time name="dav">    0.35    0.10</time>
   <time name="total">    0.83    0.41</time>
   <energy>
    <i name="e_fr_energy">     -8.70463745 </i>
    <i name="e_wo_entrp">     -8.62211462 </i>
    <i name="e_0_energy">     -8.67712984 </i>
   </energy>
  </scstep>
  <scstep>
   <time name="dav">    0.20    0.06</time>
   <time name="total">    0.67    0.37</time>
   <energy>
    <i name="e_fr_energy">     -8.70462123 </i>
    <i name="e_wo_entrp">     -8.62209838 </i>
    <i name="e_0_energy">     -8.67711361 </i>
   </energy>
  </scstep>
  <scstep>
   <time name="dav">    0.36    0.10</time>
   <time name="total">    0.72    0.37</time>
   <energy>
    <i name="alphaZ">     -0.53451638 </i>
    <i name="ewald">   -222.29556930 </i>
    <i name="hartreedc">     -4.24008630 </i>
    <i name="XCdc">    -77.71419624 </i>
    <i name="pawpsdc">    113.48289963 </i>
    <i name="pawaedc">    -17.66105290 </i>
    <i name="eentropy">     -0.08252284 </i>
    <i name="bandstr">     39.26926858 </i>
    <i name="atom">    161.07115403 </i>
    <i name="e_fr_energy">     -8.70462171 </i>
    <i name="e_wo_entrp">     -8.62209887 </i>
    <i name="e_0_energy">     -8.67711409 </i>
   </energy>
  </scstep>
  <structure>
   <crystal>
    <varray name="basis" >
     <v>       3.50000000       0.00000000       0.00000000 </v>
     <v>       0.00000000       3.50000000       0.00000000 </v>
     <v>       0.00000000       0.00000000       3.50000000 </v>
    </varray>
    <i name="volume">     42.87500000 </i>
    <varray name="rec_basis" >
     <v>       0.28571429       0.00000000       0.00000000 </v>
     <v>       0.00000000       0.28571429       0.00000000 </v>
     <v>       0.00000000       0.00000000       0.28571429 </v>
    </varray>
   </crystal>
   <varray name="positions" >
    <v>       0.50000000       0.50000000       0.00285714 </v>
    <v>       0.00000000       0.50000000       0.50000000 </v>
    <v>       0.50000000       0.00000000       0.50000000 </v>
   </varray>
  </structure>
  <varray name="forces" >
   <v>       0.00000000       0.00000000      -0.19076090 </v>
   <v>       0.00000000       0.00000000       0.09538045 </v>
   <v>       0.00000000       0.00000000       0.09538045 </v>
  </varray>
  <varray name="stress" >
   <v>     446.01590102       0.00000000       0.00000000 </v>
   <v>       0.00000000     446.01590102       0.00000000 </v>
   <v>       0.00000000       0.00000000     445.87561991 </v>
  </varray>
  <energy>
   <i name="e_fr_energy">     -8.70462171 </i>
   <i name="e_wo_entrp">     -8.67711409 </i>
   <i name="e_0_energy">     -0.08252284 </i>
  </energy>
  <kpoints>
   <generation param="Monkhorst-Pack">
    <v type="int" name="divisions">       2        2        2 </v>
    <v name="usershift">      0.00000000       0.00000000       0.00000000 </v>
    <v name="genvec1">      0.50000000       0.00000000       0.00000000 </v>
    <v name="genvec2">      0.00000000       0.50000000       0.00000000 </v>
    <v name="genvec3">      0.00000000       0.00000000       0.50000000 </v>
    <v name="shift">      0.50000000       0.50000000       0.50000000 </v>
   </generation>
   <varray name="kpointlist" >
    <v>       0.25000000       0.25000000       0.25000000 </v>
   </varray>
   <varray name="weights" >
    <v>       1.00000000 </v>
   </varray>
  </kpoints>
  <time name="totalsc">    4.46    2.52</time>
 </calculation>
 <calculation>
  <scstep>
   <time name="dav">    0.19    0.06</time>
   <time name="total">    0.76    0.36</time>
   <energy>
    <i name="alphaZ">     -0.53451638 </i>
    <i name="ewald">   -222.29556930 </i>
    <i name="hartreedc">     -4.23941442 </i>
    <i name="XCdc">    -77.71429200 </i>
    <i name="pawpsdc">    113.48296410 </i>
    <i name="pawaedc">    -17.66111981 </i>
    <i name="eentropy">     -0.08252256 </i>
    <i name="bandstr">     39.26829405 </i>
    <i name="atom">    161.07115403 </i>
    <i name="e_fr_energy">     -8.70502229 </i>
    <i name="e_wo_entrp">     -8.62249974 </i>
    <i name="e_0_energy">     -8.67751477 </i>
   </energy>
  </scstep>
  <scstep>
   <time name="dav">    0.19    0.06</time>
   <time name="total">    0.67    0.36</time>
   <energy>
    <i name="e_fr_energy">     -8.70468334 </i>
    <i name="e_wo_entrp">     -8.62216051 </i>
    <i name="e_0_energy">     -8.67717573 </i>
   </energy>
  </scstep>
  <scstep>
   <time name="dav">    0.35    0.10</time>
   <time name="total">    0.83    0.46</time>
   <energy>
    <i name="e_fr_energy">     -8.70462119 </i>
    <i name="e_wo_entrp">     -8.62209834 </i>
    <i name="e_0_energy">     -8.67711358 </i>
   </energy>
  </scstep>
  <scstep>
   <time name="dav">    0.19    0.06</time>
   <time name="total">    0.71    0.38</time>
   <energy>
    <i name="e_fr_energy">     -8.70462216 </i>
    <i name="e_wo_entrp">     -8.62209932 </i>
    <i name="e_0_energy">     -8.67711454 </i>
   </energy>
  </scstep>
  <scstep>
   <time name="dav">    0.35    0.10</time>
   <time name="total">    0.75    0.37</time>
   <energy>
    <i name="alphaZ">     -0.53451638 </i>
    <i name="ewald">   -222.29556930 </i>
    <i name="hartreedc">     -4.24009757 </i>
    <i name="XCdc">    -77.71419181 </i>
    <i name="pawpsdc">    113.48294383 </i>
    <i name="pawaedc">    -17.66109936 </i>
    <i name="eentropy">     -0.08252284 </i>
    <i name="bandstr">     39.26927770 </i>
    <i name="atom">    161.07115403 </i>
    <i name="e_fr_energy">     -8.70462168 </i>
    <i name="e_wo_entrp">     -8.62209884 </i>
    <i name="e_0_energy">     -8.67711407 </i>
   </energy>
  </scstep>
  <structure>
   <crystal>
    <varray name="basis" >
     <v>       3.50000000       0.00000000       0.00000000 </v>
     <v>       0.00000000       3.50000000       0.00000000 </v>
     <v>       0.00000000       0.00000000       3.50000000 </v>
    </varray>
    <i name="volume">     42.87500000 </i>
    <varray name="rec_basis" >
     <v>       0.28571429       0.00000000       0.00000000 </v>
     <v>       0.00000000       0.28571429       0.00000000 </v>
     <v>       0.00000000       0.00000000       0.28571429 </v>
    </varray>
   </crystal>
   <varray name="positions" >
    <v>       0.50000000       0.50000000      -0.00285714 </v>
    <v>       0.00000000       0.50000000       0.50000000 </v>
    <v>       0.50000000       0.00000000       0.50000000 </v>
   </varray>
  </structure>
  <varray name="forces" >
   <v>       0.00000000       0.00000000       0.19115317 </v>
   <v>       0.00000000       0.00000000      -0.09557659 </v>
   <v>       0.00000000       0.00000000      -0.09557659 </v>
  </varray>
  <varray name="stress" >
   <v>     446.01622285       0.00000000       0.00000000 </v>
   <v>       0.00000000     446.01622285       0.00000000 </v>
   <v>       0.00000000       0.00000000     445.87357606 </v>
  </varray>
  <energy>
   <i name="e_fr_energy">     -8.70462168 </i>
   <i name="e_wo_entrp">     -8.67711407 </i>
   <i name="e_0_energy">     -0.08252284 </i>
  </energy>
  <dynmat>
   <varray name="hessian" >
    <v>      -0.70772010 </v>
   </varray>
   <v name="eigenvalues"> -7.07720096E-01</v>
   <varray name="eigenvectors" >
    <v>   1.00000000E+00</v>
   </varray>
  </dynmat>
  <kpoints>
   <generation param="Monkhorst-Pack">
    <v type="int" name="divisions">       2        2        2 </v>
    <v name="usershift">      0.00000000       0.00000000       0.00000000 </v>
    <v name="genvec1">      0.50000000       0.00000000       0.00000000 </v>
    <v name="genvec2">      0.00000000       0.50000000       0.00000000 </v>
    <v name="genvec3">      0.00000000       0.00000000       0.50000000 </v>
    <v name="shift">      0.50000000       0.50000000       0.50000000 </v>
   </generation>
   <varray name="kpointlist" >
    <v>       0.25000000       0.25000000       0.25000000 </v>
   </varray>
   <varray name="weights" >
    <v>       1.00000000 </v>
   </varray>
  </kpoints>
  <time name="totalsc">    5.21    2.89</time>
  <eigenvalues>
   <array>
    <dimension dim="1">band</dimension>
    <dimension dim="2">kpoint</dimension>
    <dimension dim="3">spin</dimension>
    <field>eigene</field>
    <field>occ</field>
    <set>
     <set comment="spin 1">
      <set comment="kpoint 1">
       <r>   -0.8426    1.0000 </r>
       <r>    4.9144    1.0000 </r>
       <r>    5.1508    1.0000 </r>
       <r>    5.1510    1.0000 </r>
       <r>   10.5220    0.2502 </r>
       <r>   10.5222    0.2498 </r>
       <r>   11.4216    0.0000 </r>
       <r>   16.2840    0.0000 </r>
      </set>
     </set>
    </set>
   </array>
  </eigenvalues>
  <separator name="orbital magnetization" >
   <v name="MAGDIPOLOUT">      0.00000000      0.00000000      0.00000000</v>
  </separator>
  <dos>
   <i name="efermi">     10.45978963 </i>
   <total>
    <array>
     <dimension dim="1">gridpoints</dimension>
     <dimension dim="2">spin</dimension>
     <field>energy</field>
     <field>total</field>
     <field>integrated</field>
     <set>
      <set comment="spin 1">
       <r>  -2.8426   0.0000   0.0000 </r>
       <r>  -2.7722   0.0000   0.0000 </r>
       <r>  -2.7017   0.0000   0.0000 </r>
       <r>  -2.6313   0.0000   0.0000 </r>
       <r>  -2.5609   0.0000   0.0000 </r>
       <r>  -2.4905   0.0000   0.0000 </r>
       <r>  -2.4201   0.0000   0.0000 </r>
       <r>  -2.3496   0.0000   0.0000 </r>
       <r>  -2.2792   0.0000   0.0000 </r>
       <r>  -2.2088   0.0000   0.0000 </r>
       <r>  -2.1384   0.0000   0.0000 </r>
       <r>  -2.0679   0.0000   0.0000 </r>
       <r>  -1.9975   0.0000   0.0000 </r>
       <r>  -1.9271   0.0000   0.0000 </r>
       <r>  -1.8567   0.0000   0.0000 </r>
       <r>  -1.7863   0.0000   0.0000 </r>
       <r>  -1.7158   0.0000   0.0000 </r>
       <r>  -1.6454   0.0000   0.0000 </r>
       <r>  -1.5750   0.0000   0.0000 </r>
       <r>  -1.5046  -0.0004   0.0000 </r>
       <r>  -1.4341  -0.0029  -0.0002 </r>
       <r>  -1.3637  -0.0169  -0.0014 </r>
       <r>  -1.2933  -0.0718  -0.0065 </r>
       <r>  -1.2229  -0.2160  -0.0217 </r>
       <r>  -1.1525  -0.4135  -0.0508 </r>
       <r>  -1.0820  -0.2820  -0.0707 </r>
       <r>  -1.0116   0.9834  -0.0014 </r>
       <r>  -0.9412   3.8189   0.2675 </r>
       <r>  -0.8708   7.0516   0.7641 </r>
       <r>  -0.8003   8.3023   1.3488 </r>
       <r>  -0.7299   6.4890   1.8057 </r>
       <r>  -0.6595   3.1555   2.0280 </r>
       <r>  -0.5891   0.6025   2.0704 </r>
       <r>  -0.5187  -0.3701   2.0443 </r>
       <r>  -0.4482  -0.3809   2.0175 </r>
       <r>  -0.3778  -0.1788   2.0049 </r>
       <r>  -0.3074  -0.0552   2.0010 </r>
       <r>  -0.2370  -0.0122   2.0002 </r>
       <r>  -0.1665  -0.0020   2.0000 </r>
       <r>  -0.0961  -0.0002   2.0000 </r>
       <r>  -0.0257   0.0000   2.0000 </r>
       <r>   0.0447   0.0000   2.0000 </r>
       <r>   0.1151   0.0000   2.0000 </r>
       <r>   0.1856   0.0000   2.0000 </r>
       <r>   0.2560   0.0000   2.0000 </r>
       <r>   0.3264   0.0000   2.0000 </r>
       <r>   0.3968   0.0000   2.0000 </r>
       <r>   0.4673   0.0000   2.0000 </r>
       <r>   0.5377   0.0000   2.0000 </r>
       <r>   0.6081   0.0000   2.0000 </r>
       <r>   0.6785   0.0000   2.0000 </r>
       <r>   0.7489   0.0000   2.0000 </r>
       <r>   0.8194   0.0000   2.0000 </r>
       <r>   0.8898   0.0000   2.0000 </r>
       <r>   0.9602   0.0000   2.0000 </r>
       <r>   1.0306   0.0000   2.0000 </r>
       <r>   1.1010   0.0000   2.0000 </r>
       <r>   1.1715   0.0000   2.0000 </r>
       <r>   1.2419   0.0000   2.0000 </r>
       <r>   1.3123   0.0000   2.0000 </r>
       <r>   1.3827   0.0000   2.0000 </r>
       <r>   1.4532   0.0000   2.0000 </r>
       <r>   1.5236   0.0000   2.0000 </r>
       <r>   1.5940   0.0000   2.0000 </r>
       <r>   1.6644   0.0000   2.0000 </r>
       <r>   1.7348   0.0000   2.0000 </r>
       <r>   1.8053   0.0000   2.0000 </r>
       <r>   1.8757   0.0000   2.0000 </r>
       <r>   1.9461   0.0000   2.0000 </r>
       <r>   2.0165   0.0000   2.0000 </r>
       <r>   2.0870   0.0000   2.0000 </r>
       <r>   2.1574   0.0000   2.0000 </r>
       <r>   2.2278   0.0000   2.0000 </r>
       <r>   2.2982   0.0000   2.0000 </r>
       <r>   2.3686   0.0000   2.0000 </r>
       <r>   2.4391   0.0000   2.0000 </r>
       <r>   2.5095   0.0000   2.0000 </r>
       <r>   2.5799   0.0000   2.0000 </r>
       <r>   2.6503   0.0000   2.0000 </r>
       <r>   2.7208   0.0000   2.0000 </r>
       <r>   2.7912   0.0000   2.0000 </r>
       <r>   2.8616   0.0000   2.0000 </r>
       <r>   2.9320   0.0000   2.0000 </r>
       <r>   3.0024   0.0000   2.0000 </r>
       <r>   3.0729   0.0000   2.0000 </r>
       <r>   3.1433   0.0000   2.0000 </r>
       <r>   3.2137   0.0000   2.0000 </r>
       <r>   3.2841   0.0000   2.0000 </r>
       <r>   3.3546   0.0000   2.0000 </r>
       <r>   3.4250   0.0000   2.0000 </r>
       <r>   3.4954   0.0000   2.0000 </r>
       <r>   3.5658   0.0000   2.0000 </r>
       <r>   3.6362   0.0000   2.0000 </r>
       <r>   3.7067   0.0000   2.0000 </r>
       <r>   3.7771   0.0000   2.0000 </r>
       <r>   3.8475   0.0000   2.0000 </r>
       <r>   3.9179   0.0000   2.0000 </r>
       <r>   3.9884   0.0000   2.0000 </r>
       <r>   4.0588   0.0000   2.0000 </r>
       <r>   4.1292   0.0000   2.0000 </r>
       <r>   4.1996  -0.0001   2.0000 </r>
       <r>   4.2700  -0.0007   1.9999 </r>
       <r>   4.3405  -0.0047   1.9996 </r>
       <r>   4.4109  -0.0251   1.9979 </r>
       <r>   4.4813  -0.0986   1.9909 </r>
       <r>   4.5517  -0.2720   1.9718 </r>
       <r>   4.6222  -0.4662   1.9389 </r>
       <r>   4.6926  -0.2298   1.9227 </r>
       <r>   4.7630   1.1684   2.0050 </r>
       <r>   4.8334   3.8866   2.2787 </r>
       <r>   4.9038   6.9679   2.7694 </r>
       <r>   4.9743   9.6517   3.4491 </r>
       <r>   5.0447  12.6055   4.3368 </r>
       <r>   5.1151  15.8871   5.4556 </r>
       <r>   5.1855  16.8576   6.6428 </r>
       <r>   5.2559  13.1791   7.5709 </r>
       <r>   5.3264   6.6926   8.0422 </r>
       <r>   5.3968   1.4633   8.1452 </r>
       <r>   5.4672  -0.6940   8.0963 </r>
       <r>   5.5376  -0.8073   8.0395 </r>
       <r>   5.6081  -0.3983   8.0114 </r>
       <r>   5.6785  -0.1277   8.0024 </r>
       <r>   5.7489  -0.0292   8.0004 </r>
       <r>   5.8193  -0.0049   8.0000 </r>
       <r>   5.8897  -0.0006   8.0000 </r>
       <r>   5.9602  -0.0001   8.0000 </r>
       <r>   6.0306   0.0000   8.0000 </r>
       <r>   6.1010   0.0000   8.0000 </r>
       <r>   6.1714   0.0000   8.0000 </r>
       <r>   6.2419   0.0000   8.0000 </r>
       <r>   6.3123   0.0000   8.0000 </r>
       <r>   6.3827   0.0000   8.0000 </r>
       <r>   6.4531   0.0000   8.0000 </r>
       <r>   6.5235   0.0000   8.0000 </r>
       <r>   6.5940   0.0000   8.0000 </r>
       <r>   6.6644   0.0000   8.0000 </r>
       <r>   6.7348   0.0000   8.0000 </r>
       <r>   6.8052   0.0000   8.0000 </r>
       <r>   6.8757   0.0000   8.0000 </r>
       <r>   6.9461   0.0000   8.0000 </r>
       <r>   7.0165   0.0000   8.0000 </r>
       <r>   7.0869   0.0000   8.0000 </r>
       <r>   7.1573   0.0000   8.0000 </r>
       <r>   7.2278   0.0000   8.0000 </r>
       <r>   7.2982   0.0000   8.0000 </r>
       <r>   7.3686   0.0000   8.0000 </r>
       <r>   7.4390   0.0000   8.0000 </r>
       <r>   7.5095   0.0000   8.0000 </r>
       <r>   7.5799   0.0000   8.0000 </r>
       <r>   7.6503   0.0000   8.0000 </r>
       <r>   7.7207   0.0000   8.0000 </r>
       <r>   7.7911   0.0000   8.0000 </r>
       <r>   7.8616   0.0000   8.0000 </r>
       <r>   7.9320   0.0000   8.0000 </r>
       <r>   8.0024   0.0000   8.0000 </r>
       <r>   8.0728   0.0000   8.0000 </r>
       <r>   8.1433   0.0000   8.0000 </r>
       <r>   8.2137   0.0000   8.0000 </r>
       <r>   8.2841   0.0000   8.0000 </r>
       <r>   8.3545   0.0000   8.0000 </r>
       <r>   8.4249   0.0000   8.0000 </r>
       <r>   8.4954   0.0000   8.0000 </r>
       <r>   8.5658   0.0000   8.0000 </r>
       <r>   8.6362   0.0000   8.0000 </r>
       <r>   8.7066   0.0000   8.0000 </r>
       <r>   8.7770   0.0000   8.0000 </r>
       <r>   8.8475   0.0000   8.0000 </r>
       <r>   8.9179   0.0000   8.0000 </r>
       <r>   8.9883   0.0000   8.0000 </r>
       <r>   9.0587   0.0000   8.0000 </r>
       <r>   9.1292   0.0000   8.0000 </r>
       <r>   9.1996   0.0000   8.0000 </r>
       <r>   9.2700   0.0000   8.0000 </r>
       <r>   9.3404   0.0000   8.0000 </r>
       <r>   9.4108   0.0000   8.0000 </r>
       <r>   9.4813   0.0000   8.0000 </r>
       <r>   9.5517   0.0000   8.0000 </r>
       <r>   9.6221   0.0000   8.0000 </r>
       <r>   9.6925   0.0000   8.0000 </r>
       <r>   9.7630   0.0000   8.0000 </r>
       <r>   9.8334  -0.0003   8.0000 </r>
       <r>   9.9038  -0.0028   7.9998 </r>
       <r>   9.9742  -0.0180   7.9985 </r>
       <r>  10.0446  -0.0861   7.9924 </r>
       <r>  10.1151  -0.2974   7.9715 </r>
       <r>  10.1855  -0.6911   7.9228 </r>
       <r>  10.2559  -0.8331   7.8642 </r>
       <r>  10.3263   0.6346   7.9088 </r>
       <r>  10.3968   5.1772   8.2734 </r>
       <r>  10.4672  11.8533   9.1082 </r>
       <r>  10.5376  16.3774  10.2615 </r>
       <r>  10.6080  14.9758  11.3161 </r>
       <r>  10.6784   8.8718  11.9409 </r>
       <r>  10.7489   2.7714  12.1361 </r>
       <r>  10.8193  -0.3287  12.1129 </r>
       <r>  10.8897  -0.8801  12.0509 </r>
       <r>  10.9601  -0.5636  12.0113 </r>
       <r>  11.0306  -0.3673  11.9854 </r>
       <r>  11.1010  -0.4343  11.9548 </r>
       <r>  11.1714  -0.3611  11.9294 </r>
       <r>  11.2418   0.6860  11.9777 </r>
       <r>  11.3122   3.3107  12.2108 </r>
       <r>  11.3827   6.6296  12.6777 </r>
       <r>  11.4531   8.3144  13.2632 </r>
       <r>  11.5235   6.9243  13.7508 </r>
       <r>  11.5939   3.6582  14.0085 </r>
       <r>  11.6644   0.8864  14.0709 </r>
       <r>  11.7348  -0.3069  14.0493 </r>
       <r>  11.8052  -0.4066  14.0206 </r>
       <r>  11.8756  -0.2068  14.0061 </r>
       <r>  11.9460  -0.0675  14.0013 </r>
       <r>  12.0165  -0.0156  14.0002 </r>
       <r>  12.0869  -0.0027  14.0000 </r>
       <r>  12.1573  -0.0003  14.0000 </r>
       <r>  12.2277   0.0000  14.0000 </r>
       <r>  12.2982   0.0000  14.0000 </r>
       <r>  12.3686   0.0000  14.0000 </r>
       <r>  12.4390   0.0000  14.0000 </r>
       <r>  12.5094   0.0000  14.0000 </r>
       <r>  12.5798   0.0000  14.0000 </r>
       <r>  12.6503   0.0000  14.0000 </r>
       <r>  12.7207   0.0000  14.0000 </r>
       <r>  12.7911   0.0000  14.0000 </r>
       <r>  12.8615   0.0000  14.0000 </r>
       <r>  12.9319   0.0000  14.0000 </r>
       <r>  13.0024   0.0000  14.0000 </r>
       <r>  13.0728   0.0000  14.0000 </r>
       <r>  13.1432   0.0000  14.0000 </r>
       <r>  13.2136   0.0000  14.0000 </r>
       <r>  13.2841   0.0000  14.0000 </r>
       <r>  13.3545   0.0000  14.0000 </r>
       <r>  13.4249   0.0000  14.0000 </r>
       <r>  13.4953   0.0000  14.0000 </r>
       <r>  13.5657   0.0000  14.0000 </r>
       <r>  13.6362   0.0000  14.0000 </r>
       <r>  13.7066   0.0000  14.0000 </r>
       <r>  13.7770   0.0000  14.0000 </r>
       <r>  13.8474   0.0000  14.0000 </r>
       <r>  13.9179   0.0000  14.0000 </r>
       <r>  13.9883   0.0000  14.0000 </r>
       <r>  14.0587   0.0000  14.0000 </r>
       <r>  14.1291   0.0000  14.0000 </r>
       <r>  14.1995   0.0000  14.0000 </r>
       <r>  14.2700   0.0000  14.0000 </r>
       <r>  14.3404   0.0000  14.0000 </r>
       <r>  14.4108   0.0000  14.0000 </r>
       <r>  14.4812   0.0000  14.0000 </r>
       <r>  14.5517   0.0000  14.0000 </r>
       <r>  14.6221   0.0000  14.0000 </r>
       <r>  14.6925   0.0000  14.0000 </r>
       <r>  14.7629   0.0000  14.0000 </r>
       <r>  14.8333   0.0000  14.0000 </r>
       <r>  14.9038   0.0000  14.0000 </r>
       <r>  14.9742   0.0000  14.0000 </r>
       <r>  15.0446   0.0000  14.0000 </r>
       <r>  15.1150   0.0000  14.0000 </r>
       <r>  15.1855   0.0000  14.0000 </r>
       <r>  15.2559   0.0000  14.0000 </r>
       <r>  15.3263   0.0000  14.0000 </r>
       <r>  15.3967   0.0000  14.0000 </r>
       <r>  15.4671   0.0000  14.0000 </r>
       <r>  15.5376   0.0000  14.0000 </r>
       <r>  15.6080  -0.0002  14.0000 </r>
       <r>  15.6784  -0.0020  13.9998 </r>
       <r>  15.7488  -0.0122  13.9990 </r>
       <r>  15.8193  -0.0552  13.9951 </r>
       <r>  15.8897  -0.1788  13.9825 </r>
       <r>  15.9601  -0.3809  13.9557 </r>
       <r>  16.0305  -0.3701  13.9296 </r>
       <r>  16.1009   0.6025  13.9720 </r>
       <r>  16.1714   3.1555  14.1943 </r>
       <r>  16.2418   6.4890  14.6512 </r>
       <r>  16.3122   8.3023  15.2359 </r>
       <r>  16.3826   7.0516  15.7325 </r>
       <r>  16.4530   3.8189  16.0014 </r>
       <r>  16.5235   0.9834  16.0707 </r>
       <r>  16.5939  -0.2820  16.0508 </r>
       <r>  16.6643  -0.4135  16.0217 </r>
       <r>  16.7347  -0.2160  16.0065 </r>
       <r>  16.8052  -0.0718  16.0014 </r>
       <r>  16.8756  -0.0169  16.0002 </r>
       <r>  16.9460  -0.0029  16.0000 </r>
       <r>  17.0164  -0.0004  16.0000 </r>
       <r>  17.0868   0.0000  16.0000 </r>
       <r>  17.1573   0.0000  16.0000 </r>
       <r>  17.2277   0.0000  16.0000 </r>
       <r>  17.2981   0.0000  16.0000 </r>
       <r>  17.3685   0.0000  16.0000 </r>
       <r>  17.4390   0.0000  16.0000 </r>
       <r>  17.5094   0.0000  16.0000 </r>
       <r>  17.5798   0.0000  16.0000 </r>
       <r>  17.6502   0.0000  16.0000 </r>
       <r>  17.7206   0.0000  16.0000 </r>
       <r>  17.7911   0.0000  16.0000 </r>
       <r>  17.8615   0.0000  16.0000 </r>
       <r>  17.9319   0.0000  16.0000 </r>
       <r>  18.0023   0.0000  16.0000 </r>
       <r>  18.0728   0.0000  16.0000 </r>
       <r>  18.1432   0.0000  16.0000 </r>
       <r>  18.2136   0.0000  16.0000 </r>
       <r>  18.2840   0.0000  16.0000 </r>
      </set>
     </set>
    </array>
   </total>
  </dos>
 </calculation>
 <structure name="finalpos" >
  <crystal>
   <varray name="basis" >
    <v>       3.50000000       0.00000000       0.00000000 </v>
    <v>       0.00000000       3.50000000       0.00000000 </v>
    <v>       0.00000000       0.00000000       3.50000000 </v>
   </varray>
   <i name="volume">     42.87500000 </i>
   <varray name="rec_basis" >
    <v>       0.28571429       0.00000000       0.00000000 </v>
    <v>       0.00000000       0.28571429       0.00000000 </v>
    <v>       0.00000000       0.00000000       0.28571429 </v>
   </varray>
  </crystal>
  <varray name="positions" >
   <v>       0.50000000       0.50000000      -0.00285714 </v>
   <v>       0.00000000       0.50000000       0.50000000 </v>
   <v>       0.50000000       0.00000000       0.50000000 </v>
  </varray>
  <varray name="selective"  type="logical" >
   <v type="logical" >  F  F  T </v>
   <v type="logical" >  F  F  F </v>
   <v type="logical" >  F  F  F </v>
  </varray>
  <nose>
   <v>      -3.00000000       0.00000000       0.00010000       0.00010000 </v>
  </nose>
 </structure>
</modeling>
