    8    8    1    2
  0.2226630E+02  0.5626600E-09  0.5626600E-09  0.5626600E-09  0.5000000E-15
  1.000000000000000E-004
  CAR 
 unknown system                          
   64    1   42
 
  0.2500000E+00  0.2500000E+00  0.2500000E+00  0.1000000E+01
   1      -11.383482    -11.384326
   2      -11.353594    -11.354459
   3      -11.353593    -11.354458
   4      -11.311533    -11.312399
   5      -11.268390    -11.269268
   6      -11.268390    -11.269268
   7      -11.248194    -11.249088
   8      -11.248193    -11.249088
   9      -11.244136    -11.245033
  10      -11.217456    -11.218318
  11      -11.217455    -11.218318
  12      -11.203790    -11.204653
  13      -11.199783    -11.200670
  14      -11.180982    -11.181873
  15      -11.180981    -11.181871
  16       -9.319209     -9.319270
  17       -7.879908     -7.880005
  18       -7.347269     -7.347405
  19       -7.347269     -7.347405
  20       -5.303411     -5.303451
  21       -2.935038     -2.935265
  22       -2.935038     -2.935264
  23       -1.183311     -1.183440
  24       -0.494007     -0.494125
  25       -0.084315     -0.084460
  26       -0.084315     -0.084460
  27        0.840201      0.839974
  28        0.840201      0.839974
  29        1.418508      1.418209
  30        2.494056      2.493794
  31        2.494056      2.493794
  32        3.614128      3.614192
  33        5.205699      5.205752
  34        5.425095      5.425114
  35        5.425095      5.425114
  36        6.629968      6.629909
  37        7.179156      7.178994
  38        7.179156      7.178994
  39        8.276175      8.276106
  40        8.276175      8.276106
  41        8.774829      8.774993
  42        9.443122      9.450297
