Disk quotas for user tam (uid 511): none
Processors received = 1
script running on host korczak.msae.wisc.edu
PBS_NODEFILE
korczak.local
 running on    1 nodes
 each image running on    1 nodes
 distr:  one band on    1 nodes,    1 groups
 vasp.5.2.2 15Apr09 complex 
 POSCAR found type information on POSCAR  Al
 01/POSCAR found :  1 types and   31 ions

 ----------------------------------------------------------------------------- 
|                                                                             |
|  ADVICE TO THIS USER RUNNING 'VASP/VAMP'   (HEAR YOUR MASTER'S VOICE ...):  |
|                                                                             |
|      You have a (more or less) 'large supercell' and for larger cells       |
|      it might be more efficient to use real space projection operators      |
|      So try LREAL= Auto  in the INCAR   file.                               |
|      Mind: If you want to do a very accurate calculations keep the          |
|      reciprocal projection scheme          (i.e. LREAL=.FALSE.)             |
|                                                                             |
 ----------------------------------------------------------------------------- 

 LDA part: xc-table for Pade appr. of Perdew
 POSCAR found type information on POSCAR  Al
 00/POSCAR found :  1 types and   31 ions
 POSCAR found type information on POSCAR  Al
 02/POSCAR found :  1 types and   31 ions
 POSCAR, INCAR and KPOINTS ok, starting setup
 FFT: planning ...(           4 )
 reading WAVECAR
 entering main loop
       N       E                     dE             d eps       ncg     rms          rms(c)
RMM:   1     0.307990458665E+03    0.30799E+03   -0.17151E+04   124   0.650E+02
RMM:   2    -0.110048220606E+02   -0.31900E+03   -0.31468E+03   124   0.139E+02
RMM:   3    -0.871836792541E+02   -0.76179E+02   -0.77783E+02   124   0.471E+01
RMM:   4    -0.103564242490E+03   -0.16381E+02   -0.17460E+02   124   0.266E+01
RMM:   5    -0.109988224024E+03   -0.64240E+01   -0.54579E+01   124   0.140E+01
RMM:   6    -0.112651814789E+03   -0.26636E+01   -0.21680E+01   124   0.807E+00
RMM:   7    -0.113790812618E+03   -0.11390E+01   -0.95057E+00   124   0.485E+00
RMM:   8    -0.114313055732E+03   -0.52224E+00   -0.44054E+00   124   0.302E+00
RMM:   9    -0.114737717925E+03   -0.42466E+00   -0.38585E+00   295   0.190E+00
RMM:  10    -0.114799093022E+03   -0.61375E-01   -0.29107E-01   255   0.386E-01
RMM:  11    -0.114801835107E+03   -0.27421E-02   -0.94453E-03   209   0.810E-02
RMM:  12    -0.114801856225E+03   -0.21119E-04   -0.13668E-04   153   0.214E-02    0.554E+00
RMM:  13    -0.114063992102E+03    0.73786E+00   -0.12698E+00   248   0.165E+00    0.335E+00
RMM:  14    -0.113818319958E+03    0.24567E+00   -0.22134E-01   261   0.957E-01    0.140E+00
RMM:  15    -0.113763360026E+03    0.54960E-01   -0.48491E-02   250   0.532E-01    0.172E-01
RMM:  16    -0.113761942108E+03    0.14179E-02   -0.40842E-03   263   0.132E-01    0.581E-02
RMM:  17    -0.113761843195E+03    0.98914E-04   -0.91984E-04   248   0.627E-02
   1 F= -.11376184E+03 E0= -.11375331E+03  d E =-.113762E+03
 BRION: g(F)=  0.170E+00 g(S)=  0.000E+00
 bond charge predicted
       N       E                     dE             d eps       ncg     rms          rms(c)
RMM:   1    -0.113907837302E+03   -0.14590E+00   -0.13129E+00   248   0.322E+00    0.253E-01
RMM:   2    -0.113901392136E+03    0.64452E-02   -0.26319E-02   259   0.419E-01    0.108E-01
RMM:   3    -0.113900600385E+03    0.79175E-03   -0.46246E-03   249   0.136E-01    0.385E-02
RMM:   4    -0.113900578987E+03    0.21398E-04   -0.18714E-04   172   0.336E-02
   2 F= -.11390058E+03 E0= -.11388488E+03  d E =-.138736E+00
 BRION: g(F)=  0.702E-01 g(S)=  0.000E+00 retain N=  1 mean eig= 2.54
 eig:   2.536
 bond charge predicted
       N       E                     dE             d eps       ncg     rms          rms(c)
RMM:   1    -0.114023830092E+03   -0.12323E+00   -0.32426E+00   248   0.515E+00    0.397E-01
RMM:   2    -0.114008544588E+03    0.15286E-01   -0.63179E-02   258   0.666E-01    0.172E-01
RMM:   3    -0.114006873401E+03    0.16712E-02   -0.10571E-02   250   0.209E-01    0.666E-02
RMM:   4    -0.114006850716E+03    0.22685E-04   -0.52165E-04   189   0.515E-02
   3 F= -.11400685E+03 E0= -.11398261E+03  d E =-.106272E+00
 BRION: g(F)=  0.702E-02 g(S)=  0.000E+00 retain N=  1 mean eig= 2.91
 eig:   2.914
 bond charge predicted
       N       E                     dE             d eps       ncg     rms          rms(c)
RMM:   1    -0.114016319261E+03   -0.94459E-02   -0.11878E-01   248   0.106E+00    0.771E-02
RMM:   2    -0.114015916410E+03    0.40285E-03   -0.21155E-03   255   0.133E-01    0.380E-02
RMM:   3    -0.114015880016E+03    0.36394E-04   -0.32660E-04   188   0.405E-02
   4 F= -.11401588E+03 E0= -.11399079E+03  d E =-.902930E-02
 BRION: g(F)=  0.335E-02 g(S)=  0.000E+00 retain N=  1 mean eig= 3.74
 eig:   3.740
 reached required accuracy - stopping structural energy minimisation
