<?xml version="1.0" encoding="ISO-8859-1"?>
<modeling>
 <generator>
  <i name="program" type="string">vasp </i>
  <i name="version" type="string">5.2.2  </i>
  <i name="subversion" type="string">15Apr09 complex  parallel </i>
  <i name="platform" type="string">LinuxIFC </i>
  <i name="date" type="string">2014 04 24 </i>
  <i name="time" type="string">10:48:10 </i>
 </generator>
 <incar>
  <i type="string" name="PREC">accurate</i>
  <i type="int" name="IALGO">    48</i>
  <i type="int" name="IBRION">     1</i>
  <i name="EDIFFG">      0.05000000</i>
  <i type="int" name="NSW">   191</i>
  <i type="int" name="ISIF">     2</i>
  <i name="ENCUT">    300.00000000</i>
  <i name="POTIM">      0.50000000</i>
  <i name="NELECT">     93.00000000</i>
  <i type="int" name="ISMEAR">     1</i>
  <i name="SIGMA">      0.20000000</i>
  <i type="logical" name="LWAVE"> F  </i>
  <i type="logical" name="LCHARG"> F  </i>
  <i type="logical" name="LPEAD"> F  </i>
  <i type="logical" name="LCALCPOL"> F  </i>
  <i type="logical" name="LCALCEPS"> F  </i>
  <v name="EFIELD_PEAD">      0.00000000      0.00000000      0.00000000</v>
  <i type="logical" name="LEFG"> F  </i>
 </incar>
 <kpoints>
  <generation param="Monkhorst-Pack">
   <v type="int" name="divisions">       2        2        2 </v>
   <v name="usershift">      0.00000000       0.00000000       0.00000000 </v>
   <v name="genvec1">      0.50000000       0.00000000       0.00000000 </v>
   <v name="genvec2">      0.00000000       0.50000000       0.00000000 </v>
   <v name="genvec3">      0.00000000       0.00000000       0.50000000 </v>
   <v name="shift">      0.50000000       0.50000000       0.50000000 </v>
  </generation>
  <varray name="kpointlist" >
   <v>       0.25000000       0.25000000       0.25000000 </v>
   <v>      -0.25000000       0.25000000       0.25000000 </v>
  </varray>
  <varray name="weights" >
   <v>       0.50000000 </v>
   <v>       0.50000000 </v>
  </varray>
 </kpoints>
 <parameters>
  <separator name="general" >
   <i type="string" name="SYSTEM">unknown system</i>
   <i type="logical" name="LCOMPAT"> F  </i>
  </separator>
  <separator name="electronic" >
   <i type="string" name="PREC">accura</i>
   <i name="ENMAX">    300.00000000</i>
   <i name="ENAUG">    291.05200000</i>
   <i name="EDIFF">      0.00010000</i>
   <i type="int" name="IALGO">    48</i>
   <i type="int" name="IWAVPR">    11</i>
   <i type="int" name="NBANDS">    62</i>
   <i name="NELECT">     93.00000000</i>
   <separator name="electronic smearing" >
    <i type="int" name="ISMEAR">     1</i>
    <i name="SIGMA">      0.20000000</i>
   </separator>
   <separator name="electronic projectors" >
    <i type="logical" name="LREAL"> F  </i>
    <v name="ROPT">      0.00000000</v>
    <i type="int" name="LMAXPAW">  -100</i>
    <i type="int" name="LMAXMIX">     2</i>
   </separator>
   <separator name="electronic startup" >
    <i type="int" name="ISTART">     0</i>
    <i type="int" name="ICHARG">     2</i>
    <i type="int" name="INIWAV">     1</i>
   </separator>
   <separator name="electronic spin" >
    <i type="int" name="ISPIN">     1</i>
    <i type="logical" name="LNONCOLLINEAR"> F  </i>
    <v name="MAGMOM">      1.00000000      1.00000000      1.00000000      1.00000000      1.00000000      1.00000000      1.00000000      1.00000000      1.00000000      1.00000000      1.00000000      1.00000000      1.00000000      1.00000000      1.00000000      1.00000000      1.00000000      1.00000000      1.00000000      1.00000000
      1.00000000      1.00000000      1.00000000      1.00000000      1.00000000      1.00000000      1.00000000      1.00000000      1.00000000      1.00000000      1.00000000</v>
    <i name="NUPDOWN">     -1.00000000</i>
    <i type="logical" name="LSORBIT"> F  </i>
    <v name="SAXIS">      0.00000000      0.00000000      1.00000000</v>
    <i type="logical" name="LSPIRAL"> F  </i>
    <v name="QSPIRAL">      0.00000000      0.00000000      0.00000000</v>
    <i type="logical" name="LZEROZ"> F  </i>
   </separator>
   <separator name="electronic exchange-correlation" >
    <i type="logical" name="LASPH"> F  </i>
    <i type="logical" name="LMETAGGA"> F  </i>
   </separator>
   <separator name="electronic convergence" >
    <i type="int" name="NELM">    60</i>
    <i type="int" name="NELMDL">   -12</i>
    <i type="int" name="NELMIN">     2</i>
    <i name="ENINI">    300.00000000</i>
    <separator name="electronic convergence detail" >
     <i type="logical" name="LDIAG"> T  </i>
     <i name="WEIMIN">      0.00100000</i>
     <i name="EBREAK">      0.00000040</i>
     <i name="DEPER">      0.30000000</i>
     <i type="int" name="NRMM">     4</i>
     <i name="TIME">      0.40000000</i>
    </separator>
   </separator>
   <separator name="electronic mixer" >
    <i name="AMIX">      0.40000000</i>
    <i name="BMIX">      1.00000000</i>
    <i name="AMIN">      0.10000000</i>
    <i name="AMIX_MAG">      1.60000000</i>
    <i name="BMIX_MAG">      1.00000000</i>
    <separator name="electronic mixer details" >
     <i type="int" name="IMIX">     4</i>
     <i type="int" name="MAXMIX">   -45</i>
     <i name="WC">    100.00000000</i>
     <i type="int" name="INIMIX">     1</i>
     <i type="int" name="MIXPRE">     1</i>
     <i type="int" name="MREMOVE">     5</i>
    </separator>
   </separator>
   <separator name="electronic dipolcorrection" >
    <i type="logical" name="LDIPOL"> F  </i>
    <i type="logical" name="LMONO"> F  </i>
    <i type="int" name="IDIPOL">     0</i>
    <i name="EPSILON">      1.00000000</i>
    <v name="DIPOL">   -100.00000000   -100.00000000   -100.00000000</v>
    <i name="EFIELD">      0.00000000</i>
   </separator>
  </separator>
  <separator name="grids" >
   <i type="int" name="NGX">    48</i>
   <i type="int" name="NGY">    48</i>
   <i type="int" name="NGZ">    48</i>
   <i type="int" name="NGXF">    96</i>
   <i type="int" name="NGYF">    96</i>
   <i type="int" name="NGZF">    96</i>
   <i type="logical" name="ADDGRID"> F  </i>
  </separator>
  <separator name="ionic" >
   <i type="int" name="NSW">   191</i>
   <i type="int" name="IBRION">     1</i>
   <i type="int" name="ISIF">     2</i>
   <i name="PSTRESS">      0.00000000</i>
   <i name="EDIFFG">      0.05000000</i>
   <i type="int" name="NFREE">     0</i>
   <i name="POTIM">      0.50000000</i>
   <i name="SMASS">     -3.00000000</i>
  </separator>
  <separator name="ionic md" >
   <i name="TEBEG">      0.00010000</i>
   <i name="TEEND">      0.00010000</i>
   <i type="int" name="NBLOCK">     1</i>
   <i type="int" name="KBLOCK">   191</i>
   <i type="int" name="NPACO">   256</i>
   <i name="APACO">     16.00000000</i>
  </separator>
  <separator name="symmetry" >
   <i type="int" name="ISYM">     2</i>
   <i name="SYMPREC">      0.00001000</i>
  </separator>
  <separator name="dos" >
   <i type="logical" name="LORBIT"> F  </i>
   <v name="RWIGS">     -1.00000000</v>
   <i type="int" name="NEDOS">   301</i>
   <i name="EMIN">     10.00000000</i>
   <i name="EMAX">    -10.00000000</i>
   <i name="EFERMI">      0.00000000</i>
  </separator>
  <separator name="writing" >
   <i type="int" name="NWRITE">     2</i>
   <i type="logical" name="LWAVE"> F  </i>
   <i type="logical" name="LCHARG"> F  </i>
   <i type="logical" name="LPARD"> F  </i>
   <i type="logical" name="LVTOT"> F  </i>
   <i type="logical" name="LELF"> F  </i>
   <i type="logical" name="LOPTICS"> F  </i>
   <v name="STM">      0.00000000      0.00000000      0.00000000      0.00000000      0.00000000</v>
  </separator>
  <separator name="performance" >
   <i type="int" name="NPAR">     1</i>
   <i type="int" name="NSIM">     4</i>
   <i type="int" name="NBLK">    32</i>
   <i type="logical" name="LPLANE"> T  </i>
   <i type="logical" name="LSCALAPACK"> F  </i>
   <i type="logical" name="LSCAAWARE"> F  </i>
   <i type="logical" name="LSCALU"> F  </i>
   <i type="logical" name="LASYNC"> F  </i>
  </separator>
  <separator name="miscellaneous" >
   <i type="int" name="IDIOT">     3</i>
   <i type="logical" name="LMUSIC"> F  </i>
   <v name="POMASS">     26.98200000</v>
   <i type="logical" name="LCORR"> T  </i>
  </separator>
  <i type="logical" name="LREAL_COMPAT"> F  </i>
  <i type="logical" name="GGA_COMPAT"> T  </i>
  <i type="logical" name="LBERRY"> F  </i>
  <i type="int" name="ICORELEVEL">     0</i>
  <i type="logical" name="LDAU"> F  </i>
  <i type="int" name="I_CONSTRAINED_M">     0</i>
  <separator name="electronic exchange-correlation" >
   <i type="string" name="GGA">--</i>
   <i type="int" name="VOSKOWN">     0</i>
   <i type="logical" name="LHFCALC"> F  </i>
   <i type="logical" name="LHFONE"> F  </i>
   <i type="logical" name="LRHFCALC"> F  </i>
   <i type="logical" name="LTHOMAS"> F  </i>
   <i type="logical" name="LMODELHF"> F  </i>
   <i name="ENCUTFOCK">      0.00000000</i>
   <i name="ENCUT4O">     -1.00000000</i>
   <i type="int" name="EXXOEP">     0</i>
   <i type="int" name="FOURORBIT">     0</i>
   <i name="AEXX">      0.00000000</i>
   <i name="HFALPHA">      0.00000000</i>
   <i name="ALDAX">      1.00000000</i>
   <i name="AGGAX">      1.00000000</i>
   <i name="ALDAC">      1.00000000</i>
   <i name="AGGAC">      1.00000000</i>
   <i type="int" name="NKREDX">     1</i>
   <i type="int" name="NKREDY">     1</i>
   <i type="int" name="NKREDZ">     1</i>
   <i type="logical" name="SHIFTRED"> F  </i>
   <i type="logical" name="ODDONLY"> F  </i>
   <i type="logical" name="EVENONLY"> F  </i>
   <i type="int" name="LMAXFOCK">     0</i>
   <i type="int" name="NMAXFOCKAE">     0</i>
   <i name="HFSCREEN">      0.00000000</i>
   <i name="HFSCREENC">      0.00000000</i>
  </separator>
  <separator name="model GW" >
   <i type="int" name="MODEL_GW">     0</i>
   <i name="MODEL_EPS0">     10.23671437</i>
   <i name="MODEL_ALPHA">      1.00000000</i>
  </separator>
  <separator name="linear response parameters" >
   <i type="logical" name="LEPSILON"> F  </i>
   <i type="logical" name="LRPA"> F  </i>
   <i type="logical" name="LNABLA"> F  </i>
   <i type="logical" name="LVEL"> F  </i>
   <i type="int" name="KINTER">     0</i>
   <i name="CSHIFT">      0.10000000</i>
   <i name="OMEGAMAX">     -1.00000000</i>
  </separator>
  <separator name="orbital magnetization" >
   <i type="logical" name="ORBITALMAG"> F  </i>
   <i type="logical" name="LMAGBLOCH"> F  </i>
   <i type="logical" name="LCHIMAG"> F  </i>
   <i type="logical" name="LGAUGE"> T  </i>
   <i type="int" name="MAGATOM">     0</i>
   <v name="MAGDIPOL">      0.00000000      0.00000000      0.00000000</v>
   <v name="AVECCONST">      0.00000000      0.00000000      0.00000000</v>
  </separator>
  <separator name="response functions" >
   <i type="logical" name="LRPA"> T  </i>
   <i type="logical" name="LTCTE"> F  </i>
   <i type="logical" name="LTETE"> F  </i>
   <i type="logical" name="L2ORDER"> F  </i>
   <i type="logical" name="LGWLF"> F  </i>
   <i name="ENCUTGW">    200.00000000</i>
   <i name="ENCUTGWSOFT">     -2.00000000</i>
   <i name="ENCUTLF">     -1.00000000</i>
   <i type="int" name="LMAXMP2">    -1</i>
   <i name="SCISSOR">      0.00000000</i>
   <i type="int" name="NOMEGA">     0</i>
   <i type="int" name="NOMEGAR">     0</i>
   <i type="int" name="NBANDSGW">    -1</i>
   <i type="int" name="NBANDSLF">    -1</i>
   <i type="int" name="NELM">     1</i>
   <i type="int" name="DIM">     3</i>
   <i type="int" name="ANTIRES">     0</i>
   <i type="logical" name="LUSEW"> F  </i>
   <i name="OMEGAMAX">    -30.00000000</i>
   <i name="OMEGATL">   -200.00000000</i>
   <i type="int" name="OMEGAGRID">     0</i>
   <i name="CSHIFT">     -0.10000000</i>
   <i type="logical" name="SELFENERGY"> F  </i>
   <i type="logical" name="LSPECTRAL"> F  </i>
   <i type="logical" name="ODDONLYGW"> F  </i>
   <i type="logical" name="EVENONLYGW"> F  </i>
   <i type="int" name="NKREDLFX">     1</i>
   <i type="int" name="NKREDLFY">     1</i>
   <i type="int" name="NKREDLFZ">     1</i>
   <i type="int" name="MAXMEM">  1024</i>
   <i type="int" name="TELESCOPE">     0</i>
  </separator>
 </parameters>
 <atominfo>
  <atoms>      31 </atoms>
  <types>       1 </types>
  <array name="atoms" >
   <dimension dim="1">ion</dimension>
   <field type="string">element</field>
   <field type="int">atomtype</field>
   <set>
    <rc><c>Al</c><c>   1</c></rc>
    <rc><c>Al</c><c>   1</c></rc>
    <rc><c>Al</c><c>   1</c></rc>
    <rc><c>Al</c><c>   1</c></rc>
    <rc><c>Al</c><c>   1</c></rc>
    <rc><c>Al</c><c>   1</c></rc>
    <rc><c>Al</c><c>   1</c></rc>
    <rc><c>Al</c><c>   1</c></rc>
    <rc><c>Al</c><c>   1</c></rc>
    <rc><c>Al</c><c>   1</c></rc>
    <rc><c>Al</c><c>   1</c></rc>
    <rc><c>Al</c><c>   1</c></rc>
    <rc><c>Al</c><c>   1</c></rc>
    <rc><c>Al</c><c>   1</c></rc>
    <rc><c>Al</c><c>   1</c></rc>
    <rc><c>Al</c><c>   1</c></rc>
    <rc><c>Al</c><c>   1</c></rc>
    <rc><c>Al</c><c>   1</c></rc>
    <rc><c>Al</c><c>   1</c></rc>
    <rc><c>Al</c><c>   1</c></rc>
    <rc><c>Al</c><c>   1</c></rc>
    <rc><c>Al</c><c>   1</c></rc>
    <rc><c>Al</c><c>   1</c></rc>
    <rc><c>Al</c><c>   1</c></rc>
    <rc><c>Al</c><c>   1</c></rc>
    <rc><c>Al</c><c>   1</c></rc>
    <rc><c>Al</c><c>   1</c></rc>
    <rc><c>Al</c><c>   1</c></rc>
    <rc><c>Al</c><c>   1</c></rc>
    <rc><c>Al</c><c>   1</c></rc>
    <rc><c>Al</c><c>   1</c></rc>
   </set>
  </array>
  <array name="atomtypes" >
   <dimension dim="1">type</dimension>
   <field type="int">atomspertype</field>
   <field type="string">element</field>
   <field>mass</field>
   <field>valence</field>
   <field type="string">pseudopotential</field>
   <set>
    <rc><c>  31</c><c>Al</c><c>     26.98200000</c><c>      3.00000000</c><c> PAW_PBE Al 04Jan2001                   </c></rc>
   </set>
  </array>
 </atominfo>
 <structure name="initialpos" >
  <crystal>
   <varray name="basis" >
    <v>       8.08705400       0.00000000       0.00000000 </v>
    <v>       0.00000000       8.08705400       0.00000000 </v>
    <v>       0.00000000       0.00000000       8.08705400 </v>
   </varray>
   <i name="volume">    528.89690930 </i>
   <varray name="rec_basis" >
    <v>       0.12365442       0.00000000       0.00000000 </v>
    <v>       0.00000000       0.12365442       0.00000000 </v>
    <v>       0.00000000       0.00000000       0.12365442 </v>
   </varray>
  </crystal>
  <varray name="positions" >
   <v>       0.37500800       0.50000000       0.37500800 </v>
   <v>       0.99342100       0.00000000       0.99342100 </v>
   <v>       0.24962400       0.00000000       0.24962400 </v>
   <v>       0.24916500       0.24916400       0.00034500 </v>
   <v>       0.00034500       0.24916400       0.24916500 </v>
   <v>       0.50493000       0.00000000       0.99730800 </v>
   <v>       0.75270200       0.00000000       0.24506200 </v>
   <v>       0.74873000       0.24151200       0.00127600 </v>
   <v>       0.50860200       0.23921000       0.24138400 </v>
   <v>       0.00242600       0.50000000       0.00242600 </v>
   <v>       0.24916500       0.75083600       0.00034500 </v>
   <v>       0.00034500       0.75083600       0.24916500 </v>
   <v>       0.49843000       0.50000000       0.00913000 </v>
   <v>       0.74089100       0.50000000       0.25155500 </v>
   <v>       0.74873000       0.75848800       0.00127600 </v>
   <v>       0.50860200       0.76079000       0.24138400 </v>
   <v>       0.99730800       0.00000000       0.50493000 </v>
   <v>       0.24506200       0.00000000       0.75270200 </v>
   <v>       0.24138400       0.23921000       0.50860200 </v>
   <v>       0.00127600       0.24151200       0.74873000 </v>
   <v>       0.50036800       0.00000000       0.50036800 </v>
   <v>       0.75659000       0.00000000       0.75659000 </v>
   <v>       0.74966900       0.24915900       0.50082800 </v>
   <v>       0.50082800       0.24915900       0.74966900 </v>
   <v>       0.00913000       0.50000000       0.49843000 </v>
   <v>       0.25155500       0.50000000       0.74089100 </v>
   <v>       0.24138400       0.76079000       0.50860200 </v>
   <v>       0.00127600       0.75848800       0.74873000 </v>
   <v>       0.74758900       0.50000000       0.74758900 </v>
   <v>       0.74966900       0.75084100       0.50082800 </v>
   <v>       0.50082800       0.75084100       0.74966900 </v>
  </varray>
 </structure>
 <calculation>
  <scstep>
   <time name="diag">    4.69    2.99</time>
   <time name="diis">   21.62    6.89</time>
   <time name="orth">    0.33    0.08</time>
   <time name="total">   29.16   12.36</time>
   <energy>
    <i name="alphaZ">     -6.10292531 </i>
    <i name="ewald">  -2227.07096524 </i>
    <i name="hartreedc">    -19.36752301 </i>
    <i name="XCdc">   -814.80813034 </i>
    <i name="pawpsdc">   1102.18190231 </i>
    <i name="pawaedc">   -111.56847430 </i>
    <i name="eentropy">     -0.04942464 </i>
    <i name="bandstr">    725.10965511 </i>
    <i name="atom">   1659.66634407 </i>
    <i name="e_fr_energy">    307.99045866 </i>
    <i name="e_wo_entrp">    308.03988330 </i>
    <i name="e_0_energy">    308.00693354 </i>
   </energy>
  </scstep>
  <scstep>
   <time name="diag">    4.54    2.96</time>
   <time name="diis">   22.43    7.13</time>
   <time name="orth">    0.33    0.08</time>
   <time name="total">   27.31   10.18</time>
   <energy>
    <i name="e_fr_energy">    -11.00482206 </i>
    <i name="e_wo_entrp">    -10.98806909 </i>
    <i name="e_0_energy">    -10.99923774 </i>
   </energy>
  </scstep>
  <scstep>
   <time name="diag">    4.41    2.93</time>
   <time name="diis">   22.11    6.94</time>
   <time name="orth">    0.35    0.09</time>
   <time name="total">   26.87    9.96</time>
   <energy>
    <i name="e_fr_energy">    -87.18367925 </i>
    <i name="e_wo_entrp">    -87.10908058 </i>
    <i name="e_0_energy">    -87.15881303 </i>
   </energy>
  </scstep>
  <scstep>
   <time name="diag">    4.63    2.97</time>
   <time name="diis">   21.67    6.90</time>
   <time name="orth">    0.33    0.08</time>
   <time name="total">   26.64    9.96</time>
   <energy>
    <i name="e_fr_energy">   -103.56424249 </i>
    <i name="e_wo_entrp">   -103.58179800 </i>
    <i name="e_0_energy">   -103.57009433 </i>
   </energy>
  </scstep>
  <scstep>
   <time name="diag">    4.56    2.96</time>
   <time name="diis">   22.70    7.18</time>
   <time name="orth">    0.34    0.08</time>
   <time name="total">   27.60   10.23</time>
   <energy>
    <i name="e_fr_energy">   -109.98822402 </i>
    <i name="e_wo_entrp">   -109.92307824 </i>
    <i name="e_0_energy">   -109.96650876 </i>
   </energy>
  </scstep>
  <scstep>
   <time name="diag">    4.41    2.94</time>
   <time name="diis">   22.09    6.93</time>
   <time name="orth">    0.33    0.08</time>
   <time name="total">   26.84    9.95</time>
   <energy>
    <i name="e_fr_energy">   -112.65181479 </i>
    <i name="e_wo_entrp">   -112.62594094 </i>
    <i name="e_0_energy">   -112.64319017 </i>
   </energy>
  </scstep>
  <scstep>
   <time name="diag">    4.61    2.97</time>
   <time name="diis">   21.66    6.90</time>
   <time name="orth">    0.33    0.08</time>
   <time name="total">   26.61    9.95</time>
   <energy>
    <i name="e_fr_energy">   -113.79081262 </i>
    <i name="e_wo_entrp">   -113.77393089 </i>
    <i name="e_0_energy">   -113.78518537 </i>
   </energy>
  </scstep>
  <scstep>
   <time name="diag">    4.29    2.93</time>
   <time name="diis">   23.08    7.65</time>
   <time name="orth">    0.34    0.09</time>
   <time name="total">   27.72   10.67</time>
   <energy>
    <i name="e_fr_energy">   -114.31305573 </i>
    <i name="e_wo_entrp">   -114.30402273 </i>
    <i name="e_0_energy">   -114.31004473 </i>
   </energy>
  </scstep>
  <scstep>
   <time name="diag">    5.26    3.58</time>
   <time name="diis">   53.97   16.14</time>
   <time name="orth">    0.36    0.09</time>
   <time name="total">   59.60   19.82</time>
   <energy>
    <i name="e_fr_energy">   -114.73771793 </i>
    <i name="e_wo_entrp">   -114.74963050 </i>
    <i name="e_0_energy">   -114.74168878 </i>
   </energy>
  </scstep>
  <scstep>
   <time name="diag">    5.23    3.57</time>
   <time name="diis">   46.97   14.11</time>
   <time name="orth">    0.33    0.08</time>
   <time name="total">   52.54   17.76</time>
   <energy>
    <i name="e_fr_energy">   -114.79909302 </i>
    <i name="e_wo_entrp">   -114.80806770 </i>
    <i name="e_0_energy">   -114.80208458 </i>
   </energy>
  </scstep>
  <scstep>
   <time name="diag">    5.23    3.57</time>
   <time name="diis">   38.89   11.47</time>
   <time name="orth">    0.34    0.08</time>
   <time name="total">   44.46   15.13</time>
   <energy>
    <i name="e_fr_energy">   -114.80183511 </i>
    <i name="e_wo_entrp">   -114.81048413 </i>
    <i name="e_0_energy">   -114.80471812 </i>
   </energy>
  </scstep>
  <scstep>
   <time name="diag">    4.48    2.93</time>
   <time name="diis">   30.34    8.75</time>
   <time name="orth">    0.34    0.08</time>
   <time name="total">   37.01   13.51</time>
   <energy>
    <i name="e_fr_energy">   -114.80185623 </i>
    <i name="e_wo_entrp">   -114.81051307 </i>
    <i name="e_0_energy">   -114.80474184 </i>
   </energy>
  </scstep>
  <scstep>
   <time name="diag">    4.66    2.98</time>
   <time name="diis">   43.97   12.95</time>
   <time name="orth">    0.34    0.08</time>
   <time name="total">   52.76   19.72</time>
   <energy>
    <i name="e_fr_energy">   -114.06399210 </i>
    <i name="e_wo_entrp">   -114.04032394 </i>
    <i name="e_0_energy">   -114.05610271 </i>
   </energy>
  </scstep>
  <scstep>
   <time name="diag">    4.97    3.10</time>
   <time name="diis">   45.11   13.11</time>
   <time name="orth">    0.39    0.10</time>
   <time name="total">   54.27   20.00</time>
   <energy>
    <i name="e_fr_energy">   -113.81831996 </i>
    <i name="e_wo_entrp">   -113.78902498 </i>
    <i name="e_0_energy">   -113.80855496 </i>
   </energy>
  </scstep>
  <scstep>
   <time name="diag">    4.66    3.01</time>
   <time name="diis">   43.93   13.28</time>
   <time name="orth">    0.34    0.08</time>
   <time name="total">   53.07   20.37</time>
   <energy>
    <i name="e_fr_energy">   -113.76336003 </i>
    <i name="e_wo_entrp">   -113.73670956 </i>
    <i name="e_0_energy">   -113.75447654 </i>
   </energy>
  </scstep>
  <scstep>
   <time name="diag">    5.37    3.68</time>
   <time name="diis">   46.96   14.34</time>
   <time name="orth">    0.33    0.08</time>
   <time name="total">   57.25   22.47</time>
   <energy>
    <i name="e_fr_energy">   -113.76194211 </i>
    <i name="e_wo_entrp">   -113.73584596 </i>
    <i name="e_0_energy">   -113.75324339 </i>
   </energy>
  </scstep>
  <scstep>
   <time name="diag">    5.42    3.70</time>
   <time name="diis">   44.58   13.62</time>
   <time name="orth">    0.34    0.09</time>
   <time name="total">   52.77   19.70</time>
   <energy>
    <i name="alphaZ">     -6.10292531 </i>
    <i name="ewald">  -2227.07096524 </i>
    <i name="hartreedc">    -22.47143453 </i>
    <i name="XCdc">   -811.33578720 </i>
    <i name="pawpsdc">   1108.31546449 </i>
    <i name="pawaedc">   -118.18735367 </i>
    <i name="eentropy">     -0.02560157 </i>
    <i name="bandstr">    303.45041575 </i>
    <i name="atom">   1659.66634407 </i>
    <i name="e_fr_energy">   -113.76184319 </i>
    <i name="e_wo_entrp">   -113.73624163 </i>
    <i name="e_0_energy">   -113.75330934 </i>
   </energy>
  </scstep>
  <structure>
   <crystal>
    <varray name="basis" >
     <v>       8.08705400       0.00000000       0.00000000 </v>
     <v>       0.00000000       8.08705400       0.00000000 </v>
     <v>       0.00000000       0.00000000       8.08705400 </v>
    </varray>
    <i name="volume">    528.89690930 </i>
    <varray name="rec_basis" >
     <v>       0.12365442       0.00000000       0.00000000 </v>
     <v>       0.00000000       0.12365442       0.00000000 </v>
     <v>       0.00000000       0.00000000       0.12365442 </v>
    </varray>
   </crystal>
   <varray name="positions" >
    <v>       0.37500800       0.50000000       0.37500800 </v>
    <v>       0.99342100       0.00000000       0.99342100 </v>
    <v>       0.24962400       0.00000000       0.24962400 </v>
    <v>       0.24916500       0.24916400       0.00034500 </v>
    <v>       0.00034500       0.24916400       0.24916500 </v>
    <v>       0.50493000       0.00000000       0.99730800 </v>
    <v>       0.75270200       0.00000000       0.24506200 </v>
    <v>       0.74873000       0.24151200       0.00127600 </v>
    <v>       0.50860200       0.23921000       0.24138400 </v>
    <v>       0.00242600       0.50000000       0.00242600 </v>
    <v>       0.24916500       0.75083600       0.00034500 </v>
    <v>       0.00034500       0.75083600       0.24916500 </v>
    <v>       0.49843000       0.50000000       0.00913000 </v>
    <v>       0.74089100       0.50000000       0.25155500 </v>
    <v>       0.74873000       0.75848800       0.00127600 </v>
    <v>       0.50860200       0.76079000       0.24138400 </v>
    <v>       0.99730800       0.00000000       0.50493000 </v>
    <v>       0.24506200       0.00000000       0.75270200 </v>
    <v>       0.24138400       0.23921000       0.50860200 </v>
    <v>       0.00127600       0.24151200       0.74873000 </v>
    <v>       0.50036800       0.00000000       0.50036800 </v>
    <v>       0.75659000       0.00000000       0.75659000 </v>
    <v>       0.74966900       0.24915900       0.50082800 </v>
    <v>       0.50082800       0.24915900       0.74966900 </v>
    <v>       0.00913000       0.50000000       0.49843000 </v>
    <v>       0.25155500       0.50000000       0.74089100 </v>
    <v>       0.24138400       0.76079000       0.50860200 </v>
    <v>       0.00127600       0.75848800       0.74873000 </v>
    <v>       0.74758900       0.50000000       0.74758900 </v>
    <v>       0.74966900       0.75084100       0.50082800 </v>
    <v>       0.50082800       0.75084100       0.74966900 </v>
   </varray>
  </structure>
  <varray name="forces" >
   <v>       0.00001001       0.00000000       0.00001001 </v>
   <v>       0.35925126       0.00000000       0.35925126 </v>
   <v>      -0.04767616       0.00000000      -0.04767616 </v>
   <v>      -0.05023852       0.19736404       0.07829349 </v>
   <v>       0.07829349       0.19736404      -0.05023852 </v>
   <v>      -0.30841802       0.00000000      -0.23996010 </v>
   <v>       0.23947349       0.00000000       0.30881128 </v>
   <v>       0.19093651       0.50233300      -0.19122431 </v>
   <v>      -0.16391727      -0.06870625       0.16453013 </v>
   <v>      -0.07863830       0.00000000      -0.07863830 </v>
   <v>      -0.05023852      -0.19736404       0.07829349 </v>
   <v>       0.07829349      -0.19736404      -0.05023852 </v>
   <v>      -0.22742174       0.00000000      -0.24518948 </v>
   <v>       0.24486921       0.00000000       0.22775158 </v>
   <v>       0.19093651      -0.50233300      -0.19122431 </v>
   <v>      -0.16391727       0.06870625       0.16453013 </v>
   <v>      -0.23996010       0.00000000      -0.30841802 </v>
   <v>       0.30881128       0.00000000       0.23947349 </v>
   <v>       0.16453013      -0.06870625      -0.16391727 </v>
   <v>      -0.19122431       0.50233300       0.19093651 </v>
   <v>       0.04787051       0.00000000       0.04787051 </v>
   <v>      -0.35956300       0.00000000      -0.35956300 </v>
   <v>      -0.07864186       0.19747990       0.05047267 </v>
   <v>       0.05047267       0.19747990      -0.07864186 </v>
   <v>      -0.24518948       0.00000000      -0.22742174 </v>
   <v>       0.22775158       0.00000000       0.24486921 </v>
   <v>       0.16453013       0.06870625      -0.16391727 </v>
   <v>      -0.19122431      -0.50233300       0.19093651 </v>
   <v>       0.07840779       0.00000000       0.07840779 </v>
   <v>      -0.07864186      -0.19747990       0.05047267 </v>
   <v>       0.05047267      -0.19747990      -0.07864186 </v>
  </varray>
  <varray name="stress" >
   <v>      -2.23915978       0.00000000      -7.29847895 </v>
   <v>       0.00000000       8.08304720       0.00000000 </v>
   <v>      -7.29847895       0.00000000      -2.23915978 </v>
  </varray>
  <energy>
   <i name="e_fr_energy">   -113.76184319 </i>
   <i name="e_wo_entrp">   -113.75330934 </i>
   <i name="e_0_energy">     -0.02560157 </i>
  </energy>
  <time name="totalsc">  738.54  278.39</time>
 </calculation>
 <calculation>
  <scstep>
   <time name="diag">    5.61    3.84</time>
   <time name="diis">   44.39   13.43</time>
   <time name="orth">    0.34    0.08</time>
   <time name="total">   54.58   21.34</time>
   <energy>
    <i name="alphaZ">     -6.10292531 </i>
    <i name="ewald">  -2229.70997926 </i>
    <i name="hartreedc">    -20.52327519 </i>
    <i name="XCdc">   -811.37151211 </i>
    <i name="pawpsdc">   1108.30982963 </i>
    <i name="pawaedc">   -118.18259863 </i>
    <i name="eentropy">     -0.05191210 </i>
    <i name="bandstr">    304.05819160 </i>
    <i name="atom">   1659.66634407 </i>
    <i name="e_fr_energy">   -113.90783730 </i>
    <i name="e_wo_entrp">   -113.85592520 </i>
    <i name="e_0_energy">   -113.89053327 </i>
   </energy>
  </scstep>
  <scstep>
   <time name="diag">    4.66    2.97</time>
   <time name="diis">   44.96   13.19</time>
   <time name="orth">    0.38    0.10</time>
   <time name="total">   53.77   19.93</time>
   <energy>
    <i name="e_fr_energy">   -113.90139214 </i>
    <i name="e_wo_entrp">   -113.85327554 </i>
    <i name="e_0_energy">   -113.88535327 </i>
   </energy>
  </scstep>
  <scstep>
   <time name="diag">    4.65    2.98</time>
   <time name="diis">   42.64   12.73</time>
   <time name="orth">    0.34    0.08</time>
   <time name="total">   51.40   19.45</time>
   <energy>
    <i name="e_fr_energy">   -113.90060039 </i>
    <i name="e_wo_entrp">   -113.85389848 </i>
    <i name="e_0_energy">   -113.88503308 </i>
   </energy>
  </scstep>
  <scstep>
   <time name="diag">    4.66    2.98</time>
   <time name="diis">   30.98    9.47</time>
   <time name="orth">    0.33    0.08</time>
   <time name="total">   37.97   14.50</time>
   <energy>
    <i name="alphaZ">     -6.10292531 </i>
    <i name="ewald">  -2229.70997926 </i>
    <i name="hartreedc">    -20.40052493 </i>
    <i name="XCdc">   -811.37900924 </i>
    <i name="pawpsdc">   1108.12136355 </i>
    <i name="pawaedc">   -117.98728651 </i>
    <i name="eentropy">     -0.04710530 </i>
    <i name="bandstr">    303.93854394 </i>
    <i name="atom">   1659.66634407 </i>
    <i name="e_fr_energy">   -113.90057899 </i>
    <i name="e_wo_entrp">   -113.85347369 </i>
    <i name="e_0_energy">   -113.88487722 </i>
   </energy>
  </scstep>
  <structure>
   <crystal>
    <varray name="basis" >
     <v>       8.08705400       0.00000000       0.00000000 </v>
     <v>       0.00000000       8.08705400       0.00000000 </v>
     <v>       0.00000000       0.00000000       8.08705400 </v>
    </varray>
    <i name="volume">    528.89690930 </i>
    <varray name="rec_basis" >
     <v>       0.12365442       0.00000000       0.00000000 </v>
     <v>       0.00000000       0.12365442       0.00000000 </v>
     <v>       0.00000000       0.00000000       0.12365442 </v>
    </varray>
   </crystal>
   <varray name="positions" >
    <v>       0.37500517       0.50000000       0.37500517 </v>
    <v>       0.99556409       0.00000000       0.99556409 </v>
    <v>       0.24933959       0.00000000       0.24933959 </v>
    <v>       0.24886530       0.25034131       0.00081201 </v>
    <v>       0.00081201       0.25034131       0.24886530 </v>
    <v>       0.50309015       0.00000000       0.99587654 </v>
    <v>       0.75413057       0.00000000       0.24690418 </v>
    <v>       0.74986902       0.24450863       0.00013527 </v>
    <v>       0.50762420       0.23880014       0.24236553 </v>
    <v>       0.00195685       0.50000000       0.00195685 </v>
    <v>       0.24886530       0.74965869       0.00081201 </v>
    <v>       0.00081201       0.74965869       0.24886530 </v>
    <v>       0.49707337       0.50000000       0.00766730 </v>
    <v>       0.74235171       0.50000000       0.25291367 </v>
    <v>       0.74986902       0.75549137       0.00013527 </v>
    <v>       0.50762420       0.76119986       0.24236553 </v>
    <v>       0.99587654       0.00000000       0.50309015 </v>
    <v>       0.24690418       0.00000000       0.75413057 </v>
    <v>       0.24236553       0.23880014       0.50762420 </v>
    <v>       0.00013527       0.24450863       0.74986902 </v>
    <v>       0.50065356       0.00000000       0.50065356 </v>
    <v>       0.75444506       0.00000000       0.75444506 </v>
    <v>       0.74919983       0.25033709       0.50112908 </v>
    <v>       0.50112908       0.25033709       0.74919983 </v>
    <v>       0.00766730       0.50000000       0.49707337 </v>
    <v>       0.25291367       0.50000000       0.74235171 </v>
    <v>       0.24236553       0.76119986       0.50762420 </v>
    <v>       0.00013527       0.75549137       0.74986902 </v>
    <v>       0.74805670       0.50000000       0.74805670 </v>
    <v>       0.74919983       0.74966291       0.50112908 </v>
    <v>       0.50112908       0.74966291       0.74919983 </v>
   </varray>
  </structure>
  <varray name="forces" >
   <v>       0.00000816       0.00000000       0.00000816 </v>
   <v>       0.23320163       0.00000000       0.23320163 </v>
   <v>      -0.04411077       0.00000000      -0.04411077 </v>
   <v>      -0.03854293       0.15315084       0.07257513 </v>
   <v>       0.07257513       0.15315084      -0.03854293 </v>
   <v>      -0.16302084       0.00000000      -0.15228238 </v>
   <v>       0.15186339       0.00000000       0.16334924 </v>
   <v>       0.09765387       0.34541670      -0.09786873 </v>
   <v>      -0.07508463      -0.08012583       0.07560820 </v>
   <v>      -0.06003954       0.00000000      -0.06003954 </v>
   <v>      -0.03854293      -0.15315084       0.07257513 </v>
   <v>       0.07257513      -0.15315084      -0.03854293 </v>
   <v>      -0.13382758       0.00000000      -0.14003177 </v>
   <v>       0.13972010       0.00000000       0.13416136 </v>
   <v>       0.09765387      -0.34541670      -0.09786873 </v>
   <v>      -0.07508463       0.08012583       0.07560820 </v>
   <v>      -0.15228238       0.00000000      -0.16302084 </v>
   <v>       0.16334924       0.00000000       0.15186339 </v>
   <v>       0.07560820      -0.08012583      -0.07508463 </v>
   <v>      -0.09786873       0.34541670       0.09765387 </v>
   <v>       0.04437967       0.00000000       0.04437967 </v>
   <v>      -0.23349428       0.00000000      -0.23349428 </v>
   <v>      -0.07292393       0.15326452       0.03878786 </v>
   <v>       0.03878786       0.15326452      -0.07292393 </v>
   <v>      -0.14003177       0.00000000      -0.13382758 </v>
   <v>       0.13416136       0.00000000       0.13972010 </v>
   <v>       0.07560820       0.08012583      -0.07508463 </v>
   <v>      -0.09786873      -0.34541670       0.09765387 </v>
   <v>       0.05971397       0.00000000       0.05971397 </v>
   <v>      -0.07292393      -0.15326452       0.03878786 </v>
   <v>       0.03878786      -0.15326452      -0.07292393 </v>
  </varray>
  <varray name="stress" >
   <v>      -3.77077737       0.00000000      -6.48571349 </v>
   <v>       0.00000000       7.35981597       0.00000000 </v>
   <v>      -6.48571349       0.00000000      -3.77077737 </v>
  </varray>
  <energy>
   <i name="e_fr_energy">   -113.90057899 </i>
   <i name="e_wo_entrp">   -113.88487722 </i>
   <i name="e_0_energy">     -0.04710530 </i>
  </energy>
  <time name="totalsc">  259.22  102.32</time>
 </calculation>
 <calculation>
  <scstep>
   <time name="diag">    4.68    2.97</time>
   <time name="diis">   41.97   12.44</time>
   <time name="orth">    0.33    0.08</time>
   <time name="total">   51.31   19.63</time>
   <energy>
    <i name="alphaZ">     -6.10292531 </i>
    <i name="ewald">  -2232.90849980 </i>
    <i name="hartreedc">    -17.86347796 </i>
    <i name="XCdc">   -811.42879968 </i>
    <i name="pawpsdc">   1108.09351823 </i>
    <i name="pawaedc">   -117.95844741 </i>
    <i name="eentropy">     -0.07547848 </i>
    <i name="bandstr">    304.55393625 </i>
    <i name="atom">   1659.66634407 </i>
    <i name="e_fr_energy">   -114.02383009 </i>
    <i name="e_wo_entrp">   -113.94835161 </i>
    <i name="e_0_energy">   -113.99867060 </i>
   </energy>
  </scstep>
  <scstep>
   <time name="diag">    4.69    2.99</time>
   <time name="diis">   44.18   12.87</time>
   <time name="orth">    0.33    0.08</time>
   <time name="total">   52.99   19.63</time>
   <energy>
    <i name="e_fr_energy">   -114.00854459 </i>
    <i name="e_wo_entrp">   -113.93536710 </i>
    <i name="e_0_energy">   -113.98415209 </i>
   </energy>
  </scstep>
  <scstep>
   <time name="diag">    4.69    2.99</time>
   <time name="diis">   42.53   12.50</time>
   <time name="orth">    0.33    0.08</time>
   <time name="total">   51.33   19.25</time>
   <energy>
    <i name="e_fr_energy">   -114.00687340 </i>
    <i name="e_wo_entrp">   -113.93449386 </i>
    <i name="e_0_energy">   -113.98274689 </i>
   </energy>
  </scstep>
  <scstep>
   <time name="diag">    4.69    2.98</time>
   <time name="diis">   32.60    9.74</time>
   <time name="orth">    0.33    0.08</time>
   <time name="total">   39.67   14.79</time>
   <energy>
    <i name="alphaZ">     -6.10292531 </i>
    <i name="ewald">  -2232.90849980 </i>
    <i name="hartreedc">    -17.76397795 </i>
    <i name="XCdc">   -811.43628818 </i>
    <i name="pawpsdc">   1107.94858818 </i>
    <i name="pawaedc">   -117.80636282 </i>
    <i name="eentropy">     -0.07272215 </i>
    <i name="bandstr">    304.46899325 </i>
    <i name="atom">   1659.66634407 </i>
    <i name="e_fr_energy">   -114.00685072 </i>
    <i name="e_wo_entrp">   -113.93412857 </i>
    <i name="e_0_energy">   -113.98261000 </i>
   </energy>
  </scstep>
  <structure>
   <crystal>
    <varray name="basis" >
     <v>       8.08705400       0.00000000       0.00000000 </v>
     <v>       0.00000000       8.08705400       0.00000000 </v>
     <v>       0.00000000       0.00000000       8.08705400 </v>
    </varray>
    <i name="volume">    528.89690930 </i>
    <varray name="rec_basis" >
     <v>       0.12365442       0.00000000       0.00000000 </v>
     <v>       0.00000000       0.12365442       0.00000000 </v>
     <v>       0.00000000       0.00000000       0.12365442 </v>
    </varray>
   </crystal>
   <varray name="positions" >
    <v>       0.37500077       0.50000000       0.37500077 </v>
    <v>       0.99909158       0.00000000       0.99909158 </v>
    <v>       0.24867234       0.00000000       0.24867234 </v>
    <v>       0.24828228       0.25265785       0.00190975 </v>
    <v>       0.00190975       0.25265785       0.24828228 </v>
    <v>       0.50062424       0.00000000       0.99357309 </v>
    <v>       0.75642771       0.00000000       0.24937504 </v>
    <v>       0.75134617       0.24973350      -0.00134511 </v>
    <v>       0.50648851       0.23758813       0.24350926 </v>
    <v>       0.00104861       0.50000000       0.00104861 </v>
    <v>       0.24828228       0.74734215       0.00190975 </v>
    <v>       0.00190975       0.74734215       0.24828228 </v>
    <v>       0.49504912       0.50000000       0.00554908 </v>
    <v>       0.74446510       0.50000000       0.25494310 </v>
    <v>       0.75134617       0.75026650      -0.00134511 </v>
    <v>       0.50648851       0.76241187       0.24350926 </v>
    <v>       0.99357309       0.00000000       0.50062424 </v>
    <v>       0.24937504       0.00000000       0.75642771 </v>
    <v>       0.24350926       0.23758813       0.50648851 </v>
    <v>      -0.00134511       0.24973350       0.75134617 </v>
    <v>       0.50132485       0.00000000       0.50132485 </v>
    <v>       0.75091317       0.00000000       0.75091317 </v>
    <v>       0.74809670       0.25265549       0.50171579 </v>
    <v>       0.50171579       0.25265549       0.74809670 </v>
    <v>       0.00554908       0.50000000       0.49504912 </v>
    <v>       0.25494310       0.50000000       0.74446510 </v>
    <v>       0.24350926       0.76241187       0.50648851 </v>
    <v>      -0.00134511       0.75026650       0.75134617 </v>
    <v>       0.74895989       0.50000000       0.74895989 </v>
    <v>       0.74809670       0.74734451       0.50171579 </v>
    <v>       0.50171579       0.74734451       0.74809670 </v>
   </varray>
  </structure>
  <varray name="forces" >
   <v>      -0.00004246       0.00000000      -0.00004246 </v>
   <v>       0.04252513       0.00000000       0.04252513 </v>
   <v>      -0.02144655       0.00000000      -0.02144655 </v>
   <v>      -0.01567936       0.07114267       0.05424195 </v>
   <v>       0.05424195       0.07114267      -0.01567936 </v>
   <v>       0.01830127       0.00000000      -0.04199639 </v>
   <v>       0.04194859       0.00000000      -0.01824527 </v>
   <v>      -0.02043773       0.08824108       0.02038294 </v>
   <v>       0.02476676      -0.07404026      -0.02461780 </v>
   <v>      -0.00709217       0.00000000      -0.00709217 </v>
   <v>      -0.01567936      -0.07114267       0.05424195 </v>
   <v>       0.05424195      -0.07114267      -0.01567936 </v>
   <v>      -0.00573796       0.00000000       0.00795046 </v>
   <v>      -0.00810968       0.00000000       0.00596454 </v>
   <v>      -0.02043773      -0.08824108       0.02038294 </v>
   <v>       0.02476676       0.07404026      -0.02461780 </v>
   <v>      -0.04199639       0.00000000       0.01830127 </v>
   <v>      -0.01824527       0.00000000       0.04194859 </v>
   <v>      -0.02461780      -0.07404026       0.02476676 </v>
   <v>       0.02038294       0.08824108      -0.02043773 </v>
   <v>       0.02159762       0.00000000       0.02159762 </v>
   <v>      -0.04266104       0.00000000      -0.04266104 </v>
   <v>      -0.05438445       0.07128421       0.01581986 </v>
   <v>       0.01581986       0.07128421      -0.05438445 </v>
   <v>       0.00795046       0.00000000      -0.00573796 </v>
   <v>       0.00596454       0.00000000      -0.00810968 </v>
   <v>      -0.02461780       0.07404026       0.02476676 </v>
   <v>       0.02038294      -0.08824108      -0.02043773 </v>
   <v>       0.00685957       0.00000000       0.00685957 </v>
   <v>      -0.05438445      -0.07128421       0.01581986 </v>
   <v>       0.01581986      -0.07128421      -0.05438445 </v>
  </varray>
  <varray name="stress" >
   <v>      -4.63119487       0.00000000      -4.10400531 </v>
   <v>       0.00000000       6.00130676       0.00000000 </v>
   <v>      -4.10400531       0.00000000      -4.63119487 </v>
  </varray>
  <energy>
   <i name="e_fr_energy">   -114.00685072 </i>
   <i name="e_wo_entrp">   -113.98261000 </i>
   <i name="e_0_energy">     -0.07272215 </i>
  </energy>
  <time name="totalsc">  255.11   99.84</time>
 </calculation>
 <calculation>
  <scstep>
   <time name="diag">    4.69    2.99</time>
   <time name="diis">   42.15   12.43</time>
   <time name="orth">    0.33    0.08</time>
   <time name="total">   51.03   19.15</time>
   <energy>
    <i name="alphaZ">     -6.10292531 </i>
    <i name="ewald">  -2233.44417663 </i>
    <i name="hartreedc">    -17.33880199 </i>
    <i name="XCdc">   -811.44701196 </i>
    <i name="pawpsdc">   1107.93090250 </i>
    <i name="pawaedc">   -117.78753689 </i>
    <i name="eentropy">     -0.07582596 </i>
    <i name="bandstr">    304.58271291 </i>
    <i name="atom">   1659.66634407 </i>
    <i name="e_fr_energy">   -114.01631926 </i>
    <i name="e_wo_entrp">   -113.94049330 </i>
    <i name="e_0_energy">   -113.99104394 </i>
   </energy>
  </scstep>
  <scstep>
   <time name="diag">    4.68    2.98</time>
   <time name="diis">   44.72   12.99</time>
   <time name="orth">    0.34    0.08</time>
   <time name="total">   53.51   19.74</time>
   <energy>
    <i name="e_fr_energy">   -114.01591641 </i>
    <i name="e_wo_entrp">   -113.94048958 </i>
    <i name="e_0_energy">   -113.99077413 </i>
   </energy>
  </scstep>
  <scstep>
   <time name="diag">    4.68    2.98</time>
   <time name="diis">   32.45    9.74</time>
   <time name="orth">    0.33    0.08</time>
   <time name="total">   39.44   14.77</time>
   <energy>
    <i name="alphaZ">     -6.10292531 </i>
    <i name="ewald">  -2233.44417663 </i>
    <i name="hartreedc">    -17.31504056 </i>
    <i name="XCdc">   -811.44840973 </i>
    <i name="pawpsdc">   1107.91594108 </i>
    <i name="pawaedc">   -117.77162347 </i>
    <i name="eentropy">     -0.07526620 </i>
    <i name="bandstr">    304.55927673 </i>
    <i name="atom">   1659.66634407 </i>
    <i name="e_fr_energy">   -114.01588002 </i>
    <i name="e_wo_entrp">   -113.94061382 </i>
    <i name="e_0_energy">   -113.99079128 </i>
   </energy>
  </scstep>
  <structure>
   <crystal>
    <varray name="basis" >
     <v>       8.08705400       0.00000000       0.00000000 </v>
     <v>       0.00000000       8.08705400       0.00000000 </v>
     <v>       0.00000000       0.00000000       8.08705400 </v>
    </varray>
    <i name="volume">    528.89690930 </i>
    <varray name="rec_basis" >
     <v>       0.12365442       0.00000000       0.00000000 </v>
     <v>       0.00000000       0.12365442       0.00000000 </v>
     <v>       0.00000000       0.00000000       0.12365442 </v>
    </varray>
   </crystal>
   <varray name="positions" >
    <v>       0.37500030       0.50000000       0.37500030 </v>
    <v>       0.99970169       0.00000000       0.99970169 </v>
    <v>       0.24846506       0.00000000       0.24846506 </v>
    <v>       0.24812214       0.25335476       0.00238073 </v>
    <v>       0.00238073       0.25335476       0.24812214 </v>
    <v>       0.50052698       0.00000000       0.99307715 </v>
    <v>       0.75692274       0.00000000       0.24947313 </v>
    <v>       0.75133949       0.25081030      -0.00133909 </v>
    <v>       0.50655571       0.23697111       0.24344380 </v>
    <v>       0.00091797       0.50000000       0.00091797 </v>
    <v>       0.24812214       0.74664524       0.00238073 </v>
    <v>       0.00238073       0.74664524       0.24812214 </v>
    <v>       0.49482695       0.50000000       0.00541227 </v>
    <v>       0.74460039       0.50000000       0.25516727 </v>
    <v>       0.75133949       0.74918970      -0.00133909 </v>
    <v>       0.50655571       0.76302889       0.24344380 </v>
    <v>       0.99307715       0.00000000       0.50052698 </v>
    <v>       0.24947313       0.00000000       0.75692274 </v>
    <v>       0.24344380       0.23697111       0.50655571 </v>
    <v>      -0.00133909       0.25081030       0.75133949 </v>
    <v>       0.50153354       0.00000000       0.50153354 </v>
    <v>       0.75030173       0.00000000       0.75030173 </v>
    <v>       0.74762426       0.25335354       0.50187723 </v>
    <v>       0.50187723       0.25335354       0.74762426 </v>
    <v>       0.00541227       0.50000000       0.49482695 </v>
    <v>       0.25516727       0.50000000       0.74460039 </v>
    <v>       0.24344380       0.76302889       0.50655571 </v>
    <v>      -0.00133909       0.74918970       0.75133949 </v>
    <v>       0.74908849       0.50000000       0.74908849 </v>
    <v>       0.74762426       0.74664646       0.50187723 </v>
    <v>       0.50187723       0.74664646       0.74762426 </v>
   </varray>
  </structure>
  <varray name="forces" >
   <v>      -0.00002011       0.00000000      -0.00002011 </v>
   <v>       0.00499644       0.00000000       0.00499644 </v>
   <v>      -0.00910550       0.00000000      -0.00910550 </v>
   <v>      -0.00295007       0.05091517       0.03977134 </v>
   <v>       0.03977134       0.05091517      -0.00295007 </v>
   <v>       0.02840198       0.00000000      -0.03897826 </v>
   <v>       0.03898688       0.00000000      -0.02837546 </v>
   <v>      -0.02077001       0.03800605       0.02077243 </v>
   <v>       0.02027472      -0.05395753      -0.02018022 </v>
   <v>      -0.00093761       0.00000000      -0.00093761 </v>
   <v>      -0.00295007      -0.05091517       0.03977134 </v>
   <v>       0.03977134      -0.05091517      -0.00295007 </v>
   <v>       0.00293095       0.00000000       0.02266245 </v>
   <v>      -0.02279608       0.00000000      -0.00274224 </v>
   <v>      -0.02077001      -0.03800605       0.02077243 </v>
   <v>       0.02027472       0.05395753      -0.02018022 </v>
   <v>      -0.03897826       0.00000000       0.02840198 </v>
   <v>      -0.02837546       0.00000000       0.03898688 </v>
   <v>      -0.02018022      -0.05395753       0.02027472 </v>
   <v>       0.02077243       0.03800605      -0.02077001 </v>
   <v>       0.00919973       0.00000000       0.00919973 </v>
   <v>      -0.00509186       0.00000000      -0.00509186 </v>
   <v>      -0.03989833       0.05103631       0.00302358 </v>
   <v>       0.00302358       0.05103631      -0.03989833 </v>
   <v>       0.02266245       0.00000000       0.00293095 </v>
   <v>      -0.00274224       0.00000000      -0.02279608 </v>
   <v>      -0.02018022       0.05395753       0.02027472 </v>
   <v>       0.02077243      -0.03800605      -0.02077001 </v>
   <v>       0.00078179       0.00000000       0.00078179 </v>
   <v>      -0.03989833      -0.05103631       0.00302358 </v>
   <v>       0.00302358      -0.05103631      -0.03989833 </v>
  </varray>
  <varray name="stress" >
   <v>      -4.50941296       0.00000000      -3.75220234 </v>
   <v>       0.00000000       5.37689475       0.00000000 </v>
   <v>      -3.75220234       0.00000000      -4.50941296 </v>
  </varray>
  <energy>
   <i name="e_fr_energy">   -114.01588002 </i>
   <i name="e_wo_entrp">   -113.99079128 </i>
   <i name="e_0_energy">     -0.07526620 </i>
  </energy>
  <time name="totalsc">  197.15   77.95</time>
  <eigenvalues>
   <array>
    <dimension dim="1">band</dimension>
    <dimension dim="2">kpoint</dimension>
    <dimension dim="3">spin</dimension>
    <field>eigene</field>
    <field>occ</field>
    <set>
     <set comment="spin 1">
      <set comment="kpoint 1">
       <r>   -2.9370    1.0000 </r>
       <r>   -1.9054    1.0000 </r>
       <r>   -1.8205    1.0000 </r>
       <r>   -1.6630    1.0000 </r>
       <r>   -0.7746    1.0000 </r>
       <r>   -0.7147    1.0000 </r>
       <r>   -0.4688    1.0000 </r>
       <r>    0.3149    1.0000 </r>
       <r>    0.3665    1.0000 </r>
       <r>    0.4170    1.0000 </r>
       <r>    0.6282    1.0000 </r>
       <r>    1.4062    1.0000 </r>
       <r>    1.4278    1.0000 </r>
       <r>    1.4638    1.0000 </r>
       <r>    1.5264    1.0000 </r>
       <r>    1.7316    1.0000 </r>
       <r>    1.8552    1.0000 </r>
       <r>    2.5883    1.0000 </r>
       <r>    2.6581    1.0000 </r>
       <r>    2.7457    1.0000 </r>
       <r>    3.5472    1.0000 </r>
       <r>    3.5960    1.0000 </r>
       <r>    3.6477    1.0000 </r>
       <r>    3.6952    1.0000 </r>
       <r>    3.7311    1.0000 </r>
       <r>    4.0725    1.0000 </r>
       <r>    4.5941    1.0000 </r>
       <r>    4.6142    1.0000 </r>
       <r>    4.6637    1.0000 </r>
       <r>    4.7450    1.0000 </r>
       <r>    4.7509    1.0000 </r>
       <r>    4.7743    1.0000 </r>
       <r>    4.9040    1.0000 </r>
       <r>    5.0715    1.0000 </r>
       <r>    5.0971    1.0000 </r>
       <r>    5.7547    1.0000 </r>
       <r>    5.8455    1.0000 </r>
       <r>    6.1624    1.0000 </r>
       <r>    6.7553    1.0000 </r>
       <r>    6.8233    1.0000 </r>
       <r>    6.8397    1.0000 </r>
       <r>    6.9130    1.0000 </r>
       <r>    6.9784    1.0000 </r>
       <r>    7.0003    1.0000 </r>
       <r>    7.1395    1.0000 </r>
       <r>    7.7916    0.8188 </r>
       <r>    7.9145    0.3335 </r>
       <r>    7.9180    0.3197 </r>
       <r>    7.9489    0.2070 </r>
       <r>    8.0270    0.0198 </r>
       <r>    8.1197   -0.0355 </r>
       <r>    8.2087   -0.0198 </r>
       <r>    8.2456   -0.0123 </r>
       <r>    8.4315   -0.0003 </r>
       <r>    9.0965    0.0000 </r>
       <r>    9.1923    0.0000 </r>
       <r>    9.2403    0.0000 </r>
       <r>    9.3404    0.0000 </r>
       <r>    9.3480    0.0000 </r>
       <r>    9.4596    0.0000 </r>
       <r>    9.9630    0.0000 </r>
       <r>   10.0140    0.0000 </r>
      </set>
      <set comment="kpoint 2">
       <r>   -2.9373    1.0000 </r>
       <r>   -1.9149    1.0000 </r>
       <r>   -1.7408    1.0000 </r>
       <r>   -1.7398    1.0000 </r>
       <r>   -0.7918    1.0000 </r>
       <r>   -0.6280    1.0000 </r>
       <r>   -0.5532    1.0000 </r>
       <r>    0.3055    1.0000 </r>
       <r>    0.4271    1.0000 </r>
       <r>    0.4771    1.0000 </r>
       <r>    0.5638    1.0000 </r>
       <r>    1.4129    1.0000 </r>
       <r>    1.4531    1.0000 </r>
       <r>    1.4560    1.0000 </r>
       <r>    1.5505    1.0000 </r>
       <r>    1.5631    1.0000 </r>
       <r>    1.8990    1.0000 </r>
       <r>    2.5440    1.0000 </r>
       <r>    2.6989    1.0000 </r>
       <r>    2.8387    1.0000 </r>
       <r>    3.5699    1.0000 </r>
       <r>    3.6033    1.0000 </r>
       <r>    3.6890    1.0000 </r>
       <r>    3.6953    1.0000 </r>
       <r>    3.7760    1.0000 </r>
       <r>    3.8737    1.0000 </r>
       <r>    4.5664    1.0000 </r>
       <r>    4.6496    1.0000 </r>
       <r>    4.6601    1.0000 </r>
       <r>    4.7080    1.0000 </r>
       <r>    4.7711    1.0000 </r>
       <r>    4.7887    1.0000 </r>
       <r>    4.9684    1.0000 </r>
       <r>    5.0112    1.0000 </r>
       <r>    5.1444    1.0000 </r>
       <r>    5.7224    1.0000 </r>
       <r>    5.9069    1.0000 </r>
       <r>    6.1528    1.0000 </r>
       <r>    6.7324    1.0000 </r>
       <r>    6.8041    1.0000 </r>
       <r>    6.8369    1.0000 </r>
       <r>    6.9096    1.0000 </r>
       <r>    6.9749    1.0000 </r>
       <r>    6.9963    1.0000 </r>
       <r>    7.0850    1.0000 </r>
       <r>    7.8111    0.7528 </r>
       <r>    7.8662    0.5339 </r>
       <r>    7.9636    0.1604 </r>
       <r>    8.0237    0.0247 </r>
       <r>    8.1240   -0.0354 </r>
       <r>    8.1526   -0.0321 </r>
       <r>    8.2279   -0.0157 </r>
       <r>    8.2334   -0.0146 </r>
       <r>    8.3024   -0.0049 </r>
       <r>    9.1313    0.0000 </r>
       <r>    9.1761    0.0000 </r>
       <r>    9.1872    0.0000 </r>
       <r>    9.3236    0.0000 </r>
       <r>    9.3568    0.0000 </r>
       <r>    9.5401    0.0000 </r>
       <r>    9.9367    0.0000 </r>
       <r>    9.9863    0.0000 </r>
      </set>
     </set>
    </set>
   </array>
  </eigenvalues>
  <separator name="orbital magnetization" >
   <v name="MAGDIPOLOUT">      0.00000000      0.00000000      0.00000000</v>
  </separator>
 </calculation>
 <structure name="finalpos" >
  <crystal>
   <varray name="basis" >
    <v>       8.08705400       0.00000000       0.00000000 </v>
    <v>       0.00000000       8.08705400       0.00000000 </v>
    <v>       0.00000000       0.00000000       8.08705400 </v>
   </varray>
   <i name="volume">    528.89690930 </i>
   <varray name="rec_basis" >
    <v>       0.12365442       0.00000000       0.00000000 </v>
    <v>       0.00000000       0.12365442       0.00000000 </v>
    <v>       0.00000000       0.00000000       0.12365442 </v>
   </varray>
  </crystal>
  <varray name="positions" >
   <v>       0.37500030       0.50000000       0.37500030 </v>
   <v>       0.99970169       0.00000000       0.99970169 </v>
   <v>       0.24846506       0.00000000       0.24846506 </v>
   <v>       0.24812214       0.25335476       0.00238073 </v>
   <v>       0.00238073       0.25335476       0.24812214 </v>
   <v>       0.50052698       0.00000000       0.99307715 </v>
   <v>       0.75692274       0.00000000       0.24947313 </v>
   <v>       0.75133949       0.25081030      -0.00133909 </v>
   <v>       0.50655571       0.23697111       0.24344380 </v>
   <v>       0.00091797       0.50000000       0.00091797 </v>
   <v>       0.24812214       0.74664524       0.00238073 </v>
   <v>       0.00238073       0.74664524       0.24812214 </v>
   <v>       0.49482695       0.50000000       0.00541227 </v>
   <v>       0.74460039       0.50000000       0.25516727 </v>
   <v>       0.75133949       0.74918970      -0.00133909 </v>
   <v>       0.50655571       0.76302889       0.24344380 </v>
   <v>       0.99307715       0.00000000       0.50052698 </v>
   <v>       0.24947313       0.00000000       0.75692274 </v>
   <v>       0.24344380       0.23697111       0.50655571 </v>
   <v>      -0.00133909       0.25081030       0.75133949 </v>
   <v>       0.50153354       0.00000000       0.50153354 </v>
   <v>       0.75030173       0.00000000       0.75030173 </v>
   <v>       0.74762426       0.25335354       0.50187723 </v>
   <v>       0.50187723       0.25335354       0.74762426 </v>
   <v>       0.00541227       0.50000000       0.49482695 </v>
   <v>       0.25516727       0.50000000       0.74460039 </v>
   <v>       0.24344380       0.76302889       0.50655571 </v>
   <v>      -0.00133909       0.74918970       0.75133949 </v>
   <v>       0.74908849       0.50000000       0.74908849 </v>
   <v>       0.74762426       0.74664646       0.50187723 </v>
   <v>       0.50187723       0.74664646       0.74762426 </v>
  </varray>
 </structure>
</modeling>
