   3   3   0   0
  0.2274357E+02  0.4086266E-09  0.4086266E-09  0.4086266E-09  0.1000000E-16
  1.000000000000000E-004
  CAR 
 unknown system                          
     11.58120092     -4.96758799  301      5.62821743      1.00000000
     -4.968  0.0000E+00  0.0000E+00
     -4.912  0.0000E+00  0.0000E+00
     -4.857  0.0000E+00  0.0000E+00
     -4.802  0.0000E+00  0.0000E+00
     -4.747  0.0000E+00  0.0000E+00
     -4.692  0.0000E+00  0.0000E+00
     -4.637  0.0000E+00  0.0000E+00
     -4.581 -0.4346E-26 -0.2397E-27
     -4.526 -0.3291E-24 -0.1840E-25
     -4.471 -0.2162E-22 -0.1211E-23
     -4.416 -0.1217E-20 -0.6837E-22
     -4.361 -0.5877E-19 -0.3310E-20
     -4.306 -0.2432E-17 -0.1374E-18
     -4.250 -0.8621E-16 -0.4893E-17
     -4.195 -0.2618E-14 -0.1493E-15
     -4.140 -0.6609E-13 -0.3795E-14
     -4.085 -0.1468E-11 -0.8479E-13
     -4.030 -0.2789E-10 -0.1623E-11
     -3.975 -0.4527E-09 -0.2660E-10
     -3.919 -0.6278E-08 -0.3729E-09
     -3.864 -0.7429E-07 -0.4471E-08
     -3.809 -0.7495E-06 -0.4582E-07
     -3.754 -0.6437E-05 -0.4009E-06
     -3.699 -0.4698E-04 -0.2992E-05
     -3.644 -0.2906E-03 -0.1902E-04
     -3.589 -0.1519E-02 -0.1028E-03
     -3.533 -0.6673E-02 -0.4709E-03
     -3.478 -0.2448E-01 -0.1821E-02
     -3.423 -0.7411E-01 -0.5909E-02
     -3.368 -0.1814E+00 -0.1592E-01
     -3.313 -0.3440E+00 -0.3489E-01
     -3.258 -0.4487E+00 -0.5964E-01
     -3.202 -0.1890E+00 -0.7007E-01
     -3.147  0.8685E+00 -0.2216E-01
     -3.092  0.2947E+01  0.1404E+00
     -3.037  0.5625E+01  0.4507E+00
     -2.982  0.7794E+01  0.8806E+00
     -2.927  0.8312E+01  0.1339E+01
     -2.871  0.6883E+01  0.1719E+01
     -2.816  0.4304E+01  0.1956E+01
     -2.761  0.1815E+01  0.2056E+01
     -2.706  0.2290E+00  0.2069E+01
     -2.651 -0.3879E+00  0.2048E+01
     -2.596 -0.4193E+00  0.2024E+01
     -2.540 -0.2612E+00  0.2010E+01
     -2.485 -0.1207E+00  0.2003E+01
     -2.430 -0.4430E-01  0.2001E+01
     -2.375 -0.1330E-01  0.2000E+01
     -2.320 -0.3317E-02  0.2000E+01
     -2.265 -0.6932E-03  0.2000E+01
     -2.209 -0.1221E-03  0.2000E+01
     -2.154 -0.1821E-04  0.2000E+01
     -2.099 -0.2304E-05  0.2000E+01
     -2.044 -0.2480E-06  0.2000E+01
     -1.989 -0.2274E-07  0.2000E+01
     -1.934 -0.1779E-08  0.2000E+01
     -1.878 -0.1188E-09  0.2000E+01
     -1.823 -0.6779E-11  0.2000E+01
     -1.768 -0.3301E-12  0.2000E+01
     -1.713 -0.1610E-13  0.2000E+01
     -1.658  0.0000E+00  0.2000E+01
     -1.603  0.0000E+00  0.2000E+01
     -1.548  0.0000E+00  0.2000E+01
     -1.492  0.0000E+00  0.2000E+01
     -1.437  0.0000E+00  0.2000E+01
     -1.382  0.0000E+00  0.2000E+01
     -1.327  0.0000E+00  0.2000E+01
     -1.272  0.0000E+00  0.2000E+01
     -1.217  0.0000E+00  0.2000E+01
     -1.161  0.0000E+00  0.2000E+01
     -1.106  0.0000E+00  0.2000E+01
     -1.051  0.0000E+00  0.2000E+01
     -0.996  0.0000E+00  0.2000E+01
     -0.941  0.0000E+00  0.2000E+01
     -0.886  0.0000E+00  0.2000E+01
     -0.830  0.0000E+00  0.2000E+01
     -0.775  0.0000E+00  0.2000E+01
     -0.720  0.0000E+00  0.2000E+01
     -0.665  0.0000E+00  0.2000E+01
     -0.610  0.0000E+00  0.2000E+01
     -0.555  0.0000E+00  0.2000E+01
     -0.499  0.0000E+00  0.2000E+01
     -0.444  0.0000E+00  0.2000E+01
     -0.389  0.0000E+00  0.2000E+01
     -0.334 -0.7352E-27  0.2000E+01
     -0.279 -0.6068E-25  0.2000E+01
     -0.224 -0.4340E-23  0.2000E+01
     -0.168 -0.2661E-21  0.2000E+01
     -0.113 -0.1399E-19  0.2000E+01
     -0.058 -0.6306E-18  0.2000E+01
     -0.003 -0.2435E-16  0.2000E+01
      0.052 -0.8059E-15  0.2000E+01
      0.107 -0.2284E-13  0.2000E+01
      0.163 -0.5383E-12  0.2000E+01
      0.218 -0.1113E-10  0.2000E+01
      0.273 -0.1972E-09  0.2000E+01
      0.328 -0.2984E-08  0.2000E+01
      0.383 -0.3856E-07  0.2000E+01
      0.438 -0.4250E-06  0.2000E+01
      0.494 -0.3992E-05  0.2000E+01
      0.549 -0.3189E-04  0.2000E+01
      0.604 -0.2162E-03  0.2000E+01
      0.659 -0.1241E-02  0.2000E+01
      0.714 -0.6008E-02  0.2000E+01
      0.769 -0.2438E-01  0.1998E+01
      0.824 -0.8225E-01  0.1994E+01
      0.880 -0.2273E+00  0.1981E+01
      0.935 -0.5002E+00  0.1954E+01
      0.990 -0.8224E+00  0.1908E+01
      1.045 -0.8063E+00  0.1864E+01
      1.100  0.3212E+00  0.1881E+01
      1.155  0.3352E+01  0.2066E+01
      1.211  0.8244E+01  0.2521E+01
      1.266  0.1347E+02  0.3264E+01
      1.321  0.1655E+02  0.4177E+01
      1.376  0.1578E+02  0.5047E+01
      1.431  0.1159E+02  0.5686E+01
      1.486  0.6194E+01  0.6028E+01
      1.542  0.1842E+01  0.6130E+01
      1.597 -0.5391E+00  0.6100E+01
      1.652 -0.1300E+01  0.6028E+01
      1.707 -0.1121E+01  0.5966E+01
      1.762 -0.2613E+00  0.5952E+01
      1.817  0.1435E+01  0.6031E+01
      1.873  0.3957E+01  0.6249E+01
      1.928  0.6624E+01  0.6615E+01
      1.983  0.8243E+01  0.7069E+01
      2.038  0.7944E+01  0.7508E+01
      2.093  0.5906E+01  0.7833E+01
      2.148  0.3222E+01  0.8011E+01
      2.204  0.1044E+01  0.8069E+01
      2.259 -0.1207E+00  0.8062E+01
      2.314 -0.4455E+00  0.8037E+01
      2.369 -0.3617E+00  0.8018E+01
      2.424 -0.1970E+00  0.8007E+01
      2.479 -0.8251E-01  0.8002E+01
      2.535 -0.2785E-01  0.8001E+01
      2.590 -0.7746E-02  0.8000E+01
      2.645 -0.1797E-02  0.8000E+01
      2.700 -0.3502E-03  0.8000E+01
      2.755 -0.5765E-04  0.8000E+01
      2.810 -0.8040E-05  0.8000E+01
      2.866 -0.9527E-06  0.8000E+01
      2.921 -0.9608E-07  0.8000E+01
      2.976 -0.8259E-08  0.8000E+01
      3.031 -0.6058E-09  0.8000E+01
      3.086 -0.3796E-10  0.8000E+01
      3.141 -0.2029E-11  0.8000E+01
      3.196 -0.9661E-13  0.8000E+01
      3.252  0.0000E+00  0.8000E+01
      3.307  0.0000E+00  0.8000E+01
      3.362  0.0000E+00  0.8000E+01
      3.417  0.0000E+00  0.8000E+01
      3.472  0.0000E+00  0.8000E+01
      3.527  0.0000E+00  0.8000E+01
      3.583  0.0000E+00  0.8000E+01
      3.638  0.0000E+00  0.8000E+01
      3.693  0.0000E+00  0.8000E+01
      3.748  0.0000E+00  0.8000E+01
      3.803  0.0000E+00  0.8000E+01
      3.858  0.0000E+00  0.8000E+01
      3.914  0.0000E+00  0.8000E+01
      3.969  0.0000E+00  0.8000E+01
      4.024  0.0000E+00  0.8000E+01
      4.079 -0.1055E-25  0.8000E+01
      4.134 -0.7934E-24  0.8000E+01
      4.189 -0.5176E-22  0.8000E+01
      4.245 -0.2895E-20  0.8000E+01
      4.300 -0.1388E-18  0.8000E+01
      4.355 -0.5705E-17  0.8000E+01
      4.410 -0.2009E-15  0.8000E+01
      4.465 -0.6061E-14  0.8000E+01
      4.520 -0.1526E-12  0.8000E+01
      4.576 -0.3352E-11  0.8000E+01
      4.631 -0.6324E-10  0.8000E+01
      4.686 -0.1019E-08  0.8000E+01
      4.741 -0.1404E-07  0.8000E+01
      4.796 -0.1650E-06  0.8000E+01
      4.851 -0.1653E-05  0.8000E+01
      4.907 -0.1410E-04  0.8000E+01
      4.962 -0.1021E-03  0.8000E+01
      5.017 -0.6272E-03  0.8000E+01
      5.072 -0.3253E-02  0.8000E+01
      5.127 -0.1418E-01  0.7999E+01
      5.182 -0.5161E-01  0.7996E+01
      5.237 -0.1549E+00  0.7988E+01
      5.293 -0.3753E+00  0.7967E+01
      5.348 -0.7025E+00  0.7928E+01
      5.403 -0.8958E+00  0.7879E+01
      5.458 -0.3248E+00  0.7861E+01
      5.513  0.1877E+01  0.7964E+01
      5.568  0.6116E+01  0.8302E+01
      5.624  0.1148E+02  0.8935E+01
      5.679  0.1572E+02  0.9802E+01
      5.734  0.1658E+02  0.1072E+02
      5.789  0.1357E+02  0.1146E+02
      5.844  0.8368E+01  0.1193E+02
      5.899  0.3446E+01  0.1212E+02
      5.955  0.3672E+00  0.1214E+02
      6.010 -0.7965E+00  0.1209E+02
      6.065 -0.8283E+00  0.1205E+02
      6.120 -0.5089E+00  0.1202E+02
      6.175 -0.2371E+00  0.1201E+02
      6.230 -0.1038E+00  0.1200E+02
      6.286 -0.8628E-01  0.1200E+02
      6.341 -0.1624E+00  0.1199E+02
      6.396 -0.3135E+00  0.1197E+02
      6.451 -0.4449E+00  0.1194E+02
      6.506 -0.2854E+00  0.1193E+02
      6.561  0.5929E+00  0.1196E+02
      6.617  0.2488E+01  0.1210E+02
      6.672  0.5122E+01  0.1238E+02
      6.727  0.7486E+01  0.1279E+02
      6.782  0.8371E+01  0.1326E+02
      6.837  0.7274E+01  0.1366E+02
      6.892  0.4816E+01  0.1392E+02
      6.948  0.2226E+01  0.1405E+02
      7.003  0.4453E+00  0.1407E+02
      7.058 -0.3309E+00  0.1405E+02
      7.113 -0.4375E+00  0.1403E+02
      7.168 -0.2929E+00  0.1401E+02
      7.223 -0.1421E+00  0.1400E+02
      7.279 -0.5430E-01  0.1400E+02
      7.334 -0.1691E-01  0.1400E+02
      7.389 -0.4362E-02  0.1400E+02
      7.444 -0.9417E-03  0.1400E+02
      7.499 -0.1712E-03  0.1400E+02
      7.554 -0.2634E-04  0.1400E+02
      7.609 -0.3436E-05  0.1400E+02
      7.665 -0.3812E-06  0.1400E+02
      7.720 -0.3601E-07  0.1400E+02
      7.775 -0.2901E-08  0.1400E+02
      7.830 -0.1995E-09  0.1400E+02
      7.885 -0.1173E-10  0.1400E+02
      7.940 -0.5877E-12  0.1400E+02
      7.996 -0.2415E-13  0.1400E+02
      8.051 -0.2870E-23  0.1400E+02
      8.106 -0.1742E-21  0.1400E+02
      8.161 -0.9064E-20  0.1400E+02
      8.216 -0.4043E-18  0.1400E+02
      8.271 -0.1545E-16  0.1400E+02
      8.327 -0.5061E-15  0.1400E+02
      8.382 -0.1420E-13  0.1400E+02
      8.437 -0.3310E-12  0.1400E+02
      8.492 -0.6778E-11  0.1400E+02
      8.547 -0.1188E-09  0.1400E+02
      8.602 -0.1779E-08  0.1400E+02
      8.658 -0.2274E-07  0.1400E+02
      8.713 -0.2480E-06  0.1400E+02
      8.768 -0.2304E-05  0.1400E+02
      8.823 -0.1821E-04  0.1400E+02
      8.878 -0.1221E-03  0.1400E+02
      8.933 -0.6932E-03  0.1400E+02
      8.989 -0.3317E-02  0.1400E+02
      9.044 -0.1330E-01  0.1400E+02
      9.099 -0.4430E-01  0.1400E+02
      9.154 -0.1207E+00  0.1399E+02
      9.209 -0.2612E+00  0.1398E+02
      9.264 -0.4193E+00  0.1395E+02
      9.320 -0.3879E+00  0.1393E+02
      9.375  0.2290E+00  0.1394E+02
      9.430  0.1815E+01  0.1404E+02
      9.485  0.4304E+01  0.1428E+02
      9.540  0.6883E+01  0.1466E+02
      9.595  0.8312E+01  0.1512E+02
      9.651  0.7794E+01  0.1555E+02
      9.706  0.5625E+01  0.1586E+02
      9.761  0.2947E+01  0.1602E+02
      9.816  0.8685E+00  0.1607E+02
      9.871 -0.1890E+00  0.1606E+02
      9.926 -0.4487E+00  0.1603E+02
      9.981 -0.3440E+00  0.1602E+02
     10.037 -0.1814E+00  0.1601E+02
     10.092 -0.7411E-01  0.1600E+02
     10.147 -0.2448E-01  0.1600E+02
     10.202 -0.6673E-02  0.1600E+02
     10.257 -0.1519E-02  0.1600E+02
     10.312 -0.2906E-03  0.1600E+02
     10.368 -0.4698E-04  0.1600E+02
     10.423 -0.6437E-05  0.1600E+02
     10.478 -0.7495E-06  0.1600E+02
     10.533 -0.7429E-07  0.1600E+02
     10.588 -0.6278E-08  0.1600E+02
     10.643 -0.4527E-09  0.1600E+02
     10.699 -0.2789E-10  0.1600E+02
     10.754 -0.1465E-11  0.1600E+02
     10.809 -0.7245E-13  0.1600E+02
     10.864  0.0000E+00  0.1600E+02
     10.919  0.0000E+00  0.1600E+02
     10.974  0.0000E+00  0.1600E+02
     11.030  0.0000E+00  0.1600E+02
     11.085  0.0000E+00  0.1600E+02
     11.140  0.0000E+00  0.1600E+02
     11.195  0.0000E+00  0.1600E+02
     11.250  0.0000E+00  0.1600E+02
     11.305  0.0000E+00  0.1600E+02
     11.361  0.0000E+00  0.1600E+02
     11.416  0.0000E+00  0.1600E+02
     11.471  0.0000E+00  0.1600E+02
     11.526  0.0000E+00  0.1600E+02
     11.581  0.0000E+00  0.1600E+02
