<?xml version="1.0" encoding="ISO-8859-1"?>
<modeling>
 <generator>
  <i name="program" type="string">vasp </i>
  <i name="version" type="string">5.2.2  </i>
  <i name="subversion" type="string">15Apr09 complex  parallel </i>
  <i name="platform" type="string">LinuxIFC </i>
  <i name="date" type="string">2013 08 07 </i>
  <i name="time" type="string">14:25:42 </i>
 </generator>
 <incar>
  <i type="int" name="ISTART">     1</i>
  <i type="string" name="PREC">accurate</i>
  <i type="int" name="ICHARG">     1</i>
  <i type="int" name="IBRION">     5</i>
  <i type="int" name="NFREE">     2</i>
  <i type="int" name="NSW">   191</i>
  <i type="int" name="ISIF">     2</i>
  <i name="ENCUT">    360.65550000</i>
  <i name="POTIM">      0.01000000</i>
  <i type="int" name="ISMEAR">     1</i>
  <i name="SIGMA">      0.20000000</i>
  <i type="logical" name="LWAVE"> F  </i>
  <i type="logical" name="LCHARG"> F  </i>
  <i type="logical" name="LPEAD"> F  </i>
  <i type="logical" name="LCALCPOL"> F  </i>
  <i type="logical" name="LCALCEPS"> F  </i>
  <v name="EFIELD_PEAD">      0.00000000      0.00000000      0.00000000</v>
  <i type="logical" name="LEFG"> F  </i>
 </incar>
 <kpoints>
  <generation param="Monkhorst-Pack">
   <v type="int" name="divisions">       2        2        2 </v>
   <v name="usershift">      0.00000000       0.00000000       0.00000000 </v>
   <v name="genvec1">      0.50000000       0.00000000       0.00000000 </v>
   <v name="genvec2">      0.00000000       0.50000000       0.00000000 </v>
   <v name="genvec3">      0.00000000       0.00000000       0.50000000 </v>
   <v name="shift">      0.50000000       0.50000000       0.50000000 </v>
  </generation>
  <varray name="kpointlist" >
   <v>       0.25000000       0.25000000       0.25000000 </v>
  </varray>
  <varray name="weights" >
   <v>       1.00000000 </v>
  </varray>
 </kpoints>
 <parameters>
  <separator name="general" >
   <i type="string" name="SYSTEM">unknown system</i>
   <i type="logical" name="LCOMPAT"> F  </i>
  </separator>
  <separator name="electronic" >
   <i type="string" name="PREC">accura</i>
   <i name="ENMAX">    360.65550000</i>
   <i name="ENAUG">    291.05200000</i>
   <i name="EDIFF">      0.00000100</i>
   <i type="int" name="IALGO">    38</i>
   <i type="int" name="IWAVPR">    11</i>
   <i type="int" name="NBANDS">     8</i>
   <i name="NELECT">      9.00000000</i>
   <separator name="electronic smearing" >
    <i type="int" name="ISMEAR">     1</i>
    <i name="SIGMA">      0.20000000</i>
   </separator>
   <separator name="electronic projectors" >
    <i type="logical" name="LREAL"> F  </i>
    <v name="ROPT">      0.00000000</v>
    <i type="int" name="LMAXPAW">  -100</i>
    <i type="int" name="LMAXMIX">     2</i>
   </separator>
   <separator name="electronic startup" >
    <i type="int" name="ISTART">     1</i>
    <i type="int" name="ICHARG">     1</i>
    <i type="int" name="INIWAV">     1</i>
   </separator>
   <separator name="electronic spin" >
    <i type="int" name="ISPIN">     1</i>
    <i type="logical" name="LNONCOLLINEAR"> F  </i>
    <v name="MAGMOM">      1.00000000      1.00000000      1.00000000</v>
    <i name="NUPDOWN">     -1.00000000</i>
    <i type="logical" name="LSORBIT"> F  </i>
    <v name="SAXIS">      0.00000000      0.00000000      1.00000000</v>
    <i type="logical" name="LSPIRAL"> F  </i>
    <v name="QSPIRAL">      0.00000000      0.00000000      0.00000000</v>
    <i type="logical" name="LZEROZ"> F  </i>
   </separator>
   <separator name="electronic exchange-correlation" >
    <i type="logical" name="LASPH"> F  </i>
    <i type="logical" name="LMETAGGA"> F  </i>
   </separator>
   <separator name="electronic convergence" >
    <i type="int" name="NELM">    60</i>
    <i type="int" name="NELMDL">     0</i>
    <i type="int" name="NELMIN">     2</i>
    <i name="ENINI">    360.65550000</i>
    <separator name="electronic convergence detail" >
     <i type="logical" name="LDIAG"> T  </i>
     <i name="WEIMIN">      0.00100000</i>
     <i name="EBREAK">      0.00000003</i>
     <i name="DEPER">      0.30000000</i>
     <i type="int" name="NRMM">     4</i>
     <i name="TIME">      0.40000000</i>
    </separator>
   </separator>
   <separator name="electronic mixer" >
    <i name="AMIX">      0.40000000</i>
    <i name="BMIX">      1.00000000</i>
    <i name="AMIN">      0.10000000</i>
    <i name="AMIX_MAG">      1.60000000</i>
    <i name="BMIX_MAG">      1.00000000</i>
    <separator name="electronic mixer details" >
     <i type="int" name="IMIX">     4</i>
     <i type="int" name="MAXMIX">   -45</i>
     <i name="WC">    100.00000000</i>
     <i type="int" name="INIMIX">     1</i>
     <i type="int" name="MIXPRE">     1</i>
     <i type="int" name="MREMOVE">     5</i>
    </separator>
   </separator>
   <separator name="electronic dipolcorrection" >
    <i type="logical" name="LDIPOL"> F  </i>
    <i type="logical" name="LMONO"> F  </i>
    <i type="int" name="IDIPOL">     0</i>
    <i name="EPSILON">      1.00000000</i>
    <v name="DIPOL">   -100.00000000   -100.00000000   -100.00000000</v>
    <i name="EFIELD">      0.00000000</i>
   </separator>
  </separator>
  <separator name="grids" >
   <i type="int" name="NGX">    28</i>
   <i type="int" name="NGY">    28</i>
   <i type="int" name="NGZ">    28</i>
   <i type="int" name="NGXF">    56</i>
   <i type="int" name="NGYF">    56</i>
   <i type="int" name="NGZF">    56</i>
   <i type="logical" name="ADDGRID"> F  </i>
  </separator>
  <separator name="ionic" >
   <i type="int" name="NSW">    73</i>
   <i type="int" name="IBRION">     5</i>
   <i type="int" name="ISIF">     2</i>
   <i name="PSTRESS">      0.00000000</i>
   <i name="EDIFFG">      0.00001000</i>
   <i type="int" name="NFREE">     2</i>
   <i name="POTIM">      0.01000000</i>
   <i name="SMASS">     -3.00000000</i>
  </separator>
  <separator name="ionic md" >
   <i name="TEBEG">      0.00010000</i>
   <i name="TEEND">      0.00010000</i>
   <i type="int" name="NBLOCK">     1</i>
   <i type="int" name="KBLOCK">     1</i>
   <i type="int" name="NPACO">   256</i>
   <i name="APACO">     16.00000000</i>
  </separator>
  <separator name="symmetry" >
   <i type="int" name="ISYM">     2</i>
   <i name="SYMPREC">      0.00001000</i>
  </separator>
  <separator name="dos" >
   <i type="logical" name="LORBIT"> F  </i>
   <v name="RWIGS">     -1.00000000</v>
   <i type="int" name="NEDOS">   301</i>
   <i name="EMIN">     10.00000000</i>
   <i name="EMAX">    -10.00000000</i>
   <i name="EFERMI">      0.00000000</i>
  </separator>
  <separator name="writing" >
   <i type="int" name="NWRITE">     2</i>
   <i type="logical" name="LWAVE"> F  </i>
   <i type="logical" name="LCHARG"> F  </i>
   <i type="logical" name="LPARD"> F  </i>
   <i type="logical" name="LVTOT"> F  </i>
   <i type="logical" name="LELF"> F  </i>
   <i type="logical" name="LOPTICS"> F  </i>
   <v name="STM">      0.00000000      0.00000000      0.00000000      0.00000000      0.00000000</v>
  </separator>
  <separator name="performance" >
   <i type="int" name="NPAR">     1</i>
   <i type="int" name="NSIM">     4</i>
   <i type="int" name="NBLK">    32</i>
   <i type="logical" name="LPLANE"> T  </i>
   <i type="logical" name="LSCALAPACK"> F  </i>
   <i type="logical" name="LSCAAWARE"> F  </i>
   <i type="logical" name="LSCALU"> F  </i>
   <i type="logical" name="LASYNC"> F  </i>
  </separator>
  <separator name="miscellaneous" >
   <i type="int" name="IDIOT">     3</i>
   <i type="logical" name="LMUSIC"> F  </i>
   <v name="POMASS">     26.98200000</v>
   <i type="logical" name="LCORR"> T  </i>
  </separator>
  <i type="logical" name="LREAL_COMPAT"> F  </i>
  <i type="logical" name="GGA_COMPAT"> T  </i>
  <i type="logical" name="LBERRY"> F  </i>
  <i type="int" name="ICORELEVEL">     0</i>
  <i type="logical" name="LDAU"> F  </i>
  <i type="int" name="I_CONSTRAINED_M">     0</i>
  <separator name="electronic exchange-correlation" >
   <i type="string" name="GGA">--</i>
   <i type="int" name="VOSKOWN">     0</i>
   <i type="logical" name="LHFCALC"> F  </i>
   <i type="logical" name="LHFONE"> F  </i>
   <i type="logical" name="LRHFCALC"> F  </i>
   <i type="logical" name="LTHOMAS"> F  </i>
   <i type="logical" name="LMODELHF"> F  </i>
   <i name="ENCUTFOCK">      0.00000000</i>
   <i name="ENCUT4O">     -1.00000000</i>
   <i type="int" name="EXXOEP">     0</i>
   <i type="int" name="FOURORBIT">     0</i>
   <i name="AEXX">      0.00000000</i>
   <i name="HFALPHA">      0.00000000</i>
   <i name="ALDAX">      1.00000000</i>
   <i name="AGGAX">      1.00000000</i>
   <i name="ALDAC">      1.00000000</i>
   <i name="AGGAC">      1.00000000</i>
   <i type="int" name="NKREDX">     1</i>
   <i type="int" name="NKREDY">     1</i>
   <i type="int" name="NKREDZ">     1</i>
   <i type="logical" name="SHIFTRED"> F  </i>
   <i type="logical" name="ODDONLY"> F  </i>
   <i type="logical" name="EVENONLY"> F  </i>
   <i type="int" name="LMAXFOCK">     0</i>
   <i type="int" name="NMAXFOCKAE">     0</i>
   <i name="HFSCREEN">      0.00000000</i>
   <i name="HFSCREENC">      0.00000000</i>
  </separator>
  <separator name="model GW" >
   <i type="int" name="MODEL_GW">     0</i>
   <i name="MODEL_EPS0">     13.64614237</i>
   <i name="MODEL_ALPHA">      1.00000000</i>
  </separator>
  <separator name="linear response parameters" >
   <i type="logical" name="LEPSILON"> F  </i>
   <i type="logical" name="LRPA"> F  </i>
   <i type="logical" name="LNABLA"> F  </i>
   <i type="logical" name="LVEL"> F  </i>
   <i type="int" name="KINTER">     0</i>
   <i name="CSHIFT">      0.10000000</i>
   <i name="OMEGAMAX">     -1.00000000</i>
  </separator>
  <separator name="orbital magnetization" >
   <i type="logical" name="ORBITALMAG"> F  </i>
   <i type="logical" name="LMAGBLOCH"> F  </i>
   <i type="logical" name="LCHIMAG"> F  </i>
   <i type="logical" name="LGAUGE"> T  </i>
   <i type="int" name="MAGATOM">     0</i>
   <v name="MAGDIPOL">      0.00000000      0.00000000      0.00000000</v>
   <v name="AVECCONST">      0.00000000      0.00000000      0.00000000</v>
  </separator>
  <separator name="response functions" >
   <i type="logical" name="LRPA"> T  </i>
   <i type="logical" name="LTCTE"> F  </i>
   <i type="logical" name="LTETE"> F  </i>
   <i type="logical" name="L2ORDER"> F  </i>
   <i type="logical" name="LGWLF"> F  </i>
   <i name="ENCUTGW">    240.43700000</i>
   <i name="ENCUTGWSOFT">     -2.00000000</i>
   <i name="ENCUTLF">     -1.00000000</i>
   <i type="int" name="LMAXMP2">    -1</i>
   <i name="SCISSOR">      0.00000000</i>
   <i type="int" name="NOMEGA">     0</i>
   <i type="int" name="NOMEGAR">     0</i>
   <i type="int" name="NBANDSGW">    -1</i>
   <i type="int" name="NBANDSLF">    -1</i>
   <i type="int" name="NELM">     1</i>
   <i type="int" name="DIM">     3</i>
   <i type="int" name="ANTIRES">     0</i>
   <i type="logical" name="LUSEW"> F  </i>
   <i name="OMEGAMAX">    -30.00000000</i>
   <i name="OMEGATL">   -200.00000000</i>
   <i type="int" name="OMEGAGRID">     0</i>
   <i name="CSHIFT">     -0.10000000</i>
   <i type="logical" name="SELFENERGY"> F  </i>
   <i type="logical" name="LSPECTRAL"> F  </i>
   <i type="logical" name="ODDONLYGW"> F  </i>
   <i type="logical" name="EVENONLYGW"> F  </i>
   <i type="int" name="NKREDLFX">     1</i>
   <i type="int" name="NKREDLFY">     1</i>
   <i type="int" name="NKREDLFZ">     1</i>
   <i type="int" name="MAXMEM">  1024</i>
   <i type="int" name="TELESCOPE">     0</i>
  </separator>
 </parameters>
 <atominfo>
  <atoms>       3 </atoms>
  <types>       1 </types>
  <array name="atoms" >
   <dimension dim="1">ion</dimension>
   <field type="string">element</field>
   <field type="int">atomtype</field>
   <set>
    <rc><c>Al</c><c>   1</c></rc>
    <rc><c>Al</c><c>   1</c></rc>
    <rc><c>Al</c><c>   1</c></rc>
   </set>
  </array>
  <array name="atomtypes" >
   <dimension dim="1">type</dimension>
   <field type="int">atomspertype</field>
   <field type="string">element</field>
   <field>mass</field>
   <field>valence</field>
   <field type="string">pseudopotential</field>
   <set>
    <rc><c>   3</c><c>Al</c><c>     26.98200000</c><c>      3.00000000</c><c> PAW_GGA Al 05Jan2001                   </c></rc>
   </set>
  </array>
 </atominfo>
 <structure name="initialpos" >
  <crystal>
   <varray name="basis" >
    <v>       4.08626600       0.00000000       0.00000000 </v>
    <v>       0.00000000       4.08626600       0.00000000 </v>
    <v>       0.00000000       0.00000000       4.08626600 </v>
   </varray>
   <i name="volume">     68.23071185 </i>
   <varray name="rec_basis" >
    <v>       0.24472220       0.00000000       0.00000000 </v>
    <v>       0.00000000       0.24472220       0.00000000 </v>
    <v>       0.00000000       0.00000000       0.24472220 </v>
   </varray>
  </crystal>
  <varray name="positions" >
   <v>       0.00000000       0.00000000       0.00000000 </v>
   <v>       0.00000000       0.50000000       0.50000000 </v>
   <v>       0.50000000       0.00000000       0.50000000 </v>
  </varray>
  <varray name="selective"  type="logical" >
   <v type="logical" >  F  F  T </v>
   <v type="logical" >  F  F  F </v>
   <v type="logical" >  F  F  F </v>
  </varray>
  <nose>
   <v>      -3.00000000       0.00000000       0.00010000       0.00010000 </v>
  </nose>
 </structure>
 <calculation>
  <scstep>
   <time name="dav">    0.35    0.10</time>
   <time name="total">    1.54    0.95</time>
   <energy>
    <i name="alphaZ">     -0.33588085 </i>
    <i name="ewald">   -190.40451817 </i>
    <i name="hartreedc">     -4.94324422 </i>
    <i name="XCdc">    -80.49308721 </i>
    <i name="pawpsdc">    106.97730018 </i>
    <i name="pawaedc">    -10.81747568 </i>
    <i name="eentropy">     -0.08252286 </i>
    <i name="bandstr">      8.47339953 </i>
    <i name="atom">    161.07115403 </i>
    <i name="e_fr_energy">    -10.55487525 </i>
    <i name="e_wo_entrp">    -10.47235239 </i>
    <i name="e_0_energy">    -10.52736763 </i>
   </energy>
  </scstep>
  <scstep>
   <time name="dav">    0.35    0.10</time>
   <time name="total">    1.01    0.61</time>
   <energy>
    <i name="e_fr_energy">    -10.49560213 </i>
    <i name="e_wo_entrp">    -10.41307927 </i>
    <i name="e_0_energy">    -10.46809451 </i>
   </energy>
  </scstep>
  <scstep>
   <time name="dav">    0.34    0.10</time>
   <time name="total">    1.01    0.60</time>
   <energy>
    <i name="e_fr_energy">    -10.47459723 </i>
    <i name="e_wo_entrp">    -10.39207437 </i>
    <i name="e_0_energy">    -10.44708961 </i>
   </energy>
  </scstep>
  <scstep>
   <time name="dav">    0.35    0.10</time>
   <time name="total">    1.08    0.60</time>
   <energy>
    <i name="e_fr_energy">    -10.47492442 </i>
    <i name="e_wo_entrp">    -10.39240156 </i>
    <i name="e_0_energy">    -10.44741680 </i>
   </energy>
  </scstep>
  <scstep>
   <time name="dav">    0.34    0.10</time>
   <time name="total">    1.11    0.60</time>
   <energy>
    <i name="e_fr_energy">    -10.47487263 </i>
    <i name="e_wo_entrp">    -10.39234977 </i>
    <i name="e_0_energy">    -10.44736501 </i>
   </energy>
  </scstep>
  <scstep>
   <time name="dav">    0.35    0.10</time>
   <time name="total">    1.17    0.60</time>
   <energy>
    <i name="e_fr_energy">    -10.47488627 </i>
    <i name="e_wo_entrp">    -10.39236341 </i>
    <i name="e_0_energy">    -10.44737865 </i>
   </energy>
  </scstep>
  <scstep>
   <time name="dav">    0.21    0.07</time>
   <time name="total">    0.81    0.51</time>
   <energy>
    <i name="alphaZ">     -0.33588085 </i>
    <i name="ewald">   -190.40451817 </i>
    <i name="hartreedc">     -5.59790472 </i>
    <i name="XCdc">    -80.20288671 </i>
    <i name="pawpsdc">    106.97221170 </i>
    <i name="pawaedc">    -10.84126336 </i>
    <i name="eentropy">     -0.08252286 </i>
    <i name="bandstr">      8.94672541 </i>
    <i name="atom">    161.07115403 </i>
    <i name="e_fr_energy">    -10.47488553 </i>
    <i name="e_wo_entrp">    -10.39236267 </i>
    <i name="e_0_energy">    -10.44737791 </i>
   </energy>
  </scstep>
  <structure>
   <crystal>
    <varray name="basis" >
     <v>       4.08626600       0.00000000       0.00000000 </v>
     <v>       0.00000000       4.08626600       0.00000000 </v>
     <v>       0.00000000       0.00000000       4.08626600 </v>
    </varray>
    <i name="volume">     68.23071185 </i>
    <varray name="rec_basis" >
     <v>       0.24472220       0.00000000       0.00000000 </v>
     <v>       0.00000000       0.24472220       0.00000000 </v>
     <v>       0.00000000       0.00000000       0.24472220 </v>
    </varray>
   </crystal>
   <varray name="positions" >
    <v>       0.00000000       0.00000000       0.00000000 </v>
    <v>       0.00000000       0.50000000       0.50000000 </v>
    <v>       0.50000000       0.00000000       0.50000000 </v>
   </varray>
  </structure>
  <varray name="forces" >
   <v>       0.00000000       0.00000000       0.00000000 </v>
   <v>       0.00000000       0.00000000       0.00000000 </v>
   <v>       0.00000000       0.00000000       0.00000000 </v>
  </varray>
  <varray name="stress" >
   <v>     -51.25907932       0.00000000       0.00000000 </v>
   <v>       0.00000000     -51.25907932       0.00000000 </v>
   <v>       0.00000000       0.00000000     -51.25907932 </v>
  </varray>
  <energy>
   <i name="e_fr_energy">    -10.47488553 </i>
   <i name="e_wo_entrp">    -10.44737791 </i>
   <i name="e_0_energy">     -0.08252286 </i>
  </energy>
  <kpoints>
   <generation param="Monkhorst-Pack">
    <v type="int" name="divisions">       2        2        2 </v>
    <v name="usershift">      0.00000000       0.00000000       0.00000000 </v>
    <v name="genvec1">      0.50000000       0.00000000       0.00000000 </v>
    <v name="genvec2">      0.00000000       0.50000000       0.00000000 </v>
    <v name="genvec3">      0.00000000       0.00000000       0.50000000 </v>
    <v name="shift">      0.50000000       0.50000000       0.50000000 </v>
   </generation>
   <varray name="kpointlist" >
    <v>       0.25000000       0.25000000       0.25000000 </v>
   </varray>
   <varray name="weights" >
    <v>       1.00000000 </v>
   </varray>
  </kpoints>
  <time name="totalsc">    9.75    5.93</time>
 </calculation>
 <calculation>
  <scstep>
   <time name="dav">    0.35    0.10</time>
   <time name="total">    1.16    0.60</time>
   <energy>
    <i name="alphaZ">     -0.33588085 </i>
    <i name="ewald">   -190.40289939 </i>
    <i name="hartreedc">     -5.59910277 </i>
    <i name="XCdc">    -80.20292611 </i>
    <i name="pawpsdc">    106.96840057 </i>
    <i name="pawaedc">    -10.83731521 </i>
    <i name="eentropy">     -0.08252281 </i>
    <i name="bandstr">      8.94636360 </i>
    <i name="atom">    161.07115403 </i>
    <i name="e_fr_energy">    -10.47472895 </i>
    <i name="e_wo_entrp">    -10.39220614 </i>
    <i name="e_0_energy">    -10.44722134 </i>
   </energy>
  </scstep>
  <scstep>
   <time name="dav">    0.63    0.17</time>
   <time name="total">    1.29    0.67</time>
   <energy>
    <i name="e_fr_energy">    -10.47472931 </i>
    <i name="e_wo_entrp">    -10.39220646 </i>
    <i name="e_0_energy">    -10.44722169 </i>
   </energy>
  </scstep>
  <scstep>
   <time name="dav">    0.48    0.13</time>
   <time name="total">    1.15    0.64</time>
   <energy>
    <i name="e_fr_energy">    -10.47472268 </i>
    <i name="e_wo_entrp">    -10.39219982 </i>
    <i name="e_0_energy">    -10.44721506 </i>
   </energy>
  </scstep>
  <scstep>
   <time name="dav">    0.34    0.10</time>
   <time name="total">    0.86    0.54</time>
   <energy>
    <i name="alphaZ">     -0.33588085 </i>
    <i name="ewald">   -190.40289939 </i>
    <i name="hartreedc">     -5.59948800 </i>
    <i name="XCdc">    -80.20287663 </i>
    <i name="pawpsdc">    106.96901550 </i>
    <i name="pawaedc">    -10.83796237 </i>
    <i name="eentropy">     -0.08252285 </i>
    <i name="bandstr">      8.94673771 </i>
    <i name="atom">    161.07115403 </i>
    <i name="e_fr_energy">    -10.47472286 </i>
    <i name="e_wo_entrp">    -10.39220001 </i>
    <i name="e_0_energy">    -10.44721525 </i>
   </energy>
  </scstep>
  <structure>
   <crystal>
    <varray name="basis" >
     <v>       4.08626600       0.00000000       0.00000000 </v>
     <v>       0.00000000       4.08626600       0.00000000 </v>
     <v>       0.00000000       0.00000000       4.08626600 </v>
    </varray>
    <i name="volume">     68.23071185 </i>
    <varray name="rec_basis" >
     <v>       0.24472220       0.00000000       0.00000000 </v>
     <v>       0.00000000       0.24472220       0.00000000 </v>
     <v>       0.00000000       0.00000000       0.24472220 </v>
    </varray>
   </crystal>
   <varray name="positions" >
    <v>       0.00000000       0.00000000       0.00244722 </v>
    <v>       0.00000000       0.50000000       0.50000000 </v>
    <v>       0.50000000       0.00000000       0.50000000 </v>
   </varray>
  </structure>
  <varray name="forces" >
   <v>       0.00000000       0.00000000      -0.03250569 </v>
   <v>       0.00000000       0.00000000       0.01625285 </v>
   <v>       0.00000000       0.00000000       0.01625285 </v>
  </varray>
  <varray name="stress" >
   <v>     -51.25042570       0.00000000       0.00000000 </v>
   <v>       0.00000000     -51.25042570       0.00000000 </v>
   <v>       0.00000000       0.00000000     -51.26710982 </v>
  </varray>
  <energy>
   <i name="e_fr_energy">    -10.47472286 </i>
   <i name="e_wo_entrp">    -10.44721525 </i>
   <i name="e_0_energy">     -0.08252285 </i>
  </energy>
  <kpoints>
   <generation param="Monkhorst-Pack">
    <v type="int" name="divisions">       2        2        2 </v>
    <v name="usershift">      0.00000000       0.00000000       0.00000000 </v>
    <v name="genvec1">      0.50000000       0.00000000       0.00000000 </v>
    <v name="genvec2">      0.00000000       0.50000000       0.00000000 </v>
    <v name="genvec3">      0.00000000       0.00000000       0.50000000 </v>
    <v name="shift">      0.50000000       0.50000000       0.50000000 </v>
   </generation>
   <varray name="kpointlist" >
    <v>       0.25000000       0.25000000       0.25000000 </v>
   </varray>
   <varray name="weights" >
    <v>       1.00000000 </v>
   </varray>
  </kpoints>
  <time name="totalsc">    6.41    3.90</time>
 </calculation>
 <calculation>
  <scstep>
   <time name="dav">    0.34    0.10</time>
   <time name="total">    1.15    0.60</time>
   <energy>
    <i name="alphaZ">     -0.33588085 </i>
    <i name="ewald">   -190.40289939 </i>
    <i name="hartreedc">     -5.59905974 </i>
    <i name="XCdc">    -80.20290271 </i>
    <i name="pawpsdc">    106.96908373 </i>
    <i name="pawaedc">    -10.83803431 </i>
    <i name="eentropy">     -0.08252278 </i>
    <i name="bandstr">      8.94631552 </i>
    <i name="atom">    161.07115403 </i>
    <i name="e_fr_energy">    -10.47474652 </i>
    <i name="e_wo_entrp">    -10.39222373 </i>
    <i name="e_0_energy">    -10.44723892 </i>
   </energy>
  </scstep>
  <scstep>
   <time name="dav">    0.63    0.17</time>
   <time name="total">    1.29    0.67</time>
   <energy>
    <i name="e_fr_energy">    -10.47474837 </i>
    <i name="e_wo_entrp">    -10.39222553 </i>
    <i name="e_0_energy">    -10.44724076 </i>
   </energy>
  </scstep>
  <scstep>
   <time name="dav">    0.48    0.13</time>
   <time name="total">    1.15    0.64</time>
   <energy>
    <i name="e_fr_energy">    -10.47472177 </i>
    <i name="e_wo_entrp">    -10.39219891 </i>
    <i name="e_0_energy">    -10.44721415 </i>
   </energy>
  </scstep>
  <scstep>
   <time name="dav">    0.34    0.10</time>
   <time name="total">    1.07    0.60</time>
   <energy>
    <i name="e_fr_energy">    -10.47472248 </i>
    <i name="e_wo_entrp">    -10.39219963 </i>
    <i name="e_0_energy">    -10.44721486 </i>
   </energy>
  </scstep>
  <scstep>
   <time name="dav">    0.21    0.07</time>
   <time name="total">    0.76    0.51</time>
   <energy>
    <i name="alphaZ">     -0.33588085 </i>
    <i name="ewald">   -190.40289939 </i>
    <i name="hartreedc">     -5.59947277 </i>
    <i name="XCdc">    -80.20287371 </i>
    <i name="pawpsdc">    106.96905928 </i>
    <i name="pawaedc">    -10.83800935 </i>
    <i name="eentropy">     -0.08252285 </i>
    <i name="bandstr">      8.94672261 </i>
    <i name="atom">    161.07115403 </i>
    <i name="e_fr_energy">    -10.47472300 </i>
    <i name="e_wo_entrp">    -10.39220014 </i>
    <i name="e_0_energy">    -10.44721538 </i>
   </energy>
  </scstep>
  <structure>
   <crystal>
    <varray name="basis" >
     <v>       4.08626600       0.00000000       0.00000000 </v>
     <v>       0.00000000       4.08626600       0.00000000 </v>
     <v>       0.00000000       0.00000000       4.08626600 </v>
    </varray>
    <i name="volume">     68.23071185 </i>
    <varray name="rec_basis" >
     <v>       0.24472220       0.00000000       0.00000000 </v>
     <v>       0.00000000       0.24472220       0.00000000 </v>
     <v>       0.00000000       0.00000000       0.24472220 </v>
    </varray>
   </crystal>
   <varray name="positions" >
    <v>       0.00000000       0.00000000      -0.00244722 </v>
    <v>       0.00000000       0.50000000       0.50000000 </v>
    <v>       0.50000000       0.00000000       0.50000000 </v>
   </varray>
  </structure>
  <varray name="forces" >
   <v>       0.00000000       0.00000000       0.03243472 </v>
   <v>       0.00000000       0.00000000      -0.01621736 </v>
   <v>       0.00000000       0.00000000      -0.01621736 </v>
  </varray>
  <varray name="stress" >
   <v>     -51.24991625       0.00000000       0.00000000 </v>
   <v>       0.00000000     -51.24991625       0.00000000 </v>
   <v>       0.00000000       0.00000000     -51.26706134 </v>
  </varray>
  <energy>
   <i name="e_fr_energy">    -10.47472300 </i>
   <i name="e_wo_entrp">    -10.44721538 </i>
   <i name="e_0_energy">     -0.08252285 </i>
  </energy>
  <dynmat>
   <varray name="hessian" >
    <v>      -0.12034026 </v>
   </varray>
   <v name="eigenvalues"> -1.20340259E-01</v>
   <varray name="eigenvectors" >
    <v>   1.00000000E+00</v>
   </varray>
  </dynmat>
  <kpoints>
   <generation param="Monkhorst-Pack">
    <v type="int" name="divisions">       2        2        2 </v>
    <v name="usershift">      0.00000000       0.00000000       0.00000000 </v>
    <v name="genvec1">      0.50000000       0.00000000       0.00000000 </v>
    <v name="genvec2">      0.00000000       0.50000000       0.00000000 </v>
    <v name="genvec3">      0.00000000       0.00000000       0.50000000 </v>
    <v name="shift">      0.50000000       0.50000000       0.50000000 </v>
   </generation>
   <varray name="kpointlist" >
    <v>       0.25000000       0.25000000       0.25000000 </v>
   </varray>
   <varray name="weights" >
    <v>       1.00000000 </v>
   </varray>
  </kpoints>
  <time name="totalsc">    7.36    4.40</time>
  <eigenvalues>
   <array>
    <dimension dim="1">band</dimension>
    <dimension dim="2">kpoint</dimension>
    <dimension dim="3">spin</dimension>
    <field>eigene</field>
    <field>occ</field>
    <set>
     <set comment="spin 1">
      <set comment="kpoint 1">
       <r>   -2.9676    1.0000 </r>
       <r>    1.3104    1.0000 </r>
       <r>    1.3106    1.0000 </r>
       <r>    1.9747    1.0000 </r>
       <r>    5.6905    0.2501 </r>
       <r>    5.6906    0.2499 </r>
       <r>    6.7514    0.0000 </r>
       <r>    9.5812    0.0000 </r>
      </set>
     </set>
    </set>
   </array>
  </eigenvalues>
  <separator name="orbital magnetization" >
   <v name="MAGDIPOLOUT">      0.00000000      0.00000000      0.00000000</v>
  </separator>
  <dos>
   <i name="efermi">      5.62821743 </i>
   <total>
    <array>
     <dimension dim="1">gridpoints</dimension>
     <dimension dim="2">spin</dimension>
     <field>energy</field>
     <field>total</field>
     <field>integrated</field>
     <set>
      <set comment="spin 1">
       <r>  -4.9676   0.0000   0.0000 </r>
       <r>  -4.9124   0.0000   0.0000 </r>
       <r>  -4.8573   0.0000   0.0000 </r>
       <r>  -4.8021   0.0000   0.0000 </r>
       <r>  -4.7469   0.0000   0.0000 </r>
       <r>  -4.6918   0.0000   0.0000 </r>
       <r>  -4.6366   0.0000   0.0000 </r>
       <r>  -4.5814   0.0000   0.0000 </r>
       <r>  -4.5263   0.0000   0.0000 </r>
       <r>  -4.4711   0.0000   0.0000 </r>
       <r>  -4.4160   0.0000   0.0000 </r>
       <r>  -4.3608   0.0000   0.0000 </r>
       <r>  -4.3056   0.0000   0.0000 </r>
       <r>  -4.2505   0.0000   0.0000 </r>
       <r>  -4.1953   0.0000   0.0000 </r>
       <r>  -4.1401   0.0000   0.0000 </r>
       <r>  -4.0850   0.0000   0.0000 </r>
       <r>  -4.0298   0.0000   0.0000 </r>
       <r>  -3.9747   0.0000   0.0000 </r>
       <r>  -3.9195   0.0000   0.0000 </r>
       <r>  -3.8643   0.0000   0.0000 </r>
       <r>  -3.8092   0.0000   0.0000 </r>
       <r>  -3.7540   0.0000   0.0000 </r>
       <r>  -3.6988   0.0000   0.0000 </r>
       <r>  -3.6437  -0.0003   0.0000 </r>
       <r>  -3.5885  -0.0015  -0.0001 </r>
       <r>  -3.5334  -0.0067  -0.0005 </r>
       <r>  -3.4782  -0.0245  -0.0018 </r>
       <r>  -3.4230  -0.0741  -0.0059 </r>
       <r>  -3.3679  -0.1814  -0.0159 </r>
       <r>  -3.3127  -0.3440  -0.0349 </r>
       <r>  -3.2575  -0.4487  -0.0596 </r>
       <r>  -3.2024  -0.1890  -0.0701 </r>
       <r>  -3.1472   0.8685  -0.0222 </r>
       <r>  -3.0921   2.9471   0.1404 </r>
       <r>  -3.0369   5.6247   0.4507 </r>
       <r>  -2.9817   7.7940   0.8806 </r>
       <r>  -2.9266   8.3123   1.3392 </r>
       <r>  -2.8714   6.8833   1.7189 </r>
       <r>  -2.8162   4.3037   1.9563 </r>
       <r>  -2.7611   1.8147   2.0564 </r>
       <r>  -2.7059   0.2290   2.0690 </r>
       <r>  -2.6508  -0.3879   2.0476 </r>
       <r>  -2.5956  -0.4193   2.0245 </r>
       <r>  -2.5404  -0.2612   2.0101 </r>
       <r>  -2.4853  -0.1207   2.0034 </r>
       <r>  -2.4301  -0.0443   2.0010 </r>
       <r>  -2.3749  -0.0133   2.0002 </r>
       <r>  -2.3198  -0.0033   2.0000 </r>
       <r>  -2.2646  -0.0007   2.0000 </r>
       <r>  -2.2095  -0.0001   2.0000 </r>
       <r>  -2.1543   0.0000   2.0000 </r>
       <r>  -2.0991   0.0000   2.0000 </r>
       <r>  -2.0440   0.0000   2.0000 </r>
       <r>  -1.9888   0.0000   2.0000 </r>
       <r>  -1.9336   0.0000   2.0000 </r>
       <r>  -1.8785   0.0000   2.0000 </r>
       <r>  -1.8233   0.0000   2.0000 </r>
       <r>  -1.7682   0.0000   2.0000 </r>
       <r>  -1.7130   0.0000   2.0000 </r>
       <r>  -1.6578   0.0000   2.0000 </r>
       <r>  -1.6027   0.0000   2.0000 </r>
       <r>  -1.5475   0.0000   2.0000 </r>
       <r>  -1.4923   0.0000   2.0000 </r>
       <r>  -1.4372   0.0000   2.0000 </r>
       <r>  -1.3820   0.0000   2.0000 </r>
       <r>  -1.3269   0.0000   2.0000 </r>
       <r>  -1.2717   0.0000   2.0000 </r>
       <r>  -1.2165   0.0000   2.0000 </r>
       <r>  -1.1614   0.0000   2.0000 </r>
       <r>  -1.1062   0.0000   2.0000 </r>
       <r>  -1.0510   0.0000   2.0000 </r>
       <r>  -0.9959   0.0000   2.0000 </r>
       <r>  -0.9407   0.0000   2.0000 </r>
       <r>  -0.8856   0.0000   2.0000 </r>
       <r>  -0.8304   0.0000   2.0000 </r>
       <r>  -0.7752   0.0000   2.0000 </r>
       <r>  -0.7201   0.0000   2.0000 </r>
       <r>  -0.6649   0.0000   2.0000 </r>
       <r>  -0.6097   0.0000   2.0000 </r>
       <r>  -0.5546   0.0000   2.0000 </r>
       <r>  -0.4994   0.0000   2.0000 </r>
       <r>  -0.4443   0.0000   2.0000 </r>
       <r>  -0.3891   0.0000   2.0000 </r>
       <r>  -0.3339   0.0000   2.0000 </r>
       <r>  -0.2788   0.0000   2.0000 </r>
       <r>  -0.2236   0.0000   2.0000 </r>
       <r>  -0.1684   0.0000   2.0000 </r>
       <r>  -0.1133   0.0000   2.0000 </r>
       <r>  -0.0581   0.0000   2.0000 </r>
       <r>  -0.0030   0.0000   2.0000 </r>
       <r>   0.0522   0.0000   2.0000 </r>
       <r>   0.1074   0.0000   2.0000 </r>
       <r>   0.1625   0.0000   2.0000 </r>
       <r>   0.2177   0.0000   2.0000 </r>
       <r>   0.2729   0.0000   2.0000 </r>
       <r>   0.3280   0.0000   2.0000 </r>
       <r>   0.3832   0.0000   2.0000 </r>
       <r>   0.4383   0.0000   2.0000 </r>
       <r>   0.4935   0.0000   2.0000 </r>
       <r>   0.5487   0.0000   2.0000 </r>
       <r>   0.6038  -0.0002   2.0000 </r>
       <r>   0.6590  -0.0012   1.9999 </r>
       <r>   0.7142  -0.0060   1.9996 </r>
       <r>   0.7693  -0.0244   1.9982 </r>
       <r>   0.8245  -0.0823   1.9937 </r>
       <r>   0.8797  -0.2273   1.9812 </r>
       <r>   0.9348  -0.5002   1.9536 </r>
       <r>   0.9900  -0.8224   1.9082 </r>
       <r>   1.0451  -0.8063   1.8637 </r>
       <r>   1.1003   0.3212   1.8815 </r>
       <r>   1.1555   3.3524   2.0664 </r>
       <r>   1.2106   8.2439   2.5211 </r>
       <r>   1.2658  13.4668   3.2640 </r>
       <r>   1.3210  16.5475   4.1768 </r>
       <r>   1.3761  15.7760   5.0470 </r>
       <r>   1.4313  11.5882   5.6863 </r>
       <r>   1.4864   6.1937   6.0279 </r>
       <r>   1.5416   1.8423   6.1296 </r>
       <r>   1.5968  -0.5391   6.0998 </r>
       <r>   1.6519  -1.3004   6.0281 </r>
       <r>   1.7071  -1.1214   5.9662 </r>
       <r>   1.7623  -0.2613   5.9518 </r>
       <r>   1.8174   1.4345   6.0310 </r>
       <r>   1.8726   3.9573   6.2492 </r>
       <r>   1.9277   6.6239   6.6146 </r>
       <r>   1.9829   8.2425   7.0693 </r>
       <r>   2.0381   7.9436   7.5075 </r>
       <r>   2.0932   5.9065   7.8333 </r>
       <r>   2.1484   3.2223   8.0111 </r>
       <r>   2.2036   1.0445   8.0687 </r>
       <r>   2.2587  -0.1207   8.0620 </r>
       <r>   2.3139  -0.4455   8.0375 </r>
       <r>   2.3690  -0.3617   8.0175 </r>
       <r>   2.4242  -0.1970   8.0066 </r>
       <r>   2.4794  -0.0825   8.0021 </r>
       <r>   2.5345  -0.0279   8.0005 </r>
       <r>   2.5897  -0.0077   8.0001 </r>
       <r>   2.6449  -0.0018   8.0000 </r>
       <r>   2.7000  -0.0004   8.0000 </r>
       <r>   2.7552  -0.0001   8.0000 </r>
       <r>   2.8103   0.0000   8.0000 </r>
       <r>   2.8655   0.0000   8.0000 </r>
       <r>   2.9207   0.0000   8.0000 </r>
       <r>   2.9758   0.0000   8.0000 </r>
       <r>   3.0310   0.0000   8.0000 </r>
       <r>   3.0862   0.0000   8.0000 </r>
       <r>   3.1413   0.0000   8.0000 </r>
       <r>   3.1965   0.0000   8.0000 </r>
       <r>   3.2516   0.0000   8.0000 </r>
       <r>   3.3068   0.0000   8.0000 </r>
       <r>   3.3620   0.0000   8.0000 </r>
       <r>   3.4171   0.0000   8.0000 </r>
       <r>   3.4723   0.0000   8.0000 </r>
       <r>   3.5275   0.0000   8.0000 </r>
       <r>   3.5826   0.0000   8.0000 </r>
       <r>   3.6378   0.0000   8.0000 </r>
       <r>   3.6929   0.0000   8.0000 </r>
       <r>   3.7481   0.0000   8.0000 </r>
       <r>   3.8033   0.0000   8.0000 </r>
       <r>   3.8584   0.0000   8.0000 </r>
       <r>   3.9136   0.0000   8.0000 </r>
       <r>   3.9688   0.0000   8.0000 </r>
       <r>   4.0239   0.0000   8.0000 </r>
       <r>   4.0791   0.0000   8.0000 </r>
       <r>   4.1342   0.0000   8.0000 </r>
       <r>   4.1894   0.0000   8.0000 </r>
       <r>   4.2446   0.0000   8.0000 </r>
       <r>   4.2997   0.0000   8.0000 </r>
       <r>   4.3549   0.0000   8.0000 </r>
       <r>   4.4101   0.0000   8.0000 </r>
       <r>   4.4652   0.0000   8.0000 </r>
       <r>   4.5204   0.0000   8.0000 </r>
       <r>   4.5755   0.0000   8.0000 </r>
       <r>   4.6307   0.0000   8.0000 </r>
       <r>   4.6859   0.0000   8.0000 </r>
       <r>   4.7410   0.0000   8.0000 </r>
       <r>   4.7962   0.0000   8.0000 </r>
       <r>   4.8514   0.0000   8.0000 </r>
       <r>   4.9065   0.0000   8.0000 </r>
       <r>   4.9617  -0.0001   8.0000 </r>
       <r>   5.0168  -0.0006   8.0000 </r>
       <r>   5.0720  -0.0033   7.9998 </r>
       <r>   5.1272  -0.0142   7.9990 </r>
       <r>   5.1823  -0.0516   7.9962 </r>
       <r>   5.2375  -0.1549   7.9876 </r>
       <r>   5.2927  -0.3753   7.9669 </r>
       <r>   5.3478  -0.7025   7.9282 </r>
       <r>   5.4030  -0.8958   7.8787 </r>
       <r>   5.4581  -0.3248   7.8608 </r>
       <r>   5.5133   1.8770   7.9644 </r>
       <r>   5.5685   6.1161   8.3017 </r>
       <r>   5.6236  11.4801   8.9350 </r>
       <r>   5.6788  15.7151   9.8019 </r>
       <r>   5.7340  16.5764  10.7163 </r>
       <r>   5.7891  13.5709  11.4649 </r>
       <r>   5.8443   8.3684  11.9265 </r>
       <r>   5.8995   3.4464  12.1166 </r>
       <r>   5.9546   0.3672  12.1369 </r>
       <r>   6.0098  -0.7965  12.0930 </r>
       <r>   6.0649  -0.8283  12.0473 </r>
       <r>   6.1201  -0.5089  12.0192 </r>
       <r>   6.1753  -0.2371  12.0061 </r>
       <r>   6.2304  -0.1038  12.0004 </r>
       <r>   6.2856  -0.0863  11.9956 </r>
       <r>   6.3408  -0.1624  11.9867 </r>
       <r>   6.3959  -0.3135  11.9694 </r>
       <r>   6.4511  -0.4449  11.9448 </r>
       <r>   6.5062  -0.2854  11.9291 </r>
       <r>   6.5614   0.5929  11.9618 </r>
       <r>   6.6166   2.4885  12.0991 </r>
       <r>   6.6717   5.1224  12.3816 </r>
       <r>   6.7269   7.4860  12.7946 </r>
       <r>   6.7821   8.3708  13.2563 </r>
       <r>   6.8372   7.2743  13.6576 </r>
       <r>   6.8924   4.8158  13.9233 </r>
       <r>   6.9475   2.2261  14.0461 </r>
       <r>   7.0027   0.4453  14.0706 </r>
       <r>   7.0579  -0.3309  14.0524 </r>
       <r>   7.1130  -0.4375  14.0282 </r>
       <r>   7.1682  -0.2929  14.0121 </r>
       <r>   7.2234  -0.1421  14.0042 </r>
       <r>   7.2785  -0.0543  14.0012 </r>
       <r>   7.3337  -0.0169  14.0003 </r>
       <r>   7.3888  -0.0044  14.0001 </r>
       <r>   7.4440  -0.0009  14.0000 </r>
       <r>   7.4992  -0.0002  14.0000 </r>
       <r>   7.5543   0.0000  14.0000 </r>
       <r>   7.6095   0.0000  14.0000 </r>
       <r>   7.6647   0.0000  14.0000 </r>
       <r>   7.7198   0.0000  14.0000 </r>
       <r>   7.7750   0.0000  14.0000 </r>
       <r>   7.8301   0.0000  14.0000 </r>
       <r>   7.8853   0.0000  14.0000 </r>
       <r>   7.9405   0.0000  14.0000 </r>
       <r>   7.9956   0.0000  14.0000 </r>
       <r>   8.0508   0.0000  14.0000 </r>
       <r>   8.1060   0.0000  14.0000 </r>
       <r>   8.1611   0.0000  14.0000 </r>
       <r>   8.2163   0.0000  14.0000 </r>
       <r>   8.2714   0.0000  14.0000 </r>
       <r>   8.3266   0.0000  14.0000 </r>
       <r>   8.3818   0.0000  14.0000 </r>
       <r>   8.4369   0.0000  14.0000 </r>
       <r>   8.4921   0.0000  14.0000 </r>
       <r>   8.5473   0.0000  14.0000 </r>
       <r>   8.6024   0.0000  14.0000 </r>
       <r>   8.6576   0.0000  14.0000 </r>
       <r>   8.7127   0.0000  14.0000 </r>
       <r>   8.7679   0.0000  14.0000 </r>
       <r>   8.8231   0.0000  14.0000 </r>
       <r>   8.8782  -0.0001  14.0000 </r>
       <r>   8.9334  -0.0007  14.0000 </r>
       <r>   8.9886  -0.0033  13.9998 </r>
       <r>   9.0437  -0.0133  13.9990 </r>
       <r>   9.0989  -0.0443  13.9966 </r>
       <r>   9.1540  -0.1207  13.9899 </r>
       <r>   9.2092  -0.2612  13.9755 </r>
       <r>   9.2644  -0.4193  13.9524 </r>
       <r>   9.3195  -0.3879  13.9310 </r>
       <r>   9.3747   0.2290  13.9436 </r>
       <r>   9.4299   1.8147  14.0437 </r>
       <r>   9.4850   4.3037  14.2811 </r>
       <r>   9.5402   6.8833  14.6608 </r>
       <r>   9.5953   8.3123  15.1194 </r>
       <r>   9.6505   7.7940  15.5493 </r>
       <r>   9.7057   5.6247  15.8596 </r>
       <r>   9.7608   2.9471  16.0222 </r>
       <r>   9.8160   0.8685  16.0701 </r>
       <r>   9.8712  -0.1890  16.0596 </r>
       <r>   9.9263  -0.4487  16.0349 </r>
       <r>   9.9815  -0.3440  16.0159 </r>
       <r>  10.0366  -0.1814  16.0059 </r>
       <r>  10.0918  -0.0741  16.0018 </r>
       <r>  10.1470  -0.0245  16.0005 </r>
       <r>  10.2021  -0.0067  16.0001 </r>
       <r>  10.2573  -0.0015  16.0000 </r>
       <r>  10.3125  -0.0003  16.0000 </r>
       <r>  10.3676   0.0000  16.0000 </r>
       <r>  10.4228   0.0000  16.0000 </r>
       <r>  10.4779   0.0000  16.0000 </r>
       <r>  10.5331   0.0000  16.0000 </r>
       <r>  10.5883   0.0000  16.0000 </r>
       <r>  10.6434   0.0000  16.0000 </r>
       <r>  10.6986   0.0000  16.0000 </r>
       <r>  10.7538   0.0000  16.0000 </r>
       <r>  10.8089   0.0000  16.0000 </r>
       <r>  10.8641   0.0000  16.0000 </r>
       <r>  10.9192   0.0000  16.0000 </r>
       <r>  10.9744   0.0000  16.0000 </r>
       <r>  11.0296   0.0000  16.0000 </r>
       <r>  11.0847   0.0000  16.0000 </r>
       <r>  11.1399   0.0000  16.0000 </r>
       <r>  11.1951   0.0000  16.0000 </r>
       <r>  11.2502   0.0000  16.0000 </r>
       <r>  11.3054   0.0000  16.0000 </r>
       <r>  11.3606   0.0000  16.0000 </r>
       <r>  11.4157   0.0000  16.0000 </r>
       <r>  11.4709   0.0000  16.0000 </r>
       <r>  11.5260   0.0000  16.0000 </r>
       <r>  11.5812   0.0000  16.0000 </r>
      </set>
     </set>
    </array>
   </total>
  </dos>
 </calculation>
 <structure name="finalpos" >
  <crystal>
   <varray name="basis" >
    <v>       4.08626600       0.00000000       0.00000000 </v>
    <v>       0.00000000       4.08626600       0.00000000 </v>
    <v>       0.00000000       0.00000000       4.08626600 </v>
   </varray>
   <i name="volume">     68.23071185 </i>
   <varray name="rec_basis" >
    <v>       0.24472220       0.00000000       0.00000000 </v>
    <v>       0.00000000       0.24472220       0.00000000 </v>
    <v>       0.00000000       0.00000000       0.24472220 </v>
   </varray>
  </crystal>
  <varray name="positions" >
   <v>       0.00000000       0.00000000      -0.00244722 </v>
   <v>       0.00000000       0.50000000       0.50000000 </v>
   <v>       0.50000000       0.00000000       0.50000000 </v>
  </varray>
  <varray name="selective"  type="logical" >
   <v type="logical" >  F  F  T </v>
   <v type="logical" >  F  F  F </v>
   <v type="logical" >  F  F  F </v>
  </varray>
  <nose>
   <v>      -3.00000000       0.00000000       0.00010000       0.00010000 </v>
  </nose>
 </structure>
</modeling>
