   8   8   0   0
  0.2226630E+02  0.5626600E-09  0.5626600E-09  0.5626600E-09  0.5000000E-15
  1.000000000000000E-004
  CAR 
 unknown system                          
     10.89435703    -13.28594725  301      3.59435182      1.00000000
    -13.286  0.0000E+00  0.0000E+00  0.0000E+00  0.0000E+00
    -13.205  0.0000E+00  0.0000E+00  0.0000E+00  0.0000E+00
    -13.125  0.0000E+00  0.0000E+00  0.0000E+00  0.0000E+00
    -13.044  0.0000E+00  0.0000E+00  0.0000E+00  0.0000E+00
    -12.964 -0.8157E-29  0.0000E+00 -0.6575E-30  0.0000E+00
    -12.883 -0.6645E-26 -0.4643E-26 -0.5363E-27 -0.3742E-27
    -12.802 -0.3410E-23 -0.2427E-23 -0.2754E-24 -0.1960E-24
    -12.722 -0.1264E-20 -0.9171E-21 -0.1022E-21 -0.7412E-22
    -12.641 -0.3383E-18 -0.2503E-18 -0.2737E-19 -0.2025E-19
    -12.561 -0.6535E-16 -0.4930E-16 -0.5295E-17 -0.3994E-17
    -12.480 -0.9113E-14 -0.7009E-14 -0.7398E-15 -0.5690E-15
    -12.399 -0.8886E-12 -0.6970E-12 -0.7236E-13 -0.5675E-13
    -12.319 -0.6411E-10 -0.5128E-10 -0.5240E-11 -0.4190E-11
    -12.238 -0.3332E-08 -0.2717E-08 -0.2738E-09 -0.2232E-09
    -12.158 -0.1245E-06 -0.1035E-06 -0.1031E-07 -0.8568E-08
    -12.077 -0.3338E-05 -0.2832E-05 -0.2794E-06 -0.2368E-06
    -11.996 -0.6413E-04 -0.5548E-04 -0.5448E-05 -0.4708E-05
    -11.916 -0.8796E-03 -0.7763E-03 -0.7635E-04 -0.6728E-04
    -11.835 -0.8575E-02 -0.7723E-02 -0.7675E-03 -0.6898E-03
    -11.755 -0.5895E-01 -0.5422E-01 -0.5519E-02 -0.5060E-02
    -11.674 -0.2816E+00 -0.2648E+00 -0.2822E-01 -0.2640E-01
    -11.593 -0.9018E+00 -0.8690E+00 -0.1009E+00 -0.9644E-01
    -11.513 -0.1722E+01 -0.1718E+01 -0.2397E+00 -0.2349E+00
    -11.432 -0.7579E+00 -0.9181E+00 -0.3008E+00 -0.3089E+00
    -11.352  0.6386E+01  0.5911E+01  0.2139E+00  0.1675E+00
    -11.271  0.2293E+02  0.2220E+02  0.2062E+01  0.1957E+01
    -11.190  0.4358E+02  0.4301E+02  0.5574E+01  0.5423E+01
    -11.110  0.5367E+02  0.5373E+02  0.9901E+01  0.9754E+01
    -11.029  0.4335E+02  0.4403E+02  0.1339E+02  0.1330E+02
    -10.949  0.2111E+02  0.2187E+02  0.1510E+02  0.1507E+02
    -10.868  0.3846E+01  0.4245E+01  0.1541E+02  0.1541E+02
    -10.787 -0.2182E+01 -0.2120E+01  0.1523E+02  0.1524E+02
    -10.707 -0.1922E+01 -0.1966E+01  0.1507E+02  0.1508E+02
    -10.626 -0.7279E+00 -0.7597E+00  0.1502E+02  0.1502E+02
    -10.546 -0.1700E+00 -0.1801E+00  0.1500E+02  0.1500E+02
    -10.465 -0.2658E-01 -0.2855E-01  0.1500E+02  0.1500E+02
    -10.384 -0.2874E-02 -0.3128E-02  0.1500E+02  0.1500E+02
    -10.304 -0.2213E-03 -0.2409E-03  0.1500E+02  0.1500E+02
    -10.223 -0.5947E-04 -0.1713E-04  0.1500E+02  0.1500E+02
    -10.143 -0.5796E-03 -0.6657E-04  0.1500E+02  0.1500E+02
    -10.062 -0.4879E-02 -0.7676E-03  0.1500E+02  0.1500E+02
     -9.981 -0.2787E-01 -0.6176E-02  0.1500E+02  0.1500E+02
     -9.901 -0.1027E+00 -0.3355E-01  0.1499E+02  0.1500E+02
     -9.820 -0.2099E+00 -0.1163E+00  0.1497E+02  0.1499E+02
     -9.740 -0.5382E-01 -0.2154E+00  0.1497E+02  0.1497E+02
     -9.659  0.9468E+00  0.1271E-01  0.1504E+02  0.1497E+02
     -9.578  0.2787E+01  0.1143E+01  0.1527E+02  0.1506E+02
     -9.498  0.4090E+01  0.3014E+01  0.1560E+02  0.1531E+02
     -9.417  0.3506E+01  0.4130E+01  0.1588E+02  0.1564E+02
     -9.336  0.1665E+01  0.3313E+01  0.1602E+02  0.1591E+02
     -9.256  0.2341E+00  0.1440E+01  0.1603E+02  0.1602E+02
     -9.175 -0.2083E+00  0.1311E+00  0.1602E+02  0.1603E+02
     -9.095 -0.1513E+00 -0.2154E+00  0.1601E+02  0.1602E+02
     -9.014 -0.5097E-01 -0.1366E+00  0.1600E+02  0.1600E+02
     -8.933 -0.1063E-01 -0.4304E-01  0.1600E+02  0.1600E+02
     -8.853 -0.1478E-02 -0.8517E-02  0.1600E+02  0.1600E+02
     -8.772 -0.1419E-03 -0.1130E-02  0.1600E+02  0.1600E+02
     -8.692 -0.1620E-04 -0.1044E-03  0.1600E+02  0.1600E+02
     -8.611 -0.1049E-03 -0.2447E-04  0.1600E+02  0.1600E+02
     -8.530 -0.1139E-02 -0.2463E-03  0.1600E+02  0.1600E+02
     -8.450 -0.8573E-02 -0.2368E-02  0.1600E+02  0.1600E+02
     -8.369 -0.4326E-01 -0.1561E-01  0.1600E+02  0.1600E+02
     -8.289 -0.1370E+00 -0.6795E-01  0.1598E+02  0.1599E+02
     -8.208 -0.2153E+00 -0.1773E+00  0.1597E+02  0.1598E+02
     -8.127  0.1338E+00 -0.1761E+00  0.1598E+02  0.1596E+02
     -8.047  0.1447E+01  0.4623E+00  0.1609E+02  0.1600E+02
     -7.966  0.3317E+01  0.2090E+01  0.1636E+02  0.1617E+02
     -7.886  0.4113E+01  0.3795E+01  0.1669E+02  0.1648E+02
     -7.805  0.2927E+01  0.3906E+01  0.1693E+02  0.1679E+02
     -7.724  0.8751E+00  0.2213E+01  0.1700E+02  0.1697E+02
     -7.644 -0.4223E+00  0.2637E+00  0.1697E+02  0.1699E+02
     -7.563 -0.2522E-01 -0.4670E+00  0.1696E+02  0.1695E+02
     -7.483  0.2594E+01  0.8681E+00  0.1717E+02  0.1702E+02
     -7.402  0.6432E+01  0.4324E+01  0.1769E+02  0.1737E+02
     -7.321  0.8266E+01  0.7705E+01  0.1836E+02  0.1799E+02
     -7.241  0.6200E+01  0.7769E+01  0.1886E+02  0.1862E+02
     -7.160  0.2446E+01  0.4493E+01  0.1905E+02  0.1898E+02
     -7.080  0.8541E-01  0.1116E+01  0.1906E+02  0.1907E+02
     -6.999 -0.4328E+00 -0.3143E+00  0.1903E+02  0.1905E+02
     -6.918 -0.2437E+00 -0.3721E+00  0.1901E+02  0.1902E+02
     -6.838 -0.7202E-01 -0.1499E+00  0.1900E+02  0.1900E+02
     -6.757 -0.1353E-01 -0.3571E-01  0.1900E+02  0.1900E+02
     -6.677 -0.1712E-02 -0.5589E-02  0.1900E+02  0.1900E+02
     -6.596 -0.1499E-03 -0.5979E-03  0.1900E+02  0.1900E+02
     -6.515 -0.9210E-05 -0.4458E-04  0.1900E+02  0.1900E+02
     -6.435 -0.4003E-06 -0.2341E-05  0.1900E+02  0.1900E+02
     -6.354 -0.1377E-07 -0.8731E-07  0.1900E+02  0.1900E+02
     -6.274 -0.5196E-07 -0.5934E-08  0.1900E+02  0.1900E+02
     -6.193 -0.1364E-05 -0.1230E-06  0.1900E+02  0.1900E+02
     -6.112 -0.2553E-04 -0.2975E-05  0.1900E+02  0.1900E+02
     -6.032 -0.3366E-03 -0.5096E-04  0.1900E+02  0.1900E+02
     -5.951 -0.3089E-02 -0.6134E-03  0.1900E+02  0.1900E+02
     -5.871 -0.1936E-01 -0.5120E-02  0.1900E+02  0.1900E+02
     -5.790 -0.7944E-01 -0.2895E-01  0.1899E+02  0.1900E+02
     -5.709 -0.1911E+00 -0.1054E+00  0.1898E+02  0.1899E+02
     -5.629 -0.1433E+00 -0.2113E+00  0.1896E+02  0.1897E+02
     -5.548  0.6206E+00 -0.4148E-01  0.1901E+02  0.1897E+02
     -5.468  0.2343E+01  0.9852E+00  0.1920E+02  0.1905E+02
     -5.387  0.3933E+01  0.2834E+01  0.1952E+02  0.1928E+02
     -5.306  0.3809E+01  0.4101E+01  0.1983E+02  0.1961E+02
     -5.226  0.2106E+01  0.3468E+01  0.2000E+02  0.1989E+02
     -5.145  0.4716E+00  0.1619E+01  0.2004E+02  0.2002E+02
     -5.065 -0.1744E+00  0.2119E+00  0.2002E+02  0.2003E+02
     -4.984 -0.1782E+00 -0.2103E+00  0.2001E+02  0.2002E+02
     -4.903 -0.6862E-01 -0.1483E+00  0.2000E+02  0.2000E+02
     -4.823 -0.1583E-01 -0.4928E-01  0.2000E+02  0.2000E+02
     -4.742 -0.2408E-02 -0.1017E-01  0.2000E+02  0.2000E+02
     -4.662 -0.2508E-03 -0.1401E-02  0.2000E+02  0.2000E+02
     -4.581 -0.1823E-04 -0.1330E-03  0.2000E+02  0.2000E+02
     -4.500 -0.9338E-06 -0.8831E-05  0.2000E+02  0.2000E+02
     -4.420 -0.3394E-07 -0.4143E-06  0.2000E+02  0.2000E+02
     -4.339 -0.8795E-09 -0.1381E-07  0.2000E+02  0.2000E+02
     -4.259 -0.1629E-10 -0.3284E-09  0.2000E+02  0.2000E+02
     -4.178 -0.2149E-12 -0.5584E-11  0.2000E+02  0.2000E+02
     -4.097 -0.3624E-14 -0.6899E-13  0.2000E+02  0.2000E+02
     -4.017 -0.9923E-13 -0.1550E-13  0.2000E+02  0.2000E+02
     -3.936 -0.8310E-11 -0.1446E-11  0.2000E+02  0.2000E+02
     -3.856 -0.5001E-09 -0.9959E-10  0.2000E+02  0.2000E+02
     -3.775 -0.2153E-07 -0.4909E-08  0.2000E+02  0.2000E+02
     -3.694 -0.6613E-06 -0.1729E-06  0.2000E+02  0.2000E+02
     -3.614 -0.1444E-04 -0.4334E-05  0.2000E+02  0.2000E+02
     -3.533 -0.2227E-03 -0.7700E-04  0.2000E+02  0.2000E+02
     -3.453 -0.2407E-02 -0.9620E-03  0.2000E+02  0.2000E+02
     -3.372 -0.1794E-01 -0.8350E-02  0.2000E+02  0.2000E+02
     -3.291 -0.8958E-01 -0.4926E-01  0.1999E+02  0.2000E+02
     -3.211 -0.2799E+00 -0.1885E+00  0.1997E+02  0.1998E+02
     -3.130 -0.4286E+00 -0.4089E+00  0.1993E+02  0.1995E+02
     -3.050  0.3070E+00 -0.1794E+00  0.1996E+02  0.1993E+02
     -2.969  0.2983E+01  0.1655E+01  0.2020E+02  0.2007E+02
     -2.888  0.6719E+01  0.5271E+01  0.2074E+02  0.2049E+02
     -2.808  0.8247E+01  0.8096E+01  0.2141E+02  0.2114E+02
     -2.727  0.5925E+01  0.7240E+01  0.2188E+02  0.2173E+02
     -2.647  0.2192E+01  0.3631E+01  0.2206E+02  0.2202E+02
     -2.566 -0.7901E-02  0.6193E+00  0.2206E+02  0.2207E+02
     -2.485 -0.4290E+00 -0.3998E+00  0.2202E+02  0.2204E+02
     -2.405 -0.2262E+00 -0.3217E+00  0.2201E+02  0.2201E+02
     -2.324 -0.6431E-01 -0.1133E+00  0.2200E+02  0.2200E+02
     -2.244 -0.1170E-01 -0.2445E-01  0.2200E+02  0.2200E+02
     -2.163 -0.1439E-02 -0.3508E-02  0.2200E+02  0.2200E+02
     -2.082 -0.1238E-03 -0.3460E-03  0.2200E+02  0.2200E+02
     -2.002 -0.3043E-04 -0.2607E-04  0.2200E+02  0.2200E+02
     -1.921 -0.3088E-03 -0.4076E-04  0.2200E+02  0.2200E+02
     -1.841 -0.2870E-02 -0.4930E-03  0.2200E+02  0.2200E+02
     -1.760 -0.1824E-01 -0.4262E-02  0.2200E+02  0.2200E+02
     -1.679 -0.7610E-01 -0.2504E-01  0.2199E+02  0.2200E+02
     -1.599 -0.1874E+00 -0.9532E-01  0.2198E+02  0.2199E+02
     -1.518 -0.1537E+00 -0.2052E+00  0.2196E+02  0.2197E+02
     -1.438  0.5744E+00 -0.8531E-01  0.2201E+02  0.2197E+02
     -1.357  0.2272E+01  0.8429E+00  0.2219E+02  0.2203E+02
     -1.276  0.3899E+01  0.2655E+01  0.2251E+02  0.2225E+02
     -1.196  0.3849E+01  0.4054E+01  0.2282E+02  0.2258E+02
     -1.115  0.2176E+01  0.3605E+01  0.2299E+02  0.2287E+02
     -1.035  0.5116E+00  0.1795E+01  0.2304E+02  0.2301E+02
     -0.954 -0.1835E+00  0.2947E+00  0.2302E+02  0.2303E+02
     -0.873 -0.2553E+00 -0.2276E+00  0.2300E+02  0.2302E+02
     -0.793 -0.2558E+00 -0.2585E+00  0.2298E+02  0.2300E+02
     -0.712 -0.1809E+00 -0.2639E+00  0.2296E+02  0.2297E+02
     -0.632  0.5174E+00 -0.8586E-01  0.2301E+02  0.2297E+02
     -0.551  0.2136E+01  0.8672E+00  0.2318E+02  0.2304E+02
     -0.470  0.3624E+01  0.2607E+01  0.2347E+02  0.2325E+02
     -0.390  0.3451E+01  0.3752E+01  0.2375E+02  0.2355E+02
     -0.309  0.2313E+01  0.3157E+01  0.2394E+02  0.2380E+02
     -0.229  0.2965E+01  0.2348E+01  0.2417E+02  0.2399E+02
     -0.148  0.6004E+01  0.3893E+01  0.2466E+02  0.2431E+02
     -0.067  0.8084E+01  0.7031E+01  0.2531E+02  0.2487E+02
      0.013  0.6427E+01  0.7942E+01  0.2583E+02  0.2551E+02
      0.094  0.2730E+01  0.5222E+01  0.2605E+02  0.2593E+02
      0.174  0.2026E+00  0.1647E+01  0.2606E+02  0.2607E+02
      0.255 -0.4373E+00 -0.1813E+00  0.2603E+02  0.2605E+02
      0.336 -0.2937E+00 -0.4204E+00  0.2601E+02  0.2602E+02
      0.416 -0.2117E+00 -0.2507E+00  0.2599E+02  0.2600E+02
      0.497 -0.3627E+00 -0.2700E+00  0.2596E+02  0.2598E+02
      0.577 -0.3682E+00 -0.4354E+00  0.2593E+02  0.2594E+02
      0.658  0.8453E+00 -0.3649E-01  0.2600E+02  0.2594E+02
      0.739  0.4045E+01  0.2112E+01  0.2632E+02  0.2611E+02
      0.819  0.7517E+01  0.5834E+01  0.2693E+02  0.2658E+02
      0.900  0.7940E+01  0.8233E+01  0.2757E+02  0.2724E+02
      0.980  0.4847E+01  0.6793E+01  0.2796E+02  0.2779E+02
      1.061  0.1317E+01  0.3050E+01  0.2807E+02  0.2804E+02
      1.142 -0.3845E+00  0.2565E+00  0.2804E+02  0.2806E+02
      1.222 -0.6071E+00 -0.6279E+00  0.2799E+02  0.2801E+02
      1.303 -0.1074E+00 -0.3894E+00  0.2798E+02  0.2798E+02
      1.383  0.1225E+01  0.6854E+00  0.2808E+02  0.2803E+02
      1.464  0.3139E+01  0.2550E+01  0.2833E+02  0.2824E+02
      1.545  0.4137E+01  0.4023E+01  0.2866E+02  0.2856E+02
      1.625  0.3189E+01  0.3666E+01  0.2892E+02  0.2886E+02
      1.706  0.1310E+01  0.1881E+01  0.2903E+02  0.2901E+02
      1.786  0.7682E-01  0.3445E+00  0.2903E+02  0.2904E+02
      1.867 -0.2171E+00 -0.1953E+00  0.2901E+02  0.2902E+02
      1.948 -0.1319E+00 -0.1664E+00  0.2900E+02  0.2901E+02
      2.028 -0.6659E-01 -0.7096E-01  0.2900E+02  0.2900E+02
      2.109 -0.1322E+00 -0.7731E-01  0.2899E+02  0.2899E+02
      2.189 -0.3402E+00 -0.2281E+00  0.2896E+02  0.2898E+02
      2.270 -0.3779E+00 -0.4292E+00  0.2893E+02  0.2894E+02
      2.351  0.7737E+00 -0.7676E-02  0.2899E+02  0.2894E+02
      2.431  0.3918E+01  0.2193E+01  0.2931E+02  0.2912E+02
      2.512  0.7437E+01  0.5926E+01  0.2991E+02  0.2959E+02
      2.592  0.7993E+01  0.8247E+01  0.3055E+02  0.3026E+02
      2.673  0.4982E+01  0.6718E+01  0.3095E+02  0.3080E+02
      2.754  0.1444E+01  0.2983E+01  0.3107E+02  0.3104E+02
      2.834 -0.2371E+00  0.3067E+00  0.3105E+02  0.3107E+02
      2.915 -0.3969E+00 -0.4287E+00  0.3102E+02  0.3103E+02
      2.995 -0.1776E+00 -0.2801E+00  0.3100E+02  0.3101E+02
      3.076 -0.6846E-01 -0.9190E-01  0.3100E+02  0.3100E+02
      3.157 -0.1016E+00 -0.3342E-01  0.3099E+02  0.3100E+02
      3.237 -0.2054E+00 -0.6994E-01  0.3097E+02  0.3099E+02
      3.318 -0.8909E-01 -0.1770E+00  0.3097E+02  0.3098E+02
      3.398  0.8300E+00 -0.1771E+00  0.3103E+02  0.3096E+02
      3.479  0.2638E+01  0.4568E+00  0.3125E+02  0.3100E+02
      3.560  0.4049E+01  0.2081E+01  0.3157E+02  0.3117E+02
      3.640  0.3618E+01  0.3794E+01  0.3186E+02  0.3147E+02
      3.721  0.1812E+01  0.3945E+01  0.3201E+02  0.3179E+02
      3.801  0.3080E+00  0.2368E+01  0.3203E+02  0.3198E+02
      3.882 -0.2001E+00  0.6373E+00  0.3202E+02  0.3204E+02
      3.963 -0.1607E+00 -0.1394E+00  0.3201E+02  0.3202E+02
      4.043 -0.5653E-01 -0.1923E+00  0.3200E+02  0.3201E+02
      4.124 -0.1219E-01 -0.8064E-01  0.3200E+02  0.3200E+02
      4.204 -0.1748E-02 -0.1977E-01  0.3200E+02  0.3200E+02
      4.285 -0.1722E-03 -0.3171E-02  0.3200E+02  0.3200E+02
      4.366 -0.1186E-04 -0.3471E-03  0.3200E+02  0.3200E+02
      4.446 -0.5992E-06 -0.2645E-04  0.3200E+02  0.3200E+02
      4.527 -0.6778E-06 -0.1492E-05  0.3200E+02  0.3200E+02
      4.607 -0.1359E-04 -0.1927E-05  0.3200E+02  0.3200E+02
      4.688 -0.1996E-03 -0.3425E-04  0.3200E+02  0.3200E+02
      4.769 -0.2075E-02 -0.4435E-03  0.3200E+02  0.3200E+02
      4.849 -0.1512E-01 -0.4041E-02  0.3200E+02  0.3200E+02
      4.930 -0.7574E-01 -0.2559E-01  0.3199E+02  0.3200E+02
      5.010 -0.2496E+00 -0.1100E+00  0.3197E+02  0.3199E+02
      5.091 -0.4669E+00 -0.3016E+00  0.3193E+02  0.3196E+02
      5.172 -0.9068E-01 -0.4125E+00  0.3193E+02  0.3193E+02
      5.252  0.2123E+01  0.3350E+00  0.3210E+02  0.3196E+02
      5.333  0.6512E+01  0.2996E+01  0.3262E+02  0.3220E+02
      5.413  0.1063E+02  0.7331E+01  0.3348E+02  0.3279E+02
      5.494  0.1084E+02  0.1069E+02  0.3435E+02  0.3365E+02
      5.575  0.6842E+01  0.1010E+02  0.3491E+02  0.3447E+02
      5.655  0.2211E+01  0.5950E+01  0.3508E+02  0.3495E+02
      5.736 -0.1665E+00  0.1711E+01  0.3507E+02  0.3508E+02
      5.816 -0.5224E+00 -0.2716E+00  0.3503E+02  0.3506E+02
      5.897 -0.2583E+00 -0.4809E+00  0.3501E+02  0.3502E+02
      5.978 -0.7446E-01 -0.2196E+00  0.3500E+02  0.3501E+02
      6.058 -0.2983E-01 -0.6006E-01  0.3500E+02  0.3500E+02
      6.139 -0.7338E-01 -0.2403E-01  0.3499E+02  0.3500E+02
      6.219 -0.1824E+00 -0.6391E-01  0.3498E+02  0.3499E+02
      6.300 -0.1661E+00 -0.1702E+00  0.3496E+02  0.3498E+02
      6.381  0.5148E+00 -0.1882E+00  0.3501E+02  0.3496E+02
      6.461  0.2177E+01  0.3914E+00  0.3518E+02  0.3500E+02
      6.542  0.3849E+01  0.1967E+01  0.3549E+02  0.3515E+02
      6.623  0.3895E+01  0.3723E+01  0.3581E+02  0.3545E+02
      6.703  0.2246E+01  0.3987E+01  0.3599E+02  0.3578E+02
      6.784  0.4557E+00  0.2443E+01  0.3602E+02  0.3597E+02
      6.864 -0.4831E+00  0.5538E+00  0.3598E+02  0.3602E+02
      6.945 -0.5784E+00 -0.5058E+00  0.3594E+02  0.3598E+02
      7.026  0.6082E+00 -0.4734E+00  0.3599E+02  0.3594E+02
      7.106  0.3736E+01  0.1203E+01  0.3629E+02  0.3604E+02
      7.187  0.7324E+01  0.4736E+01  0.3688E+02  0.3642E+02
      7.267  0.8054E+01  0.7895E+01  0.3753E+02  0.3705E+02
      7.348  0.5146E+01  0.7576E+01  0.3794E+02  0.3766E+02
      7.429  0.1563E+01  0.4141E+01  0.3807E+02  0.3800E+02
      7.509 -0.2054E+00  0.9011E+00  0.3805E+02  0.3807E+02
      7.590 -0.4038E+00 -0.3565E+00  0.3802E+02  0.3804E+02
      7.670 -0.1821E+00 -0.3524E+00  0.3800E+02  0.3801E+02
      7.751 -0.4900E-01 -0.1348E+00  0.3800E+02  0.3800E+02
      7.832 -0.2433E-01 -0.3664E-01  0.3800E+02  0.3800E+02
      7.912 -0.8487E-01 -0.4221E-01  0.3799E+02  0.3800E+02
      7.993 -0.2690E+00 -0.1560E+00  0.3797E+02  0.3798E+02
      8.073 -0.4318E+00 -0.3785E+00  0.3794E+02  0.3795E+02
      8.154  0.2350E+00 -0.2974E+00  0.3795E+02  0.3793E+02
      8.235  0.2816E+01  0.1194E+01  0.3818E+02  0.3803E+02
      8.315  0.6554E+01  0.4613E+01  0.3871E+02  0.3840E+02
      8.396  0.8204E+01  0.7820E+01  0.3937E+02  0.3903E+02
      8.476  0.5925E+01  0.7600E+01  0.3985E+02  0.3964E+02
      8.557  0.2152E+01  0.4119E+01  0.4002E+02  0.3997E+02
      8.638  0.4113E+00  0.7894E+00  0.4005E+02  0.4004E+02
      8.718  0.1486E+01 -0.6213E-02  0.4017E+02  0.4004E+02
      8.799  0.3455E+01  0.1502E+01  0.4045E+02  0.4016E+02
      8.879  0.3943E+01  0.3513E+01  0.4077E+02  0.4044E+02
      8.960  0.2519E+01  0.4000E+01  0.4097E+02  0.4076E+02
      9.041  0.7495E+00  0.2583E+01  0.4103E+02  0.4097E+02
      9.121 -0.1110E+00  0.7914E+00  0.4103E+02  0.4103E+02
      9.202 -0.2001E+00 -0.9981E-01  0.4101E+02  0.4103E+02
      9.282 -0.8880E-01 -0.2025E+00  0.4100E+02  0.4101E+02
      9.363 -0.2263E-01 -0.9170E-01  0.4100E+02  0.4100E+02
      9.444 -0.3754E-02 -0.2369E-01  0.4100E+02  0.4100E+02
      9.524 -0.4240E-03 -0.3976E-02  0.4100E+02  0.4100E+02
      9.605 -0.3329E-04 -0.4538E-03  0.4100E+02  0.4100E+02
      9.685 -0.1839E-05 -0.3600E-04  0.4100E+02  0.4100E+02
      9.766 -0.7204E-07 -0.2009E-05  0.4100E+02  0.4100E+02
      9.847 -0.2009E-08 -0.7947E-07  0.4100E+02  0.4100E+02
      9.927 -0.4003E-10 -0.2238E-08  0.4100E+02  0.4100E+02
     10.008 -0.5703E-12 -0.4503E-10  0.4100E+02  0.4100E+02
     10.088 -0.5510E-14 -0.6474E-12  0.4100E+02  0.4100E+02
     10.169  0.0000E+00 -0.8265E-14  0.4100E+02  0.4100E+02
     10.250  0.0000E+00  0.0000E+00  0.4100E+02  0.4100E+02
     10.330  0.0000E+00  0.0000E+00  0.4100E+02  0.4100E+02
     10.411  0.0000E+00  0.0000E+00  0.4100E+02  0.4100E+02
     10.491  0.0000E+00  0.0000E+00  0.4100E+02  0.4100E+02
     10.572  0.0000E+00  0.0000E+00  0.4100E+02  0.4100E+02
     10.653  0.0000E+00  0.0000E+00  0.4100E+02  0.4100E+02
     10.733  0.0000E+00  0.0000E+00  0.4100E+02  0.4100E+02
     10.814  0.0000E+00  0.0000E+00  0.4100E+02  0.4100E+02
     10.894  0.0000E+00  0.0000E+00  0.4100E+02  0.4100E+02
