       N       E                     dE             d eps       ncg     rms          rms(c)
DAV:   1     0.425211476075E+03    0.42521E+03   -0.21134E+04   180   0.168E+03
DAV:   2     0.325522500304E+02   -0.39266E+03   -0.37202E+03   172   0.448E+02
DAV:   3    -0.324852897173E+02   -0.65038E+02   -0.62982E+02   198   0.144E+02
DAV:   4    -0.356930728117E+02   -0.32078E+01   -0.31865E+01   200   0.362E+01
DAV:   5    -0.357653993217E+02   -0.72327E-01   -0.72207E-01   200   0.497E+00    0.127E+01
DAV:   6    -0.365779843498E+02   -0.81259E+00   -0.13017E+00   216   0.106E+01    0.493E+00
DAV:   7    -0.367127318952E+02   -0.13475E+00   -0.39710E-01   232   0.456E+00    0.198E+00
DAV:   8    -0.366939758266E+02    0.18756E-01   -0.10451E-01   192   0.139E+00    0.778E-01
DAV:   9    -0.366976874712E+02   -0.37116E-02   -0.24201E-02   184   0.722E-01    0.269E-01
DAV:  10    -0.366985190930E+02   -0.83162E-03   -0.26277E-03   224   0.380E-01    0.102E-01
DAV:  11    -0.366989656594E+02   -0.44657E-03   -0.68822E-04   168   0.174E-01    0.475E-02
DAV:  12    -0.366991840837E+02   -0.21842E-03   -0.24917E-04   151   0.942E-02    0.228E-02
DAV:  13    -0.366992540142E+02   -0.69931E-04   -0.64065E-05   104   0.393E-02
   1 F= -.36699254E+02 E0= -.36684033E+02  d E =-.456642E-01  mag=     0.4133
