       N       E                     dE             d eps       ncg     rms          rms(c)
DAV:   1     0.713570605953E+04    0.71357E+04   -0.28630E+05 34400   0.143E+03
DAV:   2    -0.728986525553E+02   -0.72086E+04   -0.69067E+04 33600   0.519E+02
DAV:   3    -0.660953166793E+03   -0.58805E+03   -0.53705E+03 39440   0.135E+02
DAV:   4    -0.696149826757E+03   -0.35197E+02   -0.33809E+02 41320   0.269E+01
DAV:   5    -0.697712985465E+03   -0.15632E+01   -0.15508E+01 43880   0.501E+00    0.407E+01
DAV:   6    -0.672766986963E+03    0.24946E+02   -0.53344E+01 38980   0.173E+01    0.188E+01
DAV:   7    -0.671678411117E+03    0.10886E+01   -0.19563E+01 40980   0.128E+01    0.101E+01
DAV:   8    -0.670970329134E+03    0.70808E+00   -0.90019E+00 43040   0.910E+00    0.424E+00
DAV:   9    -0.670722485464E+03    0.24784E+00   -0.20765E+00 44040   0.493E+00    0.182E+00
DAV:  10    -0.670738900438E+03   -0.16415E-01   -0.33072E-01 42460   0.161E+00    0.103E+00
DAV:  11    -0.670728043106E+03    0.10857E-01   -0.92296E-02 42960   0.107E+00    0.305E-01
DAV:  12    -0.670729872965E+03   -0.18299E-02   -0.16763E-02 40260   0.386E-01    0.132E-01
DAV:  13    -0.670729556526E+03    0.31644E-03   -0.22164E-03 41120   0.161E-01    0.551E-02
DAV:  14    -0.670729523137E+03    0.33389E-04   -0.40349E-04 42460   0.586E-02    0.328E-02
DAV:  15    -0.670729499738E+03    0.23399E-04   -0.13539E-04 42020   0.334E-02    0.166E-02
DAV:  16    -0.670729489367E+03    0.10371E-04   -0.23538E-05 29000   0.174E-02    0.790E-03
DAV:  17    -0.670729483642E+03    0.57249E-05   -0.10110E-05 22660   0.871E-03
   1 F= -.67072948E+03 E0= -.67074383E+03  d E =-.670729E+03  mag=     0.0005
       N       E                     dE             d eps       ncg     rms          rms(c)
DAV:   1    -0.669597007359E+03    0.11325E+01   -0.76884E+01 33600   0.222E+01    0.186E+00
DAV:   2    -0.670969504973E+03   -0.13725E+01   -0.14954E+01 33600   0.792E+00    0.808E-01
DAV:   3    -0.670965584463E+03    0.39205E-02   -0.21754E-01 42400   0.127E+00    0.462E-01
DAV:   4    -0.670962388567E+03    0.31959E-02   -0.20751E-02 41000   0.416E-01    0.341E-01
DAV:   5    -0.670961132879E+03    0.12557E-02   -0.11957E-02 39960   0.302E-01    0.135E-01
DAV:   6    -0.670961210243E+03   -0.77364E-04   -0.22758E-03 42180   0.158E-01    0.680E-02
DAV:   7    -0.670961158813E+03    0.51430E-04   -0.47319E-04 41320   0.751E-02    0.301E-02
DAV:   8    -0.670961142310E+03    0.16504E-04   -0.16047E-04 40360   0.384E-02    0.920E-03
DAV:   9    -0.670961142083E+03    0.22611E-06   -0.26266E-05 29140   0.160E-02
   2 F= -.67096114E+03 E0= -.67097458E+03  d E =-.231658E+00  mag=     0.0000
       N       E                     dE             d eps       ncg     rms          rms(c)
DAV:   1    -0.670958018638E+03    0.31237E-02   -0.21144E-01 35060   0.116E+00    0.988E-02
DAV:   2    -0.670961762806E+03   -0.37442E-02   -0.40799E-02 35200   0.415E-01    0.441E-02
DAV:   3    -0.670961749456E+03    0.13350E-04   -0.63093E-04 42380   0.742E-02    0.256E-02
DAV:   4    -0.670961739106E+03    0.10350E-04   -0.67009E-05 36860   0.247E-02    0.182E-02
DAV:   5    -0.670961736525E+03    0.25808E-05   -0.35209E-05 32780   0.148E-02
   3 F= -.67096174E+03 E0= -.67097514E+03  d E =-.232253E+00  mag=     0.0000
       N       E                     dE             d eps       ncg     rms          rms(c)
DAV:   1    -0.670848779278E+03    0.11296E+00   -0.73241E+00 33600   0.688E+00    0.604E-01
DAV:   2    -0.670979035484E+03   -0.13026E+00   -0.14239E+00 33640   0.252E+00    0.266E-01
DAV:   3    -0.670979183705E+03   -0.14822E-03   -0.22794E-02 43380   0.489E-01    0.154E-01
DAV:   4    -0.670978745805E+03    0.43790E-03   -0.22865E-03 41300   0.154E-01    0.106E-01
DAV:   5    -0.670978698801E+03    0.47004E-04   -0.13472E-03 39480   0.802E-02    0.443E-02
DAV:   6    -0.670978686495E+03    0.12306E-04   -0.22941E-04 44020   0.553E-02    0.198E-02
DAV:   7    -0.670978679701E+03    0.67944E-05   -0.59028E-05 34940   0.219E-02
   4 F= -.67097868E+03 E0= -.67099216E+03  d E =-.169432E-01  mag=     0.0000
       N       E                     dE             d eps       ncg     rms          rms(c)
DAV:   1    -0.670977463879E+03    0.12226E-02   -0.81104E-02 34720   0.724E-01    0.626E-02
DAV:   2    -0.670978902311E+03   -0.14384E-02   -0.15704E-02 35180   0.264E-01    0.269E-02
DAV:   3    -0.670978905126E+03   -0.28150E-05   -0.23432E-04 43340   0.483E-02    0.157E-02
DAV:   4    -0.670978900650E+03    0.44755E-05   -0.22332E-05 31520   0.155E-02
   5 F= -.67097890E+03 E0= -.67099238E+03  d E =-.171641E-01  mag=     0.0000
       N       E                     dE             d eps       ncg     rms          rms(c)
DAV:   1    -0.670975727111E+03    0.31780E-02   -0.38347E-01 34320   0.135E+00    0.111E-01
DAV:   2    -0.670980079186E+03   -0.43521E-02   -0.47417E-02 34920   0.468E-01    0.469E-02
DAV:   3    -0.670980092005E+03   -0.12820E-04   -0.69801E-04 43480   0.838E-02    0.287E-02
DAV:   4    -0.670980077524E+03    0.14482E-04   -0.70598E-05 36320   0.272E-02    0.196E-02
DAV:   5    -0.670980076602E+03    0.92199E-06   -0.42472E-05 33220   0.160E-02
   6 F= -.67098008E+03 E0= -.67099359E+03  d E =-.117595E-02  mag=     0.0000
       N       E                     dE             d eps       ncg     rms          rms(c)
DAV:   1    -0.670979184269E+03    0.89325E-03   -0.92280E-02 34440   0.665E-01    0.558E-02
DAV:   2    -0.670980229630E+03   -0.10454E-02   -0.11446E-02 35160   0.228E-01    0.237E-02
DAV:   3    -0.670980233864E+03   -0.42335E-05   -0.16149E-04 43720   0.391E-02    0.149E-02
DAV:   4    -0.670980230521E+03    0.33427E-05   -0.15064E-05 28400   0.136E-02
   7 F= -.67098023E+03 E0= -.67099376E+03  d E =-.132987E-02  mag=     0.0000
       N       E                     dE             d eps       ncg     rms          rms(c)
DAV:   1    -0.670979376654E+03    0.85721E-03   -0.16107E-01 34560   0.768E-01    0.586E-02
DAV:   2    -0.670980628580E+03   -0.12519E-02   -0.13555E-02 34880   0.245E-01    0.268E-02
DAV:   3    -0.670980624233E+03    0.43473E-05   -0.17195E-04 43500   0.353E-02    0.170E-02
DAV:   4    -0.670980619695E+03    0.45371E-05   -0.25009E-05 32220   0.171E-02
   8 F= -.67098062E+03 E0= -.67099416E+03  d E =-.389174E-03  mag=     0.0000
       N       E                     dE             d eps       ncg     rms          rms(c)
DAV:   1    -0.670979320284E+03    0.13039E-02   -0.18537E-01 34320   0.824E-01    0.634E-02
DAV:   2    -0.670980756566E+03   -0.14363E-02   -0.15589E-02 34820   0.260E-01    0.283E-02
DAV:   3    -0.670980752351E+03    0.42150E-05   -0.17672E-04 42700   0.308E-02    0.179E-02
DAV:   4    -0.670980749122E+03    0.32287E-05   -0.24909E-05 32480   0.176E-02
   9 F= -.67098075E+03 E0= -.67099429E+03  d E =-.518601E-03  mag=     0.0000
       N       E                     dE             d eps       ncg     rms          rms(c)
DAV:   1    -0.670979924826E+03    0.82752E-03   -0.12988E-01 34320   0.669E-01    0.518E-02
DAV:   2    -0.670980864510E+03   -0.93968E-03   -0.10173E-02 34800   0.214E-01    0.248E-02
DAV:   3    -0.670980861593E+03    0.29167E-05   -0.13545E-04 43720   0.350E-02    0.160E-02
DAV:   4    -0.670980857207E+03    0.43863E-05   -0.19152E-05 29660   0.147E-02
  10 F= -.67098086E+03 E0= -.67099440E+03  d E =-.108085E-03  mag=     0.0000
