       N       E                     dE             d eps       ncg     rms          rms(c)
DAV:   1     0.713717761430E+04    0.71372E+04   -0.28629E+05 17200   0.143E+03
DAV:   2    -0.734121982659E+02   -0.72106E+04   -0.69072E+04 16800   0.519E+02
DAV:   3    -0.661913743581E+03   -0.58850E+03   -0.53823E+03 19720   0.135E+02
DAV:   4    -0.696957983474E+03   -0.35044E+02   -0.33719E+02 20700   0.269E+01
DAV:   5    -0.698437153088E+03   -0.14792E+01   -0.14681E+01 21960   0.490E+00    0.406E+01
DAV:   6    -0.673485863915E+03    0.24951E+02   -0.54496E+01 19320   0.174E+01    0.189E+01
DAV:   7    -0.672068765985E+03    0.14171E+01   -0.19653E+01 20320   0.127E+01    0.990E+00
DAV:   8    -0.671415087348E+03    0.65368E+00   -0.89166E+00 21140   0.902E+00    0.377E+00
DAV:   9    -0.671258947775E+03    0.15614E+00   -0.17152E+00 21220   0.465E+00    0.180E+00
DAV:  10    -0.671274404487E+03   -0.15457E-01   -0.29539E-01 21240   0.145E+00    0.920E-01
DAV:  11    -0.671266935190E+03    0.74693E-02   -0.72680E-02 21480   0.984E-01    0.286E-01
DAV:  12    -0.671268670400E+03   -0.17352E-02   -0.14548E-02 20700   0.379E-01    0.125E-01
DAV:  13    -0.671268405201E+03    0.26520E-03   -0.20526E-03 20760   0.154E-01    0.464E-02
DAV:  14    -0.671268350992E+03    0.54208E-04   -0.37762E-04 20980   0.545E-02    0.275E-02
DAV:  15    -0.671268315206E+03    0.35786E-04   -0.11662E-04 21160   0.301E-02    0.149E-02
DAV:  16    -0.671268299263E+03    0.15943E-04   -0.18972E-05 13400   0.146E-02    0.567E-03
DAV:  17    -0.671268293726E+03    0.55369E-05   -0.63883E-06 10880   0.700E-03
   1 F= -.67126829E+03 E0= -.67127388E+03  d E =-.671268E+03  mag=    -0.0000
       N       E                     dE             d eps       ncg     rms          rms(c)
DAV:   1    -0.670393507734E+03    0.87479E+00   -0.86667E+01 16800   0.211E+01    0.169E+00
DAV:   2    -0.671522148901E+03   -0.11286E+01   -0.12263E+01 16800   0.720E+00    0.743E-01
DAV:   3    -0.671520614872E+03    0.15340E-02   -0.16607E-01 21360   0.108E+00    0.444E-01
DAV:   4    -0.671518026416E+03    0.25885E-02   -0.16195E-02 20480   0.376E-01    0.305E-01
DAV:   5    -0.671517132421E+03    0.89399E-03   -0.95446E-03 20040   0.274E-01    0.103E-01
DAV:   6    -0.671517148206E+03   -0.15785E-04   -0.17567E-03 21180   0.140E-01    0.562E-02
DAV:   7    -0.671517080319E+03    0.67888E-04   -0.42471E-04 20680   0.650E-02    0.243E-02
DAV:   8    -0.671517072082E+03    0.82372E-05   -0.10451E-04 20200   0.320E-02    0.919E-03
DAV:   9    -0.671517071817E+03    0.26474E-06   -0.18064E-05 12320   0.144E-02
   2 F= -.67151707E+03 E0= -.67152335E+03  d E =-.248778E+00  mag=     0.0000
       N       E                     dE             d eps       ncg     rms          rms(c)
DAV:   1    -0.671486911761E+03    0.30160E-01   -0.28136E+00 16820   0.381E+00    0.306E-01
DAV:   2    -0.671523321104E+03   -0.36409E-01   -0.39572E-01 17240   0.130E+00    0.136E-01
DAV:   3    -0.671523260634E+03    0.60469E-04   -0.55399E-03 21420   0.211E-01    0.810E-02
DAV:   4    -0.671523173950E+03    0.86684E-04   -0.56060E-04 20520   0.696E-02    0.559E-02
DAV:   5    -0.671523148264E+03    0.25686E-04   -0.31229E-04 20060   0.473E-02    0.202E-02
DAV:   6    -0.671523147565E+03    0.69890E-06   -0.56202E-05 18420   0.263E-02
   3 F= -.67152315E+03 E0= -.67152937E+03  d E =-.254854E+00  mag=     0.0000
       N       E                     dE             d eps       ncg     rms          rms(c)
DAV:   1    -0.671391436524E+03    0.13171E+00   -0.19950E+01 16800   0.894E+00    0.694E-01
DAV:   2    -0.671571346936E+03   -0.17991E+00   -0.19507E+00 16800   0.297E+00    0.329E-01
DAV:   3    -0.671571025758E+03    0.32118E-03   -0.28798E-02 21860   0.516E-01    0.205E-01
DAV:   4    -0.671570340581E+03    0.68518E-03   -0.33437E-03 20820   0.184E-01    0.140E-01
DAV:   5    -0.671570177799E+03    0.16278E-03   -0.22546E-03 19700   0.105E-01    0.503E-02
DAV:   6    -0.671570149630E+03    0.28168E-04   -0.33863E-04 21800   0.657E-02    0.244E-02
DAV:   7    -0.671570137581E+03    0.12049E-04   -0.90160E-05 19420   0.257E-02    0.772E-03
DAV:   8    -0.671570137407E+03    0.17385E-06   -0.11497E-05 12200   0.111E-02
   4 F= -.67157014E+03 E0= -.67157611E+03  d E =-.469898E-01  mag=    -0.0000
       N       E                     dE             d eps       ncg     rms          rms(c)
DAV:   1    -0.671543097732E+03    0.27040E-01   -0.35168E+00 16800   0.375E+00    0.291E-01
DAV:   2    -0.671574888161E+03   -0.31790E-01   -0.34465E-01 17040   0.125E+00    0.138E-01
DAV:   3    -0.671574835443E+03    0.52718E-04   -0.50065E-03 21820   0.213E-01    0.859E-02
DAV:   4    -0.671574715119E+03    0.12032E-03   -0.57850E-04 20840   0.765E-02    0.589E-02
DAV:   5    -0.671574685331E+03    0.29788E-04   -0.40605E-04 19720   0.441E-02    0.207E-02
DAV:   6    -0.671574679820E+03    0.55105E-05   -0.56304E-05 17700   0.273E-02
   5 F= -.67157468E+03 E0= -.67158052E+03  d E =-.515323E-01  mag=    -0.0000
       N       E                     dE             d eps       ncg     rms          rms(c)
DAV:   1    -0.671532143549E+03    0.42542E-01   -0.18747E+01 16800   0.661E+00    0.472E-01
DAV:   2    -0.671606167155E+03   -0.74024E-01   -0.81154E-01 16840   0.190E+00    0.240E-01
DAV:   3    -0.671605636029E+03    0.53113E-03   -0.10032E-02 21980   0.259E-01    0.151E-01
DAV:   4    -0.671605241111E+03    0.39492E-03   -0.16840E-03 21040   0.129E-01    0.890E-02
DAV:   5    -0.671605113860E+03    0.12725E-03   -0.81810E-04 20340   0.823E-02    0.240E-02
DAV:   6    -0.671605107800E+03    0.60603E-05   -0.10838E-04 20240   0.332E-02    0.153E-02
DAV:   7    -0.671605102816E+03    0.49837E-05   -0.31190E-05 16020   0.183E-02
   6 F= -.67160510E+03 E0= -.67161087E+03  d E =-.304230E-01  mag=     0.0000
       N       E                     dE             d eps       ncg     rms          rms(c)
DAV:   1    -0.671507056847E+03    0.98051E-01   -0.29026E+01 16800   0.823E+00    0.589E-01
DAV:   2    -0.671621507335E+03   -0.11445E+00   -0.12558E+00 16800   0.236E+00    0.301E-01
DAV:   3    -0.671620636205E+03    0.87113E-03   -0.15642E-02 21880   0.326E-01    0.189E-01
DAV:   4    -0.671620024811E+03    0.61139E-03   -0.27098E-03 20960   0.158E-01    0.109E-01
DAV:   5    -0.671619834646E+03    0.19017E-03   -0.11757E-03 20580   0.105E-01    0.305E-02
DAV:   6    -0.671619827242E+03    0.74036E-05   -0.16912E-04 21140   0.418E-02    0.189E-02
DAV:   7    -0.671619820087E+03    0.71552E-05   -0.46391E-05 17160   0.224E-02
   7 F= -.67161982E+03 E0= -.67162552E+03  d E =-.451403E-01  mag=     0.0000
       N       E                     dE             d eps       ncg     rms          rms(c)
DAV:   1    -0.671556538717E+03    0.63289E-01   -0.21169E+01 16800   0.699E+00    0.502E-01
DAV:   2    -0.671639128367E+03   -0.82590E-01   -0.90463E-01 16800   0.205E+00    0.270E-01
DAV:   3    -0.671638567708E+03    0.56066E-03   -0.13457E-02 22060   0.356E-01    0.173E-01
DAV:   4    -0.671637979987E+03    0.58772E-03   -0.20920E-03 20820   0.140E-01    0.104E-01
DAV:   5    -0.671637833641E+03    0.14635E-03   -0.12265E-03 19720   0.763E-02    0.262E-02
DAV:   6    -0.671637821388E+03    0.12253E-04   -0.11785E-04 20880   0.367E-02    0.160E-02
DAV:   7    -0.671637815814E+03    0.55748E-05   -0.45308E-05 17060   0.183E-02
   8 F= -.67163782E+03 E0= -.67164405E+03  d E =-.179957E-01  mag=     0.0000
       N       E                     dE             d eps       ncg     rms          rms(c)
DAV:   1    -0.671632882767E+03    0.49386E-02   -0.15107E+00 16920   0.187E+00    0.135E-01
DAV:   2    -0.671638808416E+03   -0.59256E-02   -0.64798E-02 17140   0.549E-01    0.734E-02
DAV:   3    -0.671638768040E+03    0.40376E-04   -0.98119E-04 22160   0.962E-02    0.474E-02
DAV:   4    -0.671638724866E+03    0.43175E-04   -0.15340E-04 20860   0.381E-02    0.284E-02
DAV:   5    -0.671638715158E+03    0.97076E-05   -0.88632E-05 16740   0.203E-02
   9 F= -.67163872E+03 E0= -.67164507E+03  d E =-.188951E-01  mag=     0.0000
       N       E                     dE             d eps       ncg     rms          rms(c)
DAV:   1    -0.671630065908E+03    0.86590E-02   -0.15492E+00 16800   0.225E+00    0.164E-01
DAV:   2    -0.671640533166E+03   -0.10467E-01   -0.11266E-01 16920   0.707E-01    0.817E-02
DAV:   3    -0.671640479994E+03    0.53172E-04   -0.12538E-03 21440   0.809E-02    0.521E-02
DAV:   4    -0.671640445691E+03    0.34302E-04   -0.19411E-04 20640   0.446E-02    0.312E-02
DAV:   5    -0.671640432083E+03    0.13608E-04   -0.96553E-05 17980   0.306E-02    0.852E-03
DAV:   6    -0.671640431776E+03    0.30728E-06   -0.15372E-05 12880   0.123E-02
  10 F= -.67164043E+03 E0= -.67164681E+03  d E =-.171662E-02  mag=     0.0000
       N       E                     dE             d eps       ncg     rms          rms(c)
DAV:   1    -0.671640183268E+03    0.24881E-03   -0.42440E-02 17240   0.374E-01    0.279E-02
DAV:   2    -0.671640473252E+03   -0.28998E-03   -0.31215E-03 17520   0.118E-01    0.141E-02
DAV:   3    -0.671640471966E+03    0.12854E-05   -0.34621E-05 17780   0.140E-02
  11 F= -.67164047E+03 E0= -.67164685E+03  d E =-.175681E-02  mag=    -0.0000
       N       E                     dE             d eps       ncg     rms          rms(c)
DAV:   1    -0.671636668411E+03    0.38048E-02   -0.44079E-01 16800   0.137E+00    0.108E-01
DAV:   2    -0.671640988344E+03   -0.43199E-02   -0.46708E-02 17080   0.453E-01    0.487E-02
DAV:   3    -0.671640976352E+03    0.11992E-04   -0.51343E-04 21460   0.534E-02    0.303E-02
DAV:   4    -0.671640967323E+03    0.90290E-05   -0.70918E-05 18440   0.269E-02
  12 F= -.67164097E+03 E0= -.67164728E+03  d E =-.495357E-03  mag=     0.0000
       N       E                     dE             d eps       ncg     rms          rms(c)
DAV:   1    -0.671640904505E+03    0.71847E-04   -0.66716E-03 17320   0.170E-01    0.160E-02
DAV:   2    -0.671640968100E+03   -0.63595E-04   -0.71031E-04 17780   0.551E-02    0.806E-03
DAV:   3    -0.671640968198E+03   -0.97672E-07   -0.82580E-06 13880   0.857E-03
  13 F= -.67164097E+03 E0= -.67164726E+03  d E =-.496231E-03  mag=    -0.0000
       N       E                     dE             d eps       ncg     rms          rms(c)
DAV:   1    -0.671639669629E+03    0.12985E-02   -0.12580E-01 16880   0.771E-01    0.623E-02
DAV:   2    -0.671641081468E+03   -0.14118E-02   -0.15293E-02 17200   0.261E-01    0.265E-02
DAV:   3    -0.671641084081E+03   -0.26121E-05   -0.16767E-04 22040   0.350E-02    0.167E-02
DAV:   4    -0.671641080645E+03    0.34356E-05   -0.18057E-05 15000   0.156E-02
  14 F= -.67164108E+03 E0= -.67164741E+03  d E =-.112447E-03  mag=     0.0000
