       N       E                     dE             d eps       ncg     rms          rms(c)
DAV:   1     0.713744780980E+04    0.71374E+04   -0.28631E+05 17200   0.143E+03
DAV:   2    -0.734102144092E+02   -0.72109E+04   -0.69073E+04 16800   0.519E+02
DAV:   3    -0.661584005224E+03   -0.58817E+03   -0.53745E+03 19760   0.135E+02
DAV:   4    -0.696920151707E+03   -0.35336E+02   -0.33977E+02 20780   0.270E+01
DAV:   5    -0.698436550895E+03   -0.15164E+01   -0.15052E+01 22040   0.496E+00    0.406E+01
DAV:   6    -0.673489660338E+03    0.24947E+02   -0.54571E+01 19400   0.174E+01    0.189E+01
DAV:   7    -0.672071007659E+03    0.14187E+01   -0.19618E+01 20280   0.127E+01    0.990E+00
DAV:   8    -0.671415497153E+03    0.65551E+00   -0.89143E+00 21160   0.902E+00    0.378E+00
DAV:   9    -0.671258568903E+03    0.15693E+00   -0.17180E+00 21280   0.465E+00    0.180E+00
DAV:  10    -0.671274423622E+03   -0.15855E-01   -0.29762E-01 21260   0.144E+00    0.919E-01
DAV:  11    -0.671266953764E+03    0.74699E-02   -0.72802E-02 21620   0.982E-01    0.285E-01
DAV:  12    -0.671268673291E+03   -0.17195E-02   -0.14518E-02 20740   0.380E-01    0.124E-01
DAV:  13    -0.671268406139E+03    0.26715E-03   -0.20182E-03 20740   0.153E-01    0.462E-02
DAV:  14    -0.671268351208E+03    0.54931E-04   -0.37397E-04 20880   0.546E-02    0.274E-02
DAV:  15    -0.671268315497E+03    0.35711E-04   -0.11715E-04 21000   0.299E-02    0.149E-02
DAV:  16    -0.671268299281E+03    0.16217E-04   -0.18857E-05 13460   0.145E-02    0.565E-03
DAV:  17    -0.671268293728E+03    0.55522E-05   -0.63621E-06 10900   0.699E-03
   1 F= -.67126829E+03 E0= -.67127388E+03  d E =-.671268E+03  mag=    -0.0000
       N       E                     dE             d eps       ncg     rms          rms(c)
DAV:   1    -0.670393205505E+03    0.87509E+00   -0.86647E+01 16800   0.211E+01    0.169E+00
DAV:   2    -0.671522155406E+03   -0.11289E+01   -0.12266E+01 16800   0.720E+00    0.743E-01
DAV:   3    -0.671520629326E+03    0.15261E-02   -0.16618E-01 21360   0.108E+00    0.444E-01
DAV:   4    -0.671518029935E+03    0.25994E-02   -0.16177E-02 20540   0.377E-01    0.305E-01
DAV:   5    -0.671517133582E+03    0.89635E-03   -0.95537E-03 20020   0.274E-01    0.104E-01
DAV:   6    -0.671517148717E+03   -0.15135E-04   -0.17596E-03 21160   0.140E-01    0.563E-02
DAV:   7    -0.671517080403E+03    0.68314E-04   -0.42545E-04 20760   0.651E-02    0.244E-02
DAV:   8    -0.671517072081E+03    0.83222E-05   -0.10476E-04 20260   0.321E-02    0.920E-03
DAV:   9    -0.671517071809E+03    0.27183E-06   -0.18074E-05 12240   0.145E-02
   2 F= -.67151707E+03 E0= -.67152335E+03  d E =-.248778E+00  mag=     0.0000
       N       E                     dE             d eps       ncg     rms          rms(c)
DAV:   1    -0.671486905070E+03    0.30167E-01   -0.28132E+00 16880   0.381E+00    0.306E-01
DAV:   2    -0.671523321191E+03   -0.36416E-01   -0.39579E-01 17160   0.130E+00    0.136E-01
DAV:   3    -0.671523260554E+03    0.60637E-04   -0.55400E-03 21420   0.211E-01    0.810E-02
DAV:   4    -0.671523173741E+03    0.86813E-04   -0.56091E-04 20480   0.697E-02    0.559E-02
DAV:   5    -0.671523148046E+03    0.25695E-04   -0.31271E-04 20000   0.473E-02    0.202E-02
DAV:   6    -0.671523147336E+03    0.71015E-06   -0.56244E-05 18340   0.264E-02
   3 F= -.67152315E+03 E0= -.67152937E+03  d E =-.254854E+00  mag=     0.0000
       N       E                     dE             d eps       ncg     rms          rms(c)
DAV:   1    -0.671391420865E+03    0.13173E+00   -0.19950E+01 16800   0.894E+00    0.694E-01
DAV:   2    -0.671571348121E+03   -0.17993E+00   -0.19509E+00 16800   0.297E+00    0.329E-01
DAV:   3    -0.671571026183E+03    0.32194E-03   -0.28802E-02 21900   0.516E-01    0.205E-01
DAV:   4    -0.671570340614E+03    0.68557E-03   -0.33444E-03 20840   0.184E-01    0.140E-01
DAV:   5    -0.671570177826E+03    0.16279E-03   -0.22556E-03 19740   0.105E-01    0.503E-02
DAV:   6    -0.671570149635E+03    0.28191E-04   -0.33853E-04 21800   0.657E-02    0.244E-02
DAV:   7    -0.671570137596E+03    0.12039E-04   -0.90141E-05 19380   0.257E-02    0.772E-03
DAV:   8    -0.671570137421E+03    0.17503E-06   -0.11503E-05 12120   0.111E-02
   4 F= -.67157014E+03 E0= -.67157611E+03  d E =-.469901E-01  mag=    -0.0000
       N       E                     dE             d eps       ncg     rms          rms(c)
DAV:   1    -0.671543101499E+03    0.27036E-01   -0.35163E+00 16800   0.375E+00    0.291E-01
DAV:   2    -0.671574888078E+03   -0.31787E-01   -0.34461E-01 17080   0.125E+00    0.138E-01
DAV:   3    -0.671574835283E+03    0.52795E-04   -0.50063E-03 21840   0.213E-01    0.859E-02
DAV:   4    -0.671574714922E+03    0.12036E-03   -0.57848E-04 20860   0.766E-02    0.589E-02
DAV:   5    -0.671574685142E+03    0.29781E-04   -0.40611E-04 19760   0.441E-02    0.207E-02
DAV:   6    -0.671574679629E+03    0.55121E-05   -0.56282E-05 17700   0.273E-02
   5 F= -.67157468E+03 E0= -.67158052E+03  d E =-.515323E-01  mag=    -0.0000
       N       E                     dE             d eps       ncg     rms          rms(c)
DAV:   1    -0.671532147003E+03    0.42538E-01   -0.18746E+01 16800   0.661E+00    0.472E-01
DAV:   2    -0.671606166470E+03   -0.74019E-01   -0.81149E-01 16840   0.190E+00    0.240E-01
DAV:   3    -0.671605635290E+03    0.53118E-03   -0.10032E-02 21980   0.259E-01    0.151E-01
DAV:   4    -0.671605240411E+03    0.39488E-03   -0.16837E-03 21040   0.129E-01    0.890E-02
DAV:   5    -0.671605113179E+03    0.12723E-03   -0.81811E-04 20360   0.823E-02    0.240E-02
DAV:   6    -0.671605107128E+03    0.60505E-05   -0.10850E-04 20300   0.332E-02    0.153E-02
DAV:   7    -0.671605102139E+03    0.49894E-05   -0.31272E-05 16040   0.184E-02
   6 F= -.67160510E+03 E0= -.67161087E+03  d E =-.304225E-01  mag=    -0.0000
       N       E                     dE             d eps       ncg     rms          rms(c)
DAV:   1    -0.671506943311E+03    0.98164E-01   -0.29055E+01 16800   0.823E+00    0.590E-01
DAV:   2    -0.671621510250E+03   -0.11457E+00   -0.12571E+00 16800   0.236E+00    0.301E-01
DAV:   3    -0.671620638043E+03    0.87221E-03   -0.15658E-02 21860   0.326E-01    0.189E-01
DAV:   4    -0.671620026084E+03    0.61196E-03   -0.27123E-03 20960   0.158E-01    0.109E-01
DAV:   5    -0.671619835742E+03    0.19034E-03   -0.11769E-03 20560   0.105E-01    0.305E-02
DAV:   6    -0.671619828336E+03    0.74058E-05   -0.16936E-04 21160   0.418E-02    0.190E-02
DAV:   7    -0.671619821176E+03    0.71595E-05   -0.46420E-05 17160   0.224E-02
   7 F= -.67161982E+03 E0= -.67162552E+03  d E =-.451415E-01  mag=    -0.0000
       N       E                     dE             d eps       ncg     rms          rms(c)
DAV:   1    -0.671556487516E+03    0.63341E-01   -0.21196E+01 16800   0.699E+00    0.502E-01
DAV:   2    -0.671639134831E+03   -0.82647E-01   -0.90527E-01 16800   0.205E+00    0.270E-01
DAV:   3    -0.671638573085E+03    0.56175E-03   -0.13466E-02 22060   0.356E-01    0.173E-01
DAV:   4    -0.671637984651E+03    0.58843E-03   -0.20939E-03 20800   0.140E-01    0.105E-01
DAV:   5    -0.671637838147E+03    0.14650E-03   -0.12274E-03 19720   0.764E-02    0.262E-02
DAV:   6    -0.671637825872E+03    0.12275E-04   -0.11797E-04 20920   0.367E-02    0.160E-02
DAV:   7    -0.671637820286E+03    0.55862E-05   -0.45374E-05 17040   0.183E-02
   8 F= -.67163782E+03 E0= -.67164405E+03  d E =-.179991E-01  mag=    -0.0000
       N       E                     dE             d eps       ncg     rms          rms(c)
DAV:   1    -0.671632896482E+03    0.49294E-02   -0.15087E+00 16920   0.187E+00    0.135E-01
DAV:   2    -0.671638810855E+03   -0.59144E-02   -0.64675E-02 17180   0.548E-01    0.733E-02
DAV:   3    -0.671638770504E+03    0.40351E-04   -0.97928E-04 22160   0.961E-02    0.473E-02
DAV:   4    -0.671638727391E+03    0.43113E-04   -0.15319E-04 20880   0.381E-02    0.284E-02
DAV:   5    -0.671638717695E+03    0.96968E-05   -0.88489E-05 16760   0.203E-02
   9 F= -.67163872E+03 E0= -.67164508E+03  d E =-.188965E-01  mag=    -0.0000
       N       E                     dE             d eps       ncg     rms          rms(c)
DAV:   1    -0.671630062295E+03    0.86651E-02   -0.15457E+00 16800   0.225E+00    0.164E-01
DAV:   2    -0.671640533930E+03   -0.10472E-01   -0.11271E-01 17000   0.707E-01    0.816E-02
DAV:   3    -0.671640481045E+03    0.52885E-04   -0.12542E-03 21440   0.809E-02    0.521E-02
DAV:   4    -0.671640446861E+03    0.34184E-04   -0.19386E-04 20700   0.446E-02    0.312E-02
DAV:   5    -0.671640433269E+03    0.13592E-04   -0.96487E-05 17940   0.306E-02    0.852E-03
DAV:   6    -0.671640432967E+03    0.30267E-06   -0.15396E-05 12880   0.123E-02
  10 F= -.67164043E+03 E0= -.67164681E+03  d E =-.171527E-02  mag=     0.0000
       N       E                     dE             d eps       ncg     rms          rms(c)
DAV:   1    -0.671640185771E+03    0.24750E-03   -0.42097E-02 17200   0.373E-01    0.278E-02
DAV:   2    -0.671640474161E+03   -0.28839E-03   -0.31044E-03 17520   0.117E-01    0.140E-02
DAV:   3    -0.671640472890E+03    0.12711E-05   -0.34400E-05 17760   0.139E-02
  11 F= -.67164047E+03 E0= -.67164685E+03  d E =-.175519E-02  mag=     0.0000
       N       E                     dE             d eps       ncg     rms          rms(c)
DAV:   1    -0.671636672009E+03    0.38022E-02   -0.43944E-01 16800   0.137E+00    0.108E-01
DAV:   2    -0.671640988349E+03   -0.43163E-02   -0.46669E-02 17060   0.453E-01    0.487E-02
DAV:   3    -0.671640976475E+03    0.11874E-04   -0.51299E-04 21520   0.533E-02    0.302E-02
DAV:   4    -0.671640967473E+03    0.90016E-05   -0.70883E-05 18340   0.269E-02
  12 F= -.67164097E+03 E0= -.67164728E+03  d E =-.494583E-03  mag=     0.0000
       N       E                     dE             d eps       ncg     rms          rms(c)
DAV:   1    -0.671640905152E+03    0.71323E-04   -0.66065E-03 17360   0.169E-01    0.159E-02
DAV:   2    -0.671640968250E+03   -0.63098E-04   -0.70495E-04 17760   0.549E-02    0.803E-03
DAV:   3    -0.671640968349E+03   -0.99099E-07   -0.81740E-06 13820   0.851E-03
  13 F= -.67164097E+03 E0= -.67164727E+03  d E =-.495460E-03  mag=     0.0000
       N       E                     dE             d eps       ncg     rms          rms(c)
DAV:   1    -0.671639668571E+03    0.12997E-02   -0.12542E-01 16960   0.771E-01    0.624E-02
DAV:   2    -0.671641081308E+03   -0.14127E-02   -0.15304E-02 17220   0.261E-01    0.265E-02
DAV:   3    -0.671641084000E+03   -0.26919E-05   -0.16774E-04 22040   0.350E-02    0.167E-02
DAV:   4    -0.671641080581E+03    0.34191E-05   -0.18035E-05 15000   0.156E-02
  14 F= -.67164108E+03 E0= -.67164741E+03  d E =-.112232E-03  mag=     0.0000
