       N       E                     dE             d eps       ncg     rms          rms(c)
DAV:   1     0.713636617219E+04    0.71364E+04   -0.28630E+05 34400   0.143E+03
DAV:   2    -0.731441931259E+02   -0.72095E+04   -0.69077E+04 33600   0.519E+02
DAV:   3    -0.661418939837E+03   -0.58827E+03   -0.53747E+03 39640   0.135E+02
DAV:   4    -0.696447137023E+03   -0.35028E+02   -0.33657E+02 41300   0.268E+01
DAV:   5    -0.697995659503E+03   -0.15485E+01   -0.15367E+01 44180   0.498E+00    0.407E+01
DAV:   6    -0.673212143562E+03    0.24784E+02   -0.57228E+01 39220   0.185E+01    0.191E+01
DAV:   7    -0.672331714203E+03    0.88043E+00   -0.22988E+01 42360   0.147E+01    0.109E+01
DAV:   8    -0.670952510819E+03    0.13792E+01   -0.11304E+01 43540   0.917E+00    0.509E+00
DAV:   9    -0.670692356474E+03    0.26015E+00   -0.27860E+00 43660   0.512E+00    0.188E+00
DAV:  10    -0.670714735549E+03   -0.22379E-01   -0.40268E-01 42360   0.179E+00    0.111E+00
DAV:  11    -0.670704064333E+03    0.10671E-01   -0.10584E-01 41820   0.111E+00    0.358E-01
DAV:  12    -0.670706418348E+03   -0.23540E-02   -0.22140E-02 40020   0.428E-01    0.158E-01
DAV:  13    -0.670706020278E+03    0.39807E-03   -0.30667E-03 41320   0.190E-01    0.612E-02
DAV:  14    -0.670705994425E+03    0.25854E-04   -0.51719E-04 41460   0.634E-02    0.365E-02
DAV:  15    -0.670705977021E+03    0.17403E-04   -0.17339E-04 42260   0.378E-02    0.185E-02
DAV:  16    -0.670705966151E+03    0.10870E-04   -0.31305E-05 32780   0.186E-02    0.872E-03
DAV:  17    -0.670705959803E+03    0.63480E-05   -0.13358E-05 23020   0.980E-03
   1 F= -.67070596E+03 E0= -.67071973E+03  d E =-.670706E+03  mag=     0.0012
       N       E                     dE             d eps       ncg     rms          rms(c)
DAV:   1    -0.669785251630E+03    0.92071E+00   -0.66034E+01 33600   0.202E+01    0.168E+00
DAV:   2    -0.670898873453E+03   -0.11136E+01   -0.12083E+01 33640   0.718E+00    0.789E-01
DAV:   3    -0.670895048446E+03    0.38250E-02   -0.18732E-01 42800   0.129E+00    0.473E-01
DAV:   4    -0.670891028523E+03    0.40199E-02   -0.21177E-02 41540   0.441E-01    0.336E-01
DAV:   5    -0.670889744288E+03    0.12842E-02   -0.12903E-02 39140   0.259E-01    0.127E-01
DAV:   6    -0.670889761692E+03   -0.17404E-04   -0.19671E-03 42700   0.156E-01    0.646E-02
DAV:   7    -0.670889727297E+03    0.34396E-04   -0.40052E-04 42220   0.720E-02    0.307E-02
DAV:   8    -0.670889705006E+03    0.22291E-04   -0.17238E-04 40760   0.417E-02    0.106E-02
DAV:   9    -0.670889704360E+03    0.64651E-06   -0.33428E-05 31920   0.182E-02
   2 F= -.67088970E+03 E0= -.67090056E+03  d E =-.183745E+00  mag=     0.0000
       N       E                     dE             d eps       ncg     rms          rms(c)
DAV:   1    -0.670889699542E+03    0.54637E-05   -0.39422E-04 36000   0.479E-02    0.522E-03
DAV:   2    -0.670889706189E+03   -0.66463E-05   -0.74581E-05 34800   0.180E-02
   3 F= -.67088971E+03 E0= -.67090055E+03  d E =-.183746E+00  mag=     0.0000
       N       E                     dE             d eps       ncg     rms          rms(c)
DAV:   1    -0.670791638643E+03    0.98061E-01   -0.65597E+00 33600   0.646E+00    0.554E-01
DAV:   2    -0.670906157942E+03   -0.11452E+00   -0.12485E+00 33960   0.235E+00    0.229E-01
DAV:   3    -0.670906388574E+03   -0.23063E-03   -0.17266E-02 43340   0.384E-01    0.135E-01
DAV:   4    -0.670906111824E+03    0.27675E-03   -0.16669E-03 41280   0.133E-01    0.958E-02
DAV:   5    -0.670906078026E+03    0.33797E-04   -0.10101E-03 39440   0.741E-02    0.379E-02
DAV:   6    -0.670906066932E+03    0.11095E-04   -0.17015E-04 42780   0.486E-02    0.182E-02
DAV:   7    -0.670906063122E+03    0.38096E-05   -0.41258E-05 34600   0.192E-02
   4 F= -.67090606E+03 E0= -.67091755E+03  d E =-.163569E-01  mag=     0.0000
       N       E                     dE             d eps       ncg     rms          rms(c)
DAV:   1    -0.670905905340E+03    0.16159E-03   -0.10424E-02 34960   0.257E-01    0.214E-02
DAV:   2    -0.670906085988E+03   -0.18065E-03   -0.19653E-03 35200   0.925E-02    0.857E-03
DAV:   3    -0.670906086030E+03   -0.41953E-07   -0.20977E-05 30680   0.128E-02
   5 F= -.67090609E+03 E0= -.67091754E+03  d E =-.163798E-01  mag=     0.0000
       N       E                     dE             d eps       ncg     rms          rms(c)
DAV:   1    -0.670902099203E+03    0.39868E-02   -0.58540E-01 34080   0.160E+00    0.126E-01
DAV:   2    -0.670907960319E+03   -0.58611E-02   -0.63297E-02 34760   0.537E-01    0.566E-02
DAV:   3    -0.670907953925E+03    0.63944E-05   -0.85595E-04 43140   0.849E-02    0.357E-02
DAV:   4    -0.670907932556E+03    0.21368E-04   -0.10723E-04 40540   0.344E-02    0.240E-02
DAV:   5    -0.670907929816E+03    0.27405E-05   -0.74192E-05 34080   0.191E-02
   6 F= -.67090793E+03 E0= -.67091942E+03  d E =-.184379E-02  mag=     0.0000
       N       E                     dE             d eps       ncg     rms          rms(c)
DAV:   1    -0.670904327169E+03    0.36054E-02   -0.40925E-01 33720   0.134E+00    0.107E-01
DAV:   2    -0.670908424554E+03   -0.40974E-02   -0.44375E-02 34760   0.448E-01    0.490E-02
DAV:   3    -0.670908423066E+03    0.14874E-05   -0.60373E-04 43320   0.709E-02    0.312E-02
DAV:   4    -0.670908408720E+03    0.14346E-04   -0.74509E-05 36280   0.292E-02    0.211E-02
DAV:   5    -0.670908407538E+03    0.11815E-05   -0.53056E-05 33040   0.164E-02
   7 F= -.67090841E+03 E0= -.67091993E+03  d E =-.232151E-02  mag=     0.0000
       N       E                     dE             d eps       ncg     rms          rms(c)
DAV:   1    -0.670906245060E+03    0.21637E-02   -0.60905E-01 33900   0.129E+00    0.962E-02
DAV:   2    -0.670909401384E+03   -0.31563E-02   -0.34380E-02 34640   0.387E-01    0.458E-02
DAV:   3    -0.670909380852E+03    0.20531E-04   -0.38960E-04 43040   0.425E-02    0.289E-02
DAV:   4    -0.670909371675E+03    0.91775E-05   -0.68336E-05 36780   0.280E-02
   8 F= -.67090937E+03 E0= -.67092092E+03  d E =-.964136E-03  mag=    -0.0000
       N       E                     dE             d eps       ncg     rms          rms(c)
DAV:   1    -0.670907356178E+03    0.20247E-02   -0.43877E-01 34180   0.110E+00    0.831E-02
DAV:   2    -0.670909623859E+03   -0.22677E-02   -0.24779E-02 34520   0.328E-01    0.400E-02
DAV:   3    -0.670909611267E+03    0.12591E-04   -0.28697E-04 43420   0.371E-02    0.260E-02
DAV:   4    -0.670909604457E+03    0.68098E-05   -0.49639E-05 36920   0.257E-02
   9 F= -.67090960E+03 E0= -.67092117E+03  d E =-.119692E-02  mag=    -0.0000
       N       E                     dE             d eps       ncg     rms          rms(c)
DAV:   1    -0.670907749158E+03    0.18621E-02   -0.19018E-01 33980   0.921E-01    0.753E-02
DAV:   2    -0.670909748695E+03   -0.19995E-02   -0.21697E-02 34420   0.312E-01    0.355E-02
DAV:   3    -0.670909746112E+03    0.25833E-05   -0.29581E-04 43980   0.528E-02    0.221E-02
DAV:   4    -0.670909738276E+03    0.78361E-05   -0.38249E-05 36200   0.203E-02
  10 F= -.67090974E+03 E0= -.67092128E+03  d E =-.133818E-03  mag=    -0.0000
       N       E                     dE             d eps       ncg     rms          rms(c)
DAV:   1    -0.670909614553E+03    0.13156E-03   -0.13987E-02 34480   0.250E-01    0.199E-02
DAV:   2    -0.670909763271E+03   -0.14872E-03   -0.16071E-03 34840   0.873E-02    0.936E-03
DAV:   3    -0.670909762157E+03    0.11137E-05   -0.25199E-05 31160   0.178E-02
  11 F= -.67090976E+03 E0= -.67092130E+03  d E =-.157699E-03  mag=    -0.0000
