       N       E                     dE             d eps       ncg     rms          rms(c)
DAV:   1     0.713661040304E+04    0.71366E+04   -0.28626E+05 17200   0.143E+03
DAV:   2    -0.729070320799E+02   -0.72095E+04   -0.69055E+04 16800   0.519E+02
DAV:   3    -0.661520533860E+03   -0.58861E+03   -0.53802E+03 19760   0.135E+02
DAV:   4    -0.696471202000E+03   -0.34951E+02   -0.33631E+02 20700   0.268E+01
DAV:   5    -0.697945827343E+03   -0.14746E+01   -0.14636E+01 22060   0.493E+00    0.408E+01
DAV:   6    -0.672838864019E+03    0.25107E+02   -0.52837E+01 19620   0.172E+01    0.188E+01
DAV:   7    -0.671650582162E+03    0.11883E+01   -0.19359E+01 20500   0.124E+01    0.991E+00
DAV:   8    -0.670951619246E+03    0.69896E+00   -0.85768E+00 21280   0.897E+00    0.383E+00
DAV:   9    -0.670761744928E+03    0.18987E+00   -0.17740E+00 21560   0.458E+00    0.180E+00
DAV:  10    -0.670774159780E+03   -0.12415E-01   -0.31344E-01 21700   0.165E+00    0.108E+00
DAV:  11    -0.670761437742E+03    0.12722E-01   -0.97906E-02 21740   0.108E+00    0.312E-01
DAV:  12    -0.670763166448E+03   -0.17287E-02   -0.16329E-02 20200   0.381E-01    0.128E-01
DAV:  13    -0.670762819910E+03    0.34654E-03   -0.21077E-03 20640   0.163E-01    0.520E-02
DAV:  14    -0.670762764268E+03    0.55642E-04   -0.35776E-04 20620   0.566E-02    0.307E-02
DAV:  15    -0.670762722214E+03    0.42054E-04   -0.14024E-04 21160   0.331E-02    0.156E-02
DAV:  16    -0.670762707684E+03    0.14531E-04   -0.20988E-05 14020   0.161E-02    0.708E-03
DAV:  17    -0.670762701723E+03    0.59605E-05   -0.88174E-06 11120   0.748E-03
   1 F= -.67076270E+03 E0= -.67076657E+03  d E =-.670763E+03  mag=    -0.0000
       N       E                     dE             d eps       ncg     rms          rms(c)
DAV:   1    -0.669653302360E+03    0.11094E+01   -0.76002E+01 16800   0.220E+01    0.182E+00
DAV:   2    -0.671010147670E+03   -0.13568E+01   -0.14750E+01 16800   0.783E+00    0.770E-01
DAV:   3    -0.671006963973E+03    0.31837E-02   -0.20741E-01 21120   0.117E+00    0.455E-01
DAV:   4    -0.671004309695E+03    0.26543E-02   -0.18616E-02 20600   0.424E-01    0.332E-01
DAV:   5    -0.671003206433E+03    0.11033E-02   -0.11789E-02 19860   0.293E-01    0.131E-01
DAV:   6    -0.671003302378E+03   -0.95945E-04   -0.22765E-03 21560   0.156E-01    0.678E-02
DAV:   7    -0.671003233316E+03    0.69062E-04   -0.52245E-04 21480   0.766E-02    0.293E-02
DAV:   8    -0.671003220465E+03    0.12851E-04   -0.13427E-04 20340   0.374E-02    0.963E-03
DAV:   9    -0.671003219241E+03    0.12240E-05   -0.26991E-05 16060   0.163E-02
   2 F= -.67100322E+03 E0= -.67100471E+03  d E =-.240518E+00  mag=     0.0000
       N       E                     dE             d eps       ncg     rms          rms(c)
DAV:   1    -0.670989871978E+03    0.13348E-01   -0.89287E-01 17160   0.239E+00    0.199E-01
DAV:   2    -0.671005643478E+03   -0.15771E-01   -0.17163E-01 17480   0.847E-01    0.841E-02
DAV:   3    -0.671005606692E+03    0.36786E-04   -0.24026E-03 21080   0.131E-01    0.487E-02
DAV:   4    -0.671005578169E+03    0.28523E-04   -0.22139E-04 20500   0.427E-02    0.351E-02
DAV:   5    -0.671005568956E+03    0.92128E-05   -0.11468E-04 20000   0.325E-02    0.146E-02
DAV:   6    -0.671005569524E+03   -0.56741E-06   -0.24276E-05 16100   0.173E-02
   3 F= -.67100557E+03 E0= -.67100680E+03  d E =-.242868E+00  mag=     0.0000
       N       E                     dE             d eps       ncg     rms          rms(c)
DAV:   1    -0.670905354664E+03    0.10021E+00   -0.67248E+00 16800   0.656E+00    0.587E-01
DAV:   2    -0.671021570596E+03   -0.11622E+00   -0.12676E+00 16840   0.242E+00    0.289E-01
DAV:   3    -0.671021391814E+03    0.17878E-03   -0.25109E-02 21760   0.556E-01    0.156E-01
DAV:   4    -0.671020870191E+03    0.52162E-03   -0.25388E-03 20780   0.153E-01    0.103E-01
DAV:   5    -0.671020836064E+03    0.34127E-04   -0.12563E-03 19720   0.769E-02    0.462E-02
DAV:   6    -0.671020821305E+03    0.14758E-04   -0.23360E-04 21860   0.554E-02    0.191E-02
DAV:   7    -0.671020816555E+03    0.47505E-05   -0.44581E-05 18240   0.224E-02
   4 F= -.67102082E+03 E0= -.67102216E+03  d E =-.152470E-01  mag=     0.0000
       N       E                     dE             d eps       ncg     rms          rms(c)
DAV:   1    -0.671019653039E+03    0.11683E-02   -0.81551E-02 17260   0.722E-01    0.633E-02
DAV:   2    -0.671021057753E+03   -0.14047E-02   -0.15302E-02 17600   0.264E-01    0.302E-02
DAV:   3    -0.671021057934E+03   -0.18126E-06   -0.26990E-04 21920   0.564E-02    0.170E-02
DAV:   4    -0.671021051728E+03    0.62058E-05   -0.27188E-05 16480   0.165E-02
   5 F= -.67102105E+03 E0= -.67102239E+03  d E =-.154822E-01  mag=     0.0000
       N       E                     dE             d eps       ncg     rms          rms(c)
DAV:   1    -0.671017439852E+03    0.36181E-02   -0.53504E-01 16960   0.150E+00    0.118E-01
DAV:   2    -0.671022617486E+03   -0.51776E-02   -0.56165E-02 17380   0.504E-01    0.529E-02
DAV:   3    -0.671022623408E+03   -0.59226E-05   -0.75155E-04 21840   0.788E-02    0.329E-02
DAV:   4    -0.671022606504E+03    0.16904E-04   -0.78034E-05 18760   0.297E-02    0.224E-02
DAV:   5    -0.671022602931E+03    0.35731E-05   -0.57666E-05 16620   0.166E-02
   6 F= -.67102260E+03 E0= -.67102393E+03  d E =-.155120E-02  mag=     0.0000
       N       E                     dE             d eps       ncg     rms          rms(c)
DAV:   1    -0.671020638746E+03    0.19678E-02   -0.23492E-01 17040   0.992E-01    0.797E-02
DAV:   2    -0.671022908465E+03   -0.22697E-02   -0.24734E-02 17440   0.334E-01    0.360E-02
DAV:   3    -0.671022912976E+03   -0.45107E-05   -0.33056E-04 22040   0.517E-02    0.227E-02
DAV:   4    -0.671022906040E+03    0.69359E-05   -0.34149E-05 17860   0.201E-02
   7 F= -.67102291E+03 E0= -.67102423E+03  d E =-.185431E-02  mag=     0.0000
       N       E                     dE             d eps       ncg     rms          rms(c)
DAV:   1    -0.671021674725E+03    0.12383E-02   -0.34877E-01 17080   0.990E-01    0.730E-02
DAV:   2    -0.671023592625E+03   -0.19179E-02   -0.20809E-02 17360   0.301E-01    0.361E-02
DAV:   3    -0.671023584990E+03    0.76347E-05   -0.26084E-04 21260   0.411E-02    0.228E-02
DAV:   4    -0.671023577988E+03    0.70025E-05   -0.41607E-05 17900   0.202E-02
   8 F= -.67102358E+03 E0= -.67102488E+03  d E =-.671947E-03  mag=     0.0000
       N       E                     dE             d eps       ncg     rms          rms(c)
DAV:   1    -0.671021322883E+03    0.22621E-02   -0.45879E-01 17060   0.114E+00    0.845E-02
DAV:   2    -0.671023840186E+03   -0.25173E-02   -0.27383E-02 17280   0.344E-01    0.413E-02
DAV:   3    -0.671023831063E+03    0.91232E-05   -0.32427E-04 21180   0.414E-02    0.261E-02
DAV:   4    -0.671023823826E+03    0.72370E-05   -0.53334E-05 18020   0.232E-02
   9 F= -.67102382E+03 E0= -.67102510E+03  d E =-.917786E-03  mag=     0.0000
       N       E                     dE             d eps       ncg     rms          rms(c)
DAV:   1    -0.671022565768E+03    0.12653E-02   -0.16192E-01 17060   0.799E-01    0.615E-02
DAV:   2    -0.671023994955E+03   -0.14292E-02   -0.15477E-02 17320   0.259E-01    0.279E-02
DAV:   3    -0.671023993585E+03    0.13696E-05   -0.17715E-04 21620   0.328E-02    0.170E-02
DAV:   4    -0.671023990687E+03    0.28981E-05   -0.22919E-05 16140   0.155E-02
  10 F= -.67102399E+03 E0= -.67102519E+03  d E =-.166861E-03  mag=    -0.0000
