       N       E                     dE             d eps       ncg     rms          rms(c)
DAV:   1     0.713500711843E+04    0.71350E+04   -0.28630E+05 34400   0.143E+03
DAV:   2    -0.728118069464E+02   -0.72078E+04   -0.69062E+04 33600   0.519E+02
DAV:   3    -0.660944250872E+03   -0.58813E+03   -0.53725E+03 39480   0.135E+02
DAV:   4    -0.696246756303E+03   -0.35303E+02   -0.33938E+02 41420   0.269E+01
DAV:   5    -0.697757660649E+03   -0.15109E+01   -0.14991E+01 43960   0.493E+00    0.406E+01
DAV:   6    -0.672784121931E+03    0.24974E+02   -0.53257E+01 38920   0.169E+01    0.188E+01
DAV:   7    -0.671513110152E+03    0.12710E+01   -0.18983E+01 40480   0.121E+01    0.981E+00
DAV:   8    -0.670910239978E+03    0.60287E+00   -0.85059E+00 42300   0.906E+00    0.372E+00
DAV:   9    -0.670739072163E+03    0.17117E+00   -0.17411E+00 42780   0.471E+00    0.177E+00
DAV:  10    -0.670754005826E+03   -0.14934E-01   -0.29189E-01 42000   0.142E+00    0.905E-01
DAV:  11    -0.670745693959E+03    0.83119E-02   -0.72906E-02 42640   0.968E-01    0.277E-01
DAV:  12    -0.670747257687E+03   -0.15637E-02   -0.13820E-02 41160   0.365E-01    0.118E-01
DAV:  13    -0.670747024513E+03    0.23317E-03   -0.19115E-03 41600   0.147E-01    0.470E-02
DAV:  14    -0.670746976022E+03    0.48492E-04   -0.36090E-04 41680   0.544E-02    0.287E-02
DAV:  15    -0.670746942828E+03    0.33194E-04   -0.11863E-04 42080   0.307E-02    0.151E-02
DAV:  16    -0.670746927975E+03    0.14853E-04   -0.19468E-05 26640   0.147E-02    0.580E-03
DAV:  17    -0.670746922377E+03    0.55982E-05   -0.69423E-06 21680   0.709E-03
   1 F= -.67074692E+03 E0= -.67075748E+03  d E =-.670747E+03  mag=     0.0002
       N       E                     dE             d eps       ncg     rms          rms(c)
DAV:   1    -0.669623592881E+03    0.11233E+01   -0.76782E+01 33600   0.221E+01    0.187E+00
DAV:   2    -0.670982319787E+03   -0.13587E+01   -0.14792E+01 33600   0.785E+00    0.839E-01
DAV:   3    -0.670976925457E+03    0.53943E-02   -0.22811E-01 42460   0.133E+00    0.474E-01
DAV:   4    -0.670973181427E+03    0.37440E-02   -0.22160E-02 40980   0.436E-01    0.349E-01
DAV:   5    -0.670971883155E+03    0.12983E-02   -0.13068E-02 39420   0.293E-01    0.135E-01
DAV:   6    -0.670971981133E+03   -0.97977E-04   -0.22770E-03 43120   0.159E-01    0.704E-02
DAV:   7    -0.670971926315E+03    0.54818E-04   -0.50962E-04 43480   0.787E-02    0.308E-02
DAV:   8    -0.670971909142E+03    0.17174E-04   -0.16180E-04 40180   0.380E-02    0.879E-03
DAV:   9    -0.670971909199E+03   -0.57902E-07   -0.24569E-05 28380   0.152E-02
   2 F= -.67097191E+03 E0= -.67097918E+03  d E =-.224987E+00  mag=     0.0000
       N       E                     dE             d eps       ncg     rms          rms(c)
DAV:   1    -0.670971007041E+03    0.90210E-03   -0.61972E-02 35180   0.625E-01    0.541E-02
DAV:   2    -0.670972091374E+03   -0.10843E-02   -0.11850E-02 35200   0.222E-01    0.240E-02
DAV:   3    -0.670972086239E+03    0.51345E-05   -0.18761E-04 42060   0.396E-02    0.136E-02
DAV:   4    -0.670972083598E+03    0.26412E-05   -0.17890E-05 29280   0.125E-02
   3 F= -.67097208E+03 E0= -.67097923E+03  d E =-.225161E+00  mag=    -0.0000
       N       E                     dE             d eps       ncg     rms          rms(c)
DAV:   1    -0.670875111080E+03    0.96975E-01   -0.65396E+00 33600   0.645E+00    0.565E-01
DAV:   2    -0.670988507094E+03   -0.11340E+00   -0.12362E+00 33640   0.236E+00    0.256E-01
DAV:   3    -0.670988524114E+03   -0.17019E-04   -0.19868E-02 43260   0.451E-01    0.146E-01
DAV:   4    -0.670988129134E+03    0.39498E-03   -0.20314E-03 41320   0.137E-01    0.102E-01
DAV:   5    -0.670988078669E+03    0.50464E-04   -0.12475E-03 39020   0.777E-02    0.431E-02
DAV:   6    -0.670988066441E+03    0.12229E-04   -0.21278E-04 44060   0.520E-02    0.197E-02
DAV:   7    -0.670988060360E+03    0.60810E-05   -0.53214E-05 35240   0.215E-02
   4 F= -.67098806E+03 E0= -.67099561E+03  d E =-.159768E-01  mag=     0.0000
       N       E                     dE             d eps       ncg     rms          rms(c)
DAV:   1    -0.670987684481E+03    0.38196E-03   -0.25396E-02 35040   0.403E-01    0.344E-02
DAV:   2    -0.670988123158E+03   -0.43868E-03   -0.47764E-03 35140   0.146E-01    0.152E-02
DAV:   3    -0.670988123368E+03   -0.20977E-06   -0.68451E-05 41840   0.252E-02
   5 F= -.67098812E+03 E0= -.67099565E+03  d E =-.160398E-01  mag=     0.0000
       N       E                     dE             d eps       ncg     rms          rms(c)
DAV:   1    -0.670984179674E+03    0.39435E-02   -0.50594E-01 34080   0.152E+00    0.123E-01
DAV:   2    -0.670989595544E+03   -0.54159E-02   -0.58776E-02 34600   0.518E-01    0.541E-02
DAV:   3    -0.670989601383E+03   -0.58389E-05   -0.87581E-04 43220   0.942E-02    0.339E-02
DAV:   4    -0.670989580476E+03    0.20907E-04   -0.98822E-05 39480   0.317E-02    0.227E-02
DAV:   5    -0.670989577742E+03    0.27342E-05   -0.61274E-05 33220   0.161E-02
   6 F= -.67098958E+03 E0= -.67099711E+03  d E =-.145437E-02  mag=    -0.0000
       N       E                     dE             d eps       ncg     rms          rms(c)
DAV:   1    -0.670988634014E+03    0.94646E-03   -0.10395E-01 34320   0.690E-01    0.574E-02
DAV:   2    -0.670989744269E+03   -0.11103E-02   -0.12120E-02 34720   0.234E-01    0.255E-02
DAV:   3    -0.670989747041E+03   -0.27717E-05   -0.17552E-04 43560   0.412E-02    0.163E-02
DAV:   4    -0.670989743031E+03    0.40100E-05   -0.18426E-05 29520   0.146E-02
   7 F= -.67098974E+03 E0= -.67099728E+03  d E =-.161966E-02  mag=    -0.0000
       N       E                     dE             d eps       ncg     rms          rms(c)
DAV:   1    -0.670988465518E+03    0.12815E-02   -0.21015E-01 34220   0.896E-01    0.700E-02
DAV:   2    -0.670990247556E+03   -0.17820E-02   -0.19313E-02 34560   0.289E-01    0.309E-02
DAV:   3    -0.670990241599E+03    0.59568E-05   -0.22693E-04 42940   0.356E-02    0.188E-02
DAV:   4    -0.670990237857E+03    0.37427E-05   -0.33391E-05 34300   0.181E-02
   8 F= -.67099024E+03 E0= -.67099774E+03  d E =-.494826E-03  mag=     0.0000
       N       E                     dE             d eps       ncg     rms          rms(c)
DAV:   1    -0.670988840743E+03    0.14009E-02   -0.18295E-01 34220   0.837E-01    0.663E-02
DAV:   2    -0.670990388259E+03   -0.15475E-02   -0.16818E-02 34480   0.269E-01    0.294E-02
DAV:   3    -0.670990383967E+03    0.42922E-05   -0.19012E-04 42620   0.299E-02    0.180E-02
DAV:   4    -0.670990381594E+03    0.23729E-05   -0.27265E-05 33180   0.167E-02
   9 F= -.67099038E+03 E0= -.67099785E+03  d E =-.638563E-03  mag=     0.0000
       N       E                     dE             d eps       ncg     rms          rms(c)
DAV:   1    -0.670989306844E+03    0.10771E-02   -0.16849E-01 34180   0.768E-01    0.594E-02
DAV:   2    -0.670990552947E+03   -0.12461E-02   -0.13509E-02 34480   0.247E-01    0.271E-02
DAV:   3    -0.670990550938E+03    0.20090E-05   -0.15997E-04 43520   0.352E-02    0.169E-02
DAV:   4    -0.670990546920E+03    0.40181E-05   -0.20867E-05 30940   0.151E-02
  10 F= -.67099055E+03 E0= -.67099801E+03  d E =-.165326E-03  mag=     0.0000
