       N       E                     dE             d eps       ncg     rms          rms(c)
DAV:   1     0.714546630719E+04    0.71455E+04   -0.28666E+05 33280   0.145E+03
DAV:   2    -0.816775112281E+02   -0.72271E+04   -0.69386E+04 33280   0.526E+02
DAV:   3    -0.658851085773E+03   -0.57717E+03   -0.52667E+03 38640   0.135E+02
DAV:   4    -0.694697837040E+03   -0.35847E+02   -0.34438E+02 41424   0.269E+01
DAV:   5    -0.696247467508E+03   -0.15496E+01   -0.15374E+01 43424   0.499E+00    0.405E+01
DAV:   6    -0.671399140485E+03    0.24848E+02   -0.55344E+01 38672   0.185E+01    0.189E+01
DAV:   7    -0.670211369898E+03    0.11878E+01   -0.21415E+01 40816   0.140E+01    0.105E+01
DAV:   8    -0.669225934804E+03    0.98544E+00   -0.10333E+01 42288   0.942E+00    0.460E+00
DAV:   9    -0.668983368202E+03    0.24257E+00   -0.24957E+00 43024   0.507E+00    0.191E+00
DAV:  10    -0.669002269989E+03   -0.18902E-01   -0.39341E-01 43584   0.184E+00    0.119E+00
DAV:  11    -0.668993279713E+03    0.89903E-02   -0.12222E-01 41920   0.119E+00    0.380E-01
DAV:  12    -0.668995706369E+03   -0.24267E-02   -0.25116E-02 41040   0.493E-01    0.156E-01
DAV:  13    -0.668995268511E+03    0.43786E-03   -0.38483E-03 40928   0.216E-01    0.581E-02
DAV:  14    -0.668995221136E+03    0.47375E-04   -0.61403E-04 40976   0.663E-02    0.327E-02
DAV:  15    -0.668995176354E+03    0.44782E-04   -0.19008E-04 42528   0.378E-02    0.186E-02
DAV:  16    -0.668995158303E+03    0.18050E-04   -0.31289E-05 31280   0.193E-02    0.944E-03
DAV:  17    -0.668995150233E+03    0.80703E-05   -0.11337E-05 22816   0.983E-03
   1 F= -.66899515E+03 E0= -.66899961E+03  d E =-.668995E+03  mag=     0.0003
       N       E                     dE             d eps       ncg     rms          rms(c)
DAV:   1    -0.667295016537E+03    0.17001E+01   -0.12845E+02 33280   0.280E+01    0.255E+00
DAV:   2    -0.669380086614E+03   -0.20851E+01   -0.22598E+01 33312   0.978E+00    0.138E+00
DAV:   3    -0.669358671863E+03    0.21415E-01   -0.57032E-01 42288   0.235E+00    0.717E-01
DAV:   4    -0.669347585473E+03    0.11086E-01   -0.65165E-02 40784   0.716E-01    0.451E-01
DAV:   5    -0.669346150321E+03    0.14352E-02   -0.26233E-02 38864   0.369E-01    0.189E-01
DAV:   6    -0.669345863574E+03    0.28675E-03   -0.48317E-03 42080   0.245E-01    0.863E-02
DAV:   7    -0.669345799326E+03    0.64249E-04   -0.11295E-03 42240   0.101E-01    0.447E-02
DAV:   8    -0.669345760264E+03    0.39062E-04   -0.28854E-04 41296   0.599E-02    0.169E-02
DAV:   9    -0.669345756974E+03    0.32894E-05   -0.54903E-05 36688   0.237E-02
   2 F= -.66934576E+03 E0= -.66934973E+03  d E =-.350607E+00  mag=     0.0000
       N       E                     dE             d eps       ncg     rms          rms(c)
DAV:   1    -0.669209088644E+03    0.13667E+00   -0.10207E+01 33280   0.805E+00    0.652E-01
DAV:   2    -0.669385207750E+03   -0.17612E+00   -0.18853E+00 33616   0.288E+00    0.305E-01
DAV:   3    -0.669384854344E+03    0.35341E-03   -0.23310E-02 43072   0.375E-01    0.188E-01
DAV:   4    -0.669384423379E+03    0.43097E-03   -0.32415E-03 41152   0.165E-01    0.134E-01
DAV:   5    -0.669384241701E+03    0.18168E-03   -0.18495E-03 40128   0.112E-01    0.421E-02
DAV:   6    -0.669384233180E+03    0.85207E-05   -0.27057E-04 41152   0.558E-02    0.252E-02
DAV:   7    -0.669384217521E+03    0.15659E-04   -0.10686E-04 40192   0.286E-02    0.854E-03
DAV:   8    -0.669384216854E+03    0.66774E-06   -0.15734E-05 24032   0.135E-02
   3 F= -.66938422E+03 E0= -.66938862E+03  d E =-.384599E-01  mag=    -0.0000
       N       E                     dE             d eps       ncg     rms          rms(c)
DAV:   1    -0.669309678136E+03    0.74539E-01   -0.53047E+00 33280   0.574E+00    0.476E-01
DAV:   2    -0.669396982668E+03   -0.87305E-01   -0.94612E-01 33696   0.202E+00    0.191E-01
DAV:   3    -0.669397305688E+03   -0.32302E-03   -0.10835E-02 43408   0.237E-01    0.129E-01
DAV:   4    -0.669397134786E+03    0.17090E-03   -0.12653E-03 43744   0.122E-01    0.897E-02
DAV:   5    -0.669397081276E+03    0.53510E-04   -0.68977E-04 39776   0.611E-02    0.264E-02
DAV:   6    -0.669397078363E+03    0.29124E-05   -0.12379E-04 40960   0.368E-02    0.141E-02
DAV:   7    -0.669397073699E+03    0.46640E-05   -0.23090E-05 28736   0.149E-02
   4 F= -.66939707E+03 E0= -.66940168E+03  d E =-.128568E-01  mag=     0.0000
       N       E                     dE             d eps       ncg     rms          rms(c)
DAV:   1    -0.669378091785E+03    0.18987E-01   -0.14467E+00 33408   0.285E+00    0.228E-01
DAV:   2    -0.669398963224E+03   -0.20871E-01   -0.22516E-01 34112   0.984E-01    0.906E-02
DAV:   3    -0.669399025185E+03   -0.61960E-04   -0.23149E-03 42464   0.966E-02    0.588E-02
DAV:   4    -0.669399007336E+03    0.17849E-04   -0.26383E-04 43584   0.539E-02    0.418E-02
DAV:   5    -0.669398987337E+03    0.19999E-04   -0.15615E-04 40464   0.333E-02    0.113E-02
DAV:   6    -0.669398986981E+03    0.35571E-06   -0.27827E-05 31872   0.166E-02
   5 F= -.66939899E+03 E0= -.66940363E+03  d E =-.191328E-02  mag=     0.0000
       N       E                     dE             d eps       ncg     rms          rms(c)
DAV:   1    -0.669391702385E+03    0.72850E-02   -0.52679E-01 33776   0.163E+00    0.126E-01
DAV:   2    -0.669398839539E+03   -0.71372E-02   -0.76640E-02 34240   0.541E-01    0.546E-02
DAV:   3    -0.669398855350E+03   -0.15811E-04   -0.91570E-04 41264   0.622E-02    0.348E-02
DAV:   4    -0.669398846985E+03    0.83650E-05   -0.10292E-04 41216   0.322E-02    0.247E-02
DAV:   5    -0.669398840579E+03    0.64061E-05   -0.64303E-05 35664   0.201E-02
   6 F= -.66939884E+03 E0= -.66940352E+03  d E =0.146402E-03  mag=     0.0000
       N       E                     dE             d eps       ncg     rms          rms(c)
DAV:   1    -0.669391506580E+03    0.73404E-02   -0.46624E-01 33408   0.150E+00    0.118E-01
DAV:   2    -0.669398049892E+03   -0.65433E-02   -0.70339E-02 34112   0.478E-01    0.546E-02
DAV:   3    -0.669398075335E+03   -0.25443E-04   -0.95388E-04 41296   0.683E-02    0.346E-02
DAV:   4    -0.669398065343E+03    0.99920E-05   -0.95056E-05 40832   0.306E-02
   7 F= -.66939807E+03 E0= -.66940272E+03  d E =0.775236E-03  mag=    -0.0000
       N       E                     dE             d eps       ncg     rms          rms(c)
DAV:   1    -0.669396443036E+03    0.16323E-02   -0.14560E-01 33952   0.840E-01    0.644E-02
DAV:   2    -0.669398655964E+03   -0.22129E-02   -0.23561E-02 34272   0.266E-01    0.309E-02
DAV:   3    -0.669398661073E+03   -0.51089E-05   -0.34909E-04 41104   0.470E-02    0.179E-02
DAV:   4    -0.669398655931E+03    0.51413E-05   -0.26190E-05 33648   0.156E-02
   8 F= -.66939866E+03 E0= -.66940332E+03  d E =-.590588E-03  mag=     0.0000
       N       E                     dE             d eps       ncg     rms          rms(c)
DAV:   1    -0.669396102084E+03    0.25590E-02   -0.12729E-01 33904   0.776E-01    0.602E-02
DAV:   2    -0.669398024989E+03   -0.19229E-02   -0.20535E-02 34208   0.239E-01    0.286E-02
DAV:   3    -0.669398030330E+03   -0.53409E-05   -0.29896E-04 40992   0.405E-02    0.173E-02
DAV:   4    -0.669398026487E+03    0.38427E-05   -0.24200E-05 33360   0.150E-02
   9 F= -.66939803E+03 E0= -.66940268E+03  d E =0.629444E-03  mag=    -0.0000
       N       E                     dE             d eps       ncg     rms          rms(c)
DAV:   1    -0.669273598771E+03    0.12443E+00   -0.83865E+00 33280   0.629E+00    0.493E-01
DAV:   2    -0.669402009506E+03   -0.12841E+00   -0.13655E+00 33280   0.193E+00    0.248E-01
DAV:   3    -0.669402488671E+03   -0.47917E-03   -0.21145E-02 41664   0.341E-01    0.161E-01
DAV:   4    -0.669402176737E+03    0.31193E-03   -0.21144E-03 41360   0.146E-01    0.112E-01
DAV:   5    -0.669402110007E+03    0.66730E-04   -0.14947E-03 37024   0.773E-02    0.422E-02
DAV:   6    -0.669402103640E+03    0.63670E-05   -0.28083E-04 39600   0.570E-02    0.196E-02
DAV:   7    -0.669402094723E+03    0.89176E-05   -0.63265E-05 36608   0.211E-02
  10 F= -.66940209E+03 E0= -.66940684E+03  d E =-.406824E-02  mag=     0.0000
       N       E                     dE             d eps       ncg     rms          rms(c)
DAV:   1    -0.669401530906E+03    0.57273E-03   -0.49744E-02 33952   0.538E-01    0.434E-02
DAV:   2    -0.669402289911E+03   -0.75900E-03   -0.82206E-03 34400   0.186E-01    0.186E-02
DAV:   3    -0.669402289048E+03    0.86261E-06   -0.10502E-04 42208   0.244E-02    0.117E-02
DAV:   4    -0.669402287479E+03    0.15698E-05   -0.10524E-05 26560   0.116E-02
  11 F= -.66940229E+03 E0= -.66940705E+03  d E =-.192756E-03  mag=     0.0000
       N       E                     dE             d eps       ncg     rms          rms(c)
DAV:   1    -0.669401441041E+03    0.84801E-03   -0.52104E-02 33984   0.487E-01    0.371E-02
DAV:   2    -0.669402131397E+03   -0.69036E-03   -0.74021E-03 34240   0.151E-01    0.177E-02
DAV:   3    -0.669402132968E+03   -0.15719E-05   -0.10426E-04 40160   0.221E-02    0.108E-02
DAV:   4    -0.669402131560E+03    0.14089E-05   -0.77982E-06 27520   0.872E-03
  12 F= -.66940213E+03 E0= -.66940689E+03  d E =0.155919E-03  mag=    -0.0000
       N       E                     dE             d eps       ncg     rms          rms(c)
DAV:   1    -0.669402084988E+03    0.47981E-04   -0.89340E-03 34208   0.202E-01    0.150E-02
DAV:   2    -0.669402212153E+03   -0.12717E-03   -0.13488E-03 34464   0.623E-02    0.728E-03
DAV:   3    -0.669402212211E+03   -0.57917E-07   -0.18462E-05 31328   0.106E-02
  13 F= -.66940221E+03 E0= -.66940698E+03  d E =-.806518E-04  mag=     0.0000
       N       E                     dE             d eps       ncg     rms          rms(c)
DAV:   1    -0.669400574422E+03    0.16377E-02   -0.13426E-01 33536   0.788E-01    0.608E-02
DAV:   2    -0.669402533356E+03   -0.19589E-02   -0.20829E-02 33952   0.238E-01    0.308E-02
DAV:   3    -0.669402539623E+03   -0.62670E-05   -0.28679E-04 40752   0.349E-02    0.188E-02
DAV:   4    -0.669402536684E+03    0.29386E-05   -0.24261E-05 33392   0.143E-02
  14 F= -.66940254E+03 E0= -.66940730E+03  d E =-.324473E-03  mag=     0.0000
       N       E                     dE             d eps       ncg     rms          rms(c)
DAV:   1    -0.669394372706E+03    0.81669E-02   -0.57623E-01 33344   0.165E+00    0.131E-01
DAV:   2    -0.669403086854E+03   -0.87141E-02   -0.93314E-02 33472   0.505E-01    0.625E-02
DAV:   3    -0.669403133458E+03   -0.46604E-04   -0.12586E-03 41264   0.747E-02    0.383E-02
DAV:   4    -0.669403124225E+03    0.92328E-05   -0.95838E-05 39504   0.309E-02
  15 F= -.66940312E+03 E0= -.66940791E+03  d E =-.587540E-03  mag=     0.0000
       N       E                     dE             d eps       ncg     rms          rms(c)
DAV:   1    -0.669385117646E+03    0.18016E-01   -0.11897E+00 33280   0.240E+00    0.193E-01
DAV:   2    -0.669403629929E+03   -0.18512E-01   -0.19841E-01 33344   0.745E-01    0.907E-02
DAV:   3    -0.669403740886E+03   -0.11096E-03   -0.26185E-03 41488   0.106E-01    0.570E-02
DAV:   4    -0.669403723316E+03    0.17570E-04   -0.21530E-04 41552   0.476E-02    0.416E-02
DAV:   5    -0.669403718303E+03    0.50131E-05   -0.16292E-04 37856   0.304E-02    0.130E-02
DAV:   6    -0.669403718065E+03    0.23820E-06   -0.33047E-05 34672   0.184E-02
  16 F= -.66940372E+03 E0= -.66940854E+03  d E =-.593840E-03  mag=     0.0000
       N       E                     dE             d eps       ncg     rms          rms(c)
DAV:   1    -0.669398689885E+03    0.50284E-02   -0.32362E-01 33328   0.128E+00    0.104E-01
DAV:   2    -0.669403892134E+03   -0.52022E-02   -0.55925E-02 33568   0.413E-01    0.465E-02
DAV:   3    -0.669403924052E+03   -0.31918E-04   -0.72770E-04 41568   0.603E-02    0.285E-02
DAV:   4    -0.669403918648E+03    0.54037E-05   -0.55369E-05 37760   0.244E-02
  17 F= -.66940392E+03 E0= -.66940875E+03  d E =-.200583E-03  mag=     0.0000
       N       E                     dE             d eps       ncg     rms          rms(c)
DAV:   1    -0.669403873786E+03    0.50266E-04   -0.64314E-03 34304   0.166E-01    0.152E-02
DAV:   2    -0.669403935670E+03   -0.61883E-04   -0.68658E-04 34864   0.558E-02    0.866E-03
DAV:   3    -0.669403935146E+03    0.52401E-06   -0.13454E-05 28624   0.134E-02
  18 F= -.66940394E+03 E0= -.66940877E+03  d E =-.164973E-04  mag=     0.0000
