       N       E                     dE             d eps       ncg     rms          rms(c)
DAV:   1     0.718092537978E+04    0.71809E+04   -0.28625E+05 33920   0.145E+03
DAV:   2    -0.549138443578E+02   -0.72358E+04   -0.69392E+04 33280   0.525E+02
DAV:   3    -0.656604218410E+03   -0.60169E+03   -0.54899E+03 39104   0.137E+02
DAV:   4    -0.694856602951E+03   -0.38252E+02   -0.36784E+02 41264   0.277E+01
DAV:   5    -0.696491960095E+03   -0.16354E+01   -0.16222E+01 43552   0.511E+00    0.406E+01
DAV:   6    -0.671587275695E+03    0.24905E+02   -0.54292E+01 38176   0.181E+01    0.189E+01
DAV:   7    -0.670173590431E+03    0.14137E+01   -0.19714E+01 40000   0.126E+01    0.983E+00
DAV:   8    -0.669560703630E+03    0.61289E+00   -0.87491E+00 41488   0.892E+00    0.349E+00
DAV:   9    -0.669413695168E+03    0.14701E+00   -0.15983E+00 41936   0.460E+00    0.177E+00
DAV:  10    -0.669425606145E+03   -0.11911E-01   -0.28822E-01 43248   0.148E+00    0.948E-01
DAV:  11    -0.669417169163E+03    0.84370E-02   -0.78748E-02 43776   0.102E+00    0.308E-01
DAV:  12    -0.669419027159E+03   -0.18580E-02   -0.15375E-02 41264   0.408E-01    0.134E-01
DAV:  13    -0.669418631231E+03    0.39593E-03   -0.25188E-03 41328   0.186E-01    0.518E-02
DAV:  14    -0.669418571823E+03    0.59408E-04   -0.45672E-04 41168   0.619E-02    0.289E-02
DAV:  15    -0.669418530698E+03    0.41125E-04   -0.14680E-04 41408   0.332E-02    0.166E-02
DAV:  16    -0.669418512438E+03    0.18260E-04   -0.23649E-05 27552   0.174E-02    0.784E-03
DAV:  17    -0.669418504311E+03    0.81271E-05   -0.81961E-06 22464   0.814E-03
   1 F= -.66941850E+03 E0= -.66942339E+03  d E =-.669419E+03  mag=     0.0000
       N       E                     dE             d eps       ncg     rms          rms(c)
DAV:   1    -0.667527856566E+03    0.18907E+01   -0.14702E+02 33280   0.296E+01    0.266E+00
DAV:   2    -0.669829451936E+03   -0.23016E+01   -0.24867E+01 33280   0.102E+01    0.146E+00
DAV:   3    -0.669805700053E+03    0.23752E-01   -0.63575E-01 42448   0.244E+00    0.761E-01
DAV:   4    -0.669793179526E+03    0.12521E-01   -0.72951E-02 41040   0.755E-01    0.480E-01
DAV:   5    -0.669791509587E+03    0.16699E-02   -0.28013E-02 39168   0.406E-01    0.216E-01
DAV:   6    -0.669791040746E+03    0.46884E-03   -0.57192E-03 41296   0.275E-01    0.904E-02
DAV:   7    -0.669790989553E+03    0.51193E-04   -0.13068E-03 42272   0.106E-01    0.462E-02
DAV:   8    -0.669790946600E+03    0.42953E-04   -0.33049E-04 41664   0.613E-02    0.190E-02
DAV:   9    -0.669790942547E+03    0.40527E-05   -0.68122E-05 39520   0.256E-02
   2 F= -.66979094E+03 E0= -.66979595E+03  d E =-.372438E+00  mag=     0.0000
       N       E                     dE             d eps       ncg     rms          rms(c)
DAV:   1    -0.669656467345E+03    0.13448E+00   -0.14294E+01 33280   0.864E+00    0.669E-01
DAV:   2    -0.669842774822E+03   -0.18631E+00   -0.19910E+00 33600   0.299E+00    0.337E-01
DAV:   3    -0.669842032654E+03    0.74217E-03   -0.26994E-02 43088   0.425E-01    0.205E-01
DAV:   4    -0.669841380794E+03    0.65186E-03   -0.38590E-03 41200   0.172E-01    0.147E-01
DAV:   5    -0.669841130119E+03    0.25068E-03   -0.24514E-03 39616   0.123E-01    0.463E-02
DAV:   6    -0.669841109278E+03    0.20840E-04   -0.34394E-04 40720   0.651E-02    0.276E-02
DAV:   7    -0.669841089794E+03    0.19485E-04   -0.13529E-04 39936   0.315E-02    0.996E-03
DAV:   8    -0.669841088765E+03    0.10282E-05   -0.21203E-05 26480   0.158E-02
   3 F= -.66984109E+03 E0= -.66984570E+03  d E =-.501462E-01  mag=     0.0000
       N       E                     dE             d eps       ncg     rms          rms(c)
DAV:   1    -0.669794778250E+03    0.46312E-01   -0.10874E+01 33280   0.599E+00    0.442E-01
DAV:   2    -0.669865835960E+03   -0.71058E-01   -0.77291E-01 33824   0.186E+00    0.201E-01
DAV:   3    -0.669865831560E+03    0.44002E-05   -0.87626E-03 44032   0.211E-01    0.131E-01
DAV:   4    -0.669865658782E+03    0.17278E-03   -0.12596E-03 44896   0.112E-01    0.905E-02
DAV:   5    -0.669865536029E+03    0.12275E-03   -0.71793E-04 42448   0.728E-02    0.269E-02
DAV:   6    -0.669865528199E+03    0.78298E-05   -0.12686E-04 41024   0.402E-02    0.140E-02
DAV:   7    -0.669865523989E+03    0.42106E-05   -0.24818E-05 28112   0.145E-02
   4 F= -.66986552E+03 E0= -.66986971E+03  d E =-.244352E-01  mag=     0.0000
       N       E                     dE             d eps       ncg     rms          rms(c)
DAV:   1    -0.669849013643E+03    0.16515E-01   -0.96693E+00 33280   0.451E+00    0.311E-01
DAV:   2    -0.669880484424E+03   -0.31471E-01   -0.34514E-01 33920   0.125E+00    0.162E-01
DAV:   3    -0.669880220157E+03    0.26427E-03   -0.41836E-03 43232   0.144E-01    0.103E-01
DAV:   4    -0.669880054931E+03    0.16523E-03   -0.83547E-04 42560   0.910E-02    0.555E-02
DAV:   5    -0.669879992962E+03    0.61969E-04   -0.31963E-04 42400   0.605E-02    0.152E-02
DAV:   6    -0.669879991322E+03    0.16398E-05   -0.47744E-05 33584   0.222E-02
   5 F= -.66987999E+03 E0= -.66988382E+03  d E =-.144673E-01  mag=     0.0000
       N       E                     dE             d eps       ncg     rms          rms(c)
DAV:   1    -0.669865504283E+03    0.14489E-01   -0.13828E+01 33312   0.463E+00    0.310E-01
DAV:   2    -0.669892355442E+03   -0.26851E-01   -0.29894E-01 33824   0.116E+00    0.185E-01
DAV:   3    -0.669891856818E+03    0.49862E-03   -0.44427E-03 42576   0.170E-01    0.120E-01
DAV:   4    -0.669891585077E+03    0.27174E-03   -0.11393E-03 42912   0.104E-01    0.639E-02
DAV:   5    -0.669891502054E+03    0.83023E-04   -0.47045E-04 42800   0.692E-02    0.209E-02
DAV:   6    -0.669891493151E+03    0.89028E-05   -0.76867E-05 37440   0.302E-02
   6 F= -.66989149E+03 E0= -.66989499E+03  d E =-.115018E-01  mag=     0.0000
       N       E                     dE             d eps       ncg     rms          rms(c)
DAV:   1    -0.669864257435E+03    0.27245E-01   -0.18588E+01 33280   0.531E+00    0.357E-01
DAV:   2    -0.669899387637E+03   -0.35130E-01   -0.39236E-01 33616   0.132E+00    0.218E-01
DAV:   3    -0.669898677846E+03    0.70979E-03   -0.61654E-03 42528   0.201E-01    0.142E-01
DAV:   4    -0.669898293344E+03    0.38450E-03   -0.16470E-03 42944   0.122E-01    0.762E-02
DAV:   5    -0.669898176618E+03    0.11673E-03   -0.68217E-04 42992   0.818E-02    0.248E-02
DAV:   6    -0.669898162730E+03    0.13887E-04   -0.11073E-04 38672   0.365E-02    0.141E-02
DAV:   7    -0.669898158893E+03    0.38372E-05   -0.27911E-05 29504   0.178E-02
   7 F= -.66989816E+03 E0= -.66990136E+03  d E =-.666574E-02  mag=    -0.0000
       N       E                     dE             d eps       ncg     rms          rms(c)
DAV:   1    -0.669895217758E+03    0.29450E-02   -0.16082E+00 33504   0.165E+00    0.109E-01
DAV:   2    -0.669898981455E+03   -0.37637E-02   -0.41396E-02 34256   0.424E-01    0.660E-02
DAV:   3    -0.669898924241E+03    0.57214E-04   -0.59768E-04 41952   0.598E-02    0.437E-02
DAV:   4    -0.669898890369E+03    0.33872E-04   -0.14898E-04 39168   0.389E-02    0.250E-02
DAV:   5    -0.669898878943E+03    0.11426E-04   -0.73787E-05 36848   0.246E-02    0.759E-03
DAV:   6    -0.669898877657E+03    0.12863E-05   -0.94695E-06 22944   0.114E-02
   8 F= -.66989888E+03 E0= -.66990202E+03  d E =-.718764E-03  mag=    -0.0000
       N       E                     dE             d eps       ncg     rms          rms(c)
DAV:   1    -0.669895449858E+03    0.34291E-02   -0.10262E+00 33552   0.148E+00    0.996E-02
DAV:   2    -0.669899097970E+03   -0.36481E-02   -0.39676E-02 34112   0.408E-01    0.560E-02
DAV:   3    -0.669899067834E+03    0.30136E-04   -0.51616E-04 41696   0.512E-02    0.364E-02
DAV:   4    -0.669899048367E+03    0.19468E-04   -0.10015E-04 37920   0.323E-02    0.215E-02
DAV:   5    -0.669899040700E+03    0.76661E-05   -0.53392E-05 35824   0.216E-02
   9 F= -.66989904E+03 E0= -.66990217E+03  d E =-.163043E-03  mag=    -0.0000
       N       E                     dE             d eps       ncg     rms          rms(c)
DAV:   1    -0.669896702279E+03    0.23461E-02   -0.44668E-01 33376   0.109E+00    0.755E-02
DAV:   2    -0.669898960854E+03   -0.22586E-02   -0.24453E-02 34144   0.312E-01    0.398E-02
DAV:   3    -0.669898955020E+03    0.58337E-05   -0.31466E-04 41792   0.398E-02    0.259E-02
DAV:   4    -0.669898947259E+03    0.77613E-05   -0.45798E-05 36144   0.229E-02
  10 F= -.66989895E+03 E0= -.66990207E+03  d E =0.934417E-04  mag=     0.0000
       N       E                     dE             d eps       ncg     rms          rms(c)
DAV:   1    -0.669897892921E+03    0.10621E-02   -0.10955E-01 33776   0.626E-01    0.463E-02
DAV:   2    -0.669898823144E+03   -0.93022E-03   -0.10026E-02 34256   0.189E-01    0.230E-02
DAV:   3    -0.669898825673E+03   -0.25287E-05   -0.12581E-04 41264   0.232E-02    0.152E-02
DAV:   4    -0.669898823910E+03    0.17626E-05   -0.13555E-05 30048   0.132E-02
  11 F= -.66989882E+03 E0= -.66990196E+03  d E =0.123348E-03  mag=     0.0000
       N       E                     dE             d eps       ncg     rms          rms(c)
DAV:   1    -0.669898812785E+03    0.12888E-04   -0.13203E-02 34528   0.145E-01    0.984E-03
DAV:   2    -0.669898838883E+03   -0.26098E-04   -0.29511E-04 34592   0.365E-02    0.591E-03
DAV:   3    -0.669898838160E+03    0.72332E-06   -0.39588E-06 22432   0.608E-03
  12 F= -.66989884E+03 E0= -.66990198E+03  d E =-.142498E-04  mag=    -0.0000
       N       E                     dE             d eps       ncg     rms          rms(c)
DAV:   1    -0.669898701069E+03    0.13781E-03   -0.30550E-02 34144   0.272E-01    0.176E-02
DAV:   2    -0.669898845883E+03   -0.14481E-03   -0.15511E-03 34400   0.764E-02    0.923E-03
DAV:   3    -0.669898845547E+03    0.33592E-06   -0.18083E-05 31360   0.998E-03
  13 F= -.66989885E+03 E0= -.66990197E+03  d E =-.738646E-05  mag=     0.0000
       N       E                     dE             d eps       ncg     rms          rms(c)
DAV:   1    -0.669898766932E+03    0.78951E-04   -0.32494E-03 34272   0.126E-01    0.104E-02
DAV:   2    -0.669898816522E+03   -0.49591E-04   -0.53665E-04 34528   0.401E-02    0.450E-03
DAV:   3    -0.669898816560E+03   -0.37617E-07   -0.75283E-06 27264   0.820E-03
  14 F= -.66989882E+03 E0= -.66990195E+03  d E =0.289868E-04  mag=     0.0000
       N       E                     dE             d eps       ncg     rms          rms(c)
DAV:   1    -0.669898549578E+03    0.26694E-03   -0.15840E-01 33728   0.527E-01    0.339E-02
DAV:   2    -0.669898952923E+03   -0.40334E-03   -0.44137E-03 34192   0.136E-01    0.202E-02
DAV:   3    -0.669898946404E+03    0.65184E-05   -0.57150E-05 36128   0.155E-02
  15 F= -.66989895E+03 E0= -.66990210E+03  d E =-.129844E-03  mag=     0.0000
       N       E                     dE             d eps       ncg     rms          rms(c)
DAV:   1    -0.669897870248E+03    0.10827E-02   -0.16491E-01 33408   0.722E-01    0.523E-02
DAV:   2    -0.669899123907E+03   -0.12537E-02   -0.13452E-02 33824   0.203E-01    0.286E-02
DAV:   3    -0.669899124099E+03   -0.19275E-06   -0.18359E-04 41424   0.276E-02    0.181E-02
DAV:   4    -0.669899120536E+03    0.35633E-05   -0.21566E-05 32336   0.143E-02
  16 F= -.66989912E+03 E0= -.66990226E+03  d E =-.174132E-03  mag=     0.0000
       N       E                     dE             d eps       ncg     rms          rms(c)
DAV:   1    -0.669892461635E+03    0.66625E-02   -0.71579E-01 33280   0.163E+00    0.118E-01
DAV:   2    -0.669899473348E+03   -0.70117E-02   -0.74980E-02 33456   0.469E-01    0.612E-02
DAV:   3    -0.669899490085E+03   -0.16737E-04   -0.10385E-03 41376   0.676E-02    0.390E-02
DAV:   4    -0.669899477098E+03    0.12987E-04   -0.10072E-04 40080   0.319E-02    0.274E-02
DAV:   5    -0.669899470414E+03    0.66840E-05   -0.86057E-05 35664   0.223E-02
  17 F= -.66989947E+03 E0= -.66990258E+03  d E =-.349878E-03  mag=     0.0000
       N       E                     dE             d eps       ncg     rms          rms(c)
DAV:   1    -0.669896473360E+03    0.30037E-02   -0.22129E-01 33312   0.102E+00    0.804E-02
DAV:   2    -0.669899682881E+03   -0.32095E-02   -0.34396E-02 33568   0.311E-01    0.391E-02
DAV:   3    -0.669899700996E+03   -0.18115E-04   -0.46816E-04 41584   0.473E-02    0.242E-02
DAV:   4    -0.669899697849E+03    0.31464E-05   -0.34709E-05 35264   0.191E-02
  18 F= -.66989970E+03 E0= -.66990277E+03  d E =-.227436E-03  mag=     0.0000
       N       E                     dE             d eps       ncg     rms          rms(c)
DAV:   1    -0.669896926448E+03    0.27745E-02   -0.20149E-01 33312   0.984E-01    0.773E-02
DAV:   2    -0.669899876429E+03   -0.29500E-02   -0.31552E-02 33568   0.310E-01    0.367E-02
DAV:   3    -0.669899894367E+03   -0.17939E-04   -0.39919E-04 41888   0.426E-02    0.230E-02
DAV:   4    -0.669899891966E+03    0.24012E-05   -0.30897E-05 34480   0.186E-02
  19 F= -.66989989E+03 E0= -.66990292E+03  d E =-.194117E-03  mag=     0.0000
       N       E                     dE             d eps       ncg     rms          rms(c)
DAV:   1    -0.669882612534E+03    0.17282E-01   -0.12534E+00 33280   0.240E+00    0.184E-01
DAV:   2    -0.669900153989E+03   -0.17541E-01   -0.18706E-01 33280   0.729E-01    0.913E-02
DAV:   3    -0.669900231231E+03   -0.77243E-04   -0.25472E-03 41456   0.109E-01    0.581E-02
DAV:   4    -0.669900207471E+03    0.23761E-04   -0.23248E-04 41760   0.485E-02    0.419E-02
DAV:   5    -0.669900199435E+03    0.80356E-05   -0.18141E-04 37888   0.309E-02    0.138E-02
DAV:   6    -0.669900199006E+03    0.42880E-06   -0.35695E-05 35568   0.197E-02
  20 F= -.66990020E+03 E0= -.66990316E+03  d E =-.307040E-03  mag=     0.0000
       N       E                     dE             d eps       ncg     rms          rms(c)
DAV:   1    -0.669898602115E+03    0.15973E-02   -0.11932E-01 33280   0.746E-01    0.583E-02
DAV:   2    -0.669900260476E+03   -0.16584E-02   -0.17763E-02 33760   0.233E-01    0.279E-02
DAV:   3    -0.669900269000E+03   -0.85239E-05   -0.23979E-04 42000   0.355E-02    0.174E-02
DAV:   4    -0.669900266742E+03    0.22573E-05   -0.18007E-05 30576   0.144E-02
  21 F= -.66990027E+03 E0= -.66990321E+03  d E =-.677361E-04  mag=     0.0000
       N       E                     dE             d eps       ncg     rms          rms(c)
DAV:   1    -0.669900255888E+03    0.13112E-04   -0.12097E-03 34528   0.770E-02    0.774E-03
DAV:   2    -0.669900269871E+03   -0.13984E-04   -0.15470E-04 35072   0.283E-02    0.502E-03
DAV:   3    -0.669900269385E+03    0.48656E-06   -0.46690E-06 20576   0.857E-03
  22 F= -.66990027E+03 E0= -.66990322E+03  d E =-.264226E-05  mag=    -0.0000
       N       E                     dE             d eps       ncg     rms          rms(c)
DAV:   1    -0.669900006574E+03    0.26330E-03   -0.21327E-02 33600   0.312E-01    0.242E-02
DAV:   2    -0.669900283380E+03   -0.27681E-03   -0.29635E-03 34048   0.983E-02    0.117E-02
DAV:   3    -0.669900284493E+03   -0.11127E-05   -0.35443E-05 34048   0.131E-02
  23 F= -.66990028E+03 E0= -.66990323E+03  d E =-.151081E-04  mag=    -0.0000
