       N       E                     dE             d eps       ncg     rms          rms(c)
DAV:   1     0.718088918141E+04    0.71809E+04   -0.28642E+05 16960   0.145E+03
DAV:   2    -0.563681256884E+02   -0.72373E+04   -0.69402E+04 16640   0.525E+02
DAV:   3    -0.657470114114E+03   -0.60110E+03   -0.54839E+03 19472   0.137E+02
DAV:   4    -0.695886664500E+03   -0.38417E+02   -0.36954E+02 20656   0.278E+01
DAV:   5    -0.697538191601E+03   -0.16515E+01   -0.16392E+01 21776   0.515E+00    0.405E+01
DAV:   6    -0.672692857277E+03    0.24845E+02   -0.50142E+01 19312   0.160E+01    0.186E+01
DAV:   7    -0.671460397980E+03    0.12325E+01   -0.17429E+01 20384   0.109E+01    0.940E+00
DAV:   8    -0.671018185778E+03    0.44221E+00   -0.71608E+00 20960   0.778E+00    0.323E+00
DAV:   9    -0.670872900878E+03    0.14528E+00   -0.11907E+00 21264   0.419E+00    0.171E+00
DAV:  10    -0.670887571870E+03   -0.14671E-01   -0.23412E-01 20880   0.125E+00    0.790E-01
DAV:  11    -0.670880574873E+03    0.69970E-02   -0.53541E-02 21248   0.829E-01    0.208E-01
DAV:  12    -0.670881662084E+03   -0.10872E-02   -0.89854E-03 20272   0.299E-01    0.897E-02
DAV:  13    -0.670881629664E+03    0.32420E-04   -0.13918E-03 20224   0.113E-01    0.378E-02
DAV:  14    -0.670881586185E+03    0.43479E-04   -0.24294E-04 21488   0.412E-02    0.198E-02
DAV:  15    -0.670881560515E+03    0.25670E-04   -0.43647E-05 16704   0.218E-02    0.840E-03
DAV:  16    -0.670881551472E+03    0.90430E-05   -0.99402E-06 11728   0.995E-03
   1 F= -.67088155E+03 E0= -.67088953E+03  d E =-.670882E+03  mag=    -0.0004
       N       E                     dE             d eps       ncg     rms          rms(c)
DAV:   1    -0.670140901347E+03    0.74066E+00   -0.54899E+01 16640   0.183E+01    0.155E+00
DAV:   2    -0.671058888931E+03   -0.91799E+00   -0.99238E+00 16768   0.632E+00    0.727E-01
DAV:   3    -0.671055770718E+03    0.31182E-02   -0.17353E-01 21152   0.119E+00    0.430E-01
DAV:   4    -0.671052743435E+03    0.30273E-02   -0.19898E-02 20112   0.430E-01    0.300E-01
DAV:   5    -0.671051977143E+03    0.76629E-03   -0.10786E-02 19008   0.211E-01    0.102E-01
DAV:   6    -0.671052018175E+03   -0.41032E-04   -0.14912E-03 21552   0.125E-01    0.566E-02
DAV:   7    -0.671051984091E+03    0.34084E-04   -0.27898E-04 21216   0.633E-02    0.247E-02
DAV:   8    -0.671051974571E+03    0.95200E-05   -0.12557E-04 18816   0.304E-02    0.755E-03
DAV:   9    -0.671051974949E+03   -0.37861E-06   -0.17657E-05 13296   0.128E-02
   2 F= -.67105197E+03 E0= -.67105723E+03  d E =-.170423E+00  mag=     0.0000
       N       E                     dE             d eps       ncg     rms          rms(c)
DAV:   1    -0.670982067600E+03    0.69907E-01   -0.48521E+00 16656   0.564E+00    0.469E-01
DAV:   2    -0.671070150580E+03   -0.88083E-01   -0.95149E-01 17072   0.202E+00    0.201E-01
DAV:   3    -0.671070198426E+03   -0.47845E-04   -0.12002E-02 21616   0.266E-01    0.128E-01
DAV:   4    -0.671070036992E+03    0.16143E-03   -0.13072E-03 20624   0.122E-01    0.884E-02
DAV:   5    -0.671069980455E+03    0.56537E-04   -0.79249E-04 19776   0.679E-02    0.255E-02
DAV:   6    -0.671069982283E+03   -0.18279E-05   -0.12522E-04 21056   0.337E-02    0.150E-02
DAV:   7    -0.671069976577E+03    0.57052E-05   -0.32486E-05 16048   0.172E-02
   3 F= -.67106998E+03 E0= -.67107519E+03  d E =-.180016E-01  mag=    -0.0000
       N       E                     dE             d eps       ncg     rms          rms(c)
DAV:   1    -0.671041146576E+03    0.28836E-01   -0.18730E+00 16704   0.349E+00    0.293E-01
DAV:   2    -0.671074687349E+03   -0.33541E-01   -0.36551E-01 16992   0.123E+00    0.111E-01
DAV:   3    -0.671074838858E+03   -0.15151E-03   -0.39503E-03 21760   0.120E-01    0.703E-02
DAV:   4    -0.671074820207E+03    0.18651E-04   -0.33018E-04 21344   0.598E-02    0.446E-02
DAV:   5    -0.671074805527E+03    0.14680E-04   -0.16477E-04 20464   0.405E-02    0.118E-02
DAV:   6    -0.671074806221E+03   -0.69357E-06   -0.32872E-05 16032   0.179E-02
   4 F= -.67107481E+03 E0= -.67107993E+03  d E =-.482964E-02  mag=     0.0000
       N       E                     dE             d eps       ncg     rms          rms(c)
DAV:   1    -0.671069066799E+03    0.57387E-02   -0.34719E-01 16880   0.151E+00    0.128E-01
DAV:   2    -0.671075354922E+03   -0.62881E-02   -0.68488E-02 17152   0.537E-01    0.499E-02
DAV:   3    -0.671075385066E+03   -0.30144E-04   -0.74133E-04 22032   0.565E-02    0.319E-02
DAV:   4    -0.671075380403E+03    0.46628E-05   -0.67345E-05 20352   0.283E-02
   5 F= -.67107538E+03 E0= -.67108052E+03  d E =-.574182E-03  mag=     0.0000
