       N       E                     dE             d eps       ncg     rms          rms(c)
DAV:   1     0.718003003022E+04    0.71800E+04   -0.28642E+05 16960   0.145E+03
DAV:   2    -0.544006869272E+02   -0.72344E+04   -0.69377E+04 16640   0.525E+02
DAV:   3    -0.656846114819E+03   -0.60245E+03   -0.54936E+03 19536   0.137E+02
DAV:   4    -0.695125550284E+03   -0.38279E+02   -0.36864E+02 20704   0.278E+01
DAV:   5    -0.696669493099E+03   -0.15439E+01   -0.15311E+01 21728   0.499E+00    0.407E+01
DAV:   6    -0.671772317041E+03    0.24897E+02   -0.54366E+01 19312   0.184E+01    0.189E+01
DAV:   7    -0.670372015086E+03    0.14003E+01   -0.20028E+01 20080   0.132E+01    0.997E+00
DAV:   8    -0.669664517025E+03    0.70750E+00   -0.94599E+00 20832   0.935E+00    0.370E+00
DAV:   9    -0.669506041824E+03    0.15848E+00   -0.18114E+00 21056   0.474E+00    0.183E+00
DAV:  10    -0.669515019142E+03   -0.89773E-02   -0.32400E-01 22128   0.167E+00    0.113E+00
DAV:  11    -0.669503619252E+03    0.11400E-01   -0.11041E-01 22032   0.114E+00    0.347E-01
DAV:  12    -0.669505692393E+03   -0.20731E-02   -0.19902E-02 20656   0.452E-01    0.143E-01
DAV:  13    -0.669505201928E+03    0.49047E-03   -0.30206E-03 20672   0.200E-01    0.538E-02
DAV:  14    -0.669505140057E+03    0.61870E-04   -0.49262E-04 20672   0.625E-02    0.297E-02
DAV:  15    -0.669505091576E+03    0.48482E-04   -0.15686E-04 20848   0.341E-02    0.170E-02
DAV:  16    -0.669505070773E+03    0.20803E-04   -0.26000E-05 14736   0.178E-02    0.832E-03
DAV:  17    -0.669505062855E+03    0.79188E-05   -0.85752E-06 11232   0.823E-03
   1 F= -.66950506E+03 E0= -.66950952E+03  d E =-.669505E+03  mag=    -0.0002
       N       E                     dE             d eps       ncg     rms          rms(c)
DAV:   1    -0.667644002894E+03    0.18611E+01   -0.14011E+02 16640   0.291E+01    0.263E+00
DAV:   2    -0.669898070001E+03   -0.22541E+01   -0.24438E+01 16672   0.101E+01    0.137E+00
DAV:   3    -0.669882287491E+03    0.15783E-01   -0.58554E-01 21360   0.234E+00    0.737E-01
DAV:   4    -0.669869904719E+03    0.12383E-01   -0.67551E-02 20528   0.752E-01    0.463E-01
DAV:   5    -0.669868463682E+03    0.14410E-02   -0.26876E-02 19872   0.395E-01    0.206E-01
DAV:   6    -0.669868055746E+03    0.40794E-03   -0.51049E-03 20768   0.260E-01    0.897E-02
DAV:   7    -0.669868007115E+03    0.48630E-04   -0.12025E-03 21776   0.103E-01    0.487E-02
DAV:   8    -0.669867956792E+03    0.50323E-04   -0.39103E-04 20800   0.644E-02    0.186E-02
DAV:   9    -0.669867953262E+03    0.35301E-05   -0.74717E-05 20800   0.262E-02
   2 F= -.66986795E+03 E0= -.66987237E+03  d E =-.362890E+00  mag=     0.0000
       N       E                     dE             d eps       ncg     rms          rms(c)
DAV:   1    -0.669738093035E+03    0.12986E+00   -0.10145E+01 16640   0.793E+00    0.640E-01
DAV:   2    -0.669907100652E+03   -0.16901E+00   -0.18055E+00 16880   0.284E+00    0.325E-01
DAV:   3    -0.669906587446E+03    0.51321E-03   -0.24975E-02 21776   0.430E-01    0.194E-01
DAV:   4    -0.669905925719E+03    0.66173E-03   -0.32732E-03 20752   0.158E-01    0.141E-01
DAV:   5    -0.669905725869E+03    0.19985E-03   -0.22973E-03 19344   0.106E-01    0.464E-02
DAV:   6    -0.669905704958E+03    0.20911E-04   -0.33732E-04 20544   0.667E-02    0.262E-02
DAV:   7    -0.669905687934E+03    0.17025E-04   -0.11719E-04 19904   0.283E-02    0.905E-03
DAV:   8    -0.669905686825E+03    0.11088E-05   -0.18657E-05 13072   0.149E-02
   3 F= -.66990569E+03 E0= -.66991035E+03  d E =-.377336E-01  mag=     0.0000
       N       E                     dE             d eps       ncg     rms          rms(c)
DAV:   1    -0.669849680543E+03    0.56007E-01   -0.51190E+00 16640   0.529E+00    0.429E-01
DAV:   2    -0.669918752270E+03   -0.69072E-01   -0.75058E-01 16944   0.181E+00    0.167E-01
DAV:   3    -0.669919076270E+03   -0.32400E-03   -0.78795E-03 22256   0.190E-01    0.109E-01
DAV:   4    -0.669918993870E+03    0.82400E-04   -0.88054E-04 22480   0.915E-02    0.780E-02
DAV:   5    -0.669918940954E+03    0.52916E-04   -0.45276E-04 21056   0.567E-02    0.223E-02
DAV:   6    -0.669918934299E+03    0.66553E-05   -0.87733E-05 20224   0.335E-02
   4 F= -.66991893E+03 E0= -.66992348E+03  d E =-.132475E-01  mag=     0.0000
       N       E                     dE             d eps       ncg     rms          rms(c)
DAV:   1    -0.669898634953E+03    0.20306E-01   -0.30114E+00 16784   0.342E+00    0.263E-01
DAV:   2    -0.669923570486E+03   -0.24936E-01   -0.27125E-01 17040   0.110E+00    0.111E-01
DAV:   3    -0.669923616939E+03   -0.46453E-04   -0.26892E-03 22144   0.109E-01    0.708E-02
DAV:   4    -0.669923583235E+03    0.33703E-04   -0.37090E-04 22320   0.627E-02    0.466E-02
DAV:   5    -0.669923553132E+03    0.30103E-04   -0.19706E-04 22032   0.402E-02    0.123E-02
DAV:   6    -0.669923550839E+03    0.22933E-05   -0.25117E-05 16160   0.168E-02
   5 F= -.66992355E+03 E0= -.66992795E+03  d E =-.461654E-02  mag=     0.0000
       N       E                     dE             d eps       ncg     rms          rms(c)
DAV:   1    -0.669922113560E+03    0.14396E-02   -0.98214E-01 16944   0.142E+00    0.989E-02
DAV:   2    -0.669925292644E+03   -0.31791E-02   -0.34864E-02 17280   0.397E-01    0.539E-02
DAV:   3    -0.669925261868E+03    0.30776E-04   -0.43221E-04 21536   0.504E-02    0.351E-02
DAV:   4    -0.669925243519E+03    0.18349E-04   -0.95055E-05 19968   0.300E-02    0.220E-02
DAV:   5    -0.669925234640E+03    0.88784E-05   -0.47052E-05 18208   0.192E-02
   6 F= -.66992523E+03 E0= -.66992950E+03  d E =-.168380E-02  mag=    -0.0000
       N       E                     dE             d eps       ncg     rms          rms(c)
DAV:   1    -0.669916255199E+03    0.89883E-02   -0.40649E+00 16704   0.273E+00    0.184E-01
DAV:   2    -0.669927316739E+03   -0.11062E-01   -0.12140E-01 16976   0.727E-01    0.107E-01
DAV:   3    -0.669927169089E+03    0.14765E-03   -0.16001E-03 21264   0.914E-02    0.702E-02
DAV:   4    -0.669927091486E+03    0.77603E-04   -0.39102E-04 22048   0.605E-02    0.431E-02
DAV:   5    -0.669927052855E+03    0.38631E-04   -0.19262E-04 20320   0.393E-02    0.128E-02
DAV:   6    -0.669927050001E+03    0.28541E-05   -0.25912E-05 16608   0.192E-02
   7 F= -.66992705E+03 E0= -.66993110E+03  d E =-.181536E-02  mag=    -0.0000
       N       E                     dE             d eps       ncg     rms          rms(c)
DAV:   1    -0.669925765386E+03    0.12875E-02   -0.36091E-01 16960   0.851E-01    0.583E-02
DAV:   2    -0.669927083917E+03   -0.13185E-02   -0.14293E-02 17280   0.222E-01    0.346E-02
DAV:   3    -0.669927074458E+03    0.94585E-05   -0.21529E-04 20704   0.328E-02    0.226E-02
DAV:   4    -0.669927066297E+03    0.81608E-05   -0.38168E-05 17808   0.176E-02
   8 F= -.66992707E+03 E0= -.66993109E+03  d E =-.162964E-04  mag=    -0.0000
       N       E                     dE             d eps       ncg     rms          rms(c)
DAV:   1    -0.669926677583E+03    0.39687E-03   -0.15023E-02 17216   0.274E-01    0.229E-02
DAV:   2    -0.669926913299E+03   -0.23572E-03   -0.25488E-03 17280   0.884E-02    0.104E-02
DAV:   3    -0.669926914769E+03   -0.14701E-05   -0.32830E-05 17216   0.119E-02
   9 F= -.66992691E+03 E0= -.66993095E+03  d E =0.151528E-03  mag=    -0.0000
       N       E                     dE             d eps       ncg     rms          rms(c)
DAV:   1    -0.669926948328E+03   -0.35029E-04   -0.23392E-02 17216   0.228E-01    0.165E-02
DAV:   2    -0.669927039761E+03   -0.91432E-04   -0.10062E-03 17280   0.646E-02    0.836E-03
DAV:   3    -0.669927039106E+03    0.65420E-06   -0.12606E-05 14688   0.105E-02
  10 F= -.66992704E+03 E0= -.66993105E+03  d E =-.124337E-03  mag=    -0.0000
       N       E                     dE             d eps       ncg     rms          rms(c)
DAV:   1    -0.669925984327E+03    0.10554E-02   -0.22866E-01 16832   0.824E-01    0.592E-02
DAV:   2    -0.669927538150E+03   -0.15538E-02   -0.16688E-02 17008   0.238E-01    0.313E-02
DAV:   3    -0.669927536263E+03    0.18873E-05   -0.21606E-04 20944   0.293E-02    0.198E-02
DAV:   4    -0.669927531074E+03    0.51894E-05   -0.27570E-05 17120   0.168E-02
  11 F= -.66992753E+03 E0= -.66993146E+03  d E =-.491967E-03  mag=     0.0000
       N       E                     dE             d eps       ncg     rms          rms(c)
DAV:   1    -0.669917468174E+03    0.10068E-01   -0.15589E+00 16704   0.217E+00    0.156E-01
DAV:   2    -0.669928458516E+03   -0.10990E-01   -0.11807E-01 16768   0.631E-01    0.792E-02
DAV:   3    -0.669928469730E+03   -0.11213E-04   -0.14957E-03 21072   0.775E-02    0.503E-02
DAV:   4    -0.669928443851E+03    0.25879E-04   -0.18560E-04 21296   0.431E-02    0.339E-02
DAV:   5    -0.669928427289E+03    0.16562E-04   -0.12107E-04 19344   0.302E-02    0.908E-03
DAV:   6    -0.669928426842E+03    0.44658E-06   -0.18342E-05 14912   0.134E-02
  12 F= -.66992843E+03 E0= -.66993214E+03  d E =-.895769E-03  mag=     0.0000
       N       E                     dE             d eps       ncg     rms          rms(c)
DAV:   1    -0.669921496431E+03    0.69309E-02   -0.63063E-01 16640   0.161E+00    0.123E-01
DAV:   2    -0.669928913365E+03   -0.74169E-02   -0.79404E-02 16768   0.493E-01    0.595E-02
DAV:   3    -0.669928945550E+03   -0.32185E-04   -0.10452E-03 20960   0.688E-02    0.371E-02
DAV:   4    -0.669928934655E+03    0.10894E-04   -0.96751E-05 20528   0.306E-02    0.264E-02
DAV:   5    -0.669928929888E+03    0.47673E-05   -0.68354E-05 18032   0.208E-02
  13 F= -.66992893E+03 E0= -.66993252E+03  d E =-.503046E-03  mag=     0.0000
       N       E                     dE             d eps       ncg     rms          rms(c)
DAV:   1    -0.669917638233E+03    0.11296E-01   -0.83782E-01 16672   0.193E+00    0.153E-01
DAV:   2    -0.669929310677E+03   -0.11672E-01   -0.12508E-01 16672   0.599E-01    0.726E-02
DAV:   3    -0.669929373765E+03   -0.63088E-04   -0.16481E-03 20864   0.822E-02    0.448E-02
DAV:   4    -0.669929362275E+03    0.11490E-04   -0.13824E-04 20864   0.362E-02    0.319E-02
DAV:   5    -0.669929357329E+03    0.49465E-05   -0.94697E-05 18688   0.255E-02
  14 F= -.66992936E+03 E0= -.66993279E+03  d E =-.427440E-03  mag=     0.0000
       N       E                     dE             d eps       ncg     rms          rms(c)
DAV:   1    -0.669918374906E+03    0.10987E-01   -0.75957E-01 16640   0.186E+00    0.150E-01
DAV:   2    -0.669929613921E+03   -0.11239E-01   -0.12058E-01 16640   0.575E-01    0.718E-02
DAV:   3    -0.669929673523E+03   -0.59602E-04   -0.16201E-03 20592   0.816E-02    0.437E-02
DAV:   4    -0.669929663128E+03    0.10395E-04   -0.12779E-04 20208   0.330E-02    0.290E-02
DAV:   5    -0.669929660189E+03    0.29389E-05   -0.74739E-05 18496   0.254E-02
  15 F= -.66992966E+03 E0= -.66993300E+03  d E =-.302860E-03  mag=     0.0000
       N       E                     dE             d eps       ncg     rms          rms(c)
DAV:   1    -0.669929159026E+03    0.50410E-03   -0.65247E-02 16832   0.477E-01    0.370E-02
DAV:   2    -0.669929705246E+03   -0.54622E-03   -0.59621E-03 17184   0.143E-01    0.180E-02
DAV:   3    -0.669929707277E+03   -0.20310E-05   -0.85477E-05 20192   0.216E-02
  16 F= -.66992971E+03 E0= -.66993306E+03  d E =-.470885E-04  mag=     0.0000
       N       E                     dE             d eps       ncg     rms          rms(c)
DAV:   1    -0.669929705236E+03    0.10317E-07   -0.37824E-03 17264   0.848E-02    0.107E-02
DAV:   2    -0.669929714983E+03   -0.97471E-05   -0.11734E-04 18416   0.243E-02    0.700E-03
DAV:   3    -0.669929714414E+03    0.56875E-06   -0.36452E-06 11296   0.741E-03
  17 F= -.66992971E+03 E0= -.66993307E+03  d E =-.713707E-05  mag=     0.0000
