       N       E                     dE             d eps       ncg     rms          rms(c)
DAV:   1     0.718083806820E+04    0.71808E+04   -0.28626E+05 33920   0.145E+03
DAV:   2    -0.543980863028E+02   -0.72352E+04   -0.69387E+04 33280   0.525E+02
DAV:   3    -0.656102710333E+03   -0.60170E+03   -0.54890E+03 38992   0.137E+02
DAV:   4    -0.694647698156E+03   -0.38545E+02   -0.37058E+02 41344   0.278E+01
DAV:   5    -0.696301708371E+03   -0.16540E+01   -0.16407E+01 43424   0.512E+00    0.407E+01
DAV:   6    -0.671424645509E+03    0.24877E+02   -0.55894E+01 39152   0.191E+01    0.190E+01
DAV:   7    -0.670220309560E+03    0.12043E+01   -0.22107E+01 41872   0.137E+01    0.104E+01
DAV:   8    -0.669182400771E+03    0.10379E+01   -0.10254E+01 42432   0.924E+00    0.451E+00
DAV:   9    -0.668959599914E+03    0.22280E+00   -0.24704E+00 43360   0.493E+00    0.191E+00
DAV:  10    -0.668972736153E+03   -0.13136E-01   -0.38324E-01 42512   0.185E+00    0.121E+00
DAV:  11    -0.668962128555E+03    0.10608E-01   -0.12555E-01 41584   0.117E+00    0.408E-01
DAV:  12    -0.668965180957E+03   -0.30524E-02   -0.26855E-02 41408   0.500E-01    0.170E-01
DAV:  13    -0.668964602552E+03    0.57841E-03   -0.42191E-03 41616   0.238E-01    0.653E-02
DAV:  14    -0.668964545380E+03    0.57172E-04   -0.72151E-04 40784   0.740E-02    0.369E-02
DAV:  15    -0.668964502582E+03    0.42798E-04   -0.22423E-04 42000   0.432E-02    0.207E-02
DAV:  16    -0.668964486620E+03    0.15963E-04   -0.42572E-05 33792   0.218E-02    0.111E-02
DAV:  17    -0.668964477558E+03    0.90621E-05   -0.14922E-05 23632   0.108E-02
   1 F= -.66896448E+03 E0= -.66896759E+03  d E =-.668964E+03  mag=     0.0006
       N       E                     dE             d eps       ncg     rms          rms(c)
DAV:   1    -0.667961952705E+03    0.10025E+01   -0.20327E+02 33280   0.263E+01    0.219E+00
DAV:   2    -0.669441433538E+03   -0.14795E+01   -0.16008E+01 33312   0.829E+00    0.137E+00
DAV:   3    -0.669415068380E+03    0.26365E-01   -0.44324E-01 42496   0.201E+00    0.744E-01
DAV:   4    -0.669403072271E+03    0.11996E-01   -0.53979E-02 41120   0.647E-01    0.445E-01
DAV:   5    -0.669400881402E+03    0.21909E-02   -0.22301E-02 39328   0.347E-01    0.184E-01
DAV:   6    -0.669400397108E+03    0.48429E-03   -0.41639E-03 41520   0.241E-01    0.778E-02
DAV:   7    -0.669400352436E+03    0.44672E-04   -0.81337E-04 40256   0.886E-02    0.383E-02
DAV:   8    -0.669400329499E+03    0.22937E-04   -0.21107E-04 40432   0.469E-02    0.168E-02
DAV:   9    -0.669400327051E+03    0.24478E-05   -0.40686E-05 33184   0.210E-02
   2 F= -.66940033E+03 E0= -.66940430E+03  d E =-.435849E+00  mag=     0.0000
       N       E                     dE             d eps       ncg     rms          rms(c)
DAV:   1    -0.669234978749E+03    0.16535E+00   -0.15432E+01 33280   0.931E+00    0.734E-01
DAV:   2    -0.669456547146E+03   -0.22157E+00   -0.23789E+00 33424   0.324E+00    0.342E-01
DAV:   3    -0.669456177518E+03    0.36963E-03   -0.30456E-02 42960   0.438E-01    0.210E-01
DAV:   4    -0.669455604085E+03    0.57343E-03   -0.41782E-03 41776   0.187E-01    0.152E-01
DAV:   5    -0.669455388843E+03    0.21524E-03   -0.24853E-03 41136   0.132E-01    0.584E-02
DAV:   6    -0.669455343500E+03    0.45343E-04   -0.40659E-04 41136   0.738E-02    0.295E-02
DAV:   7    -0.669455327563E+03    0.15937E-04   -0.15239E-04 40192   0.318E-02    0.125E-02
DAV:   8    -0.669455325076E+03    0.24874E-05   -0.23566E-05 27920   0.185E-02
   3 F= -.66945533E+03 E0= -.66946005E+03  d E =-.549980E-01  mag=     0.0000
       N       E                     dE             d eps       ncg     rms          rms(c)
DAV:   1    -0.669382202705E+03    0.73125E-01   -0.11543E+01 33280   0.664E+00    0.504E-01
DAV:   2    -0.669478996237E+03   -0.96794E-01   -0.10467E+00 33520   0.213E+00    0.236E-01
DAV:   3    -0.669478656887E+03    0.33935E-03   -0.13547E-02 42368   0.275E-01    0.160E-01
DAV:   4    -0.669478354751E+03    0.30214E-03   -0.21606E-03 43456   0.152E-01    0.110E-01
DAV:   5    -0.669478184158E+03    0.17059E-03   -0.13927E-03 40464   0.848E-02    0.371E-02
DAV:   6    -0.669478168542E+03    0.15616E-04   -0.22047E-04 41328   0.517E-02    0.203E-02
DAV:   7    -0.669478161996E+03    0.65460E-05   -0.51799E-05 35040   0.230E-02
   4 F= -.66947816E+03 E0= -.66948326E+03  d E =-.228369E-01  mag=     0.0000
       N       E                     dE             d eps       ncg     rms          rms(c)
DAV:   1    -0.669454362362E+03    0.23806E-01   -0.37706E+00 33296   0.371E+00    0.282E-01
DAV:   2    -0.669484120717E+03   -0.29758E-01   -0.32312E-01 33680   0.118E+00    0.126E-01
DAV:   3    -0.669484046598E+03    0.74119E-04   -0.39018E-03 41968   0.134E-01    0.802E-02
DAV:   4    -0.669483983858E+03    0.62741E-04   -0.57120E-04 42640   0.766E-02    0.520E-02
DAV:   5    -0.669483944595E+03    0.39262E-04   -0.30060E-04 41824   0.499E-02    0.178E-02
DAV:   6    -0.669483940899E+03    0.36964E-05   -0.55619E-05 36736   0.241E-02
   5 F= -.66948394E+03 E0= -.66948922E+03  d E =-.577890E-02  mag=    -0.0000
       N       E                     dE             d eps       ncg     rms          rms(c)
DAV:   1    -0.669471686562E+03    0.12258E-01   -0.13245E+00 33456   0.237E+00    0.191E-01
DAV:   2    -0.669485252885E+03   -0.13566E-01   -0.14790E-01 33952   0.770E-01    0.809E-02
DAV:   3    -0.669485249808E+03    0.30765E-05   -0.18979E-03 41472   0.981E-02    0.531E-02
DAV:   4    -0.669485225719E+03    0.24089E-04   -0.26003E-04 42864   0.518E-02    0.369E-02
DAV:   5    -0.669485210069E+03    0.15650E-04   -0.14746E-04 39056   0.303E-02    0.139E-02
DAV:   6    -0.669485207339E+03    0.27306E-05   -0.26732E-05 31840   0.187E-02
   6 F= -.66948521E+03 E0= -.66949056E+03  d E =-.126644E-02  mag=     0.0000
       N       E                     dE             d eps       ncg     rms          rms(c)
DAV:   1    -0.669476444986E+03    0.87651E-02   -0.55338E-01 33472   0.170E+00    0.140E-01
DAV:   2    -0.669484936194E+03   -0.84912E-02   -0.91660E-02 34048   0.575E-01    0.587E-02
DAV:   3    -0.669484976658E+03   -0.40465E-04   -0.11374E-03 41760   0.772E-02    0.399E-02
DAV:   4    -0.669484962191E+03    0.14467E-04   -0.13593E-04 42640   0.374E-02    0.279E-02
DAV:   5    -0.669484958608E+03    0.35832E-05   -0.71018E-05 35664   0.205E-02
   7 F= -.66948496E+03 E0= -.66949030E+03  d E =0.248731E-03  mag=     0.0000
       N       E                     dE             d eps       ncg     rms          rms(c)
DAV:   1    -0.669478461201E+03    0.65010E-02   -0.35988E-01 33376   0.135E+00    0.111E-01
DAV:   2    -0.669484292410E+03   -0.58312E-02   -0.62683E-02 34048   0.440E-01    0.517E-02
DAV:   3    -0.669484326873E+03   -0.34463E-04   -0.86819E-04 41984   0.680E-02    0.352E-02
DAV:   4    -0.669484314315E+03    0.12558E-04   -0.98241E-05 42144   0.310E-02    0.244E-02
DAV:   5    -0.669484313087E+03    0.12285E-05   -0.51533E-05 34480   0.170E-02
   8 F= -.66948431E+03 E0= -.66948965E+03  d E =0.645521E-03  mag=    -0.0000
       N       E                     dE             d eps       ncg     rms          rms(c)
DAV:   1    -0.669478144177E+03    0.61701E-02   -0.35030E-01 33408   0.131E+00    0.104E-01
DAV:   2    -0.669483616307E+03   -0.54721E-02   -0.58649E-02 33904   0.412E-01    0.500E-02
DAV:   3    -0.669483648179E+03   -0.31871E-04   -0.82139E-04 42032   0.632E-02    0.333E-02
DAV:   4    -0.669483638399E+03    0.97801E-05   -0.85512E-05 41296   0.286E-02
   9 F= -.66948364E+03 E0= -.66948896E+03  d E =0.674688E-03  mag=    -0.0000
       N       E                     dE             d eps       ncg     rms          rms(c)
DAV:   1    -0.669471628990E+03    0.12019E-01   -0.74822E-01 33344   0.187E+00    0.147E-01
DAV:   2    -0.669482753087E+03   -0.11124E-01   -0.11871E-01 33504   0.577E-01    0.749E-02
DAV:   3    -0.669482812757E+03   -0.59670E-04   -0.17051E-03 42160   0.900E-02    0.513E-02
DAV:   4    -0.669482786164E+03    0.26593E-04   -0.19690E-04 43088   0.432E-02    0.359E-02
DAV:   5    -0.669482781552E+03    0.46119E-05   -0.12511E-04 36608   0.239E-02    0.119E-02
DAV:   6    -0.669482781220E+03    0.33232E-06   -0.22947E-05 31280   0.163E-02
  10 F= -.66948278E+03 E0= -.66948808E+03  d E =0.857179E-03  mag=    -0.0000
       N       E                     dE             d eps       ncg     rms          rms(c)
DAV:   1    -0.669458985632E+03    0.23796E-01   -0.15251E+00 33296   0.268E+00    0.209E-01
DAV:   2    -0.669481868322E+03   -0.22883E-01   -0.24387E-01 33376   0.830E-01    0.109E-01
DAV:   3    -0.669481971027E+03   -0.10270E-03   -0.37981E-03 42496   0.147E-01    0.746E-02
DAV:   4    -0.669481896092E+03    0.74935E-04   -0.45444E-04 42976   0.655E-02    0.488E-02
DAV:   5    -0.669481885694E+03    0.10398E-04   -0.22544E-04 37888   0.345E-02    0.206E-02
DAV:   6    -0.669481884199E+03    0.14954E-05   -0.53835E-05 37296   0.255E-02
  11 F= -.66948188E+03 E0= -.66948716E+03  d E =0.897021E-03  mag=    -0.0000
       N       E                     dE             d eps       ncg     rms          rms(c)
DAV:   1    -0.669466825061E+03    0.15061E-01   -0.99077E-01 33312   0.215E+00    0.168E-01
DAV:   2    -0.669481445634E+03   -0.14621E-01   -0.15611E-01 33408   0.664E-01    0.855E-02
DAV:   3    -0.669481515161E+03   -0.69527E-04   -0.23655E-03 42192   0.114E-01    0.579E-02
DAV:   4    -0.669481474911E+03    0.40250E-04   -0.27095E-04 43008   0.504E-02    0.392E-02
DAV:   5    -0.669481468117E+03    0.67936E-05   -0.14230E-04 37360   0.280E-02    0.167E-02
DAV:   6    -0.669481467134E+03    0.98330E-06   -0.35425E-05 34944   0.208E-02
  12 F= -.66948147E+03 E0= -.66948671E+03  d E =0.417065E-03  mag=     0.0000
       N       E                     dE             d eps       ncg     rms          rms(c)
DAV:   1    -0.669476653957E+03    0.48142E-02   -0.32907E-01 33360   0.123E+00    0.958E-02
DAV:   2    -0.669481354114E+03   -0.47002E-02   -0.50269E-02 33536   0.378E-01    0.482E-02
DAV:   3    -0.669481377479E+03   -0.23364E-04   -0.74384E-04 42160   0.627E-02    0.324E-02
DAV:   4    -0.669481365556E+03    0.11922E-04   -0.83391E-05 41184   0.279E-02    0.224E-02
DAV:   5    -0.669481363221E+03    0.23358E-05   -0.45671E-05 34112   0.161E-02
  13 F= -.66948136E+03 E0= -.66948659E+03  d E =0.103913E-03  mag=     0.0000
