 vasp.5.3.3 18Dez12 (build Aug 26 2013 15:55:55) complex                        
  
 executed on             LinuxIFC date 2015.04.13  20:19:29
 running on   20 total cores
 distrk:  each k-point on   20 cores,    1 groups
 distr:  one band on NCORES_PER_BAND=   1 cores,   20 groups


--------------------------------------------------------------------------------------------------------


 INCAR:
 POTCAR:    PAW_PBE Ag 02Apr2005                  
 POTCAR:   PAW_PBE W_pv 06Sep2000                 

 ----------------------------------------------------------------------------- 
|                                                                             |
|           W    W    AA    RRRRR   N    N  II  N    N   GGGG   !!!           |
|           W    W   A  A   R    R  NN   N  II  NN   N  G    G  !!!           |
|           W    W  A    A  R    R  N N  N  II  N N  N  G       !!!           |
|           W WW W  AAAAAA  RRRRR   N  N N  II  N  N N  G  GGG   !            |
|           WW  WW  A    A  R   R   N   NN  II  N   NN  G    G                |
|           W    W  A    A  R    R  N    N  II  N    N   GGGG   !!!           |
|                                                                             |
|      For optimal performance we recommend that you set                      |
|        NPAR = 4 - approx SQRT( number of cores)                             |
|      (number of cores/NPAR must be integer)                                 |
|      This setting will greatly improve the performance of VASP for DFT.     |
|      The default NPAR=number of cores might be grossly inefficient          |
|      on modern multi-core architectures or massively parallel machines.     |
|      Do your own testing.                                                   |
|      Unfortunately you need to use the default for hybrid, GW and RPA       |
|      calculations.                                                          |
|                                                                             |
 ----------------------------------------------------------------------------- 

 POTCAR:    PAW_PBE Ag 02Apr2005                  
   VRHFIN =Ag : s1 d10                                                          
   LEXCH  = PE                                                                  
   EATOM  =  1037.2671 eV,   76.2370 Ry                                         
                                                                                
   TITEL  = PAW_PBE Ag 02Apr2005                                                
   LULTRA =        F    use ultrasoft PP ?                                      
   IUNSCR =        1    unscreen: 0-lin 1-nonlin 2-no                           
   RPACOR =    2.000    partial core radius                                     
   POMASS =  107.868; ZVAL   =   11.000    mass and valenz                      
   RCORE  =    2.500    outmost cutoff radius                                   
   RWIGS  =    2.840; RWIGS  =    1.503    wigner-seitz radius (au A)           
   ENMAX  =  249.844; ENMIN  =  187.383 eV                                      
   ICORE  =        3    local potential                                         
   LCOR   =        T    correct aug charges                                     
   LPAW   =        T    paw PP                                                  
   EAUG   =  412.496                                                            
   DEXC   =     .000                                                            
   RMAX   =    2.917    core radius for proj-oper                               
   RAUG   =    1.300    factor for augmentation sphere                          
   RDEP   =    2.576    radius for radial grids                                 
   QCUT   =   -4.285; QGAM   =    8.570    optimization parameters              
                                                                                
   Description                                                                  
     l     E      TYP  RCUT    TYP  RCUT                                        
     2   .000     23  2.400                                                     
     2   .000     23  2.400                                                     
     0   .000     23  2.400                                                     
     0   .000     23  2.400                                                     
     1  -.100     23  2.500                                                     
     1  2.000     23  2.500                                                     
     3  -.300     23  2.400                                                     
  local pseudopotential read in
  partial core-charges read in
  atomic valenz-charges read in
  non local Contribution for L=           2  read in
    real space projection operators read in
  non local Contribution for L=           2  read in
    real space projection operators read in
  non local Contribution for L=           0  read in
    real space projection operators read in
  non local Contribution for L=           0  read in
    real space projection operators read in
  non local Contribution for L=           1  read in
    real space projection operators read in
  non local Contribution for L=           1  read in
    real space projection operators read in
    PAW grid and wavefunctions read in
 
   number of l-projection  operators is LMAX  =           6
   number of lm-projection operators is LMMAX =          18
 
 POTCAR:   PAW_PBE W_pv 06Sep2000                 
   VRHFIN =W : 5p6s5d                                                           
   LEXCH  = PE                                                                  
   EATOM  =  1260.0376 eV,   92.6101 Ry                                         
                                                                                
   TITEL  = PAW_PBE W_pv 06Sep2000                                              
   LULTRA =        F    use ultrasoft PP ?                                      
   IUNSCR =        1    unscreen: 0-lin 1-nonlin 2-no                           
   RPACOR =    2.330    partial core radius                                     
   POMASS =  183.850; ZVAL   =   12.000    mass and valenz                      
   RCORE  =    2.500    outmost cutoff radius                                   
   RWIGS  =    2.750; RWIGS  =    1.455    wigner-seitz radius (au A)           
   ENMAX  =  223.065; ENMIN  =  167.299 eV                                      
   RCLOC  =    2.147    cutoff for local pot                                    
   LCOR   =        T    correct aug charges                                     
   LPAW   =        T    paw PP                                                  
   EAUG   =  373.438                                                            
   DEXC   =    -.018                                                            
   RMAX   =    3.087    core radius for proj-oper                               
   RAUG   =    1.300    factor for augmentation sphere                          
   RDEP   =    2.539    radius for radial grids                                 
   QCUT   =   -4.049; QGAM   =    8.098    optimization parameters              
                                                                                
   Description                                                                  
     l     E      TYP  RCUT    TYP  RCUT                                        
     1   .000     23  2.500                                                     
     1  -.200     23  2.500                                                     
     2   .000     23  2.500                                                     
     2   .000     23  2.500                                                     
     0   .000     23  2.500                                                     
     0   .000     23  2.500                                                     
     3   .000      7   .000                                                     
  local pseudopotential read in
  partial core-charges read in
  atomic valenz-charges read in
  non local Contribution for L=           1  read in
    real space projection operators read in
  non local Contribution for L=           1  read in
    real space projection operators read in
  non local Contribution for L=           2  read in
    real space projection operators read in
  non local Contribution for L=           2  read in
    real space projection operators read in
  non local Contribution for L=           0  read in
    real space projection operators read in
  non local Contribution for L=           0  read in
    real space projection operators read in
    PAW grid and wavefunctions read in
 
   number of l-projection  operators is LMAX  =           6
   number of lm-projection operators is LMMAX =          18
 
 Optimization of the real space projectors (new method)

 maximal supplied QI-value         = 15.12
 optimisation between [QCUT,QGAM] = [ 10.13, 20.41] = [ 28.73,116.64] Ry 
 Optimized for a Real-space Cutoff    1.55 Angstroem

   l    n(q)    QCUT    max X(q) W(low)/X(q) W(high)/X(q)  e(spline) 
   2      9    10.129     4.129    0.25E-04    0.14E-04    0.66E-07
   2      9    10.129    12.470    0.12E-03    0.58E-04    0.12E-06
   0      9    10.129    16.625    0.16E-04    0.12E-05    0.80E-08
   0      9    10.129    93.080    0.43E-04    0.60E-05    0.80E-07
   1      9    10.129     6.858    0.12E-04    0.37E-05    0.21E-07
   1      9    10.129    10.884    0.10E-03    0.55E-05    0.10E-06
 Optimization of the real space projectors (new method)

 maximal supplied QI-value         = 15.12
 optimisation between [QCUT,QGAM] = [ 10.13, 20.41] = [ 28.73,116.64] Ry 
 Optimized for a Real-space Cutoff    1.65 Angstroem

   l    n(q)    QCUT    max X(q) W(low)/X(q) W(high)/X(q)  e(spline) 
   1     10    10.129     4.922    0.37E-05    0.98E-05    0.22E-07
   1     10    10.129     5.461    0.53E-04    0.42E-05    0.17E-06
   2      9    10.129     3.602    0.19E-04    0.55E-05    0.62E-07
   2      9    10.129    60.440    0.17E-03    0.27E-03    0.52E-06
   0     10    10.129    21.769    0.24E-04    0.29E-05    0.97E-08
   0     10    10.129    71.369    0.49E-04    0.40E-04    0.14E-06
  PAW_PBE Ag 02Apr2005                  :
 energy of atom  1       EATOM=-1037.2671
 kinetic energy error for atom=    0.0091 (will be added to EATOM!!)
 PAW_PBE W_pv 06Sep2000                 :
 energy of atom  2       EATOM=-1260.0376
 kinetic energy error for atom=    0.0051 (will be added to EATOM!!)
 
 
 POSCAR: Ag1 W52                                 
  positions in direct lattice
  velocities in cartesian coordinates
 exchange correlation table for  LEXCH =        8
   RHO(1)=    0.500       N(1)  =     2000
   RHO(2)=  100.500       N(2)  =     4000

 VTST: version 3.0c, (03/27/13)

 CHAIN: initializing optimizer
 
 OPT: Using VASP Dynamics algorithm
 CHAIN: Read ICHAIN            0
 
 POSCAR: Ag1 W52                                 
  positions in direct lattice
  velocities in cartesian coordinates
 


--------------------------------------------------------------------------------------------------------


 ion  position               nearest neighbor table
   1  0.314  0.314  0.314-  28 2.73  30 2.73  36 2.73  31 2.88  37 2.88  39 2.88   6 2.99  12 2.99
                            14 2.99  40 3.09  17 3.37  23 3.37  15 3.37
   2  0.002  0.002  0.002-  29 2.73  33 2.73  45 2.73  35 2.76  47 2.76  51 2.76  53 2.78   5 3.17
                            11 3.17   3 3.17   4 3.19  19 3.19   8 3.19
   3  0.003  0.003  0.333-  28 2.73  33 2.73  45 2.73  34 2.76  46 2.76  51 2.78  52 2.79  12 3.15
                             6 3.15   2 3.17   4 3.20  20 3.21   9 3.21
   4  1.000  1.000  0.668-  28 2.71  53 2.75  47 2.76  35 2.76  52 2.76  46 2.77  34 2.77  29 2.78
                            10 3.18  21 3.18  13 3.19   7 3.19   2 3.19   3 3.20
   5  0.003  0.333  0.003-  30 2.73  29 2.73  45 2.73  32 2.76  48 2.76  47 2.78  50 2.79  14 3.15
                             6 3.15   2 3.17   8 3.20  22 3.21   7 3.21
   6  0.003  0.332  0.332-  45 2.73  31 2.75  28 2.77  30 2.77  49 2.77  48 2.78  46 2.78   1 2.99
                             5 3.15   3 3.15   9 3.21   7 3.21  23 3.23
   7  0.001  0.334  0.668-  28 2.74  32 2.75  50 2.76  47 2.76  49 2.76  31 2.76  46 2.77  29 2.78
                            15 3.19  10 3.19  24 3.19   4 3.19   5 3.21   6 3.21
   8  1.000  0.668  1.000-  30 2.71  53 2.75  51 2.76  35 2.76  50 2.76  48 2.77  32 2.77  33 2.78
                            10 3.18  25 3.18  16 3.19   9 3.19   2 3.19   5 3.20
   9  0.001  0.668  0.334-  30 2.74  34 2.75  52 2.76  51 2.76  49 2.76  31 2.76  48 2.77  33 2.78
                            17 3.19  10 3.19  26 3.19   8 3.19   3 3.21   6 3.21
  10  0.000  0.667  0.667-  53 2.76  32 2.76  34 2.76  52 2.76  50 2.76  35 2.76  49 2.77  31 2.77
                             4 3.18   8 3.18  18 3.18   9 3.19   7 3.19  27 3.19
  11  0.333  0.003  0.003-  36 2.73  33 2.73  29 2.73  38 2.76  42 2.76  35 2.78  44 2.79  14 3.15
                            12 3.15   2 3.17  19 3.20  13 3.21  16 3.21
  12  0.332  0.003  0.332-  33 2.73  37 2.75  36 2.77  28 2.77  43 2.77  42 2.78  34 2.78   1 2.99
                            11 3.15   3 3.15  20 3.21  13 3.21  17 3.23
  13  0.334  0.001  0.668-  28 2.74  38 2.75  44 2.76  35 2.76  43 2.76  37 2.76  34 2.77  29 2.78
                            15 3.19  21 3.19  18 3.19   4 3.19  11 3.21  12 3.21
  14  0.332  0.332  0.003-  29 2.73  39 2.75  36 2.77  30 2.77  41 2.77  32 2.78  38 2.78   1 2.99
                            11 3.15   5 3.15  22 3.21  16 3.21  15 3.23
  15  0.334  0.334  0.665-  40 2.75  37 2.75  31 2.75  41 2.76  28 2.77  32 2.77  38 2.77  29 2.80
                             7 3.19  13 3.19  18 3.19  24 3.19  14 3.23   1 3.37
  16  0.334  0.668  0.001-  30 2.74  42 2.75  44 2.76  35 2.76  41 2.76  39 2.76  32 2.77  33 2.78
                            17 3.19  25 3.19  18 3.19   8 3.19  11 3.21  14 3.21
  17  0.334  0.665  0.334-  40 2.75  39 2.75  31 2.75  43 2.76  30 2.77  42 2.77  34 2.77  33 2.80
                             9 3.19  16 3.19  18 3.19  26 3.19  12 3.23   1 3.37
  18  0.333  0.667  0.667-  32 2.76  34 2.76  44 2.76  40 2.76  35 2.76  31 2.77  43 2.77  41 2.77
                            10 3.18  15 3.19  17 3.19  27 3.19  13 3.19  16 3.19
  19  0.668  1.000  1.000-  36 2.71  53 2.75  51 2.76  47 2.76  44 2.76  38 2.77  42 2.77  45 2.78
                            21 3.18  25 3.18  22 3.19  20 3.19   2 3.19  11 3.20
  20  0.668  0.001  0.334-  36 2.74  46 2.75  52 2.76  51 2.76  43 2.76  37 2.76  42 2.77  45 2.78
                            23 3.19  21 3.19  26 3.19  19 3.19   3 3.21  12 3.21
  21  0.667  0.000  0.667-  53 2.76  38 2.76  46 2.76  52 2.76  44 2.76  47 2.76  43 2.77  37 2.77
                             4 3.18  19 3.18  24 3.18  20 3.19  13 3.19  27 3.19
  22  0.668  0.334  0.001-  36 2.74  48 2.75  50 2.76  47 2.76  41 2.76  39 2.76  38 2.77  45 2.78
                            23 3.19  25 3.19  24 3.19  19 3.19   5 3.21  14 3.21
  23  0.665  0.334  0.334-  40 2.75  39 2.75  37 2.75  49 2.76  36 2.77  48 2.77  46 2.77  45 2.80
                            20 3.19  22 3.19  24 3.19  26 3.19   6 3.23   1 3.37
  24  0.667  0.333  0.667-  38 2.76  46 2.76  50 2.76  40 2.76  47 2.76  37 2.77  49 2.77  41 2.77
                            21 3.18  15 3.19  23 3.19  27 3.19   7 3.19  22 3.19
  25  0.667  0.667  0.000-  53 2.76  48 2.76  42 2.76  50 2.76  44 2.76  51 2.76  41 2.77  39 2.77
                             8 3.18  19 3.18  26 3.18  22 3.19  16 3.19  27 3.19
  26  0.667  0.667  0.333-  42 2.76  48 2.76  52 2.76  40 2.76  51 2.76  39 2.77  43 2.77  49 2.77
                            25 3.18  23 3.19  17 3.19  27 3.19  20 3.19   9 3.19
  27  0.666  0.666  0.666-  40 2.75  44 2.77  50 2.77  52 2.77  53 2.78  43 2.78  41 2.78  49 2.78
                            26 3.19  24 3.19  18 3.19  10 3.19  21 3.19  25 3.19
  28  0.164  0.164  0.505-   4 2.71   3 2.73   1 2.73   7 2.74  13 2.74  15 2.77   6 2.77  12 2.77
                            34 3.16  46 3.16  29 3.19  37 3.21  31 3.21
  29  0.167  0.167  0.838-   2 2.73   5 2.73  11 2.73  14 2.73  13 2.78   7 2.78   4 2.78  15 2.80
                            35 3.18  47 3.18  38 3.19  32 3.19  28 3.19
  30  0.164  0.505  0.164-   8 2.71   5 2.73   1 2.73   9 2.74  16 2.74  17 2.77   6 2.77  14 2.77
                            32 3.16  48 3.16  33 3.19  39 3.21  31 3.21
  31  0.167  0.499  0.499-   6 2.75  15 2.75  17 2.75   7 2.76   9 2.76  18 2.77  10 2.77   1 2.88
                            49 3.17  40 3.19  32 3.19  34 3.19  28 3.21  30 3.21
  32  0.167  0.500  0.833-   7 2.75  18 2.76  10 2.76   5 2.76   8 2.77  15 2.77  16 2.77  14 2.78
                            30 3.16  41 3.18  29 3.19  50 3.19  31 3.19  35 3.20
  33  0.167  0.838  0.167-   2 2.73   3 2.73  11 2.73  12 2.73   9 2.78  16 2.78   8 2.78  17 2.80
                            35 3.18  51 3.18  42 3.19  34 3.19  30 3.19
  34  0.167  0.833  0.500-   9 2.75  18 2.76  10 2.76   3 2.76   4 2.77  17 2.77  13 2.77  12 2.78
                            28 3.16  43 3.18  33 3.19  52 3.19  31 3.19  35 3.20
  35  0.167  0.834  0.834-   4 2.76   8 2.76  13 2.76  16 2.76   2 2.76  18 2.76  10 2.76  11 2.78
                            29 3.18  33 3.18  44 3.18  53 3.19  32 3.20  34 3.20
  36  0.505  0.164  0.164-  19 2.71  11 2.73   1 2.73  20 2.74  22 2.74  23 2.77  12 2.77  14 2.77
                            38 3.16  42 3.16  45 3.19  37 3.21  39 3.21
  37  0.499  0.167  0.499-  12 2.75  15 2.75  23 2.75  20 2.76  13 2.76  24 2.77  21 2.77   1 2.88
                            43 3.17  40 3.19  38 3.19  46 3.19  28 3.21  36 3.21
  38  0.500  0.167  0.833-  13 2.75  24 2.76  21 2.76  11 2.76  19 2.77  15 2.77  22 2.77  14 2.78
                            36 3.16  41 3.18  29 3.19  44 3.19  37 3.19  47 3.20
  39  0.499  0.499  0.167-  14 2.75  17 2.75  23 2.75  22 2.76  16 2.76  26 2.77  25 2.77   1 2.88
                            41 3.17  40 3.19  42 3.19  48 3.19  30 3.21  36 3.21
  40  0.500  0.500  0.500-  27 2.75  17 2.75  23 2.75  15 2.75  24 2.76  26 2.76  18 2.76   1 3.09
                            31 3.19  37 3.19  39 3.19  41 3.20  43 3.20  49 3.20
  41  0.499  0.499  0.835-  16 2.76  22 2.76  15 2.76  25 2.77  24 2.77  18 2.77  14 2.77  27 2.78
                            39 3.17  38 3.18  32 3.18  44 3.20  50 3.20  40 3.20
  42  0.500  0.833  0.167-  16 2.75  26 2.76  25 2.76  11 2.76  19 2.77  17 2.77  20 2.77  12 2.78
                            36 3.16  43 3.18  33 3.19  44 3.19  39 3.19  51 3.20
  43  0.499  0.835  0.499-  13 2.76  20 2.76  17 2.76  21 2.77  18 2.77  26 2.77  12 2.77  27 2.78
                            37 3.17  34 3.18  42 3.18  44 3.20  52 3.20  40 3.20
  44  0.500  0.833  0.833-  13 2.76  16 2.76  18 2.76  21 2.76  25 2.76  19 2.76  27 2.77  11 2.79
                            35 3.18  38 3.19  42 3.19  53 3.20  43 3.20  41 3.20
  45  0.838  0.167  0.167-   2 2.73   3 2.73   5 2.73   6 2.73  20 2.78  22 2.78  19 2.78  23 2.80
                            47 3.18  51 3.18  48 3.19  46 3.19  36 3.19
  46  0.833  0.167  0.500-  20 2.75  24 2.76  21 2.76   3 2.76   4 2.77  23 2.77   7 2.77   6 2.78
                            28 3.16  49 3.18  45 3.19  52 3.19  37 3.19  47 3.20
  47  0.834  0.167  0.834-   4 2.76  19 2.76   7 2.76  22 2.76   2 2.76  24 2.76  21 2.76   5 2.78
                            29 3.18  45 3.18  50 3.18  53 3.19  38 3.20  46 3.20
  48  0.833  0.500  0.167-  22 2.75  26 2.76  25 2.76   5 2.76   8 2.77  23 2.77   9 2.77   6 2.78
                            30 3.16  49 3.18  45 3.19  50 3.19  39 3.19  51 3.20
  49  0.835  0.499  0.499-   7 2.76   9 2.76  23 2.76  10 2.77  24 2.77  26 2.77   6 2.77  27 2.78
                            31 3.17  46 3.18  48 3.18  50 3.20  52 3.20  40 3.20
  50  0.833  0.500  0.833-   7 2.76  22 2.76  24 2.76  10 2.76  25 2.76   8 2.76  27 2.77   5 2.79
                            47 3.18  32 3.19  48 3.19  53 3.20  49 3.20  41 3.20
  51  0.834  0.834  0.167-   8 2.76  19 2.76   9 2.76  20 2.76   2 2.76  26 2.76  25 2.76   3 2.78
                            33 3.18  45 3.18  52 3.18  53 3.19  42 3.20  48 3.20
  52  0.833  0.833  0.500-   9 2.76  20 2.76  26 2.76  21 2.76  10 2.76   4 2.76  27 2.77   3 2.79
                            51 3.18  46 3.19  34 3.19  53 3.20  43 3.20  49 3.20
  53  0.834  0.834  0.834-   4 2.75   8 2.75  19 2.75  10 2.76  21 2.76  25 2.76  27 2.78   2 2.78
                            35 3.19  47 3.19  51 3.19  52 3.20  44 3.20  50 3.20
 
  LATTYP: Found a simple cubic cell.
 ALAT       =     9.5650190000
  
  Lattice vectors:
  
 A1 = (   9.5650190000,   0.0000000000,   0.0000000000)
 A2 = (   0.0000000000,   9.5650190000,   0.0000000000)
 A3 = (   0.0000000000,   0.0000000000,   9.5650190000)


Analysis of symmetry for initial positions (statically):
=====================================================================
 Subroutine PRICEL returns:
 Original cell was already a primitive cell.
 

 Routine SETGRP: Setting up the symmetry group for a 
 simple cubic supercell.


 Subroutine GETGRP returns: Found  6 space group operations
 (whereof  6 operations were pure point group operations)
 out of a pool of 48 trial point group operations.


The static configuration has the point symmetry C_3v.


Analysis of symmetry for dynamics (positions and initial velocities):
=====================================================================
 Subroutine PRICEL returns:
 Original cell was already a primitive cell.
 

 Routine SETGRP: Setting up the symmetry group for a 
 simple cubic supercell.


 Subroutine GETGRP returns: Found  6 space group operations
 (whereof  6 operations were pure point group operations)
 out of a pool of 48 trial point group operations.


The dynamic configuration has the point symmetry C_3v.


Analysis of constrained symmetry for selective dynamics:
=====================================================================
 Subroutine PRICEL returns:
 Original cell was already a primitive cell.
 

 Routine SETGRP: Setting up the symmetry group for a 
 simple cubic supercell.


 Subroutine GETGRP returns: Found  6 space group operations
 (whereof  6 operations were pure point group operations)
 out of a pool of 48 trial point group operations.


The constrained configuration has the point symmetry C_3v.


Analysis of magnetic symmetry:
=====================================================================

 Subroutine MAGSYM returns: Found  6 space group operations
 (whereof  6 operations were pure point group operations)
 out of a pool of  6 trial space group operations
 (whereof  6 operations were pure point group operations)
 and found also     1 'primitive' translations


The magnetic configuration has the point symmetry C_3v.


 irot  :   1
 --------------------------------------------------------------------
 isymop:   1   0   0
           0   1   0
           0   0   1

 gtrans:     0.0000000     0.0000000     0.0000000

 ptrans:     0.0000000     0.0000000     0.0000000
 rotmap:
 (   1->   1)  (   2->   2)  (   3->   3)  (   4->   4)  (   5->   5) 
 (   6->   6)  (   7->   7)  (   8->   8)  (   9->   9)  (  10->  10) 
 (  11->  11)  (  12->  12)  (  13->  13)  (  14->  14)  (  15->  15) 
 (  16->  16)  (  17->  17)  (  18->  18)  (  19->  19)  (  20->  20) 
 (  21->  21)  (  22->  22)  (  23->  23)  (  24->  24)  (  25->  25) 
 (  26->  26)  (  27->  27)  (  28->  28)  (  29->  29)  (  30->  30) 
 (  31->  31)  (  32->  32)  (  33->  33)  (  34->  34)  (  35->  35) 
 (  36->  36)  (  37->  37)  (  38->  38)  (  39->  39)  (  40->  40) 
 (  41->  41)  (  42->  42)  (  43->  43)  (  44->  44)  (  45->  45) 
 (  46->  46)  (  47->  47)  (  48->  48)  (  49->  49)  (  50->  50) 
 (  51->  51)  (  52->  52)  (  53->  53) 


 irot  :   2
 --------------------------------------------------------------------
 isymop:   0   0   1
           1   0   0
           0   1   0

 gtrans:     0.0000000     0.0000000     0.0000000

 ptrans:     0.0000000     0.0000000     0.0000000
 rotmap:
 (   1->   1)  (   2->   2)  (   3->  11)  (   4->  19)  (   5->   3) 
 (   6->  12)  (   7->  20)  (   8->   4)  (   9->  13)  (  10->  21) 
 (  11->   5)  (  12->  14)  (  13->  22)  (  14->   6)  (  15->  23) 
 (  16->   7)  (  17->  15)  (  18->  24)  (  19->   8)  (  20->  16) 
 (  21->  25)  (  22->   9)  (  23->  17)  (  24->  26)  (  25->  10) 
 (  26->  18)  (  27->  27)  (  28->  36)  (  29->  45)  (  30->  28) 
 (  31->  37)  (  32->  46)  (  33->  29)  (  34->  38)  (  35->  47) 
 (  36->  30)  (  37->  39)  (  38->  48)  (  39->  31)  (  40->  40) 
 (  41->  49)  (  42->  32)  (  43->  41)  (  44->  50)  (  45->  33) 
 (  46->  42)  (  47->  51)  (  48->  34)  (  49->  43)  (  50->  52) 
 (  51->  35)  (  52->  44)  (  53->  53) 


 irot  :   3
 --------------------------------------------------------------------
 isymop:   0   1   0
           0   0   1
           1   0   0

 gtrans:     0.0000000     0.0000000     0.0000000

 ptrans:     0.0000000     0.0000000     0.0000000
 rotmap:
 (   1->   1)  (   2->   2)  (   3->   5)  (   4->   8)  (   5->  11) 
 (   6->  14)  (   7->  16)  (   8->  19)  (   9->  22)  (  10->  25) 
 (  11->   3)  (  12->   6)  (  13->   9)  (  14->  12)  (  15->  17) 
 (  16->  20)  (  17->  23)  (  18->  26)  (  19->   4)  (  20->   7) 
 (  21->  10)  (  22->  13)  (  23->  15)  (  24->  18)  (  25->  21) 
 (  26->  24)  (  27->  27)  (  28->  30)  (  29->  33)  (  30->  36) 
 (  31->  39)  (  32->  42)  (  33->  45)  (  34->  48)  (  35->  51) 
 (  36->  28)  (  37->  31)  (  38->  34)  (  39->  37)  (  40->  40) 
 (  41->  43)  (  42->  46)  (  43->  49)  (  44->  52)  (  45->  29) 
 (  46->  32)  (  47->  35)  (  48->  38)  (  49->  41)  (  50->  44) 
 (  51->  47)  (  52->  50)  (  53->  53) 


 irot  :   4
 --------------------------------------------------------------------
 isymop:   1   0   0
           0   0   1
           0   1   0

 gtrans:     0.0000000     0.0000000     0.0000000

 ptrans:     0.0000000     0.0000000     0.0000000
 rotmap:
 (   1->   1)  (   2->   2)  (   3->   5)  (   4->   8)  (   5->   3) 
 (   6->   6)  (   7->   9)  (   8->   4)  (   9->   7)  (  10->  10) 
 (  11->  11)  (  12->  14)  (  13->  16)  (  14->  12)  (  15->  17) 
 (  16->  13)  (  17->  15)  (  18->  18)  (  19->  19)  (  20->  22) 
 (  21->  25)  (  22->  20)  (  23->  23)  (  24->  26)  (  25->  21) 
 (  26->  24)  (  27->  27)  (  28->  30)  (  29->  33)  (  30->  28) 
 (  31->  31)  (  32->  34)  (  33->  29)  (  34->  32)  (  35->  35) 
 (  36->  36)  (  37->  39)  (  38->  42)  (  39->  37)  (  40->  40) 
 (  41->  43)  (  42->  38)  (  43->  41)  (  44->  44)  (  45->  45) 
 (  46->  48)  (  47->  51)  (  48->  46)  (  49->  49)  (  50->  52) 
 (  51->  47)  (  52->  50)  (  53->  53) 


 irot  :   5
 --------------------------------------------------------------------
 isymop:   0   1   0
           1   0   0
           0   0   1

 gtrans:     0.0000000     0.0000000     0.0000000

 ptrans:     0.0000000     0.0000000     0.0000000
 rotmap:
 (   1->   1)  (   2->   2)  (   3->   3)  (   4->   4)  (   5->  11) 
 (   6->  12)  (   7->  13)  (   8->  19)  (   9->  20)  (  10->  21) 
 (  11->   5)  (  12->   6)  (  13->   7)  (  14->  14)  (  15->  15) 
 (  16->  22)  (  17->  23)  (  18->  24)  (  19->   8)  (  20->   9) 
 (  21->  10)  (  22->  16)  (  23->  17)  (  24->  18)  (  25->  25) 
 (  26->  26)  (  27->  27)  (  28->  28)  (  29->  29)  (  30->  36) 
 (  31->  37)  (  32->  38)  (  33->  45)  (  34->  46)  (  35->  47) 
 (  36->  30)  (  37->  31)  (  38->  32)  (  39->  39)  (  40->  40) 
 (  41->  41)  (  42->  48)  (  43->  49)  (  44->  50)  (  45->  33) 
 (  46->  34)  (  47->  35)  (  48->  42)  (  49->  43)  (  50->  44) 
 (  51->  51)  (  52->  52)  (  53->  53) 


 irot  :   6
 --------------------------------------------------------------------
 isymop:   0   0   1
           0   1   0
           1   0   0

 gtrans:     0.0000000     0.0000000     0.0000000

 ptrans:     0.0000000     0.0000000     0.0000000
 rotmap:
 (   1->   1)  (   2->   2)  (   3->  11)  (   4->  19)  (   5->   5) 
 (   6->  14)  (   7->  22)  (   8->   8)  (   9->  16)  (  10->  25) 
 (  11->   3)  (  12->  12)  (  13->  20)  (  14->   6)  (  15->  23) 
 (  16->   9)  (  17->  17)  (  18->  26)  (  19->   4)  (  20->  13) 
 (  21->  21)  (  22->   7)  (  23->  15)  (  24->  24)  (  25->  10) 
 (  26->  18)  (  27->  27)  (  28->  36)  (  29->  45)  (  30->  30) 
 (  31->  39)  (  32->  48)  (  33->  33)  (  34->  42)  (  35->  51) 
 (  36->  28)  (  37->  37)  (  38->  46)  (  39->  31)  (  40->  40) 
 (  41->  49)  (  42->  34)  (  43->  43)  (  44->  52)  (  45->  29) 
 (  46->  38)  (  47->  47)  (  48->  32)  (  49->  41)  (  50->  50) 
 (  51->  35)  (  52->  44)  (  53->  53) 
 
 
 KPOINTS: Automatic kpoint scheme                 

Automatic generation of k-mesh.
Space group operators:
 irot       det(A)        alpha          n_x          n_y          n_z        tau_x        tau_y        tau_z
    1     1.000000     0.000000     1.000000     0.000000     0.000000     0.000000     0.000000     0.000000
    2     1.000000   120.000000    -0.577350    -0.577350    -0.577350     0.000000     0.000000     0.000000
    3     1.000000   120.000000     0.577350     0.577350     0.577350     0.000000     0.000000     0.000000
    4    -1.000000   180.000000     0.000000    -0.707107     0.707107     0.000000     0.000000     0.000000
    5    -1.000000   180.000000     0.707107    -0.707107     0.000000     0.000000     0.000000     0.000000
    6    -1.000000   180.000000     0.707107     0.000000    -0.707107     0.000000     0.000000     0.000000
 
 Subroutine IBZKPT returns following result:
 ===========================================
 
 Found     10 irreducible k-points:
 
 Following reciprocal coordinates:
            Coordinates               Weight
  0.125000  0.125000  0.125000      2.000000
  0.375000  0.125000  0.125000      6.000000
 -0.375000  0.125000  0.125000      6.000000
 -0.125000  0.125000  0.125000      6.000000
  0.375000  0.375000  0.125000      6.000000
 -0.375000  0.375000  0.125000     12.000000
 -0.125000  0.375000  0.125000     12.000000
 -0.375000 -0.375000  0.125000      6.000000
  0.375000  0.375000  0.375000      2.000000
 -0.375000  0.375000  0.375000      6.000000
 
 Following cartesian coordinates:
            Coordinates               Weight
  0.013068  0.013068  0.013068      2.000000
  0.039205  0.013068  0.013068      6.000000
 -0.039205  0.013068  0.013068      6.000000
 -0.013068  0.013068  0.013068      6.000000
  0.039205  0.039205  0.013068      6.000000
 -0.039205  0.039205  0.013068     12.000000
 -0.013068  0.039205  0.013068     12.000000
 -0.039205 -0.039205  0.013068      6.000000
  0.039205  0.039205  0.039205      2.000000
 -0.039205  0.039205  0.039205      6.000000
 
 
 Subroutine IBZKPT_HF returns following result:
 ==============================================
 
 Found     64 k-points in 1st BZ
 the following     64 k-points will be used (e.g. in the exchange kernel)
 Following reciprocal coordinates:   # in IRBZ
  0.125000  0.125000  0.125000       1 t-inv F
  0.375000  0.125000  0.125000       2 t-inv F
 -0.375000  0.125000  0.125000       3 t-inv F
 -0.125000  0.125000  0.125000       4 t-inv F
  0.375000  0.375000  0.125000       5 t-inv F
 -0.375000  0.375000  0.125000       6 t-inv F
 -0.125000  0.375000  0.125000       7 t-inv F
 -0.375000 -0.375000  0.125000       8 t-inv F
  0.375000  0.375000  0.375000       9 t-inv F
 -0.375000  0.375000  0.375000      10 t-inv F
  0.125000  0.375000  0.125000       2 t-inv F
  0.125000  0.125000  0.375000       2 t-inv F
  0.125000 -0.375000  0.125000       3 t-inv F
  0.125000  0.125000 -0.375000       3 t-inv F
  0.125000 -0.125000  0.125000       4 t-inv F
  0.125000  0.125000 -0.125000       4 t-inv F
  0.125000  0.375000  0.375000       5 t-inv F
  0.375000  0.125000  0.375000       5 t-inv F
  0.125000 -0.375000  0.375000       6 t-inv F
  0.375000  0.125000 -0.375000       6 t-inv F
 -0.375000  0.125000  0.375000       6 t-inv F
  0.375000 -0.375000  0.125000       6 t-inv F
  0.125000  0.375000 -0.375000       6 t-inv F
  0.125000 -0.125000  0.375000       7 t-inv F
  0.375000  0.125000 -0.125000       7 t-inv F
 -0.125000  0.125000  0.375000       7 t-inv F
  0.375000 -0.125000  0.125000       7 t-inv F
  0.125000  0.375000 -0.125000       7 t-inv F
  0.125000 -0.375000 -0.375000       8 t-inv F
 -0.375000  0.125000 -0.375000       8 t-inv F
  0.375000 -0.375000  0.375000      10 t-inv F
  0.375000  0.375000 -0.375000      10 t-inv F
 -0.125000 -0.125000 -0.125000       1 t-inv T
 -0.375000 -0.125000 -0.125000       2 t-inv T
 -0.125000 -0.375000 -0.125000       2 t-inv T
 -0.125000 -0.125000 -0.375000       2 t-inv T
  0.375000 -0.125000 -0.125000       3 t-inv T
 -0.125000  0.375000 -0.125000       3 t-inv T
 -0.125000 -0.125000  0.375000       3 t-inv T
  0.125000 -0.125000 -0.125000       4 t-inv T
 -0.125000  0.125000 -0.125000       4 t-inv T
 -0.125000 -0.125000  0.125000       4 t-inv T
 -0.375000 -0.375000 -0.125000       5 t-inv T
 -0.125000 -0.375000 -0.375000       5 t-inv T
 -0.375000 -0.125000 -0.375000       5 t-inv T
  0.375000 -0.375000 -0.125000       6 t-inv T
 -0.125000  0.375000 -0.375000       6 t-inv T
 -0.375000 -0.125000  0.375000       6 t-inv T
  0.375000 -0.125000 -0.375000       6 t-inv T
 -0.375000  0.375000 -0.125000       6 t-inv T
 -0.125000 -0.375000  0.375000       6 t-inv T
  0.125000 -0.375000 -0.125000       7 t-inv T
 -0.125000  0.125000 -0.375000       7 t-inv T
 -0.375000 -0.125000  0.125000       7 t-inv T
  0.125000 -0.125000 -0.375000       7 t-inv T
 -0.375000  0.125000 -0.125000       7 t-inv T
 -0.125000 -0.375000  0.125000       7 t-inv T
  0.375000  0.375000 -0.125000       8 t-inv T
 -0.125000  0.375000  0.375000       8 t-inv T
  0.375000 -0.125000  0.375000       8 t-inv T
 -0.375000 -0.375000 -0.375000       9 t-inv T
  0.375000 -0.375000 -0.375000      10 t-inv T
 -0.375000  0.375000 -0.375000      10 t-inv T
 -0.375000 -0.375000  0.375000      10 t-inv T


--------------------------------------------------------------------------------------------------------




 Dimension of arrays:
   k-points           NKPTS =     10   k-points in BZ     NKDIM =     10   number of bands    NBANDS=    420
   number of dos      NEDOS =    301   number of ions     NIONS =     53
   non local maximal  LDIM  =      6   non local SUM 2l+1 LMDIM =     18
   total plane-waves  NPLWV = 262144
   max r-space proj   IRMAX =   5670   max aug-charges    IRDMAX=  17297
   dimension x,y,z NGX =    64 NGY =   64 NGZ =   64
   dimension x,y,z NGXF=   128 NGYF=  128 NGZF=  128
   support grid    NGXF=   128 NGYF=  128 NGZF=  128
   ions per type =               1  52
 NGX,Y,Z   is equivalent  to a cutoff of  11.12, 11.12, 11.12 a.u.
 NGXF,Y,Z  is equivalent  to a cutoff of  22.25, 22.25, 22.25 a.u.


 I would recommend the setting:
   dimension x,y,z NGX =    62 NGY =   62 NGZ =   62
 SYSTEM =  unknown system                          
 POSCAR =  Ag1 W52                                 

 Startparameter for this run:
   NWRITE =      2    write-flag & timer
   PREC   = accura    normal or accurate (medium, high low for compatibility)
   ISTART =      0    job   : 0-new  1-cont  2-samecut
   ICHARG =      2    charge: 1-file 2-atom 10-const
   ISPIN  =      2    spin polarized calculation?
   LNONCOLLINEAR =      F non collinear calculations
   LSORBIT =      F    spin-orbit coupling
   INIWAV =      1    electr: 0-lowe 1-rand  2-diag
   LASPH  =      F    aspherical Exc in radial PAW
   METAGGA=      F    non-selfconsistent MetaGGA calc.

 Electronic Relaxation 1
   ENCUT  =  400.0 eV  29.40 Ry    5.42 a.u.  15.60 15.60 15.60*2*pi/ulx,y,z
   ENINI  =  400.0     initial cutoff
   ENAUG  =  412.5 eV  augmentation charge cutoff
   NELM   =     60;   NELMIN=  2; NELMDL= -5     # of ELM steps 
   EDIFF  = 0.1E-04   stopping-criterion for ELM
   LREAL  =      T    real-space projection
   NLSPLINE    = F    spline interpolate recip. space projectors
   LCOMPAT=      F    compatible to vasp.4.4
   GGA_COMPAT  = T    GGA compatible to vasp.4.4-vasp.4.6
   LMAXPAW     = -100 max onsite density
   LMAXMIX     =    2 max onsite mixed and CHGCAR
   VOSKOWN=      0    Vosko Wilk Nusair interpolation
   ROPT   =   -0.00025  -0.00025
 Ionic relaxation
   EDIFFG = -.1E-01   stopping-criterion for IOM
   NSW    =    606    number of steps for IOM
   NBLOCK =      1;   KBLOCK =    101    inner block; outer block 
   IBRION =      5    ionic relax: 0-MD 1-quasi-New 2-CG
   NFREE  =      2    steps in history (QN), initial steepest desc. (CG)
   ISIF   =      2    stress and relaxation
   IWAVPR =     11    prediction:  0-non 1-charg 2-wave 3-comb
   ISYM   =      2    0-nonsym 1-usesym 2-fastsym
   LCORR  =      T    Harris-Foulkes like correction to forces

   POTIM  = 0.0500    time-step for ionic-motion
   TEIN   =    0.0    initial temperature
   TEBEG  =    0.0;   TEEND  =   0.0 temperature during run
   SMASS  =  -3.00    Nose mass-parameter (am)
   estimated Nose-frequenzy (Omega)   =  0.10E-29 period in steps =****** mass=  -0.209E-26a.u.
   SCALEE = 1.0000    scale energy and forces
   NPACO  =    256;   APACO  = 16.0  distance and # of slots for P.C.
   PSTRESS=    0.0 pullay stress

  Mass of Ions in am
   POMASS = 107.87183.85
  Ionic Valenz
   ZVAL   =  11.00 12.00
  Atomic Wigner-Seitz radii
   RWIGS  =  -1.00 -1.00
  virtual crystal weights 
   VCA    =   1.00  1.00
   NELECT =     635.0000    total number of electrons
   NUPDOWN=      -1.0000    fix difference up-down

 DOS related values:
   EMIN   =  10.00;   EMAX   =-10.00  energy-range for DOS
   EFERMI =   0.00
   ISMEAR =     1;   SIGMA  =   0.20  broadening in eV -4-tet -1-fermi 0-gaus

 Electronic relaxation 2 (details)
   IALGO  =     38    algorithm
   LDIAG  =      T    sub-space diagonalisation (order eigenvalues)
   LSUBROT=      T    optimize rotation matrix (better conditioning)
   TURBO    =      0    0=normal 1=particle mesh
   IRESTART =      0    0=no restart 2=restart with 2 vectors
   NREBOOT  =      0    no. of reboots
   NMIN     =      0    reboot dimension
   EREF     =   0.00    reference energy to select bands
   IMIX   =      4    mixing-type and parameters
     AMIX     =   0.40;   BMIX     =  1.00
     AMIX_MAG =   1.60;   BMIX_MAG =  1.00
     AMIN     =   0.10
     WC   =   100.;   INIMIX=   1;  MIXPRE=   1;  MAXMIX= -45

 Intra band minimization:
   WEIMIN = 0.0010     energy-eigenvalue tresh-hold
   EBREAK =  0.60E-08  absolut break condition
   DEPER  =   0.30     relativ break condition  

   TIME   =   0.40     timestep for ELM

  volume/ion in A,a.u.               =      16.51       111.42
  Fermi-wavevector in a.u.,A,eV,Ry     =   1.471116  2.780006 29.445485  2.164182
  Thomas-Fermi vector in A             =   2.586291
 
 Write flags
   LWAVE  =      F    write WAVECAR
   LCHARG =      F    write CHGCAR
   LVTOT  =      F    write LOCPOT, total local potential
   LVHAR  =      F    write LOCPOT, Hartree potential only
   LELF   =      F    write electronic localiz. function (ELF)
   LORBIT =      0    0 simple, 1 ext, 2 COOP (PROOUT)


 Dipole corrections
   LMONO  =      F    monopole corrections only (constant potential shift)
   LDIPOL =      F    correct potential (dipole corrections)
   IDIPOL =      0    1-x, 2-y, 3-z, 4-all directions 
   EPSILON=  1.0000000 bulk dielectric constant

 Exchange correlation treatment:
   GGA     =    --    GGA type
   LEXCH   =     8    internal setting for exchange type
   VOSKOWN=      0    Vosko Wilk Nusair interpolation
   LHFCALC =     F    Hartree Fock is set to
   LHFONE  =     F    Hartree Fock one center treatment
   AEXX    =    0.0000 exact exchange contribution

 Linear response parameters
   LEPSILON=     F    determine dielectric tensor
   LRPA    =     F    only Hartree local field effects (RPA)
   LNABLA  =     F    use nabla operator in PAW spheres
   LVEL    =     F    velocity operator in full k-point grid
   LINTERFAST=   F  fast interpolation
   KINTER  =     0    interpolate to denser k-point grid
   CSHIFT  =0.1000    complex shift for real part using Kramers Kronig
   OMEGAMAX=  -1.0    maximum frequency
   DEG_THRESHOLD= 0.2000000E-02 threshold for treating states as degnerate
   RTIME   =    0.100 relaxation time in fs

 Orbital magnetization related:
   ORBITALMAG=     F  switch on orbital magnetization
   LCHIMAG   =     F  perturbation theory with respect to B field
   DQ        =  0.001000  dq finite difference perturbation B field



--------------------------------------------------------------------------------------------------------


 finite differences
   using selective dynamics as specified on POSCAR
 charge density and potential will be updated during run
 spin polarized calculation
 Variant of blocked Davidson
 Davidson routine will perform the subspace rotation
 perform sub-space diagonalisation
    after iterative eigenvector-optimisation
 modified Broyden-mixing scheme, WC =      100.0
 initial mixing is a Kerker type mixing with AMIX =  0.4000 and BMIX =      1.0000
 Hartree-type preconditioning will be used
 using additional bands          102
 real space projection scheme for non local part
 use partial core corrections
 calculate Harris-corrections to forces 
   (improved forces if not selfconsistent)
 use gradient corrections 
 use of overlap-Matrix (Vanderbilt PP)
 Methfessel and Paxton  Order N= 1 SIGMA  =   0.20


--------------------------------------------------------------------------------------------------------


  energy-cutoff  :      400.00
  volume of cell :      875.10
      direct lattice vectors                 reciprocal lattice vectors
     9.565019000  0.000000000  0.000000000     0.104547623  0.000000000  0.000000000
     0.000000000  9.565019000  0.000000000     0.000000000  0.104547623  0.000000000
     0.000000000  0.000000000  9.565019000     0.000000000  0.000000000  0.104547623

  length of vectors
     9.565019000  9.565019000  9.565019000     0.104547623  0.104547623  0.104547623


 
 k-points in units of 2pi/SCALE and weight: Automatic kpoint scheme                 
   0.01306845  0.01306845  0.01306845       0.031
   0.03920536  0.01306845  0.01306845       0.094
  -0.03920536  0.01306845  0.01306845       0.094
  -0.01306845  0.01306845  0.01306845       0.094
   0.03920536  0.03920536  0.01306845       0.094
  -0.03920536  0.03920536  0.01306845       0.188
  -0.01306845  0.03920536  0.01306845       0.188
  -0.03920536 -0.03920536  0.01306845       0.094
   0.03920536  0.03920536  0.03920536       0.031
  -0.03920536  0.03920536  0.03920536       0.094
 
 k-points in reciprocal lattice and weights: Automatic kpoint scheme                 
   0.12500000  0.12500000  0.12500000       0.031
   0.37500000  0.12500000  0.12500000       0.094
  -0.37500000  0.12500000  0.12500000       0.094
  -0.12500000  0.12500000  0.12500000       0.094
   0.37500000  0.37500000  0.12500000       0.094
  -0.37500000  0.37500000  0.12500000       0.188
  -0.12500000  0.37500000  0.12500000       0.188
  -0.37500000 -0.37500000  0.12500000       0.094
   0.37500000  0.37500000  0.37500000       0.031
  -0.37500000  0.37500000  0.37500000       0.094
 
 position of ions in fractional coordinates (direct lattice) 
   0.31406900  0.31406900  0.31406900
   0.00174900  0.00174900  0.00174900
   0.00286400  0.00286400  0.33282800
   0.99984300  0.99984300  0.66776900
   0.00286400  0.33282800  0.00286400
   0.00283500  0.33204500  0.33204500
   0.00056100  0.33381200  0.66771600
   0.99984300  0.66776900  0.99984300
   0.00056100  0.66771600  0.33381200
   0.00022000  0.66740300  0.66740300
   0.33282800  0.00286400  0.00286400
   0.33204500  0.00283500  0.33204500
   0.33381200  0.00056100  0.66771600
   0.33204500  0.33204500  0.00283500
   0.33372000  0.33372000  0.66513600
   0.33381200  0.66771600  0.00056100
   0.33372000  0.66513600  0.33372000
   0.33291300  0.66689900  0.66689900
   0.66776900  0.99984300  0.99984300
   0.66771600  0.00056100  0.33381200
   0.66740300  0.00022000  0.66740300
   0.66771600  0.33381200  0.00056100
   0.66513600  0.33372000  0.33372000
   0.66689900  0.33291300  0.66689900
   0.66740300  0.66740300  0.00022000
   0.66689900  0.66689900  0.33291300
   0.66639300  0.66639300  0.66639300
   0.16358100  0.16358100  0.50468600
   0.16688800  0.16688800  0.83789200
   0.16358100  0.50468600  0.16358100
   0.16652600  0.49946000  0.49946000
   0.16682900  0.49999300  0.83346300
   0.16688800  0.83789200  0.16688800
   0.16682900  0.83346300  0.49999300
   0.16718500  0.83425200  0.83425200
   0.50468600  0.16358100  0.16358100
   0.49946000  0.16652600  0.49946000
   0.49999300  0.16682900  0.83346300
   0.49946000  0.49946000  0.16652600
   0.50048200  0.50048200  0.50048200
   0.49922100  0.49922100  0.83478600
   0.49999300  0.83346300  0.16682900
   0.49922100  0.83478600  0.49922100
   0.49985000  0.83347200  0.83347200
   0.83789200  0.16688800  0.16688800
   0.83346300  0.16682900  0.49999300
   0.83425200  0.16718500  0.83425200
   0.83346300  0.49999300  0.16682900
   0.83478600  0.49922100  0.49922100
   0.83347200  0.49985000  0.83347200
   0.83425200  0.83425200  0.16718500
   0.83347200  0.83347200  0.49985000
   0.83396600  0.83396600  0.83396600
 
 position of ions in cartesian coordinates  (Angst):
   3.00407595  3.00407595  3.00407595
   0.01672922  0.01672922  0.01672922
   0.02739421  0.02739421  3.18350614
   9.56351729  9.56351729  6.38722317
   0.02739421  3.18350614  0.02739421
   0.02711683  3.17601673  3.17601673
   0.00536598  3.19291812  6.38671623
   9.56351729  6.38722317  9.56351729
   0.00536598  6.38671623  3.19291812
   0.00210430  6.38372238  6.38372238
   3.18350614  0.02739421  0.02739421
   3.17601673  0.02711683  3.17601673
   3.19291812  0.00536598  6.38671623
   3.17601673  3.17601673  0.02711683
   3.19203814  3.19203814  6.36203848
   3.19291812  6.38671623  0.00536598
   3.19203814  6.36203848  3.19203814
   3.18431917  6.37890161  6.37890161
   6.38722317  9.56351729  9.56351729
   6.38671623  0.00536598  3.19291812
   6.38372238  0.00210430  6.38372238
   6.38671623  3.19291812  0.00536598
   6.36203848  3.19203814  3.19203814
   6.37890161  3.18431917  6.37890161
   6.38372238  6.38372238  0.00210430
   6.37890161  6.37890161  3.18431917
   6.37406171  6.37406171  6.37406171
   1.56465537  1.56465537  4.82733118
   1.59628689  1.59628689  8.01445290
   1.56465537  4.82733118  1.56465537
   1.59282435  4.77734439  4.77734439
   1.59572255  4.78244254  7.97208943
   1.59628689  8.01445290  1.59628689
   1.59572255  7.97208943  4.78244254
   1.59912770  7.97963623  7.97963623
   4.82733118  1.56465537  1.56465537
   4.77734439  1.59282435  4.77734439
   4.78244254  1.59572255  7.97208943
   4.77734439  4.77734439  1.59282435
   4.78711984  4.78711984  4.78711984
   4.77505835  4.77505835  7.98474395
   4.78244254  7.97208943  1.59572255
   4.77505835  7.98474395  4.77505835
   4.78107475  7.97217552  7.97217552
   8.01445290  1.59628689  1.59628689
   7.97208943  1.59572255  4.78244254
   7.97963623  1.59912770  7.97963623
   7.97208943  4.78244254  1.59572255
   7.98474395  4.77505835  4.77505835
   7.97217552  4.78107475  7.97217552
   7.97963623  7.97963623  1.59912770
   7.97217552  7.97217552  4.78107475
   7.97690064  7.97690064  7.97690064
 


--------------------------------------------------------------------------------------------------------


 k-point  1 :   0.1250 0.1250 0.1250  plane waves:   15915
 k-point  2 :   0.3750 0.1250 0.1250  plane waves:   15901
 k-point  3 :  -0.3750 0.1250 0.1250  plane waves:   15901
 k-point  4 :  -0.1250 0.1250 0.1250  plane waves:   15915
 k-point  5 :   0.3750 0.3750 0.1250  plane waves:   15910
 k-point  6 :  -0.3750 0.3750 0.1250  plane waves:   15910
 k-point  7 :  -0.1250 0.3750 0.1250  plane waves:   15901
 k-point  8 :  -0.3750-0.3750 0.1250  plane waves:   15910
 k-point  9 :   0.3750 0.3750 0.3750  plane waves:   15867
 k-point 10 :  -0.3750 0.3750 0.3750  plane waves:   15867

 maximum and minimum number of plane-waves per node :     15915    15867

 maximum number of plane-waves:     15915
 maximum index in each direction: 
   IXMAX=   15   IYMAX=   15   IZMAX=   15
   IXMIN=  -15   IYMIN=  -15   IZMIN=  -15

 NGX is ok and might be reduce to  62
 NGY is ok and might be reduce to  62
 NGZ is ok and might be reduce to  62

 serial   3D FFT for wavefunctions
 parallel 3D FFT for charge:
    minimum data exchange during FFTs selected (reduces bandwidth)


 total amount of memory used by VASP on root node   231190. kBytes
========================================================================

   base      :      30000. kBytes
   nonlr-proj:      50797. kBytes
   fftplans  :       4920. kBytes
   grid      :      30392. kBytes
   one-center:       1648. kBytes
   wavefun   :     113433. kBytes
 
 Broyden mixing: mesh for mixing (old mesh)
   NGX = 31   NGY = 31   NGZ = 31
  (NGX  =128   NGY  =128   NGZ  =128)
  gives a total of  29791 points

 initial charge density was supplied:
 charge density of overlapping atoms calculated
 number of electron     635.0000000 magnetization      53.0000000
 keeping initial charge density in first step


--------------------------------------------------------------------------------------------------------


 Maximum index for non-local projection operator         5490
 Maximum index for augmentation-charges         1378 (set IRDMAX)


--------------------------------------------------------------------------------------------------------


 First call to EWALD:  gamma=   0.185
 Maximum number of real-space cells 3x 3x 3
 Maximum number of reciprocal cells 3x 3x 3

 FEWALD executed in parallel
    FEWALD:  cpu time    0.00: real time    0.00


----------------------------------------- Iteration    1(   1)  ---------------------------------------


    POTLOK:  cpu time    0.26: real time    0.26
    SETDIJ:  cpu time    0.05: real time    0.05
     EDDAV:  cpu time  120.20: real time  120.49
       DOS:  cpu time    0.00: real time    0.00
    --------------------------------------------
      LOOP:  cpu time  120.52: real time  120.84

 eigenvalue-minimisations  : 17140
 total energy-change (2. order) : 0.7130832E+04  (-0.2864499E+05)
 number of electron     635.0000000 magnetization      53.0000000
 augmentation part      635.0000000 magnetization      53.0000000

 Free energy of the ion-electron system (eV)
  ---------------------------------------------------
  alpha Z        PSCENC =      8177.14454612
  Ewald energy   TEWEN  =    -61746.08695531
  -1/2 Hartree   DENC   =     -8400.17940518
  -exchange  EXHF       =         0.00000000
  -V(xc)+E(xc)   XCENC  =      1835.28518784
  PAW double counting   =     43230.44359611   -42532.73462782
  entropy T*S    EENTRO =         0.01597932
  eigenvalues    EBANDS =         7.99427107
  atomic energy  EATOM  =     66558.94894662
  ---------------------------------------------------
  free energy    TOTEN  =      7130.83153877 eV

  energy without entropy =     7130.81555944  energy(sigma->0) =     7130.82621233


--------------------------------------------------------------------------------------------------------




----------------------------------------- Iteration    1(   2)  ---------------------------------------


     EDDAV:  cpu time  118.11: real time  118.40
       DOS:  cpu time    0.00: real time    0.00
    --------------------------------------------
      LOOP:  cpu time  118.11: real time  118.42

 eigenvalue-minimisations  : 16800
 total energy-change (2. order) :-0.7206910E+04  (-0.6905151E+04)
 number of electron     635.0000000 magnetization      53.0000000
 augmentation part      635.0000000 magnetization      53.0000000

 Free energy of the ion-electron system (eV)
  ---------------------------------------------------
  alpha Z        PSCENC =      8177.14454612
  Ewald energy   TEWEN  =    -61746.08695531
  -1/2 Hartree   DENC   =     -8400.17940518
  -exchange  EXHF       =         0.00000000
  -V(xc)+E(xc)   XCENC  =      1835.28518784
  PAW double counting   =     43230.44359611   -42532.73462782
  entropy T*S    EENTRO =         0.01748302
  eigenvalues    EBANDS =     -7198.91679249
  atomic energy  EATOM  =     66558.94894662
  ---------------------------------------------------
  free energy    TOTEN  =       -76.07802109 eV

  energy without entropy =      -76.09550411  energy(sigma->0) =      -76.08384877


--------------------------------------------------------------------------------------------------------




----------------------------------------- Iteration    1(   3)  ---------------------------------------


     EDDAV:  cpu time  133.24: real time  133.58
       DOS:  cpu time    0.00: real time    0.00
    --------------------------------------------
      LOOP:  cpu time  133.25: real time  133.61

 eigenvalue-minimisations  : 19720
 total energy-change (2. order) :-0.5862732E+03  (-0.5359232E+03)
 number of electron     635.0000000 magnetization      53.0000000
 augmentation part      635.0000000 magnetization      53.0000000

 Free energy of the ion-electron system (eV)
  ---------------------------------------------------
  alpha Z        PSCENC =      8177.14454612
  Ewald energy   TEWEN  =    -61746.08695531
  -1/2 Hartree   DENC   =     -8400.17940518
  -exchange  EXHF       =         0.00000000
  -V(xc)+E(xc)   XCENC  =      1835.28518784
  PAW double counting   =     43230.44359611   -42532.73462782
  entropy T*S    EENTRO =         0.00470461
  eigenvalues    EBANDS =     -7785.17721367
  atomic energy  EATOM  =     66558.94894662
  ---------------------------------------------------
  free energy    TOTEN  =      -662.35122068 eV

  energy without entropy =     -662.35592529  energy(sigma->0) =     -662.35278889


--------------------------------------------------------------------------------------------------------




----------------------------------------- Iteration    1(   4)  ---------------------------------------


     EDDAV:  cpu time  138.25: real time  138.60
       DOS:  cpu time    0.00: real time    0.00
    --------------------------------------------
      LOOP:  cpu time  138.26: real time  138.62

 eigenvalue-minimisations  : 20680
 total energy-change (2. order) :-0.3482156E+02  (-0.3349152E+02)
 number of electron     635.0000000 magnetization      53.0000000
 augmentation part      635.0000000 magnetization      53.0000000

 Free energy of the ion-electron system (eV)
  ---------------------------------------------------
  alpha Z        PSCENC =      8177.14454612
  Ewald energy   TEWEN  =    -61746.08695531
  -1/2 Hartree   DENC   =     -8400.17940518
  -exchange  EXHF       =         0.00000000
  -V(xc)+E(xc)   XCENC  =      1835.28518784
  PAW double counting   =     43230.44359611   -42532.73462782
  entropy T*S    EENTRO =         0.01744703
  eigenvalues    EBANDS =     -7820.01151806
  atomic energy  EATOM  =     66558.94894662
  ---------------------------------------------------
  free energy    TOTEN  =      -697.17278265 eV

  energy without entropy =     -697.19022968  energy(sigma->0) =     -697.17859833


--------------------------------------------------------------------------------------------------------




----------------------------------------- Iteration    1(   5)  ---------------------------------------


     EDDAV:  cpu time  145.54: real time  145.90
       DOS:  cpu time    0.00: real time    0.00
    CHARGE:  cpu time    5.09: real time    5.11
    MIXING:  cpu time    0.01: real time    0.01
    --------------------------------------------
      LOOP:  cpu time  150.65: real time  151.04

 eigenvalue-minimisations  : 22060
 total energy-change (2. order) :-0.1507934E+01  (-0.1496613E+01)
 number of electron     635.0000034 magnetization      30.3487796
 augmentation part      210.6459595 magnetization      25.7065624

 Broyden mixing:
  rms(total) = 0.40624E+01    rms(broyden)= 0.40624E+01
  rms(prec ) = 0.50727E+01
  weight for this iteration     100.00

 Free energy of the ion-electron system (eV)
  ---------------------------------------------------
  alpha Z        PSCENC =      8177.14454612
  Ewald energy   TEWEN  =    -61746.08695531
  -1/2 Hartree   DENC   =     -8400.17940518
  -exchange  EXHF       =         0.00000000
  -V(xc)+E(xc)   XCENC  =      1835.28518784
  PAW double counting   =     43230.44359611   -42532.73462782
  entropy T*S    EENTRO =         0.01831754
  eigenvalues    EBANDS =     -7821.52032265
  atomic energy  EATOM  =     66558.94894662
  ---------------------------------------------------
  free energy    TOTEN  =      -698.68071674 eV

  energy without entropy =     -698.69903427  energy(sigma->0) =     -698.68682258


--------------------------------------------------------------------------------------------------------




----------------------------------------- Iteration    1(   6)  ---------------------------------------


    POTLOK:  cpu time    0.25: real time    0.25
    SETDIJ:  cpu time    0.05: real time    0.05
     EDDAV:  cpu time  131.37: real time  131.70
       DOS:  cpu time    0.00: real time    0.00
    CHARGE:  cpu time    5.06: real time    5.08
    MIXING:  cpu time    0.01: real time    0.01
    --------------------------------------------
      LOOP:  cpu time  136.75: real time  137.11

 eigenvalue-minimisations  : 19360
 total energy-change (2. order) : 0.2501339E+02  (-0.5242772E+01)
 number of electron     635.0000035 magnetization      16.8215553
 augmentation part      214.6095513 magnetization      11.5474597

 Broyden mixing:
  rms(total) = 0.18807E+01    rms(broyden)= 0.18806E+01
  rms(prec ) = 0.24183E+01
  weight for this iteration     100.00

 eigenvalues of (default mixing * dielectric matrix)
  average eigenvalue GAMMA=   0.8619
  0.8619

 Free energy of the ion-electron system (eV)
  ---------------------------------------------------
  alpha Z        PSCENC =      8177.14454612
  Ewald energy   TEWEN  =    -61746.08695531
  -1/2 Hartree   DENC   =     -7819.24100469
  -exchange  EXHF       =         0.00000000
  -V(xc)+E(xc)   XCENC  =      1804.67277443
  PAW double counting   =     43196.83074714   -42617.47800419
  entropy T*S    EENTRO =         0.02106027
  eigenvalues    EBANDS =     -8228.47943340
  atomic energy  EATOM  =     66558.94894662
  ---------------------------------------------------
  free energy    TOTEN  =      -673.66732302 eV

  energy without entropy =     -673.68838329  energy(sigma->0) =     -673.67434311


--------------------------------------------------------------------------------------------------------




----------------------------------------- Iteration    1(   7)  ---------------------------------------


    POTLOK:  cpu time    0.24: real time    0.24
    SETDIJ:  cpu time    0.05: real time    0.05
     EDDAV:  cpu time  134.74: real time  135.07
       DOS:  cpu time    0.00: real time    0.00
    CHARGE:  cpu time    5.07: real time    5.08
    MIXING:  cpu time    0.01: real time    0.01
    --------------------------------------------
      LOOP:  cpu time  140.10: real time  140.47

 eigenvalue-minimisations  : 20220
 total energy-change (2. order) : 0.1369311E+01  (-0.1856393E+01)
 number of electron     635.0000035 magnetization       5.8019478
 augmentation part      216.1222041 magnetization       3.8195387

 Broyden mixing:
  rms(total) = 0.96465E+00    rms(broyden)= 0.96464E+00
  rms(prec ) = 0.13243E+01
  weight for this iteration     100.00

 eigenvalues of (default mixing * dielectric matrix)
  average eigenvalue GAMMA=   1.2989
  0.7394  1.8585

 Free energy of the ion-electron system (eV)
  ---------------------------------------------------
  alpha Z        PSCENC =      8177.14454612
  Ewald energy   TEWEN  =    -61746.08695531
  -1/2 Hartree   DENC   =     -7541.09936048
  -exchange  EXHF       =         0.00000000
  -V(xc)+E(xc)   XCENC  =      1788.99115690
  PAW double counting   =     43616.30166457   -43106.82285943
  entropy T*S    EENTRO =         0.01600999
  eigenvalues    EBANDS =     -8419.69116116
  atomic energy  EATOM  =     66558.94894662
  ---------------------------------------------------
  free energy    TOTEN  =      -672.29801218 eV

  energy without entropy =     -672.31402217  energy(sigma->0) =     -672.30334884


--------------------------------------------------------------------------------------------------------




----------------------------------------- Iteration    1(   8)  ---------------------------------------


    POTLOK:  cpu time    0.24: real time    0.24
    SETDIJ:  cpu time    0.05: real time    0.05
     EDDAV:  cpu time  139.07: real time  139.42
       DOS:  cpu time    0.00: real time    0.00
    CHARGE:  cpu time    5.06: real time    5.07
    MIXING:  cpu time    0.01: real time    0.01
    --------------------------------------------
      LOOP:  cpu time  144.43: real time  144.82

 eigenvalue-minimisations  : 21040
 total energy-change (2. order) : 0.5313903E+00  (-0.7973939E+00)
 number of electron     635.0000035 magnetization       3.1837256
 augmentation part      217.3379744 magnetization       2.4349274

 Broyden mixing:
  rms(total) = 0.33502E+00    rms(broyden)= 0.33501E+00
  rms(prec ) = 0.66169E+00
  weight for this iteration     100.00

 eigenvalues of (default mixing * dielectric matrix)
  average eigenvalue GAMMA=   1.1948
  2.0660  0.8509  0.6673

 Free energy of the ion-electron system (eV)
  ---------------------------------------------------
  alpha Z        PSCENC =      8177.14454612
  Ewald energy   TEWEN  =    -61746.08695531
  -1/2 Hartree   DENC   =     -7367.62569609
  -exchange  EXHF       =         0.00000000
  -V(xc)+E(xc)   XCENC  =      1780.15137893
  PAW double counting   =     44094.92958363   -43633.35461039
  entropy T*S    EENTRO =         0.01976192
  eigenvalues    EBANDS =     -8535.89357729
  atomic energy  EATOM  =     66558.94894662
  ---------------------------------------------------
  free energy    TOTEN  =      -671.76662186 eV

  energy without entropy =     -671.78638378  energy(sigma->0) =     -671.77320917


--------------------------------------------------------------------------------------------------------




----------------------------------------- Iteration    1(   9)  ---------------------------------------


    POTLOK:  cpu time    0.24: real time    0.24
    SETDIJ:  cpu time    0.05: real time    0.05
     EDDAV:  cpu time  140.83: real time  141.17
       DOS:  cpu time    0.00: real time    0.00
    CHARGE:  cpu time    5.06: real time    5.08
    MIXING:  cpu time    0.01: real time    0.01
    --------------------------------------------
      LOOP:  cpu time  146.19: real time  146.56

 eigenvalue-minimisations  : 21360
 total energy-change (2. order) : 0.1321554E+00  (-0.1381399E+00)
 number of electron     635.0000035 magnetization       1.1614167
 augmentation part      217.5811069 magnetization       0.6819517

 Broyden mixing:
  rms(total) = 0.17431E+00    rms(broyden)= 0.17431E+00
  rms(prec ) = 0.20756E+00
  weight for this iteration     100.00

 eigenvalues of (default mixing * dielectric matrix)
  average eigenvalue GAMMA=   1.1481
  2.1176  1.1881  0.7450  0.5416

 Free energy of the ion-electron system (eV)
  ---------------------------------------------------
  alpha Z        PSCENC =      8177.14454612
  Ewald energy   TEWEN  =    -61746.08695531
  -1/2 Hartree   DENC   =     -7347.55253719
  -exchange  EXHF       =         0.00000000
  -V(xc)+E(xc)   XCENC  =      1779.23849391
  PAW double counting   =     44323.55775963   -43870.65728190
  entropy T*S    EENTRO =         0.02001266
  eigenvalues    EBANDS =     -8546.24745099
  atomic energy  EATOM  =     66558.94894662
  ---------------------------------------------------
  free energy    TOTEN  =      -671.63446646 eV

  energy without entropy =     -671.65447911  energy(sigma->0) =     -671.64113734


--------------------------------------------------------------------------------------------------------




----------------------------------------- Iteration    1(  10)  ---------------------------------------


    POTLOK:  cpu time    0.24: real time    0.24
    SETDIJ:  cpu time    0.05: real time    0.05
     EDDAV:  cpu time  138.24: real time  138.58
       DOS:  cpu time    0.00: real time    0.00
    CHARGE:  cpu time    5.06: real time    5.07
    MIXING:  cpu time    0.01: real time    0.01
    --------------------------------------------
      LOOP:  cpu time  143.60: real time  143.97

 eigenvalue-minimisations  : 20900
 total energy-change (2. order) :-0.1147282E-01  (-0.2484150E-01)
 number of electron     635.0000035 magnetization       0.3069892
 augmentation part      217.5392486 magnetization       0.1577421

 Broyden mixing:
  rms(total) = 0.81773E-01    rms(broyden)= 0.81772E-01
  rms(prec ) = 0.11473E+00
  weight for this iteration     100.00

 eigenvalues of (default mixing * dielectric matrix)
  average eigenvalue GAMMA=   1.2324
  2.3248  1.7975  0.8592  0.6850  0.4955

 Free energy of the ion-electron system (eV)
  ---------------------------------------------------
  alpha Z        PSCENC =      8177.14454612
  Ewald energy   TEWEN  =    -61746.08695531
  -1/2 Hartree   DENC   =     -7364.06473948
  -exchange  EXHF       =         0.00000000
  -V(xc)+E(xc)   XCENC  =      1780.07555787
  PAW double counting   =     44650.76354509   -44200.73961150
  entropy T*S    EENTRO =         0.01909466
  eigenvalues    EBANDS =     -8527.70632335
  atomic energy  EATOM  =     66558.94894662
  ---------------------------------------------------
  free energy    TOTEN  =      -671.64593928 eV

  energy without entropy =     -671.66503394  energy(sigma->0) =     -671.65230416


--------------------------------------------------------------------------------------------------------




----------------------------------------- Iteration    1(  11)  ---------------------------------------


    POTLOK:  cpu time    0.24: real time    0.24
    SETDIJ:  cpu time    0.05: real time    0.05
     EDDAV:  cpu time  141.94: real time  142.30
       DOS:  cpu time    0.00: real time    0.00
    CHARGE:  cpu time    5.06: real time    5.07
    MIXING:  cpu time    0.01: real time    0.01
    --------------------------------------------
      LOOP:  cpu time  147.29: real time  147.68

 eigenvalue-minimisations  : 21500
 total energy-change (2. order) : 0.5792599E-02  (-0.5763015E-02)
 number of electron     635.0000035 magnetization      -0.0321720
 augmentation part      217.4823729 magnetization      -0.0846884

 Broyden mixing:
  rms(total) = 0.24533E-01    rms(broyden)= 0.24533E-01
  rms(prec ) = 0.40694E-01
  weight for this iteration     100.00

 eigenvalues of (default mixing * dielectric matrix)
  average eigenvalue GAMMA=   1.1806
  2.4885  1.8486  0.8985  0.7461  0.4786  0.6233

 Free energy of the ion-electron system (eV)
  ---------------------------------------------------
  alpha Z        PSCENC =      8177.14454612
  Ewald energy   TEWEN  =    -61746.08695531
  -1/2 Hartree   DENC   =     -7370.60968646
  -exchange  EXHF       =         0.00000000
  -V(xc)+E(xc)   XCENC  =      1780.39830021
  PAW double counting   =     44783.48720682   -44334.47827093
  entropy T*S    EENTRO =         0.01892202
  eigenvalues    EBANDS =     -8520.46315576
  atomic energy  EATOM  =     66558.94894662
  ---------------------------------------------------
  free energy    TOTEN  =      -671.64014668 eV

  energy without entropy =     -671.65906870  energy(sigma->0) =     -671.64645402


--------------------------------------------------------------------------------------------------------




----------------------------------------- Iteration    1(  12)  ---------------------------------------


    POTLOK:  cpu time    0.24: real time    0.24
    SETDIJ:  cpu time    0.05: real time    0.05
     EDDAV:  cpu time  137.91: real time  138.26
       DOS:  cpu time    0.00: real time    0.00
    CHARGE:  cpu time    5.06: real time    5.08
    MIXING:  cpu time    0.01: real time    0.01
    --------------------------------------------
      LOOP:  cpu time  143.27: real time  143.66

 eigenvalue-minimisations  : 20720
 total energy-change (2. order) :-0.1190954E-02  (-0.1075857E-02)
 number of electron     635.0000035 magnetization      -0.0552839
 augmentation part      217.4676925 magnetization      -0.0630808

 Broyden mixing:
  rms(total) = 0.10550E-01    rms(broyden)= 0.10549E-01
  rms(prec ) = 0.17200E-01
  weight for this iteration     100.00

 eigenvalues of (default mixing * dielectric matrix)
  average eigenvalue GAMMA=   1.1086
  2.5103  1.8285  0.9054  0.8240  0.6759  0.4923  0.5240

 Free energy of the ion-electron system (eV)
  ---------------------------------------------------
  alpha Z        PSCENC =      8177.14454612
  Ewald energy   TEWEN  =    -61746.08695531
  -1/2 Hartree   DENC   =     -7370.79190927
  -exchange  EXHF       =         0.00000000
  -V(xc)+E(xc)   XCENC  =      1780.41987429
  PAW double counting   =     44828.49451508   -44379.92021797
  entropy T*S    EENTRO =         0.01895480
  eigenvalues    EBANDS =     -8519.86909200
  atomic energy  EATOM  =     66558.94894662
  ---------------------------------------------------
  free energy    TOTEN  =      -671.64133763 eV

  energy without entropy =     -671.66029244  energy(sigma->0) =     -671.64765590


--------------------------------------------------------------------------------------------------------




----------------------------------------- Iteration    1(  13)  ---------------------------------------


    POTLOK:  cpu time    0.24: real time    0.24
    SETDIJ:  cpu time    0.05: real time    0.05
     EDDAV:  cpu time  137.83: real time  138.19
       DOS:  cpu time    0.00: real time    0.00
    CHARGE:  cpu time    5.09: real time    5.10
    MIXING:  cpu time    0.01: real time    0.01
    --------------------------------------------
      LOOP:  cpu time  143.22: real time  143.61

 eigenvalue-minimisations  : 20700
 total energy-change (2. order) : 0.1520299E-03  (-0.1556808E-03)
 number of electron     635.0000035 magnetization      -0.0374970
 augmentation part      217.4707931 magnetization      -0.0327421

 Broyden mixing:
  rms(total) = 0.42241E-02    rms(broyden)= 0.42239E-02
  rms(prec ) = 0.62066E-02
  weight for this iteration     100.00

 eigenvalues of (default mixing * dielectric matrix)
  average eigenvalue GAMMA=   1.1365
  2.5193  1.7303  1.4464  0.9704  0.7797  0.6630  0.4762  0.5072

 Free energy of the ion-electron system (eV)
  ---------------------------------------------------
  alpha Z        PSCENC =      8177.14454612
  Ewald energy   TEWEN  =    -61746.08695531
  -1/2 Hartree   DENC   =     -7370.29647925
  -exchange  EXHF       =         0.00000000
  -V(xc)+E(xc)   XCENC  =      1780.39614392
  PAW double counting   =     44831.43060825   -44382.79919576
  entropy T*S    EENTRO =         0.01890193
  eigenvalues    EBANDS =     -8520.39770212
  atomic energy  EATOM  =     66558.94894662
  ---------------------------------------------------
  free energy    TOTEN  =      -671.64118560 eV

  energy without entropy =     -671.66008753  energy(sigma->0) =     -671.64748625


--------------------------------------------------------------------------------------------------------




----------------------------------------- Iteration    1(  14)  ---------------------------------------


    POTLOK:  cpu time    0.24: real time    0.24
    SETDIJ:  cpu time    0.05: real time    0.05
     EDDAV:  cpu time  139.27: real time  139.63
       DOS:  cpu time    0.00: real time    0.00
    CHARGE:  cpu time    5.09: real time    5.10
    MIXING:  cpu time    0.01: real time    0.01
    --------------------------------------------
      LOOP:  cpu time  144.66: real time  145.05

 eigenvalue-minimisations  : 20960
 total energy-change (2. order) : 0.4926258E-04  (-0.2946674E-04)
 number of electron     635.0000035 magnetization      -0.0138807
 augmentation part      217.4756990 magnetization      -0.0091550

 Broyden mixing:
  rms(total) = 0.25285E-02    rms(broyden)= 0.25284E-02
  rms(prec ) = 0.34407E-02
  weight for this iteration     100.00

 eigenvalues of (default mixing * dielectric matrix)
  average eigenvalue GAMMA=   1.1435
  2.5279  1.8922  1.8922  0.9195  0.7891  0.6924  0.6077  0.4666  0.5043

 Free energy of the ion-electron system (eV)
  ---------------------------------------------------
  alpha Z        PSCENC =      8177.14454612
  Ewald energy   TEWEN  =    -61746.08695531
  -1/2 Hartree   DENC   =     -7369.88199822
  -exchange  EXHF       =         0.00000000
  -V(xc)+E(xc)   XCENC  =      1780.37718264
  PAW double counting   =     44829.62092278   -44380.81947574
  entropy T*S    EENTRO =         0.01898644
  eigenvalues    EBANDS =     -8520.96329167
  atomic energy  EATOM  =     66558.94894662
  ---------------------------------------------------
  free energy    TOTEN  =      -671.64113634 eV

  energy without entropy =     -671.66012278  energy(sigma->0) =     -671.64746515


--------------------------------------------------------------------------------------------------------




----------------------------------------- Iteration    1(  15)  ---------------------------------------


    POTLOK:  cpu time    0.24: real time    0.24
    SETDIJ:  cpu time    0.05: real time    0.05
     EDDAV:  cpu time  137.64: real time  138.00
       DOS:  cpu time    0.00: real time    0.00
    CHARGE:  cpu time    5.09: real time    5.10
    MIXING:  cpu time    0.01: real time    0.01
    --------------------------------------------
      LOOP:  cpu time  143.03: real time  143.42

 eigenvalue-minimisations  : 20660
 total energy-change (2. order) : 0.3447539E-04  (-0.9287649E-05)
 number of electron     635.0000035 magnetization      -0.0032955
 augmentation part      217.4792236 magnetization      -0.0013881

 Broyden mixing:
  rms(total) = 0.12965E-02    rms(broyden)= 0.12965E-02
  rms(prec ) = 0.18118E-02
  weight for this iteration     100.00

 eigenvalues of (default mixing * dielectric matrix)
  average eigenvalue GAMMA=   1.1440
  2.5588  2.3135  1.7243  0.9589  0.9589  0.7621  0.6710  0.5389  0.4718  0.4819

 Free energy of the ion-electron system (eV)
  ---------------------------------------------------
  alpha Z        PSCENC =      8177.14454612
  Ewald energy   TEWEN  =    -61746.08695531
  -1/2 Hartree   DENC   =     -7369.71973811
  -exchange  EXHF       =         0.00000000
  -V(xc)+E(xc)   XCENC  =      1780.36945232
  PAW double counting   =     44828.22913099   -44379.19220358
  entropy T*S    EENTRO =         0.01897656
  eigenvalues    EBANDS =     -8521.35325748
  atomic energy  EATOM  =     66558.94894662
  ---------------------------------------------------
  free energy    TOTEN  =      -671.64110187 eV

  energy without entropy =     -671.66007843  energy(sigma->0) =     -671.64742739


--------------------------------------------------------------------------------------------------------




----------------------------------------- Iteration    1(  16)  ---------------------------------------


    POTLOK:  cpu time    0.24: real time    0.24
    SETDIJ:  cpu time    0.05: real time    0.05
     EDDAV:  cpu time   95.18: real time   95.42
       DOS:  cpu time    0.00: real time    0.00
    CHARGE:  cpu time    5.09: real time    5.10
    MIXING:  cpu time    0.01: real time    0.01
    --------------------------------------------
      LOOP:  cpu time  100.57: real time  100.84

 eigenvalue-minimisations  : 12440
 total energy-change (2. order) : 0.1402083E-04  (-0.1516356E-05)
 number of electron     635.0000035 magnetization      -0.0005401
 augmentation part      217.4786974 magnetization      -0.0000628

 Broyden mixing:
  rms(total) = 0.46634E-03    rms(broyden)= 0.46633E-03
  rms(prec ) = 0.67031E-03
  weight for this iteration     100.00

 eigenvalues of (default mixing * dielectric matrix)
  average eigenvalue GAMMA=   1.1235
  2.6051  2.4058  1.6747  1.0417  1.0417  0.7488  0.7488  0.6396  0.4958  0.4958
  0.4611

 Free energy of the ion-electron system (eV)
  ---------------------------------------------------
  alpha Z        PSCENC =      8177.14454612
  Ewald energy   TEWEN  =    -61746.08695531
  -1/2 Hartree   DENC   =     -7369.94854635
  -exchange  EXHF       =         0.00000000
  -V(xc)+E(xc)   XCENC  =      1780.38068742
  PAW double counting   =     44828.60956945   -44379.44228293
  entropy T*S    EENTRO =         0.01898124
  eigenvalues    EBANDS =     -8521.26603412
  atomic energy  EATOM  =     66558.94894662
  ---------------------------------------------------
  free energy    TOTEN  =      -671.64108784 eV

  energy without entropy =     -671.66006909  energy(sigma->0) =     -671.64741493


--------------------------------------------------------------------------------------------------------




----------------------------------------- Iteration    1(  17)  ---------------------------------------


    POTLOK:  cpu time    0.24: real time    0.24
    SETDIJ:  cpu time    0.05: real time    0.05
     EDDAV:  cpu time   86.75: real time   86.97
       DOS:  cpu time    0.00: real time    0.00
    --------------------------------------------
      LOOP:  cpu time   87.04: real time   87.27

 eigenvalue-minimisations  : 10800
 total energy-change (2. order) : 0.4524147E-05  (-0.5015438E-06)
 number of electron     635.0000035 magnetization      -0.0005401
 augmentation part      217.4786974 magnetization      -0.0000628

 Free energy of the ion-electron system (eV)
  ---------------------------------------------------
  alpha Z        PSCENC =      8177.14454612
  Ewald energy   TEWEN  =    -61746.08695531
  -1/2 Hartree   DENC   =     -7370.07252886
  -exchange  EXHF       =         0.00000000
  -V(xc)+E(xc)   XCENC  =      1780.38672946
  PAW double counting   =     44828.78243847   -44379.57228351
  entropy T*S    EENTRO =         0.01897476
  eigenvalues    EBANDS =     -8521.19095106
  atomic energy  EATOM  =     66558.94894662
  ---------------------------------------------------
  free energy    TOTEN  =      -671.64108332 eV

  energy without entropy =     -671.66005808  energy(sigma->0) =     -671.64740824


--------------------------------------------------------------------------------------------------------




 average (electrostatic) potential at core
  the test charge radii are     1.1249  1.1823
  (the norm of the test charge is              1.0000)
       1 -72.7746       2 -38.5478       3 -38.6014       4 -38.6428       5 -38.6014
       6 -38.6115       7 -38.6953       8 -38.6428       9 -38.6953      10 -38.6416
      11 -38.6014      12 -38.6115      13 -38.6953      14 -38.6115      15 -38.6285
      16 -38.6953      17 -38.6285      18 -38.7192      19 -38.6428      20 -38.6953
      21 -38.6416      22 -38.6953      23 -38.6285      24 -38.7192      25 -38.6416
      26 -38.7192      27 -38.6824      28 -38.5109      29 -38.5335      30 -38.5109
      31 -38.6271      32 -38.7053      33 -38.5335      34 -38.7053      35 -38.6987
      36 -38.5109      37 -38.6271      38 -38.7053      39 -38.6271      40 -38.5770
      41 -38.6615      42 -38.7053      43 -38.6615      44 -38.6446      45 -38.5335
      46 -38.7053      47 -38.6987      48 -38.7053      49 -38.6615      50 -38.6446
      51 -38.6987      52 -38.6446      53 -38.6731
 
 
 
[...]
      7.97209      4.78244      1.59572        -0.000739      0.002186     -0.000609
      7.98474      4.77506      4.77506        -0.000636      0.002009      0.002052
      7.97218      4.78107      7.97218        -0.000121     -0.003807     -0.000394
      7.97964      7.97964      1.59913        -0.002081     -0.002081      0.006845
      7.97218      7.97218      4.78107        -0.000486     -0.000486      0.000581
      7.97690      7.97690      7.97690        -0.004233     -0.004233      0.003764
 -----------------------------------------------------------------------------------
    total drift:                               -0.005366     -0.003314     -0.005691


--------------------------------------------------------------------------------------------------------



  FREE ENERGIE OF THE ION-ELECTRON SYSTEM (eV)
  ---------------------------------------------------
  free  energy   TOTEN  =      -671.63018345 eV

  energy  without entropy=     -671.64951811  energy(sigma->0) =     -671.63662833
 
 d Force =-0.8030126E-04[-0.440E-01, 0.438E-01]  d Energy = 0.1362943E-03-0.217E-03
 d Force = 0.7764544E+01[ 0.540E+01, 0.101E+02]  d Ewald  = 0.7769183E+01-0.464E-02


--------------------------------------------------------------------------------------------------------


    POTLOK:  cpu time    0.32: real time    0.32


--------------------------------------------------------------------------------------------------------


 stress matrix after NEB project (eV)
     -8.56923     -2.08171     -1.90326
     -2.08171     -8.56923     -1.90326
     -1.90326     -1.90326     -8.46492
  FORCES: max atom, RMS     0.480299    0.065974
  FORCE total and by dimension    0.480299    0.439906
  Stress total and by dimension   15.545899    8.569233
 Finite differences progress:
  Degree of freedom:   3/  3
  Displacement:        2/  2
  Total:               6/  6
 
 SECOND DERIVATIVES (NOT SYMMETRIZED)
 ------------------------------------
               1X          1Y          1Z 
  1X    -8.766015    2.672209    2.672209
  1Y     2.668646   -8.779048    2.668646
  1Z     2.665242    2.665242   -8.782063
 
 
 Eigenvectors and eigenvalues of the dynamical matrix
 ----------------------------------------------------
 
 
   1 f  =    5.092837 THz    31.999238 2PiTHz  169.878746 cm-1    21.062288 meV
             X         Y         Z           dx          dy          dz
      3.004076  3.004076  3.004076    -0.014715    0.714159   -0.699829  
      0.016729  0.016729  0.016729            0           0           0  
      0.027394  0.027394  3.183506            0           0           0  
      9.563517  9.563517  6.387223            0           0           0  
      0.027394  3.183506  0.027394            0           0           0  
      0.027117  3.176017  3.176017            0           0           0  
      0.005366  3.192918  6.386716            0           0           0  
      9.563517  6.387223  9.563517            0           0           0  
      0.005366  6.386716  3.192918            0           0           0  
      0.002104  6.383722  6.383722            0           0           0  
      3.183506  0.027394  0.027394            0           0           0  
      3.176017  0.027117  3.176017            0           0           0  
      3.192918  0.005366  6.386716            0           0           0  
      3.176017  3.176017  0.027117            0           0           0  
      3.192038  3.192038  6.362038            0           0           0  
      3.192918  6.386716  0.005366            0           0           0  
      3.192038  6.362038  3.192038            0           0           0  
      3.184319  6.378902  6.378902            0           0           0  
      6.387223  9.563517  9.563517            0           0           0  
      6.386716  0.005366  3.192918            0           0           0  
      6.383722  0.002104  6.383722            0           0           0  
      6.386716  3.192918  0.005366            0           0           0  
      6.362038  3.192038  3.192038            0           0           0  
      6.378902  3.184319  6.378902            0           0           0  
      6.383722  6.383722  0.002104            0           0           0  
      6.378902  6.378902  3.184319            0           0           0  
      6.374062  6.374062  6.374062            0           0           0  
      1.564655  1.564655  4.827331            0           0           0  
      1.596287  1.596287  8.014453            0           0           0  
      1.564655  4.827331  1.564655            0           0           0  
      1.592824  4.777344  4.777344            0           0           0  
      1.595723  4.782443  7.972089            0           0           0  
      1.596287  8.014453  1.596287            0           0           0  
      1.595723  7.972089  4.782443            0           0           0  
      1.599128  7.979636  7.979636            0           0           0  
      4.827331  1.564655  1.564655            0           0           0  
      4.777344  1.592824  4.777344            0           0           0  
      4.782443  1.595723  7.972089            0           0           0  
      4.777344  4.777344  1.592824            0           0           0  
      4.787120  4.787120  4.787120            0           0           0  
      4.775058  4.775058  7.984744            0           0           0  
      4.782443  7.972089  1.595723            0           0           0  
      4.775058  7.984744  4.775058            0           0           0  
      4.781075  7.972176  7.972176            0           0           0  
      8.014453  1.596287  1.596287            0           0           0  
      7.972089  1.595723  4.782443            0           0           0  
      7.979636  1.599128  7.979636            0           0           0  
      7.972089  4.782443  1.595723            0           0           0  
      7.984744  4.775058  4.775058            0           0           0  
      7.972176  4.781075  7.972176            0           0           0  
      7.979636  7.979636  1.599128            0           0           0  
      7.972176  7.972176  4.781075            0           0           0  
      7.976901  7.976901  7.976901            0           0           0  
 
   2 f  =    5.091462 THz    31.990599 2PiTHz  169.832885 cm-1    21.056602 meV
             X         Y         Z           dx          dy          dz
      3.004076  3.004076  3.004076    -0.815779    0.396137    0.421402  
      0.016729  0.016729  0.016729            0           0           0  
      0.027394  0.027394  3.183506            0           0           0  
      9.563517  9.563517  6.387223            0           0           0  
      0.027394  3.183506  0.027394            0           0           0  
      0.027117  3.176017  3.176017            0           0           0  
      0.005366  3.192918  6.386716            0           0           0  
      9.563517  6.387223  9.563517            0           0           0  
      0.005366  6.386716  3.192918            0           0           0  
      0.002104  6.383722  6.383722            0           0           0  
      3.183506  0.027394  0.027394            0           0           0  
      3.176017  0.027117  3.176017            0           0           0  
      3.192918  0.005366  6.386716            0           0           0  
      3.176017  3.176017  0.027117            0           0           0  
      3.192038  3.192038  6.362038            0           0           0  
      3.192918  6.386716  0.005366            0           0           0  
      3.192038  6.362038  3.192038            0           0           0  
      3.184319  6.378902  6.378902            0           0           0  
      6.387223  9.563517  9.563517            0           0           0  
      6.386716  0.005366  3.192918            0           0           0  
      6.383722  0.002104  6.383722            0           0           0  
      6.386716  3.192918  0.005366            0           0           0  
      6.362038  3.192038  3.192038            0           0           0  
      6.378902  3.184319  6.378902            0           0           0  
      6.383722  6.383722  0.002104            0           0           0  
      6.378902  6.378902  3.184319            0           0           0  
      6.374062  6.374062  6.374062            0           0           0  
      1.564655  1.564655  4.827331            0           0           0  
      1.596287  1.596287  8.014453            0           0           0  
      1.564655  4.827331  1.564655            0           0           0  
      1.592824  4.777344  4.777344            0           0           0  
      1.595723  4.782443  7.972089            0           0           0  
      1.596287  8.014453  1.596287            0           0           0  
      1.595723  7.972089  4.782443            0           0           0  
      1.599128  7.979636  7.979636            0           0           0  
      4.827331  1.564655  1.564655            0           0           0  
      4.777344  1.592824  4.777344            0           0           0  
      4.782443  1.595723  7.972089            0           0           0  
      4.777344  4.777344  1.592824            0           0           0  
      4.787120  4.787120  4.787120            0           0           0  
      4.775058  4.775058  7.984744            0           0           0  
      4.782443  7.972089  1.595723            0           0           0  
      4.775058  7.984744  4.775058            0           0           0  
      4.781075  7.972176  7.972176            0           0           0  
      8.014453  1.596287  1.596287            0           0           0  
      7.972089  1.595723  4.782443            0           0           0  
      7.979636  1.599128  7.979636            0           0           0  
      7.972089  4.782443  1.595723            0           0           0  
      7.984744  4.775058  4.775058            0           0           0  
      7.972176  4.781075  7.972176            0           0           0  
      7.979636  7.979636  1.599128            0           0           0  
      7.972176  7.972176  4.781075            0           0           0  
      7.976901  7.976901  7.976901            0           0           0  
 
   3 f  =    2.791107 THz    17.537040 2PiTHz   93.101294 cm-1    11.543093 meV
             X         Y         Z           dx          dy          dz
      3.004076  3.004076  3.004076    -0.578176   -0.577107   -0.576767  
      0.016729  0.016729  0.016729            0           0           0  
      0.027394  0.027394  3.183506            0           0           0  
      9.563517  9.563517  6.387223            0           0           0  
      0.027394  3.183506  0.027394            0           0           0  
      0.027117  3.176017  3.176017            0           0           0  
      0.005366  3.192918  6.386716            0           0           0  
      9.563517  6.387223  9.563517            0           0           0  
      0.005366  6.386716  3.192918            0           0           0  
      0.002104  6.383722  6.383722            0           0           0  
      3.183506  0.027394  0.027394            0           0           0  
      3.176017  0.027117  3.176017            0           0           0  
      3.192918  0.005366  6.386716            0           0           0  
      3.176017  3.176017  0.027117            0           0           0  
      3.192038  3.192038  6.362038            0           0           0  
      3.192918  6.386716  0.005366            0           0           0  
      3.192038  6.362038  3.192038            0           0           0  
      3.184319  6.378902  6.378902            0           0           0  
      6.387223  9.563517  9.563517            0           0           0  
      6.386716  0.005366  3.192918            0           0           0  
      6.383722  0.002104  6.383722            0           0           0  
      6.386716  3.192918  0.005366            0           0           0  
      6.362038  3.192038  3.192038            0           0           0  
      6.378902  3.184319  6.378902            0           0           0  
      6.383722  6.383722  0.002104            0           0           0  
      6.378902  6.378902  3.184319            0           0           0  
      6.374062  6.374062  6.374062            0           0           0  
      1.564655  1.564655  4.827331            0           0           0  
      1.596287  1.596287  8.014453            0           0           0  
      1.564655  4.827331  1.564655            0           0           0  
      1.592824  4.777344  4.777344            0           0           0  
      1.595723  4.782443  7.972089            0           0           0  
      1.596287  8.014453  1.596287            0           0           0  
      1.595723  7.972089  4.782443            0           0           0  
      1.599128  7.979636  7.979636            0           0           0  
      4.827331  1.564655  1.564655            0           0           0  
      4.777344  1.592824  4.777344            0           0           0  
      4.782443  1.595723  7.972089            0           0           0  
      4.777344  4.777344  1.592824            0           0           0  
      4.787120  4.787120  4.787120            0           0           0  
      4.775058  4.775058  7.984744            0           0           0  
      4.782443  7.972089  1.595723            0           0           0  
      4.775058  7.984744  4.775058            0           0           0  
      4.781075  7.972176  7.972176            0           0           0  
      8.014453  1.596287  1.596287            0           0           0  
      7.972089  1.595723  4.782443            0           0           0  
      7.979636  1.599128  7.979636            0           0           0  
      7.972089  4.782443  1.595723            0           0           0  
      7.984744  4.775058  4.775058            0           0           0  
      7.972176  4.781075  7.972176            0           0           0  
      7.979636  7.979636  1.599128            0           0           0  
      7.972176  7.972176  4.781075            0           0           0  
      7.976901  7.976901  7.976901            0           0           0  
 
 Finite differences POTIM=  5.000000000000000E-002
  LATTYP: Found a simple cubic cell.
 ALAT       =     9.5650190000
  
  Lattice vectors:
  
 A1 = (   9.5650190000,   0.0000000000,   0.0000000000)
 A2 = (   0.0000000000,   9.5650190000,   0.0000000000)
 A3 = (   0.0000000000,   0.0000000000,   9.5650190000)


Analysis of symmetry for initial positions (statically):
=====================================================================
 Subroutine PRICEL returns:
 Original cell was already a primitive cell.
 

 Routine SETGRP: Setting up the symmetry group for a 
 simple cubic supercell.


 Subroutine GETGRP returns: Found  6 space group operations
 (whereof  6 operations were pure point group operations)
 out of a pool of 48 trial point group operations.


The static configuration has the point symmetry C_3v.


Analysis of symmetry for dynamics (positions and initial velocities):
=====================================================================
 Subroutine PRICEL returns:
 Original cell was already a primitive cell.
 

 Routine SETGRP: Setting up the symmetry group for a 
 simple cubic supercell.


 Subroutine GETGRP returns: Found  6 space group operations
 (whereof  6 operations were pure point group operations)
 out of a pool of 48 trial point group operations.


The dynamic configuration has the point symmetry C_3v.


Analysis of constrained symmetry for selective dynamics:
=====================================================================
 Subroutine PRICEL returns:
 Original cell was already a primitive cell.
 

 Routine SETGRP: Setting up the symmetry group for a 
 simple cubic supercell.


 Subroutine GETGRP returns: Found  6 space group operations
 (whereof  6 operations were pure point group operations)
 out of a pool of 48 trial point group operations.


The constrained configuration has the point symmetry C_3v.


Analysis of magnetic symmetry:
=====================================================================

 Subroutine MAGSYM returns: Found  6 space group operations
 (whereof  6 operations were pure point group operations)
 out of a pool of  6 trial space group operations
 (whereof  6 operations were pure point group operations)
 and found also     1 'primitive' translations


The magnetic configuration has the point symmetry C_3v.
 
 KPOINTS: Automatic kpoint scheme                 

Automatic generation of k-mesh.
Space group operators:
 irot       det(A)        alpha          n_x          n_y          n_z        tau_x        tau_y        tau_z
    1     1.000000     0.000000     1.000000     0.000000     0.000000     0.000000     0.000000     0.000000
    2     1.000000   120.000000    -0.577350    -0.577350    -0.577350     0.000000     0.000000     0.000000
    3     1.000000   120.000000     0.577350     0.577350     0.577350     0.000000     0.000000     0.000000
    4    -1.000000   180.000000     0.000000    -0.707107     0.707107     0.000000     0.000000     0.000000
    5    -1.000000   180.000000     0.707107    -0.707107     0.000000     0.000000     0.000000     0.000000
    6    -1.000000   180.000000     0.707107     0.000000    -0.707107     0.000000     0.000000     0.000000
 
 Subroutine IBZKPT returns following result:
 ===========================================
 
 Found     10 irreducible k-points:
 
 Following reciprocal coordinates:
            Coordinates               Weight
  0.125000  0.125000  0.125000      2.000000
  0.375000  0.125000  0.125000      6.000000
 -0.375000  0.125000  0.125000      6.000000
 -0.125000  0.125000  0.125000      6.000000
  0.375000  0.375000  0.125000      6.000000
 -0.375000  0.375000  0.125000     12.000000
 -0.125000  0.375000  0.125000     12.000000
 -0.375000 -0.375000  0.125000      6.000000
  0.375000  0.375000  0.375000      2.000000
 -0.375000  0.375000  0.375000      6.000000
 
 Following cartesian coordinates:
            Coordinates               Weight
  0.013068  0.013068  0.013068      2.000000
  0.039205  0.013068  0.013068      6.000000
 -0.039205  0.013068  0.013068      6.000000
 -0.013068  0.013068  0.013068      6.000000
  0.039205  0.039205  0.013068      6.000000
 -0.039205  0.039205  0.013068     12.000000
 -0.013068  0.039205  0.013068     12.000000
 -0.039205 -0.039205  0.013068      6.000000
  0.039205  0.039205  0.039205      2.000000
 -0.039205  0.039205  0.039205      6.000000
 
     LOOP+:  cpu time 2247.84: real time 2250.74
    4ORBIT:  cpu time    0.00: real time    0.00

 total amount of memory used by VASP on root node   231190. kBytes
========================================================================

   base      :      30000. kBytes
   nonlr-proj:      50797. kBytes
   fftplans  :       4920. kBytes
   grid      :      30392. kBytes
   one-center:       1648. kBytes
   wavefun   :     113433. kBytes
 
  
  
 General timing and accounting informations for this job:
 ========================================================
  
                  Total CPU time used (sec):    16041.237
                            User time (sec):    16021.566
                          System time (sec):       19.671
                         Elapsed time (sec):    16073.225
  
                   Maximum memory used (kb):      716740.
                   Average memory used (kb):           0.
  
                          Minor page faults:       524545
                          Major page faults:            0
                 Voluntary context switches:      4361358
