 vasp.5.3.3 18Dez12 (build Aug 26 2013 15:55:55) complex                        
  
 executed on             LinuxIFC date 2015.04.13  20:19:28
 running on   20 total cores
 distrk:  each k-point on   20 cores,    1 groups
 distr:  one band on NCORES_PER_BAND=   1 cores,   20 groups


--------------------------------------------------------------------------------------------------------


 INCAR:
 POTCAR:    PAW_PBE Ag 02Apr2005                  
 POTCAR:   PAW_PBE W_pv 06Sep2000                 

 ----------------------------------------------------------------------------- 
|                                                                             |
|           W    W    AA    RRRRR   N    N  II  N    N   GGGG   !!!           |
|           W    W   A  A   R    R  NN   N  II  NN   N  G    G  !!!           |
|           W    W  A    A  R    R  N N  N  II  N N  N  G       !!!           |
|           W WW W  AAAAAA  RRRRR   N  N N  II  N  N N  G  GGG   !            |
|           WW  WW  A    A  R   R   N   NN  II  N   NN  G    G                |
|           W    W  A    A  R    R  N    N  II  N    N   GGGG   !!!           |
|                                                                             |
|      For optimal performance we recommend that you set                      |
|        NPAR = 4 - approx SQRT( number of cores)                             |
|      (number of cores/NPAR must be integer)                                 |
|      This setting will greatly improve the performance of VASP for DFT.     |
|      The default NPAR=number of cores might be grossly inefficient          |
|      on modern multi-core architectures or massively parallel machines.     |
|      Do your own testing.                                                   |
|      Unfortunately you need to use the default for hybrid, GW and RPA       |
|      calculations.                                                          |
|                                                                             |
 ----------------------------------------------------------------------------- 

 POTCAR:    PAW_PBE Ag 02Apr2005                  
   VRHFIN =Ag : s1 d10                                                          
   LEXCH  = PE                                                                  
   EATOM  =  1037.2671 eV,   76.2370 Ry                                         
                                                                                
   TITEL  = PAW_PBE Ag 02Apr2005                                                
   LULTRA =        F    use ultrasoft PP ?                                      
   IUNSCR =        1    unscreen: 0-lin 1-nonlin 2-no                           
   RPACOR =    2.000    partial core radius                                     
   POMASS =  107.868; ZVAL   =   11.000    mass and valenz                      
   RCORE  =    2.500    outmost cutoff radius                                   
   RWIGS  =    2.840; RWIGS  =    1.503    wigner-seitz radius (au A)           
   ENMAX  =  249.844; ENMIN  =  187.383 eV                                      
   ICORE  =        3    local potential                                         
   LCOR   =        T    correct aug charges                                     
   LPAW   =        T    paw PP                                                  
   EAUG   =  412.496                                                            
   DEXC   =     .000                                                            
   RMAX   =    2.917    core radius for proj-oper                               
   RAUG   =    1.300    factor for augmentation sphere                          
   RDEP   =    2.576    radius for radial grids                                 
   QCUT   =   -4.285; QGAM   =    8.570    optimization parameters              
                                                                                
   Description                                                                  
     l     E      TYP  RCUT    TYP  RCUT                                        
     2   .000     23  2.400                                                     
     2   .000     23  2.400                                                     
     0   .000     23  2.400                                                     
     0   .000     23  2.400                                                     
     1  -.100     23  2.500                                                     
     1  2.000     23  2.500                                                     
     3  -.300     23  2.400                                                     
  local pseudopotential read in
  partial core-charges read in
  atomic valenz-charges read in
  non local Contribution for L=           2  read in
    real space projection operators read in
  non local Contribution for L=           2  read in
    real space projection operators read in
  non local Contribution for L=           0  read in
    real space projection operators read in
  non local Contribution for L=           0  read in
    real space projection operators read in
  non local Contribution for L=           1  read in
    real space projection operators read in
  non local Contribution for L=           1  read in
    real space projection operators read in
    PAW grid and wavefunctions read in
 
   number of l-projection  operators is LMAX  =           6
   number of lm-projection operators is LMMAX =          18
 
 POTCAR:   PAW_PBE W_pv 06Sep2000                 
   VRHFIN =W : 5p6s5d                                                           
   LEXCH  = PE                                                                  
   EATOM  =  1260.0376 eV,   92.6101 Ry                                         
                                                                                
   TITEL  = PAW_PBE W_pv 06Sep2000                                              
   LULTRA =        F    use ultrasoft PP ?                                      
   IUNSCR =        1    unscreen: 0-lin 1-nonlin 2-no                           
   RPACOR =    2.330    partial core radius                                     
   POMASS =  183.850; ZVAL   =   12.000    mass and valenz                      
   RCORE  =    2.500    outmost cutoff radius                                   
   RWIGS  =    2.750; RWIGS  =    1.455    wigner-seitz radius (au A)           
   ENMAX  =  223.065; ENMIN  =  167.299 eV                                      
   RCLOC  =    2.147    cutoff for local pot                                    
   LCOR   =        T    correct aug charges                                     
   LPAW   =        T    paw PP                                                  
   EAUG   =  373.438                                                            
   DEXC   =    -.018                                                            
   RMAX   =    3.087    core radius for proj-oper                               
   RAUG   =    1.300    factor for augmentation sphere                          
   RDEP   =    2.539    radius for radial grids                                 
   QCUT   =   -4.049; QGAM   =    8.098    optimization parameters              
                                                                                
   Description                                                                  
     l     E      TYP  RCUT    TYP  RCUT                                        
     1   .000     23  2.500                                                     
     1  -.200     23  2.500                                                     
     2   .000     23  2.500                                                     
     2   .000     23  2.500                                                     
     0   .000     23  2.500                                                     
     0   .000     23  2.500                                                     
     3   .000      7   .000                                                     
  local pseudopotential read in
  partial core-charges read in
  atomic valenz-charges read in
  non local Contribution for L=           1  read in
    real space projection operators read in
  non local Contribution for L=           1  read in
    real space projection operators read in
  non local Contribution for L=           2  read in
    real space projection operators read in
  non local Contribution for L=           2  read in
    real space projection operators read in
  non local Contribution for L=           0  read in
    real space projection operators read in
  non local Contribution for L=           0  read in
    real space projection operators read in
    PAW grid and wavefunctions read in
 
   number of l-projection  operators is LMAX  =           6
   number of lm-projection operators is LMMAX =          18
 
 Optimization of the real space projectors (new method)

 maximal supplied QI-value         = 15.12
 optimisation between [QCUT,QGAM] = [ 10.13, 20.41] = [ 28.73,116.64] Ry 
 Optimized for a Real-space Cutoff    1.55 Angstroem

   l    n(q)    QCUT    max X(q) W(low)/X(q) W(high)/X(q)  e(spline) 
   2      9    10.129     4.129    0.25E-04    0.14E-04    0.66E-07
   2      9    10.129    12.470    0.12E-03    0.58E-04    0.12E-06
   0      9    10.129    16.625    0.16E-04    0.12E-05    0.80E-08
   0      9    10.129    93.080    0.43E-04    0.60E-05    0.80E-07
   1      9    10.129     6.858    0.12E-04    0.37E-05    0.21E-07
   1      9    10.129    10.884    0.10E-03    0.55E-05    0.10E-06
 Optimization of the real space projectors (new method)

 maximal supplied QI-value         = 15.12
 optimisation between [QCUT,QGAM] = [ 10.13, 20.41] = [ 28.73,116.64] Ry 
 Optimized for a Real-space Cutoff    1.65 Angstroem

   l    n(q)    QCUT    max X(q) W(low)/X(q) W(high)/X(q)  e(spline) 
   1     10    10.129     4.922    0.37E-05    0.98E-05    0.22E-07
   1     10    10.129     5.461    0.53E-04    0.42E-05    0.17E-06
   2      9    10.129     3.602    0.19E-04    0.55E-05    0.62E-07
   2      9    10.129    60.440    0.17E-03    0.27E-03    0.52E-06
   0     10    10.129    21.769    0.24E-04    0.29E-05    0.97E-08
   0     10    10.129    71.369    0.49E-04    0.40E-04    0.14E-06
  PAW_PBE Ag 02Apr2005                  :
 energy of atom  1       EATOM=-1037.2671
 kinetic energy error for atom=    0.0091 (will be added to EATOM!!)
 PAW_PBE W_pv 06Sep2000                 :
 energy of atom  2       EATOM=-1260.0376
 kinetic energy error for atom=    0.0051 (will be added to EATOM!!)
 
 
 POSCAR: Ag1 W52                                 
  positions in direct lattice
  velocities in cartesian coordinates
 exchange correlation table for  LEXCH =        8
   RHO(1)=    0.500       N(1)  =     2000
   RHO(2)=  100.500       N(2)  =     4000

 VTST: version 3.0c, (03/27/13)

 CHAIN: initializing optimizer
 
 OPT: Using VASP Dynamics algorithm
 CHAIN: Read ICHAIN            0
 
 POSCAR: Ag1 W52                                 
  positions in direct lattice
  velocities in cartesian coordinates
 


--------------------------------------------------------------------------------------------------------


 ion  position               nearest neighbor table
   1  0.186  0.186  0.186-   6 2.73  12 2.73  14 2.73  11 2.88   5 2.88   3 2.88  30 2.99  36 2.99
                            28 2.99   2 3.09  33 3.37  29 3.37  45 3.37
   2  1.000  1.000  1.000-  53 2.75  33 2.75  45 2.75  29 2.75  47 2.76  51 2.76  35 2.76   1 3.09
                             5 3.19  11 3.19   3 3.19   4 3.20  19 3.20   8 3.20
   3  0.001  0.001  0.333-  28 2.75  33 2.75  45 2.75  34 2.76  46 2.76  51 2.77  52 2.77   1 2.88
                             4 3.17   2 3.19  20 3.19   9 3.19   6 3.21  12 3.21
   4  0.001  0.001  0.665-  34 2.76  46 2.76  29 2.76  52 2.77  47 2.77  35 2.77  28 2.77  53 2.78
                             3 3.17   7 3.18  13 3.18  10 3.20  21 3.20   2 3.20
   5  0.001  0.333  0.001-  30 2.75  29 2.75  45 2.75  32 2.76  48 2.76  47 2.77  50 2.77   1 2.88
                             8 3.17   2 3.19  22 3.19   7 3.19   6 3.21  14 3.21
   6  0.995  0.336  0.336-  49 2.71  31 2.73   1 2.73  48 2.74  46 2.74  45 2.77  28 2.77  30 2.77
                             9 3.16   7 3.16  23 3.19   3 3.21   5 3.21
   7  0.000  0.333  0.667-  32 2.75  47 2.76  50 2.76  31 2.76  49 2.77  29 2.77  46 2.77  28 2.78
                             6 3.16   4 3.18  15 3.19  10 3.19   5 3.19  24 3.20
   8  0.001  0.665  0.001-  32 2.76  48 2.76  33 2.76  50 2.77  35 2.77  51 2.77  30 2.77  53 2.78
                             5 3.17   9 3.18  16 3.18  10 3.20  25 3.20   2 3.20
   9  0.000  0.667  0.333-  34 2.75  51 2.76  52 2.76  31 2.76  49 2.77  33 2.77  48 2.77  30 2.78
                             6 3.16   8 3.18  17 3.19  10 3.19   3 3.19  26 3.20
  10  0.000  0.667  0.667-  32 2.76  34 2.76  35 2.76  50 2.76  52 2.76  49 2.76  53 2.77  31 2.79
                            18 3.18   9 3.19   7 3.19  27 3.20   8 3.20   4 3.20
  11  0.333  0.001  0.001-  36 2.75  33 2.75  29 2.75  38 2.76  42 2.76  35 2.77  44 2.77   1 2.88
                            19 3.17   2 3.19  13 3.19  16 3.19  14 3.21  12 3.21
  12  0.336  0.995  0.336-  43 2.71  37 2.73   1 2.73  42 2.74  34 2.74  33 2.77  28 2.77  36 2.77
                            20 3.16  13 3.16  17 3.19   3 3.21  11 3.21
  13  0.333  0.000  0.667-  38 2.75  35 2.76  44 2.76  37 2.76  43 2.77  29 2.77  34 2.77  28 2.78
                            12 3.16   4 3.18  15 3.19  21 3.19  11 3.19  18 3.20
  14  0.336  0.336  0.995-  41 2.71  39 2.73   1 2.73  32 2.74  38 2.74  29 2.77  36 2.77  30 2.77
                            22 3.16  16 3.16  15 3.19   5 3.21  11 3.21
  15  0.333  0.333  0.662-  40 2.73  37 2.73  31 2.73  28 2.73  38 2.78  32 2.78  41 2.78  29 2.80
                            18 3.18  24 3.18   7 3.19  13 3.19  14 3.19
  16  0.333  0.667  0.000-  42 2.75  35 2.76  44 2.76  39 2.76  41 2.77  33 2.77  32 2.77  30 2.78
                            14 3.16   8 3.18  17 3.19  25 3.19  11 3.19  18 3.20
  17  0.333  0.662  0.333-  40 2.73  39 2.73  31 2.73  30 2.73  34 2.78  42 2.78  43 2.78  33 2.80
                            18 3.18  26 3.18   9 3.19  16 3.19  12 3.19
  18  0.333  0.666  0.666-  41 2.76  43 2.76  32 2.76  34 2.76  40 2.76  35 2.76  44 2.76  31 2.78
                            15 3.18  17 3.18  10 3.18  27 3.19  13 3.20  16 3.20
  19  0.665  0.001  0.001-  38 2.76  42 2.76  45 2.76  44 2.77  47 2.77  51 2.77  36 2.77  53 2.78
                            11 3.17  20 3.18  22 3.18  21 3.20  25 3.20   2 3.20
  20  0.667  0.000  0.333-  46 2.75  51 2.76  52 2.76  37 2.76  43 2.77  45 2.77  42 2.77  36 2.78
                            12 3.16  19 3.18  23 3.19  21 3.19   3 3.19  26 3.20
  21  0.667  0.000  0.667-  38 2.76  46 2.76  47 2.76  44 2.76  52 2.76  43 2.76  53 2.77  37 2.79
                            24 3.18  20 3.19  13 3.19  27 3.20  19 3.20   4 3.20
  22  0.667  0.333  0.000-  48 2.75  47 2.76  50 2.76  39 2.76  41 2.77  45 2.77  38 2.77  36 2.78
                            14 3.16  19 3.18  23 3.19  25 3.19   5 3.19  24 3.20
  23  0.662  0.333  0.333-  40 2.73  39 2.73  37 2.73  36 2.73  46 2.78  48 2.78  49 2.78  45 2.80
                            24 3.18  26 3.18  20 3.19  22 3.19   6 3.19
  24  0.666  0.333  0.666-  41 2.76  49 2.76  46 2.76  38 2.76  40 2.76  47 2.76  50 2.76  37 2.78
                            15 3.18  23 3.18  21 3.18  27 3.19   7 3.20  22 3.20
  25  0.667  0.667  0.000-  42 2.76  48 2.76  51 2.76  50 2.76  44 2.76  41 2.76  53 2.77  39 2.79
                            26 3.18  22 3.19  16 3.19  27 3.20  19 3.20   8 3.20
  26  0.666  0.666  0.333-  43 2.76  49 2.76  48 2.76  42 2.76  40 2.76  51 2.76  52 2.76  39 2.78
                            17 3.18  23 3.18  25 3.18  27 3.19  20 3.20   9 3.20
  27  0.666  0.666  0.666-  41 2.75  43 2.75  49 2.75  44 2.76  50 2.76  52 2.76  53 2.78  40 2.78
                            26 3.19  18 3.19  24 3.19  25 3.20  21 3.20  10 3.20
  28  0.168  0.168  0.497-  15 2.73   3 2.75  12 2.77   6 2.77   4 2.77  13 2.78   7 2.78   1 2.99
                            31 3.15  37 3.15  34 3.21  46 3.21  29 3.23
  29  0.166  0.166  0.835-   2 2.75   5 2.75  11 2.75   4 2.76  14 2.77  13 2.77   7 2.77  15 2.80
                            32 3.19  38 3.19  35 3.19  47 3.19  28 3.23   1 3.37
  30  0.168  0.497  0.168-  17 2.73   5 2.75  14 2.77   6 2.77   8 2.77  16 2.78   9 2.78   1 2.99
                            39 3.15  31 3.15  32 3.21  48 3.21  33 3.23
  31  0.167  0.497  0.497-   6 2.73  15 2.73  17 2.73   7 2.76   9 2.76  18 2.78  10 2.79  28 3.15
                            30 3.15  40 3.17  49 3.20  32 3.21  34 3.21
  32  0.166  0.499  0.832-  14 2.74   7 2.75  10 2.76  18 2.76   8 2.76   5 2.76  16 2.77  15 2.78
                            29 3.19  50 3.19  35 3.19  41 3.19  31 3.21  30 3.21
  33  0.166  0.835  0.166-   2 2.75   3 2.75  11 2.75   8 2.76  12 2.77   9 2.77  16 2.77  17 2.80
                            42 3.19  34 3.19  35 3.19  51 3.19  30 3.23   1 3.37
  34  0.166  0.832  0.499-  12 2.74   9 2.75  10 2.76  18 2.76   4 2.76   3 2.76  13 2.77  17 2.78
                            33 3.19  52 3.19  35 3.19  43 3.19  31 3.21  28 3.21
  35  0.167  0.833  0.833-  13 2.76  16 2.76  10 2.76   2 2.76  18 2.76  11 2.77   8 2.77   4 2.77
                            44 3.18  33 3.19  29 3.19  53 3.19  32 3.19  34 3.19
  36  0.497  0.168  0.168-  23 2.73  11 2.75  14 2.77  12 2.77  19 2.77  22 2.78  20 2.78   1 2.99
                            39 3.15  37 3.15  38 3.21  42 3.21  45 3.23
  37  0.497  0.167  0.497-  12 2.73  15 2.73  23 2.73  20 2.76  13 2.76  24 2.78  21 2.79  28 3.15
                            36 3.15  40 3.17  43 3.20  38 3.21  46 3.21
  38  0.499  0.166  0.832-  14 2.74  13 2.75  21 2.76  24 2.76  19 2.76  11 2.76  22 2.77  15 2.78
                            29 3.19  44 3.19  47 3.19  41 3.19  37 3.21  36 3.21
  39  0.497  0.497  0.167-  14 2.73  17 2.73  23 2.73  22 2.76  16 2.76  26 2.78  25 2.79  30 3.15
                            36 3.15  40 3.17  41 3.20  42 3.21  48 3.21
  40  0.498  0.498  0.498-  15 2.73  17 2.73  23 2.73  18 2.76  24 2.76  26 2.76  27 2.78  31 3.17
                            37 3.17  39 3.17  41 3.19  43 3.19  49 3.19
  41  0.500  0.500  0.832-  14 2.71  27 2.75  24 2.76  18 2.76  25 2.76  22 2.77  16 2.77  15 2.78
                            44 3.18  50 3.18  32 3.19  38 3.19  40 3.19  39 3.20
  42  0.499  0.832  0.166-  12 2.74  16 2.75  25 2.76  26 2.76  19 2.76  11 2.76  20 2.77  17 2.78
                            33 3.19  44 3.19  51 3.19  43 3.19  39 3.21  36 3.21
  43  0.500  0.832  0.500-  12 2.71  27 2.75  26 2.76  18 2.76  21 2.76  20 2.77  13 2.77  17 2.78
                            44 3.18  52 3.18  34 3.19  42 3.19  40 3.19  37 3.20
  44  0.500  0.833  0.833-  27 2.76  16 2.76  13 2.76  25 2.76  21 2.76  18 2.76  19 2.77  11 2.77
                            41 3.18  43 3.18  35 3.18  42 3.19  38 3.19  53 3.19
  45  0.835  0.166  0.166-   2 2.75   3 2.75   5 2.75  19 2.76   6 2.77  20 2.77  22 2.77  23 2.80
                            48 3.19  46 3.19  47 3.19  51 3.19  36 3.23   1 3.37
  46  0.832  0.166  0.499-   6 2.74  20 2.75  21 2.76  24 2.76   4 2.76   3 2.76   7 2.77  23 2.78
                            45 3.19  52 3.19  47 3.19  49 3.19  37 3.21  28 3.21
  47  0.833  0.167  0.833-   7 2.76  22 2.76  21 2.76   2 2.76  24 2.76   5 2.77  19 2.77   4 2.77
                            50 3.18  45 3.19  29 3.19  53 3.19  38 3.19  46 3.19
  48  0.832  0.499  0.166-   6 2.74  22 2.75  25 2.76  26 2.76   8 2.76   5 2.76   9 2.77  23 2.78
                            45 3.19  50 3.19  51 3.19  49 3.19  39 3.21  30 3.21
  49  0.832  0.500  0.500-   6 2.71  27 2.75  26 2.76  24 2.76  10 2.76   7 2.77   9 2.77  23 2.78
                            50 3.18  52 3.18  46 3.19  48 3.19  40 3.19  31 3.20
  50  0.833  0.500  0.833-  27 2.76  22 2.76   7 2.76  25 2.76  10 2.76  24 2.76   8 2.77   5 2.77
                            41 3.18  49 3.18  47 3.18  48 3.19  32 3.19  53 3.19
  51  0.833  0.833  0.167-   9 2.76  20 2.76  25 2.76   2 2.76  26 2.76   3 2.77  19 2.77   8 2.77
                            52 3.18  45 3.19  33 3.19  53 3.19  42 3.19  48 3.19
  52  0.833  0.833  0.500-  27 2.76  20 2.76   9 2.76  21 2.76  10 2.76  26 2.76   4 2.77   3 2.77
                            43 3.18  49 3.18  51 3.18  34 3.19  46 3.19  53 3.19
  53  0.834  0.834  0.834-   2 2.75  10 2.77  21 2.77  25 2.77  27 2.78   8 2.78   4 2.78  19 2.78
                            51 3.19  47 3.19  35 3.19  50 3.19  44 3.19  52 3.19
 
  LATTYP: Found a simple cubic cell.
 ALAT       =     9.5650190000
  
  Lattice vectors:
  
 A1 = (   9.5650190000,   0.0000000000,   0.0000000000)
 A2 = (   0.0000000000,   9.5650190000,   0.0000000000)
 A3 = (   0.0000000000,   0.0000000000,   9.5650190000)


Analysis of symmetry for initial positions (statically):
=====================================================================
 Subroutine PRICEL returns:
 Original cell was already a primitive cell.
 

 Routine SETGRP: Setting up the symmetry group for a 
 simple cubic supercell.


 Subroutine GETGRP returns: Found  6 space group operations
 (whereof  6 operations were pure point group operations)
 out of a pool of 48 trial point group operations.


The static configuration has the point symmetry C_3v.


Analysis of symmetry for dynamics (positions and initial velocities):
=====================================================================
 Subroutine PRICEL returns:
 Original cell was already a primitive cell.
 

 Routine SETGRP: Setting up the symmetry group for a 
 simple cubic supercell.


 Subroutine GETGRP returns: Found  6 space group operations
 (whereof  6 operations were pure point group operations)
 out of a pool of 48 trial point group operations.


The dynamic configuration has the point symmetry C_3v.


Analysis of constrained symmetry for selective dynamics:
=====================================================================
 Subroutine PRICEL returns:
 Original cell was already a primitive cell.
 

 Routine SETGRP: Setting up the symmetry group for a 
 simple cubic supercell.


 Subroutine GETGRP returns: Found  6 space group operations
 (whereof  6 operations were pure point group operations)
 out of a pool of 48 trial point group operations.


The constrained configuration has the point symmetry C_3v.


Analysis of magnetic symmetry:
=====================================================================

 Subroutine MAGSYM returns: Found  6 space group operations
 (whereof  6 operations were pure point group operations)
 out of a pool of  6 trial space group operations
 (whereof  6 operations were pure point group operations)
 and found also     1 'primitive' translations


The magnetic configuration has the point symmetry C_3v.


 irot  :   1
 --------------------------------------------------------------------
 isymop:   1   0   0
           0   1   0
           0   0   1

 gtrans:     0.0000000     0.0000000     0.0000000

 ptrans:     0.0000000     0.0000000     0.0000000
 rotmap:
 (   1->   1)  (   2->   2)  (   3->   3)  (   4->   4)  (   5->   5) 
 (   6->   6)  (   7->   7)  (   8->   8)  (   9->   9)  (  10->  10) 
 (  11->  11)  (  12->  12)  (  13->  13)  (  14->  14)  (  15->  15) 
 (  16->  16)  (  17->  17)  (  18->  18)  (  19->  19)  (  20->  20) 
 (  21->  21)  (  22->  22)  (  23->  23)  (  24->  24)  (  25->  25) 
 (  26->  26)  (  27->  27)  (  28->  28)  (  29->  29)  (  30->  30) 
 (  31->  31)  (  32->  32)  (  33->  33)  (  34->  34)  (  35->  35) 
 (  36->  36)  (  37->  37)  (  38->  38)  (  39->  39)  (  40->  40) 
 (  41->  41)  (  42->  42)  (  43->  43)  (  44->  44)  (  45->  45) 
 (  46->  46)  (  47->  47)  (  48->  48)  (  49->  49)  (  50->  50) 
 (  51->  51)  (  52->  52)  (  53->  53) 


 irot  :   2
 --------------------------------------------------------------------
 isymop:   0   0   1
           1   0   0
           0   1   0

 gtrans:     0.0000000     0.0000000     0.0000000

 ptrans:     0.0000000     0.0000000     0.0000000
 rotmap:
 (   1->   1)  (   2->   2)  (   3->  11)  (   4->  19)  (   5->   3) 
 (   6->  12)  (   7->  20)  (   8->   4)  (   9->  13)  (  10->  21) 
 (  11->   5)  (  12->  14)  (  13->  22)  (  14->   6)  (  15->  23) 
 (  16->   7)  (  17->  15)  (  18->  24)  (  19->   8)  (  20->  16) 
 (  21->  25)  (  22->   9)  (  23->  17)  (  24->  26)  (  25->  10) 
 (  26->  18)  (  27->  27)  (  28->  36)  (  29->  45)  (  30->  28) 
 (  31->  37)  (  32->  46)  (  33->  29)  (  34->  38)  (  35->  47) 
 (  36->  30)  (  37->  39)  (  38->  48)  (  39->  31)  (  40->  40) 
 (  41->  49)  (  42->  32)  (  43->  41)  (  44->  50)  (  45->  33) 
 (  46->  42)  (  47->  51)  (  48->  34)  (  49->  43)  (  50->  52) 
 (  51->  35)  (  52->  44)  (  53->  53) 


 irot  :   3
 --------------------------------------------------------------------
 isymop:   0   1   0
           0   0   1
           1   0   0

 gtrans:     0.0000000     0.0000000     0.0000000

 ptrans:     0.0000000     0.0000000     0.0000000
 rotmap:
 (   1->   1)  (   2->   2)  (   3->   5)  (   4->   8)  (   5->  11) 
 (   6->  14)  (   7->  16)  (   8->  19)  (   9->  22)  (  10->  25) 
 (  11->   3)  (  12->   6)  (  13->   9)  (  14->  12)  (  15->  17) 
 (  16->  20)  (  17->  23)  (  18->  26)  (  19->   4)  (  20->   7) 
 (  21->  10)  (  22->  13)  (  23->  15)  (  24->  18)  (  25->  21) 
 (  26->  24)  (  27->  27)  (  28->  30)  (  29->  33)  (  30->  36) 
 (  31->  39)  (  32->  42)  (  33->  45)  (  34->  48)  (  35->  51) 
 (  36->  28)  (  37->  31)  (  38->  34)  (  39->  37)  (  40->  40) 
 (  41->  43)  (  42->  46)  (  43->  49)  (  44->  52)  (  45->  29) 
 (  46->  32)  (  47->  35)  (  48->  38)  (  49->  41)  (  50->  44) 
 (  51->  47)  (  52->  50)  (  53->  53) 


 irot  :   4
 --------------------------------------------------------------------
 isymop:   1   0   0
           0   0   1
           0   1   0

 gtrans:     0.0000000     0.0000000     0.0000000

 ptrans:     0.0000000     0.0000000     0.0000000
 rotmap:
 (   1->   1)  (   2->   2)  (   3->   5)  (   4->   8)  (   5->   3) 
 (   6->   6)  (   7->   9)  (   8->   4)  (   9->   7)  (  10->  10) 
 (  11->  11)  (  12->  14)  (  13->  16)  (  14->  12)  (  15->  17) 
 (  16->  13)  (  17->  15)  (  18->  18)  (  19->  19)  (  20->  22) 
 (  21->  25)  (  22->  20)  (  23->  23)  (  24->  26)  (  25->  21) 
 (  26->  24)  (  27->  27)  (  28->  30)  (  29->  33)  (  30->  28) 
 (  31->  31)  (  32->  34)  (  33->  29)  (  34->  32)  (  35->  35) 
 (  36->  36)  (  37->  39)  (  38->  42)  (  39->  37)  (  40->  40) 
 (  41->  43)  (  42->  38)  (  43->  41)  (  44->  44)  (  45->  45) 
 (  46->  48)  (  47->  51)  (  48->  46)  (  49->  49)  (  50->  52) 
 (  51->  47)  (  52->  50)  (  53->  53) 


 irot  :   5
 --------------------------------------------------------------------
 isymop:   0   1   0
           1   0   0
           0   0   1

 gtrans:     0.0000000     0.0000000     0.0000000

 ptrans:     0.0000000     0.0000000     0.0000000
 rotmap:
 (   1->   1)  (   2->   2)  (   3->   3)  (   4->   4)  (   5->  11) 
 (   6->  12)  (   7->  13)  (   8->  19)  (   9->  20)  (  10->  21) 
 (  11->   5)  (  12->   6)  (  13->   7)  (  14->  14)  (  15->  15) 
 (  16->  22)  (  17->  23)  (  18->  24)  (  19->   8)  (  20->   9) 
 (  21->  10)  (  22->  16)  (  23->  17)  (  24->  18)  (  25->  25) 
 (  26->  26)  (  27->  27)  (  28->  28)  (  29->  29)  (  30->  36) 
 (  31->  37)  (  32->  38)  (  33->  45)  (  34->  46)  (  35->  47) 
 (  36->  30)  (  37->  31)  (  38->  32)  (  39->  39)  (  40->  40) 
 (  41->  41)  (  42->  48)  (  43->  49)  (  44->  50)  (  45->  33) 
 (  46->  34)  (  47->  35)  (  48->  42)  (  49->  43)  (  50->  44) 
 (  51->  51)  (  52->  52)  (  53->  53) 


 irot  :   6
 --------------------------------------------------------------------
 isymop:   0   0   1
           0   1   0
           1   0   0

 gtrans:     0.0000000     0.0000000     0.0000000

 ptrans:     0.0000000     0.0000000     0.0000000
 rotmap:
 (   1->   1)  (   2->   2)  (   3->  11)  (   4->  19)  (   5->   5) 
 (   6->  14)  (   7->  22)  (   8->   8)  (   9->  16)  (  10->  25) 
 (  11->   3)  (  12->  12)  (  13->  20)  (  14->   6)  (  15->  23) 
 (  16->   9)  (  17->  17)  (  18->  26)  (  19->   4)  (  20->  13) 
 (  21->  21)  (  22->   7)  (  23->  15)  (  24->  24)  (  25->  10) 
 (  26->  18)  (  27->  27)  (  28->  36)  (  29->  45)  (  30->  30) 
 (  31->  39)  (  32->  48)  (  33->  33)  (  34->  42)  (  35->  51) 
 (  36->  28)  (  37->  37)  (  38->  46)  (  39->  31)  (  40->  40) 
 (  41->  49)  (  42->  34)  (  43->  43)  (  44->  52)  (  45->  29) 
 (  46->  38)  (  47->  47)  (  48->  32)  (  49->  41)  (  50->  50) 
 (  51->  35)  (  52->  44)  (  53->  53) 
 
 
 KPOINTS: Automatic kpoint scheme                 

Automatic generation of k-mesh.
Space group operators:
 irot       det(A)        alpha          n_x          n_y          n_z        tau_x        tau_y        tau_z
    1     1.000000     0.000000     1.000000     0.000000     0.000000     0.000000     0.000000     0.000000
    2     1.000000   120.000000    -0.577350    -0.577350    -0.577350     0.000000     0.000000     0.000000
    3     1.000000   120.000000     0.577350     0.577350     0.577350     0.000000     0.000000     0.000000
    4    -1.000000   180.000000     0.000000    -0.707107     0.707107     0.000000     0.000000     0.000000
    5    -1.000000   180.000000     0.707107    -0.707107     0.000000     0.000000     0.000000     0.000000
    6    -1.000000   180.000000     0.707107     0.000000    -0.707107     0.000000     0.000000     0.000000
 
 Subroutine IBZKPT returns following result:
 ===========================================
 
 Found     10 irreducible k-points:
 
 Following reciprocal coordinates:
            Coordinates               Weight
  0.125000  0.125000  0.125000      2.000000
  0.375000  0.125000  0.125000      6.000000
 -0.375000  0.125000  0.125000      6.000000
 -0.125000  0.125000  0.125000      6.000000
  0.375000  0.375000  0.125000      6.000000
 -0.375000  0.375000  0.125000     12.000000
 -0.125000  0.375000  0.125000     12.000000
 -0.375000 -0.375000  0.125000      6.000000
  0.375000  0.375000  0.375000      2.000000
 -0.375000  0.375000  0.375000      6.000000
 
 Following cartesian coordinates:
            Coordinates               Weight
  0.013068  0.013068  0.013068      2.000000
  0.039205  0.013068  0.013068      6.000000
 -0.039205  0.013068  0.013068      6.000000
 -0.013068  0.013068  0.013068      6.000000
  0.039205  0.039205  0.013068      6.000000
 -0.039205  0.039205  0.013068     12.000000
 -0.013068  0.039205  0.013068     12.000000
 -0.039205 -0.039205  0.013068      6.000000
  0.039205  0.039205  0.039205      2.000000
 -0.039205  0.039205  0.039205      6.000000
 
 
 Subroutine IBZKPT_HF returns following result:
 ==============================================
 
 Found     64 k-points in 1st BZ
 the following     64 k-points will be used (e.g. in the exchange kernel)
 Following reciprocal coordinates:   # in IRBZ
  0.125000  0.125000  0.125000       1 t-inv F
  0.375000  0.125000  0.125000       2 t-inv F
 -0.375000  0.125000  0.125000       3 t-inv F
 -0.125000  0.125000  0.125000       4 t-inv F
  0.375000  0.375000  0.125000       5 t-inv F
 -0.375000  0.375000  0.125000       6 t-inv F
 -0.125000  0.375000  0.125000       7 t-inv F
 -0.375000 -0.375000  0.125000       8 t-inv F
  0.375000  0.375000  0.375000       9 t-inv F
 -0.375000  0.375000  0.375000      10 t-inv F
  0.125000  0.375000  0.125000       2 t-inv F
  0.125000  0.125000  0.375000       2 t-inv F
  0.125000 -0.375000  0.125000       3 t-inv F
  0.125000  0.125000 -0.375000       3 t-inv F
  0.125000 -0.125000  0.125000       4 t-inv F
  0.125000  0.125000 -0.125000       4 t-inv F
  0.125000  0.375000  0.375000       5 t-inv F
  0.375000  0.125000  0.375000       5 t-inv F
  0.125000 -0.375000  0.375000       6 t-inv F
  0.375000  0.125000 -0.375000       6 t-inv F
 -0.375000  0.125000  0.375000       6 t-inv F
  0.375000 -0.375000  0.125000       6 t-inv F
  0.125000  0.375000 -0.375000       6 t-inv F
  0.125000 -0.125000  0.375000       7 t-inv F
  0.375000  0.125000 -0.125000       7 t-inv F
 -0.125000  0.125000  0.375000       7 t-inv F
  0.375000 -0.125000  0.125000       7 t-inv F
  0.125000  0.375000 -0.125000       7 t-inv F
  0.125000 -0.375000 -0.375000       8 t-inv F
 -0.375000  0.125000 -0.375000       8 t-inv F
  0.375000 -0.375000  0.375000      10 t-inv F
  0.375000  0.375000 -0.375000      10 t-inv F
 -0.125000 -0.125000 -0.125000       1 t-inv T
 -0.375000 -0.125000 -0.125000       2 t-inv T
 -0.125000 -0.375000 -0.125000       2 t-inv T
 -0.125000 -0.125000 -0.375000       2 t-inv T
  0.375000 -0.125000 -0.125000       3 t-inv T
 -0.125000  0.375000 -0.125000       3 t-inv T
 -0.125000 -0.125000  0.375000       3 t-inv T
  0.125000 -0.125000 -0.125000       4 t-inv T
 -0.125000  0.125000 -0.125000       4 t-inv T
 -0.125000 -0.125000  0.125000       4 t-inv T
 -0.375000 -0.375000 -0.125000       5 t-inv T
 -0.125000 -0.375000 -0.375000       5 t-inv T
 -0.375000 -0.125000 -0.375000       5 t-inv T
  0.375000 -0.375000 -0.125000       6 t-inv T
 -0.125000  0.375000 -0.375000       6 t-inv T
 -0.375000 -0.125000  0.375000       6 t-inv T
  0.375000 -0.125000 -0.375000       6 t-inv T
 -0.375000  0.375000 -0.125000       6 t-inv T
 -0.125000 -0.375000  0.375000       6 t-inv T
  0.125000 -0.375000 -0.125000       7 t-inv T
 -0.125000  0.125000 -0.375000       7 t-inv T
 -0.375000 -0.125000  0.125000       7 t-inv T
  0.125000 -0.125000 -0.375000       7 t-inv T
 -0.375000  0.125000 -0.125000       7 t-inv T
 -0.125000 -0.375000  0.125000       7 t-inv T
  0.375000  0.375000 -0.125000       8 t-inv T
 -0.125000  0.375000  0.375000       8 t-inv T
  0.375000 -0.125000  0.375000       8 t-inv T
 -0.375000 -0.375000 -0.375000       9 t-inv T
  0.375000 -0.375000 -0.375000      10 t-inv T
 -0.375000  0.375000 -0.375000      10 t-inv T
 -0.375000 -0.375000  0.375000      10 t-inv T


--------------------------------------------------------------------------------------------------------




 Dimension of arrays:
   k-points           NKPTS =     10   k-points in BZ     NKDIM =     10   number of bands    NBANDS=    420
   number of dos      NEDOS =    301   number of ions     NIONS =     53
   non local maximal  LDIM  =      6   non local SUM 2l+1 LMDIM =     18
   total plane-waves  NPLWV = 262144
   max r-space proj   IRMAX =   5670   max aug-charges    IRDMAX=  17297
   dimension x,y,z NGX =    64 NGY =   64 NGZ =   64
   dimension x,y,z NGXF=   128 NGYF=  128 NGZF=  128
   support grid    NGXF=   128 NGYF=  128 NGZF=  128
   ions per type =               1  52
 NGX,Y,Z   is equivalent  to a cutoff of  11.12, 11.12, 11.12 a.u.
 NGXF,Y,Z  is equivalent  to a cutoff of  22.25, 22.25, 22.25 a.u.


 I would recommend the setting:
   dimension x,y,z NGX =    62 NGY =   62 NGZ =   62
 SYSTEM =  unknown system                          
 POSCAR =  Ag1 W52                                 

 Startparameter for this run:
   NWRITE =      2    write-flag & timer
   PREC   = accura    normal or accurate (medium, high low for compatibility)
   ISTART =      0    job   : 0-new  1-cont  2-samecut
   ICHARG =      2    charge: 1-file 2-atom 10-const
   ISPIN  =      2    spin polarized calculation?
   LNONCOLLINEAR =      F non collinear calculations
   LSORBIT =      F    spin-orbit coupling
   INIWAV =      1    electr: 0-lowe 1-rand  2-diag
   LASPH  =      F    aspherical Exc in radial PAW
   METAGGA=      F    non-selfconsistent MetaGGA calc.

 Electronic Relaxation 1
   ENCUT  =  400.0 eV  29.40 Ry    5.42 a.u.  15.60 15.60 15.60*2*pi/ulx,y,z
   ENINI  =  400.0     initial cutoff
   ENAUG  =  412.5 eV  augmentation charge cutoff
   NELM   =     60;   NELMIN=  2; NELMDL= -5     # of ELM steps 
   EDIFF  = 0.1E-04   stopping-criterion for ELM
   LREAL  =      T    real-space projection
   NLSPLINE    = F    spline interpolate recip. space projectors
   LCOMPAT=      F    compatible to vasp.4.4
   GGA_COMPAT  = T    GGA compatible to vasp.4.4-vasp.4.6
   LMAXPAW     = -100 max onsite density
   LMAXMIX     =    2 max onsite mixed and CHGCAR
   VOSKOWN=      0    Vosko Wilk Nusair interpolation
   ROPT   =   -0.00025  -0.00025
 Ionic relaxation
   EDIFFG = -.1E-01   stopping-criterion for IOM
   NSW    =    606    number of steps for IOM
   NBLOCK =      1;   KBLOCK =    101    inner block; outer block 
   IBRION =      5    ionic relax: 0-MD 1-quasi-New 2-CG
   NFREE  =      2    steps in history (QN), initial steepest desc. (CG)
   ISIF   =      2    stress and relaxation
   IWAVPR =     11    prediction:  0-non 1-charg 2-wave 3-comb
   ISYM   =      2    0-nonsym 1-usesym 2-fastsym
   LCORR  =      T    Harris-Foulkes like correction to forces

   POTIM  = 0.0500    time-step for ionic-motion
   TEIN   =    0.0    initial temperature
   TEBEG  =    0.0;   TEEND  =   0.0 temperature during run
   SMASS  =  -3.00    Nose mass-parameter (am)
   estimated Nose-frequenzy (Omega)   =  0.10E-29 period in steps =****** mass=  -0.209E-26a.u.
   SCALEE = 1.0000    scale energy and forces
   NPACO  =    256;   APACO  = 16.0  distance and # of slots for P.C.
   PSTRESS=    0.0 pullay stress

  Mass of Ions in am
   POMASS = 107.87183.85
  Ionic Valenz
   ZVAL   =  11.00 12.00
  Atomic Wigner-Seitz radii
   RWIGS  =  -1.00 -1.00
  virtual crystal weights 
   VCA    =   1.00  1.00
   NELECT =     635.0000    total number of electrons
   NUPDOWN=      -1.0000    fix difference up-down

 DOS related values:
   EMIN   =  10.00;   EMAX   =-10.00  energy-range for DOS
   EFERMI =   0.00
   ISMEAR =     1;   SIGMA  =   0.20  broadening in eV -4-tet -1-fermi 0-gaus

 Electronic relaxation 2 (details)
   IALGO  =     38    algorithm
   LDIAG  =      T    sub-space diagonalisation (order eigenvalues)
   LSUBROT=      T    optimize rotation matrix (better conditioning)
   TURBO    =      0    0=normal 1=particle mesh
   IRESTART =      0    0=no restart 2=restart with 2 vectors
   NREBOOT  =      0    no. of reboots
   NMIN     =      0    reboot dimension
   EREF     =   0.00    reference energy to select bands
   IMIX   =      4    mixing-type and parameters
     AMIX     =   0.40;   BMIX     =  1.00
     AMIX_MAG =   1.60;   BMIX_MAG =  1.00
     AMIN     =   0.10
     WC   =   100.;   INIMIX=   1;  MIXPRE=   1;  MAXMIX= -45

 Intra band minimization:
   WEIMIN = 0.0010     energy-eigenvalue tresh-hold
   EBREAK =  0.60E-08  absolut break condition
   DEPER  =   0.30     relativ break condition  

   TIME   =   0.40     timestep for ELM

  volume/ion in A,a.u.               =      16.51       111.42
  Fermi-wavevector in a.u.,A,eV,Ry     =   1.471116  2.780006 29.445485  2.164182
  Thomas-Fermi vector in A             =   2.586291
 
 Write flags
   LWAVE  =      F    write WAVECAR
   LCHARG =      F    write CHGCAR
   LVTOT  =      F    write LOCPOT, total local potential
   LVHAR  =      F    write LOCPOT, Hartree potential only
   LELF   =      F    write electronic localiz. function (ELF)
   LORBIT =      0    0 simple, 1 ext, 2 COOP (PROOUT)


 Dipole corrections
   LMONO  =      F    monopole corrections only (constant potential shift)
   LDIPOL =      F    correct potential (dipole corrections)
   IDIPOL =      0    1-x, 2-y, 3-z, 4-all directions 
   EPSILON=  1.0000000 bulk dielectric constant

 Exchange correlation treatment:
   GGA     =    --    GGA type
   LEXCH   =     8    internal setting for exchange type
   VOSKOWN=      0    Vosko Wilk Nusair interpolation
   LHFCALC =     F    Hartree Fock is set to
   LHFONE  =     F    Hartree Fock one center treatment
   AEXX    =    0.0000 exact exchange contribution

 Linear response parameters
   LEPSILON=     F    determine dielectric tensor
   LRPA    =     F    only Hartree local field effects (RPA)
   LNABLA  =     F    use nabla operator in PAW spheres
   LVEL    =     F    velocity operator in full k-point grid
   LINTERFAST=   F  fast interpolation
   KINTER  =     0    interpolate to denser k-point grid
   CSHIFT  =0.1000    complex shift for real part using Kramers Kronig
   OMEGAMAX=  -1.0    maximum frequency
   DEG_THRESHOLD= 0.2000000E-02 threshold for treating states as degnerate
   RTIME   =    0.100 relaxation time in fs

 Orbital magnetization related:
   ORBITALMAG=     F  switch on orbital magnetization
   LCHIMAG   =     F  perturbation theory with respect to B field
   DQ        =  0.001000  dq finite difference perturbation B field



--------------------------------------------------------------------------------------------------------


 finite differences
   using selective dynamics as specified on POSCAR
 charge density and potential will be updated during run
 spin polarized calculation
 Variant of blocked Davidson
 Davidson routine will perform the subspace rotation
 perform sub-space diagonalisation
    after iterative eigenvector-optimisation
 modified Broyden-mixing scheme, WC =      100.0
 initial mixing is a Kerker type mixing with AMIX =  0.4000 and BMIX =      1.0000
 Hartree-type preconditioning will be used
 using additional bands          102
 real space projection scheme for non local part
 use partial core corrections
 calculate Harris-corrections to forces 
   (improved forces if not selfconsistent)
 use gradient corrections 
 use of overlap-Matrix (Vanderbilt PP)
 Methfessel and Paxton  Order N= 1 SIGMA  =   0.20


--------------------------------------------------------------------------------------------------------


  energy-cutoff  :      400.00
  volume of cell :      875.10
      direct lattice vectors                 reciprocal lattice vectors
     9.565019000  0.000000000  0.000000000     0.104547623  0.000000000  0.000000000
     0.000000000  9.565019000  0.000000000     0.000000000  0.104547623  0.000000000
     0.000000000  0.000000000  9.565019000     0.000000000  0.000000000  0.104547623

  length of vectors
     9.565019000  9.565019000  9.565019000     0.104547623  0.104547623  0.104547623


 
 k-points in units of 2pi/SCALE and weight: Automatic kpoint scheme                 
   0.01306845  0.01306845  0.01306845       0.031
   0.03920536  0.01306845  0.01306845       0.094
  -0.03920536  0.01306845  0.01306845       0.094
  -0.01306845  0.01306845  0.01306845       0.094
   0.03920536  0.03920536  0.01306845       0.094
  -0.03920536  0.03920536  0.01306845       0.188
  -0.01306845  0.03920536  0.01306845       0.188
  -0.03920536 -0.03920536  0.01306845       0.094
   0.03920536  0.03920536  0.03920536       0.031
  -0.03920536  0.03920536  0.03920536       0.094
 
 k-points in reciprocal lattice and weights: Automatic kpoint scheme                 
   0.12500000  0.12500000  0.12500000       0.031
   0.37500000  0.12500000  0.12500000       0.094
  -0.37500000  0.12500000  0.12500000       0.094
  -0.12500000  0.12500000  0.12500000       0.094
   0.37500000  0.37500000  0.12500000       0.094
  -0.37500000  0.37500000  0.12500000       0.188
  -0.12500000  0.37500000  0.12500000       0.188
  -0.37500000 -0.37500000  0.12500000       0.094
   0.37500000  0.37500000  0.37500000       0.031
  -0.37500000  0.37500000  0.37500000       0.094
 
 position of ions in fractional coordinates (direct lattice) 
   0.18593000  0.18593000  0.18593000
   0.99951800  0.99951800  0.99951800
   0.00054000  0.00054000  0.33347400
   0.00077900  0.00077900  0.66521400
   0.00054000  0.33347400  0.00054000
   0.99531400  0.33641900  0.33641900
   0.00000700  0.33317100  0.66653600
   0.00077900  0.66521400  0.00077900
   0.00000700  0.66653600  0.33317100
   0.00015000  0.66652800  0.66652800
   0.33347400  0.00054000  0.00054000
   0.33641900  0.99531400  0.33641900
   0.33317100  0.00000700  0.66653600
   0.33641900  0.33641900  0.99531400
   0.33311200  0.33311200  0.66210800
   0.33317100  0.66653600  0.00000700
   0.33311200  0.66210800  0.33311200
   0.33281500  0.66574800  0.66574800
   0.66521400  0.00077900  0.00077900
   0.66653600  0.00000700  0.33317100
   0.66652800  0.00015000  0.66652800
   0.66653600  0.33317100  0.00000700
   0.66210800  0.33311200  0.33311200
   0.66574800  0.33281500  0.66574800
   0.66652800  0.66652800  0.00015000
   0.66574800  0.66574800  0.33281500
   0.66603400  0.66603400  0.66603400
   0.16795400  0.16795400  0.49716700
   0.16628000  0.16628000  0.83486400
   0.16795400  0.49716700  0.16795400
   0.16717200  0.49713600  0.49713600
   0.16618800  0.49943900  0.83228400
   0.16628000  0.83486400  0.16628000
   0.16618800  0.83228400  0.49943900
   0.16708700  0.83310100  0.83310100
   0.49716700  0.16795400  0.16795400
   0.49713600  0.16717200  0.49713600
   0.49943900  0.16618800  0.83228400
   0.49713600  0.49713600  0.16717200
   0.49825100  0.49825100  0.49825100
   0.50015700  0.50015700  0.83223100
   0.49943900  0.83228400  0.16618800
   0.50015700  0.83223100  0.50015700
   0.49978000  0.83259700  0.83259700
   0.83486400  0.16628000  0.16628000
   0.83228400  0.16618800  0.49943900
   0.83310100  0.16708700  0.83310100
   0.83228400  0.49943900  0.16618800
   0.83223100  0.50015700  0.50015700
   0.83259700  0.49978000  0.83259700
   0.83310100  0.83310100  0.16708700
   0.83259700  0.83259700  0.49978000
   0.83360700  0.83360700  0.83360700
 
 position of ions in cartesian coordinates  (Angst):
   1.77842398  1.77842398  1.77842398
   9.56040866  9.56040866  9.56040866
   0.00516511  0.00516511  3.18968515
   0.00745115  0.00745115  6.36278455
   0.00516511  3.18968515  0.00516511
   9.52019732  3.21785413  3.21785413
   0.00006696  3.18678695  6.37542950
   0.00745115  6.36278455  0.00745115
   0.00006696  6.37542950  3.18678695
   0.00143475  6.37535298  6.37535298
   3.18968515  0.00516511  0.00516511
   3.21785413  9.52019732  3.21785413
   3.18678695  0.00006696  6.37542950
   3.21785413  3.21785413  9.52019732
   3.18622261  3.18622261  6.33307560
   3.18678695  6.37542950  0.00006696
   3.18622261  6.33307560  3.18622261
   3.18338180  6.36789227  6.36789227
   6.36278455  0.00745115  0.00745115
   6.37542950  0.00006696  3.18678695
   6.37535298  0.00143475  6.37535298
   6.37542950  3.18678695  0.00006696
   6.33307560  3.18622261  3.18622261
   6.36789227  3.18338180  6.36789227
   6.37535298  6.37535298  0.00143475
   6.36789227  6.36789227  3.18338180
   6.37062786  6.37062786  6.37062786
   1.60648320  1.60648320  4.75541180
   1.59047136  1.59047136  7.98549002
   1.60648320  4.75541180  1.60648320
   1.59900336  4.75511529  4.75511529
   1.58959138  4.77714352  7.96081227
   1.59047136  7.98549002  1.59047136
   1.58959138  7.96081227  4.77714352
   1.59819033  7.96862689  7.96862689
   4.75541180  1.60648320  1.60648320
   4.75511529  1.59900336  4.75511529
   4.77714352  1.58959138  7.96081227
   4.75511529  4.75511529  1.59900336
   4.76578028  4.76578028  4.76578028
   4.78401121  4.78401121  7.96030533
   4.77714352  7.96081227  1.58959138
   4.78401121  7.96030533  4.78401121
   4.78040520  7.96380612  7.96380612
   7.98549002  1.59047136  1.59047136
   7.96081227  1.58959138  4.77714352
   7.96862689  1.59819033  7.96862689
   7.96081227  4.77714352  1.58959138
   7.96030533  4.78401121  4.78401121
   7.96380612  4.78040520  7.96380612
   7.96862689  7.96862689  1.59819033
   7.96380612  7.96380612  4.78040520
   7.97346679  7.97346679  7.97346679
 


--------------------------------------------------------------------------------------------------------


 k-point  1 :   0.1250 0.1250 0.1250  plane waves:   15915
 k-point  2 :   0.3750 0.1250 0.1250  plane waves:   15901
 k-point  3 :  -0.3750 0.1250 0.1250  plane waves:   15901
 k-point  4 :  -0.1250 0.1250 0.1250  plane waves:   15915
 k-point  5 :   0.3750 0.3750 0.1250  plane waves:   15910
 k-point  6 :  -0.3750 0.3750 0.1250  plane waves:   15910
 k-point  7 :  -0.1250 0.3750 0.1250  plane waves:   15901
 k-point  8 :  -0.3750-0.3750 0.1250  plane waves:   15910
 k-point  9 :   0.3750 0.3750 0.3750  plane waves:   15867
 k-point 10 :  -0.3750 0.3750 0.3750  plane waves:   15867

 maximum and minimum number of plane-waves per node :     15915    15867

 maximum number of plane-waves:     15915
 maximum index in each direction: 
   IXMAX=   15   IYMAX=   15   IZMAX=   15
   IXMIN=  -15   IYMIN=  -15   IZMIN=  -15

 NGX is ok and might be reduce to  62
 NGY is ok and might be reduce to  62
 NGZ is ok and might be reduce to  62

 serial   3D FFT for wavefunctions
 parallel 3D FFT for charge:
    minimum data exchange during FFTs selected (reduces bandwidth)


 total amount of memory used by VASP on root node   231190. kBytes
========================================================================

   base      :      30000. kBytes
   nonlr-proj:      50797. kBytes
   fftplans  :       4920. kBytes
   grid      :      30392. kBytes
   one-center:       1648. kBytes
   wavefun   :     113433. kBytes
 
 Broyden mixing: mesh for mixing (old mesh)
   NGX = 31   NGY = 31   NGZ = 31
  (NGX  =128   NGY  =128   NGZ  =128)
  gives a total of  29791 points

 initial charge density was supplied:
 charge density of overlapping atoms calculated
 number of electron     635.0000000 magnetization      53.0000000
 keeping initial charge density in first step


--------------------------------------------------------------------------------------------------------


 Maximum index for non-local projection operator         5490
 Maximum index for augmentation-charges         1398 (set IRDMAX)


--------------------------------------------------------------------------------------------------------


 First call to EWALD:  gamma=   0.185
 Maximum number of real-space cells 3x 3x 3
 Maximum number of reciprocal cells 3x 3x 3

 FEWALD executed in parallel
    FEWALD:  cpu time    0.01: real time    0.01


----------------------------------------- Iteration    1(   1)  ---------------------------------------


    POTLOK:  cpu time    0.40: real time    0.41
    SETDIJ:  cpu time    0.08: real time    0.08
     EDDAV:  cpu time  178.98: real time  179.51
       DOS:  cpu time    0.01: real time    0.01
    --------------------------------------------
      LOOP:  cpu time  179.47: real time  180.02

 eigenvalue-minimisations  : 17200
 total energy-change (2. order) : 0.7136962E+04  (-0.2863902E+05)
 number of electron     635.0000000 magnetization      53.0000000
 augmentation part      635.0000000 magnetization      53.0000000

 Free energy of the ion-electron system (eV)
  ---------------------------------------------------
  alpha Z        PSCENC =      8177.14454612
  Ewald energy   TEWEN  =    -61746.07237862
  -1/2 Hartree   DENC   =     -8400.19307210
  -exchange  EXHF       =         0.00000000
  -V(xc)+E(xc)   XCENC  =      1835.28524166
  PAW double counting   =     43230.44359611   -42532.73462782
  entropy T*S    EENTRO =         0.00350826
  eigenvalues    EBANDS =        14.13637926
  atomic energy  EATOM  =     66558.94894662
  ---------------------------------------------------
  free energy    TOTEN  =      7136.96213949 eV

  energy without entropy =     7136.95863123  energy(sigma->0) =     7136.96097007


--------------------------------------------------------------------------------------------------------




----------------------------------------- Iteration    1(   2)  ---------------------------------------


     EDDAV:  cpu time  169.36: real time  169.52
       DOS:  cpu time    0.00: real time    0.00
    --------------------------------------------
      LOOP:  cpu time  169.36: real time  169.54

 eigenvalue-minimisations  : 16800
 total energy-change (2. order) :-0.7210199E+04  (-0.6907402E+04)
 number of electron     635.0000000 magnetization      53.0000000
 augmentation part      635.0000000 magnetization      53.0000000

 Free energy of the ion-electron system (eV)
  ---------------------------------------------------
  alpha Z        PSCENC =      8177.14454612
  Ewald energy   TEWEN  =    -61746.07237862
  -1/2 Hartree   DENC   =     -8400.19307210
  -exchange  EXHF       =         0.00000000
  -V(xc)+E(xc)   XCENC  =      1835.28524166
  PAW double counting   =     43230.44359611   -42532.73462782
  entropy T*S    EENTRO =         0.01003843
  eigenvalues    EBANDS =     -7196.06960978
  atomic energy  EATOM  =     66558.94894662
  ---------------------------------------------------
  free energy    TOTEN  =       -73.23731938 eV

  energy without entropy =      -73.24735781  energy(sigma->0) =      -73.24066552


--------------------------------------------------------------------------------------------------------




----------------------------------------- Iteration    1(   3)  ---------------------------------------


     EDDAV:  cpu time  195.80: real time  195.95
       DOS:  cpu time    0.00: real time    0.00
    --------------------------------------------
      LOOP:  cpu time  195.81: real time  195.98

 eigenvalue-minimisations  : 19680
 total energy-change (2. order) :-0.5889062E+03  (-0.5382626E+03)
 number of electron     635.0000000 magnetization      53.0000000
 augmentation part      635.0000000 magnetization      53.0000000

 Free energy of the ion-electron system (eV)
  ---------------------------------------------------
  alpha Z        PSCENC =      8177.14454612
  Ewald energy   TEWEN  =    -61746.07237862
  -1/2 Hartree   DENC   =     -8400.19307210
  -exchange  EXHF       =         0.00000000
  -V(xc)+E(xc)   XCENC  =      1835.28524166
  PAW double counting   =     43230.44359611   -42532.73462782
  entropy T*S    EENTRO =         0.01132607
  eigenvalues    EBANDS =     -7784.97707458
  atomic energy  EATOM  =     66558.94894662
  ---------------------------------------------------
  free energy    TOTEN  =      -662.14349655 eV

  energy without entropy =     -662.15482261  energy(sigma->0) =     -662.14727190


--------------------------------------------------------------------------------------------------------




----------------------------------------- Iteration    1(   4)  ---------------------------------------


     EDDAV:  cpu time  201.39: real time  201.57
       DOS:  cpu time    0.00: real time    0.00
    --------------------------------------------
      LOOP:  cpu time  201.39: real time  201.60

 eigenvalue-minimisations  : 20560
 total energy-change (2. order) :-0.3491136E+02  (-0.3353028E+02)
 number of electron     635.0000000 magnetization      53.0000000
 augmentation part      635.0000000 magnetization      53.0000000

 Free energy of the ion-electron system (eV)
  ---------------------------------------------------
  alpha Z        PSCENC =      8177.14454612
  Ewald energy   TEWEN  =    -61746.07237862
  -1/2 Hartree   DENC   =     -8400.19307210
  -exchange  EXHF       =         0.00000000
  -V(xc)+E(xc)   XCENC  =      1835.28524166
  PAW double counting   =     43230.44359611   -42532.73462782
  entropy T*S    EENTRO =         0.01795655
  eigenvalues    EBANDS =     -7819.89506681
  atomic energy  EATOM  =     66558.94894662
  ---------------------------------------------------
  free energy    TOTEN  =      -697.05485830 eV

  energy without entropy =     -697.07281485  energy(sigma->0) =     -697.06084381


--------------------------------------------------------------------------------------------------------




----------------------------------------- Iteration    1(   5)  ---------------------------------------


     EDDAV:  cpu time  214.90: real time  215.10
       DOS:  cpu time    0.00: real time    0.00
    CHARGE:  cpu time    5.40: real time    5.40
    MIXING:  cpu time    0.01: real time    0.01
    --------------------------------------------
      LOOP:  cpu time  220.31: real time  220.53

 eigenvalue-minimisations  : 22280
 total energy-change (2. order) :-0.1630667E+01  (-0.1618685E+01)
 number of electron     635.0000034 magnetization      30.3479620
 augmentation part      210.6425805 magnetization      25.7100919

 Broyden mixing:
  rms(total) = 0.40625E+01    rms(broyden)= 0.40625E+01
  rms(prec ) = 0.50729E+01
  weight for this iteration     100.00

 Free energy of the ion-electron system (eV)
  ---------------------------------------------------
  alpha Z        PSCENC =      8177.14454612
  Ewald energy   TEWEN  =    -61746.07237862
  -1/2 Hartree   DENC   =     -8400.19307210
  -exchange  EXHF       =         0.00000000
  -V(xc)+E(xc)   XCENC  =      1835.28524166
  PAW double counting   =     43230.44359611   -42532.73462782
  entropy T*S    EENTRO =         0.01837693
  eigenvalues    EBANDS =     -7821.52615439
  atomic energy  EATOM  =     66558.94894662
  ---------------------------------------------------
  free energy    TOTEN  =      -698.68552550 eV

  energy without entropy =     -698.70390243  energy(sigma->0) =     -698.69165114


--------------------------------------------------------------------------------------------------------




----------------------------------------- Iteration    1(   6)  ---------------------------------------


    POTLOK:  cpu time    0.31: real time    0.31
    SETDIJ:  cpu time    0.06: real time    0.06
     EDDAV:  cpu time  191.51: real time  191.68
       DOS:  cpu time    0.00: real time    0.00
    CHARGE:  cpu time    6.20: real time    6.21
    MIXING:  cpu time    0.01: real time    0.01
    --------------------------------------------
      LOOP:  cpu time  198.09: real time  198.30

 eigenvalue-minimisations  : 19360
 total energy-change (2. order) : 0.2501767E+02  (-0.5241964E+01)
 number of electron     635.0000035 magnetization      16.8188803
 augmentation part      214.6100268 magnetization      11.5454168

 Broyden mixing:
  rms(total) = 0.18805E+01    rms(broyden)= 0.18804E+01
  rms(prec ) = 0.24180E+01
  weight for this iteration     100.00

 eigenvalues of (default mixing * dielectric matrix)
  average eigenvalue GAMMA=   0.8620
  0.8620

 Free energy of the ion-electron system (eV)
  ---------------------------------------------------
  alpha Z        PSCENC =      8177.14454612
  Ewald energy   TEWEN  =    -61746.07237862
  -1/2 Hartree   DENC   =     -7819.19965262
  -exchange  EXHF       =         0.00000000
  -V(xc)+E(xc)   XCENC  =      1804.66924077
  PAW double counting   =     43197.15233444   -42617.80537784
  entropy T*S    EENTRO =         0.02106501
  eigenvalues    EBANDS =     -8228.52658403
  atomic energy  EATOM  =     66558.94894662
  ---------------------------------------------------
  free energy    TOTEN  =      -673.66786016 eV

  energy without entropy =     -673.68892517  energy(sigma->0) =     -673.67488183


--------------------------------------------------------------------------------------------------------




----------------------------------------- Iteration    1(   7)  ---------------------------------------


    POTLOK:  cpu time    0.30: real time    0.31
    SETDIJ:  cpu time    0.06: real time    0.07
     EDDAV:  cpu time  202.66: real time  202.89
       DOS:  cpu time    0.00: real time    0.00
    CHARGE:  cpu time    6.01: real time    6.02
    MIXING:  cpu time    0.01: real time    0.01
    --------------------------------------------
      LOOP:  cpu time  209.05: real time  209.32

 eigenvalue-minimisations  : 20140
 total energy-change (2. order) : 0.1369607E+01  (-0.1855150E+01)
 number of electron     635.0000035 magnetization       5.8041743
 augmentation part      216.1228390 magnetization       3.8227234

 Broyden mixing:
  rms(total) = 0.96452E+00    rms(broyden)= 0.96451E+00
  rms(prec ) = 0.13244E+01
  weight for this iteration     100.00

 eigenvalues of (default mixing * dielectric matrix)
  average eigenvalue GAMMA=   1.2988
  0.7394  1.8582

 Free energy of the ion-electron system (eV)
  ---------------------------------------------------
  alpha Z        PSCENC =      8177.14454612
  Ewald energy   TEWEN  =    -61746.07237862
  -1/2 Hartree   DENC   =     -7541.04156835
  -exchange  EXHF       =         0.00000000
  -V(xc)+E(xc)   XCENC  =      1788.98770474
  PAW double counting   =     43616.46893684   -43107.00535941
  entropy T*S    EENTRO =         0.01601654
  eigenvalues    EBANDS =     -8419.74509752
  atomic energy  EATOM  =     66558.94894662
  ---------------------------------------------------
  free energy    TOTEN  =      -672.29825305 eV

  energy without entropy =     -672.31426959  energy(sigma->0) =     -672.30359190


--------------------------------------------------------------------------------------------------------




----------------------------------------- Iteration    1(   8)  ---------------------------------------


    POTLOK:  cpu time    0.30: real time    0.30
    SETDIJ:  cpu time    0.07: real time    0.07
     EDDAV:  cpu time  208.31: real time  208.53
       DOS:  cpu time    0.00: real time    0.00
    CHARGE:  cpu time    6.01: real time    6.02
    MIXING:  cpu time    0.01: real time    0.01
    --------------------------------------------
      LOOP:  cpu time  214.70: real time  214.95

 eigenvalue-minimisations  : 20960
 total energy-change (2. order) : 0.5326702E+00  (-0.7950546E+00)
 number of electron     635.0000035 magnetization       3.1810523
 augmentation part      217.3355387 magnetization       2.4313975

 Broyden mixing:
  rms(total) = 0.33486E+00    rms(broyden)= 0.33486E+00
  rms(prec ) = 0.66091E+00
  weight for this iteration     100.00

 eigenvalues of (default mixing * dielectric matrix)
  average eigenvalue GAMMA=   1.1951
  2.0666  0.8511  0.6675

 Free energy of the ion-electron system (eV)
  ---------------------------------------------------
  alpha Z        PSCENC =      8177.14454612
  Ewald energy   TEWEN  =    -61746.07237862
  -1/2 Hartree   DENC   =     -7367.68539365
  -exchange  EXHF       =         0.00000000
  -V(xc)+E(xc)   XCENC  =      1780.15352129
  PAW double counting   =     44094.81177657   -43633.22520625
  entropy T*S    EENTRO =         0.01971256
  eigenvalues    EBANDS =     -8535.86110752
  atomic energy  EATOM  =     66558.94894662
  ---------------------------------------------------
  free energy    TOTEN  =      -671.76558289 eV

  energy without entropy =     -671.78529545  energy(sigma->0) =     -671.77215375


--------------------------------------------------------------------------------------------------------




----------------------------------------- Iteration    1(   9)  ---------------------------------------


    POTLOK:  cpu time    0.30: real time    0.30
    SETDIJ:  cpu time    0.06: real time    0.06
     EDDAV:  cpu time  210.72: real time  210.95
       DOS:  cpu time    0.00: real time    0.00
    CHARGE:  cpu time    6.02: real time    6.03
    MIXING:  cpu time    0.01: real time    0.01
    --------------------------------------------
      LOOP:  cpu time  217.12: real time  217.38

 eigenvalue-minimisations  : 21220
 total energy-change (2. order) : 0.1314368E+00  (-0.1378164E+00)
 number of electron     635.0000035 magnetization       1.1555728
 augmentation part      217.5796507 magnetization       0.6765301

 Broyden mixing:
  rms(total) = 0.17417E+00    rms(broyden)= 0.17417E+00
  rms(prec ) = 0.20700E+00
  weight for this iteration     100.00

 eigenvalues of (default mixing * dielectric matrix)
  average eigenvalue GAMMA=   1.1490
  2.1183  1.1899  0.7451  0.5427

 Free energy of the ion-electron system (eV)
  ---------------------------------------------------
  alpha Z        PSCENC =      8177.14454612
  Ewald energy   TEWEN  =    -61746.07237862
  -1/2 Hartree   DENC   =     -7347.51609162
  -exchange  EXHF       =         0.00000000
  -V(xc)+E(xc)   XCENC  =      1779.23612855
  PAW double counting   =     44323.74237646   -43870.85892939
  entropy T*S    EENTRO =         0.02000697
  eigenvalues    EBANDS =     -8546.27875120
  atomic energy  EATOM  =     66558.94894662
  ---------------------------------------------------
  free energy    TOTEN  =      -671.63414612 eV

  energy without entropy =     -671.65415309  energy(sigma->0) =     -671.64081511


--------------------------------------------------------------------------------------------------------




----------------------------------------- Iteration    1(  10)  ---------------------------------------


    POTLOK:  cpu time    0.31: real time    0.31
    SETDIJ:  cpu time    0.06: real time    0.06
     EDDAV:  cpu time  208.48: real time  208.71
       DOS:  cpu time    0.00: real time    0.00
    CHARGE:  cpu time    5.92: real time    5.93
    MIXING:  cpu time    0.01: real time    0.01
    --------------------------------------------
      LOOP:  cpu time  214.79: real time  215.05

 eigenvalue-minimisations  : 20980
 total energy-change (2. order) :-0.1187667E-01  (-0.2500636E-01)
 number of electron     635.0000035 magnetization       0.3057069
 augmentation part      217.5392579 magnetization       0.1569691

 Broyden mixing:
  rms(total) = 0.81601E-01    rms(broyden)= 0.81601E-01
  rms(prec ) = 0.11462E+00
  weight for this iteration     100.00

 eigenvalues of (default mixing * dielectric matrix)
  average eigenvalue GAMMA=   1.2334
  2.3251  1.8002  0.8601  0.6850  0.4968

 Free energy of the ion-electron system (eV)
  ---------------------------------------------------
  alpha Z        PSCENC =      8177.14454612
  Ewald energy   TEWEN  =    -61746.07237862
  -1/2 Hartree   DENC   =     -7363.97007762
  -exchange  EXHF       =         0.00000000
  -V(xc)+E(xc)   XCENC  =      1780.07056794
  PAW double counting   =     44651.29230696   -44201.30588270
  entropy T*S    EENTRO =         0.01908982
  eigenvalues    EBANDS =     -8527.77314130
  atomic energy  EATOM  =     66558.94894662
  ---------------------------------------------------
  free energy    TOTEN  =      -671.64602279 eV

  energy without entropy =     -671.66511261  energy(sigma->0) =     -671.65238606


--------------------------------------------------------------------------------------------------------




----------------------------------------- Iteration    1(  11)  ---------------------------------------


    POTLOK:  cpu time    0.30: real time    0.30
    SETDIJ:  cpu time    0.06: real time    0.06
     EDDAV:  cpu time  210.59: real time  210.83
       DOS:  cpu time    0.00: real time    0.00
    CHARGE:  cpu time    5.83: real time    5.84
    MIXING:  cpu time    0.01: real time    0.01
    --------------------------------------------
      LOOP:  cpu time  216.80: real time  217.10

 eigenvalue-minimisations  : 21540
 total energy-change (2. order) : 0.5837946E-02  (-0.5775527E-02)
 number of electron     635.0000035 magnetization      -0.0312112
 augmentation part      217.4826127 magnetization      -0.0833375

 Broyden mixing:
  rms(total) = 0.24554E-01    rms(broyden)= 0.24553E-01
  rms(prec ) = 0.41021E-01
  weight for this iteration     100.00

 eigenvalues of (default mixing * dielectric matrix)
  average eigenvalue GAMMA=   1.1805
  2.4875  1.8515  0.8981  0.7448  0.4798  0.6216

 Free energy of the ion-electron system (eV)
  ---------------------------------------------------
  alpha Z        PSCENC =      8177.14454612
  Ewald energy   TEWEN  =    -61746.07237862
  -1/2 Hartree   DENC   =     -7370.56348519
  -exchange  EXHF       =         0.00000000
  -V(xc)+E(xc)   XCENC  =      1780.39566495
  PAW double counting   =     44783.70402320   -44334.71402202
  entropy T*S    EENTRO =         0.01893172
  eigenvalues    EBANDS =     -8520.50241163
  atomic energy  EATOM  =     66558.94894662
  ---------------------------------------------------
  free energy    TOTEN  =      -671.64018484 eV

  energy without entropy =     -671.65911657  energy(sigma->0) =     -671.64649542


--------------------------------------------------------------------------------------------------------




----------------------------------------- Iteration    1(  12)  ---------------------------------------


    POTLOK:  cpu time    0.29: real time    0.29
    SETDIJ:  cpu time    0.06: real time    0.06
     EDDAV:  cpu time  201.35: real time  201.56
       DOS:  cpu time    0.00: real time    0.00
    CHARGE:  cpu time    5.82: real time    5.83
    MIXING:  cpu time    0.01: real time    0.01
    --------------------------------------------
      LOOP:  cpu time  207.55: real time  207.78

 eigenvalue-minimisations  : 20800
 total energy-change (2. order) :-0.1157295E-02  (-0.1069697E-02)
 number of electron     635.0000035 magnetization      -0.0545213
 augmentation part      217.4676706 magnetization      -0.0624291

 Broyden mixing:
  rms(total) = 0.10516E-01    rms(broyden)= 0.10516E-01
  rms(prec ) = 0.17084E-01
  weight for this iteration     100.00

 eigenvalues of (default mixing * dielectric matrix)
  average eigenvalue GAMMA=   1.1089
  2.5097  1.8311  0.9058  0.8239  0.6759  0.4949  0.5211

 Free energy of the ion-electron system (eV)
  ---------------------------------------------------
  alpha Z        PSCENC =      8177.14454612
  Ewald energy   TEWEN  =    -61746.07237862
  -1/2 Hartree   DENC   =     -7370.81692191
  -exchange  EXHF       =         0.00000000
  -V(xc)+E(xc)   XCENC  =      1780.42053618
  PAW double counting   =     44828.65886652   -44380.08743064
  entropy T*S    EENTRO =         0.01895258
  eigenvalues    EBANDS =     -8519.85645899
  atomic energy  EATOM  =     66558.94894662
  ---------------------------------------------------
  free energy    TOTEN  =      -671.64134214 eV

  energy without entropy =     -671.66029472  energy(sigma->0) =     -671.64765967


--------------------------------------------------------------------------------------------------------




----------------------------------------- Iteration    1(  13)  ---------------------------------------


    POTLOK:  cpu time    0.29: real time    0.29
    SETDIJ:  cpu time    0.06: real time    0.06
     EDDAV:  cpu time  200.33: real time  200.53
       DOS:  cpu time    0.00: real time    0.00
    CHARGE:  cpu time    5.82: real time    5.83
    MIXING:  cpu time    0.01: real time    0.01
    --------------------------------------------
      LOOP:  cpu time  206.52: real time  206.76

 eigenvalue-minimisations  : 20720
 total energy-change (2. order) : 0.1544417E-03  (-0.1552268E-03)
 number of electron     635.0000035 magnetization      -0.0371416
 augmentation part      217.4707735 magnetization      -0.0324586

 Broyden mixing:
  rms(total) = 0.41957E-02    rms(broyden)= 0.41955E-02
  rms(prec ) = 0.61790E-02
  weight for this iteration     100.00

 eigenvalues of (default mixing * dielectric matrix)
  average eigenvalue GAMMA=   1.1361
  2.5186  1.7337  1.4403  0.9699  0.7793  0.6629  0.4775  0.5064

 Free energy of the ion-electron system (eV)
  ---------------------------------------------------
  alpha Z        PSCENC =      8177.14454612
  Ewald energy   TEWEN  =    -61746.07237862
  -1/2 Hartree   DENC   =     -7370.31379482
  -exchange  EXHF       =         0.00000000
  -V(xc)+E(xc)   XCENC  =      1780.39643181
  PAW double counting   =     44831.52832678   -44382.89917074
  entropy T*S    EENTRO =         0.01890103
  eigenvalues    EBANDS =     -8520.39299587
  atomic energy  EATOM  =     66558.94894662
  ---------------------------------------------------
  free energy    TOTEN  =      -671.64118770 eV

  energy without entropy =     -671.66008873  energy(sigma->0) =     -671.64748804


--------------------------------------------------------------------------------------------------------




----------------------------------------- Iteration    1(  14)  ---------------------------------------


    POTLOK:  cpu time    0.28: real time    0.29
    SETDIJ:  cpu time    0.06: real time    0.06
     EDDAV:  cpu time  203.73: real time  203.93
       DOS:  cpu time    0.00: real time    0.00
    CHARGE:  cpu time    5.90: real time    5.90
    MIXING:  cpu time    0.01: real time    0.01
    --------------------------------------------
      LOOP:  cpu time  209.98: real time  210.22

 eigenvalue-minimisations  : 20940
 total energy-change (2. order) : 0.5052119E-04  (-0.2903658E-04)
 number of electron     635.0000035 magnetization      -0.0138721
 augmentation part      217.4756725 magnetization      -0.0092029

 Broyden mixing:
  rms(total) = 0.25127E-02    rms(broyden)= 0.25125E-02
  rms(prec ) = 0.34255E-02
  weight for this iteration     100.00

 eigenvalues of (default mixing * dielectric matrix)
  average eigenvalue GAMMA=   1.1434
  2.5271  1.8909  1.8909  0.9197  0.7885  0.6932  0.6088  0.4670  0.5044

 Free energy of the ion-electron system (eV)
  ---------------------------------------------------
  alpha Z        PSCENC =      8177.14454612
  Ewald energy   TEWEN  =    -61746.07237862
  -1/2 Hartree   DENC   =     -7369.89571210
  -exchange  EXHF       =         0.00000000
  -V(xc)+E(xc)   XCENC  =      1780.37725919
  PAW double counting   =     44829.67670596   -44380.87792295
  entropy T*S    EENTRO =         0.01898545
  eigenvalues    EBANDS =     -8520.96156684
  atomic energy  EATOM  =     66558.94894662
  ---------------------------------------------------
  free energy    TOTEN  =      -671.64113718 eV

  energy without entropy =     -671.66012262  energy(sigma->0) =     -671.64746566


--------------------------------------------------------------------------------------------------------




----------------------------------------- Iteration    1(  15)  ---------------------------------------


    POTLOK:  cpu time    0.23: real time    0.36
    SETDIJ:  cpu time    0.06: real time    0.06
     EDDAV:  cpu time  203.05: real time  203.26
       DOS:  cpu time    0.00: real time    0.00
    CHARGE:  cpu time    5.88: real time    5.88
    MIXING:  cpu time    0.01: real time    0.01
    --------------------------------------------
      LOOP:  cpu time  209.24: real time  209.68

 eigenvalue-minimisations  : 20620
 total energy-change (2. order) : 0.3500622E-04  (-0.9310845E-05)
 number of electron     635.0000035 magnetization      -0.0032354
 augmentation part      217.4792189 magnetization      -0.0013423

 Broyden mixing:
  rms(total) = 0.13008E-02    rms(broyden)= 0.13008E-02
  rms(prec ) = 0.18207E-02
  weight for this iteration     100.00

 eigenvalues of (default mixing * dielectric matrix)
  average eigenvalue GAMMA=   1.1440
  2.5574  2.3133  1.7256  0.9590  0.9590  0.7616  0.6707  0.5376  0.4719  0.4835

 Free energy of the ion-electron system (eV)
  ---------------------------------------------------
  alpha Z        PSCENC =      8177.14454612
  Ewald energy   TEWEN  =    -61746.07237862
  -1/2 Hartree   DENC   =     -7369.73235754
  -exchange  EXHF       =         0.00000000
  -V(xc)+E(xc)   XCENC  =      1780.36944252
  PAW double counting   =     44828.24676053   -44379.21194620
  entropy T*S    EENTRO =         0.01897571
  eigenvalues    EBANDS =     -8521.35309131
  atomic energy  EATOM  =     66558.94894662
  ---------------------------------------------------
  free energy    TOTEN  =      -671.64110217 eV

  energy without entropy =     -671.66007788  energy(sigma->0) =     -671.64742741


--------------------------------------------------------------------------------------------------------




----------------------------------------- Iteration    1(  16)  ---------------------------------------


    POTLOK:  cpu time    0.30: real time    0.30
    SETDIJ:  cpu time    0.06: real time    0.06
     EDDAV:  cpu time  140.81: real time  140.95
       DOS:  cpu time    0.00: real time    0.00
    CHARGE:  cpu time    5.86: real time    5.87
    MIXING:  cpu time    0.01: real time    0.01
    --------------------------------------------
      LOOP:  cpu time  147.05: real time  147.24

 eigenvalue-minimisations  : 12500
 total energy-change (2. order) : 0.1440142E-04  (-0.1519206E-05)
 number of electron     635.0000035 magnetization      -0.0005386
 augmentation part      217.4786968 magnetization      -0.0000670

 Broyden mixing:
  rms(total) = 0.46535E-03    rms(broyden)= 0.46533E-03
  rms(prec ) = 0.66800E-03
  weight for this iteration     100.00

 eigenvalues of (default mixing * dielectric matrix)
  average eigenvalue GAMMA=   1.1238
  2.6041  2.4063  1.6766  1.0409  1.0409  0.7495  0.7495  0.6403  0.4961  0.4961
  0.4610

 Free energy of the ion-electron system (eV)
  ---------------------------------------------------
  alpha Z        PSCENC =      8177.14454612
  Ewald energy   TEWEN  =    -61746.07237862
  -1/2 Hartree   DENC   =     -7369.96316670
  -exchange  EXHF       =         0.00000000
  -V(xc)+E(xc)   XCENC  =      1780.38077408
  PAW double counting   =     44828.61707246   -44379.44973914
  entropy T*S    EENTRO =         0.01898045
  eigenvalues    EBANDS =     -8521.26612303
  atomic energy  EATOM  =     66558.94894662
  ---------------------------------------------------
  free energy    TOTEN  =      -671.64108777 eV

  energy without entropy =     -671.66006822  energy(sigma->0) =     -671.64741459


--------------------------------------------------------------------------------------------------------




----------------------------------------- Iteration    1(  17)  ---------------------------------------


    POTLOK:  cpu time    0.30: real time    0.31
    SETDIJ:  cpu time    0.06: real time    0.06
     EDDAV:  cpu time  128.30: real time  128.42
       DOS:  cpu time    0.00: real time    0.00
    --------------------------------------------
      LOOP:  cpu time  128.67: real time  128.81

 eigenvalue-minimisations  : 10880
 total energy-change (2. order) : 0.4526170E-05  (-0.4963174E-06)
 number of electron     635.0000035 magnetization      -0.0005386
 augmentation part      217.4786968 magnetization      -0.0000670

 Free energy of the ion-electron system (eV)
  ---------------------------------------------------
  alpha Z        PSCENC =      8177.14454612
  Ewald energy   TEWEN  =    -61746.07237862
  -1/2 Hartree   DENC   =     -7370.08610223
  -exchange  EXHF       =         0.00000000
  -V(xc)+E(xc)   XCENC  =      1780.38676693
  PAW double counting   =     44828.78574627   -44379.57582114
  entropy T*S    EENTRO =         0.01897410
  eigenvalues    EBANDS =     -8521.19176130
  atomic energy  EATOM  =     66558.94894662
  ---------------------------------------------------
  free energy    TOTEN  =      -671.64108324 eV

  energy without entropy =     -671.66005734  energy(sigma->0) =     -671.64740794


--------------------------------------------------------------------------------------------------------




 average (electrostatic) potential at core
  the test charge radii are     1.1249  1.1823
  (the norm of the test charge is              1.0000)
       1 -72.7746       2 -38.5770       3 -38.6271       4 -38.6615       5 -38.6271
       6 -38.5109       7 -38.7053       8 -38.6615       9 -38.7053      10 -38.6446
      11 -38.6271      12 -38.5109      13 -38.7053      14 -38.5109      15 -38.5335
      16 -38.7053      17 -38.5335      18 -38.6987      19 -38.6615      20 -38.7053
      21 -38.6446      22 -38.7053      23 -38.5335      24 -38.6987      25 -38.6446
      26 -38.6987      27 -38.6731      28 -38.6115      29 -38.6285      30 -38.6115
      31 -38.6014      32 -38.6954      33 -38.6285      34 -38.6954      35 -38.7192
      36 -38.6115      37 -38.6014      38 -38.6954      39 -38.6014      40 -38.5478
      41 -38.6428      42 -38.6954      43 -38.6428      44 -38.6416      45 -38.6285
      46 -38.6954      47 -38.7192      48 -38.6954      49 -38.6428      50 -38.6416
      51 -38.7192      52 -38.6416      53 -38.6824
 
 
 
[...]
      7.96081      4.77714      1.58959         0.006963      0.001626     -0.006857
      7.96031      4.78401      4.78401        -0.019624     -0.005748      0.010098
      7.96381      4.78041      7.96381        -0.010962     -0.000573     -0.012541
      7.96863      7.96863      1.59819         0.005634      0.005634     -0.004723
      7.96381      7.96381      4.78041        -0.003001     -0.003001      0.012076
      7.97347      7.97347      7.97347        -0.011656     -0.011656     -0.010129
 -----------------------------------------------------------------------------------
    total drift:                                0.003310      0.005551      0.004595


--------------------------------------------------------------------------------------------------------



  FREE ENERGIE OF THE ION-ELECTRON SYSTEM (eV)
  ---------------------------------------------------
  free  energy   TOTEN  =      -671.62222198 eV

  energy  without entropy=     -671.64051529  energy(sigma->0) =     -671.62831975
 
 d Force = 0.1035164E-02[-0.752E-01, 0.773E-01]  d Energy = 0.3344455E-03 0.701E-03
 d Force = 0.1260745E+02[ 0.100E+02, 0.152E+02]  d Ewald  = 0.1261418E+02-0.673E-02


--------------------------------------------------------------------------------------------------------


    POTLOK:  cpu time    0.35: real time    0.35


--------------------------------------------------------------------------------------------------------


 stress matrix after NEB project (eV)
     -8.57918     -1.98969     -1.97899
     -1.98969     -8.57918     -1.97899
     -1.97899     -1.97899     -8.64586
  FORCES: max atom, RMS     0.753760    0.103537
  FORCE total and by dimension    0.753760    0.752344
  Stress total and by dimension   15.669681    8.645861
 Finite differences progress:
  Degree of freedom:   3/  3
  Displacement:        2/  2
  Total:               6/  6
 
 SECOND DERIVATIVES (NOT SYMMETRIZED)
 ------------------------------------
              40X         40Y         40Z 
 40X   -15.290648    0.617213    0.617213
 40Y     0.617540  -15.251019    0.617540
 40Z     0.613464    0.613464  -15.253920
 
 
 Eigenvectors and eigenvalues of the dynamical matrix
 ----------------------------------------------------
 
 
   1 f  =    4.596694 THz    28.881878 2PiTHz  153.329191 cm-1    19.010404 meV
             X         Y         Z           dx          dy          dz
      1.778424  1.778424  1.778424            0           0           0  
      9.560409  9.560409  9.560409            0           0           0  
      0.005165  0.005165  3.189685            0           0           0  
      0.007451  0.007451  6.362785            0           0           0  
      0.005165  3.189685  0.005165            0           0           0  
      9.520197  3.217854  3.217854            0           0           0  
      0.000067  3.186787  6.375430            0           0           0  
      0.007451  6.362785  0.007451            0           0           0  
      0.000067  6.375430  3.186787            0           0           0  
      0.001435  6.375353  6.375353            0           0           0  
      3.189685  0.005165  0.005165            0           0           0  
      3.217854  9.520197  3.217854            0           0           0  
      3.186787  0.000067  6.375430            0           0           0  
      3.217854  3.217854  9.520197            0           0           0  
      3.186223  3.186223  6.333076            0           0           0  
      3.186787  6.375430  0.000067            0           0           0  
      3.186223  6.333076  3.186223            0           0           0  
      3.183382  6.367892  6.367892            0           0           0  
      6.362785  0.007451  0.007451            0           0           0  
      6.375430  0.000067  3.186787            0           0           0  
      6.375353  0.001435  6.375353            0           0           0  
      6.375430  3.186787  0.000067            0           0           0  
      6.333076  3.186223  3.186223            0           0           0  
      6.367892  3.183382  6.367892            0           0           0  
      6.375353  6.375353  0.001435            0           0           0  
      6.367892  6.367892  3.183382            0           0           0  
      6.370628  6.370628  6.370628            0           0           0  
      1.606483  1.606483  4.755412            0           0           0  
      1.590471  1.590471  7.985490            0           0           0  
      1.606483  4.755412  1.606483            0           0           0  
      1.599003  4.755115  4.755115            0           0           0  
      1.589591  4.777144  7.960812            0           0           0  
      1.590471  7.985490  1.590471            0           0           0  
      1.589591  7.960812  4.777144            0           0           0  
      1.598190  7.968627  7.968627            0           0           0  
      4.755412  1.606483  1.606483            0           0           0  
      4.755115  1.599003  4.755115            0           0           0  
      4.777144  1.589591  7.960812            0           0           0  
      4.755115  4.755115  1.599003            0           0           0  
      4.765780  4.765780  4.765780     0.821851   -0.412195   -0.393264  
      4.784011  4.784011  7.960305            0           0           0  
      4.777144  7.960812  1.589591            0           0           0  
      4.784011  7.960305  4.784011            0           0           0  
      4.780405  7.963806  7.963806            0           0           0  
      7.985490  1.590471  1.590471            0           0           0  
      7.960812  1.589591  4.777144            0           0           0  
      7.968627  1.598190  7.968627            0           0           0  
      7.960812  4.777144  1.589591            0           0           0  
      7.960305  4.784011  4.784011            0           0           0  
      7.963806  4.780405  7.963806            0           0           0  
      7.968627  7.968627  1.598190            0           0           0  
      7.963806  7.963806  4.780405            0           0           0  
      7.973467  7.973467  7.973467            0           0           0  
 
   2 f  =    4.592822 THz    28.857549 2PiTHz  153.200032 cm-1    18.994390 meV
             X         Y         Z           dx          dy          dz
      1.778424  1.778424  1.778424            0           0           0  
      9.560409  9.560409  9.560409            0           0           0  
      0.005165  0.005165  3.189685            0           0           0  
      0.007451  0.007451  6.362785            0           0           0  
      0.005165  3.189685  0.005165            0           0           0  
      9.520197  3.217854  3.217854            0           0           0  
      0.000067  3.186787  6.375430            0           0           0  
      0.007451  6.362785  0.007451            0           0           0  
      0.000067  6.375430  3.186787            0           0           0  
      0.001435  6.375353  6.375353            0           0           0  
      3.189685  0.005165  0.005165            0           0           0  
      3.217854  9.520197  3.217854            0           0           0  
      3.186787  0.000067  6.375430            0           0           0  
      3.217854  3.217854  9.520197            0           0           0  
      3.186223  3.186223  6.333076            0           0           0  
      3.186787  6.375430  0.000067            0           0           0  
      3.186223  6.333076  3.186223            0           0           0  
      3.183382  6.367892  6.367892            0           0           0  
      6.362785  0.007451  0.007451            0           0           0  
      6.375430  0.000067  3.186787            0           0           0  
      6.375353  0.001435  6.375353            0           0           0  
      6.375430  3.186787  0.000067            0           0           0  
      6.333076  3.186223  3.186223            0           0           0  
      6.367892  3.183382  6.367892            0           0           0  
      6.375353  6.375353  0.001435            0           0           0  
      6.367892  6.367892  3.183382            0           0           0  
      6.370628  6.370628  6.370628            0           0           0  
      1.606483  1.606483  4.755412            0           0           0  
      1.590471  1.590471  7.985490            0           0           0  
      1.606483  4.755412  1.606483            0           0           0  
      1.599003  4.755115  4.755115            0           0           0  
      1.589591  4.777144  7.960812            0           0           0  
      1.590471  7.985490  1.590471            0           0           0  
      1.589591  7.960812  4.777144            0           0           0  
      1.598190  7.968627  7.968627            0           0           0  
      4.755412  1.606483  1.606483            0           0           0  
      4.755115  1.599003  4.755115            0           0           0  
      4.777144  1.589591  7.960812            0           0           0  
      4.755115  4.755115  1.599003            0           0           0  
      4.765780  4.765780  4.765780     0.010378    0.701014   -0.713072  
      4.784011  4.784011  7.960305            0           0           0  
      4.777144  7.960812  1.589591            0           0           0  
      4.784011  7.960305  4.784011            0           0           0  
      4.780405  7.963806  7.963806            0           0           0  
      7.985490  1.590471  1.590471            0           0           0  
      7.960812  1.589591  4.777144            0           0           0  
      7.968627  1.598190  7.968627            0           0           0  
      7.960812  4.777144  1.589591            0           0           0  
      7.960305  4.784011  4.784011            0           0           0  
      7.963806  4.780405  7.963806            0           0           0  
      7.968627  7.968627  1.598190            0           0           0  
      7.963806  7.963806  4.780405            0           0           0  
      7.973467  7.973467  7.973467            0           0           0  
 
   3 f  =    4.319091 THz    27.137649 2PiTHz  144.069363 cm-1    17.862331 meV
             X         Y         Z           dx          dy          dz
      1.778424  1.778424  1.778424            0           0           0  
      9.560409  9.560409  9.560409            0           0           0  
      0.005165  0.005165  3.189685            0           0           0  
      0.007451  0.007451  6.362785            0           0           0  
      0.005165  3.189685  0.005165            0           0           0  
      9.520197  3.217854  3.217854            0           0           0  
      0.000067  3.186787  6.375430            0           0           0  
      0.007451  6.362785  0.007451            0           0           0  
      0.000067  6.375430  3.186787            0           0           0  
      0.001435  6.375353  6.375353            0           0           0  
      3.189685  0.005165  0.005165            0           0           0  
      3.217854  9.520197  3.217854            0           0           0  
      3.186787  0.000067  6.375430            0           0           0  
      3.217854  3.217854  9.520197            0           0           0  
      3.186223  3.186223  6.333076            0           0           0  
      3.186787  6.375430  0.000067            0           0           0  
      3.186223  6.333076  3.186223            0           0           0  
      3.183382  6.367892  6.367892            0           0           0  
      6.362785  0.007451  0.007451            0           0           0  
      6.375430  0.000067  3.186787            0           0           0  
      6.375353  0.001435  6.375353            0           0           0  
      6.375430  3.186787  0.000067            0           0           0  
      6.333076  3.186223  3.186223            0           0           0  
      6.367892  3.183382  6.367892            0           0           0  
      6.375353  6.375353  0.001435            0           0           0  
      6.367892  6.367892  3.183382            0           0           0  
      6.370628  6.370628  6.370628            0           0           0  
      1.606483  1.606483  4.755412            0           0           0  
      1.590471  1.590471  7.985490            0           0           0  
      1.606483  4.755412  1.606483            0           0           0  
      1.599003  4.755115  4.755115            0           0           0  
      1.589591  4.777144  7.960812            0           0           0  
      1.590471  7.985490  1.590471            0           0           0  
      1.589591  7.960812  4.777144            0           0           0  
      1.598190  7.968627  7.968627            0           0           0  
      4.755412  1.606483  1.606483            0           0           0  
      4.755115  1.599003  4.755115            0           0           0  
      4.777144  1.589591  7.960812            0           0           0  
      4.755115  4.755115  1.599003            0           0           0  
      4.765780  4.765780  4.765780     0.569608    0.581958    0.580406  
      4.784011  4.784011  7.960305            0           0           0  
      4.777144  7.960812  1.589591            0           0           0  
      4.784011  7.960305  4.784011            0           0           0  
      4.780405  7.963806  7.963806            0           0           0  
      7.985490  1.590471  1.590471            0           0           0  
      7.960812  1.589591  4.777144            0           0           0  
      7.968627  1.598190  7.968627            0           0           0  
      7.960812  4.777144  1.589591            0           0           0  
      7.960305  4.784011  4.784011            0           0           0  
      7.963806  4.780405  7.963806            0           0           0  
      7.968627  7.968627  1.598190            0           0           0  
      7.963806  7.963806  4.780405            0           0           0  
      7.973467  7.973467  7.973467            0           0           0  
 
 Finite differences POTIM=  5.000000000000000E-002
  LATTYP: Found a simple cubic cell.
 ALAT       =     9.5650190000
  
  Lattice vectors:
  
 A1 = (   9.5650190000,   0.0000000000,   0.0000000000)
 A2 = (   0.0000000000,   9.5650190000,   0.0000000000)
 A3 = (   0.0000000000,   0.0000000000,   9.5650190000)


Analysis of symmetry for initial positions (statically):
=====================================================================
 Subroutine PRICEL returns:
 Original cell was already a primitive cell.
 

 Routine SETGRP: Setting up the symmetry group for a 
 simple cubic supercell.


 Subroutine GETGRP returns: Found  6 space group operations
 (whereof  6 operations were pure point group operations)
 out of a pool of 48 trial point group operations.


The static configuration has the point symmetry C_3v.


Analysis of symmetry for dynamics (positions and initial velocities):
=====================================================================
 Subroutine PRICEL returns:
 Original cell was already a primitive cell.
 

 Routine SETGRP: Setting up the symmetry group for a 
 simple cubic supercell.


 Subroutine GETGRP returns: Found  6 space group operations
 (whereof  6 operations were pure point group operations)
 out of a pool of 48 trial point group operations.


The dynamic configuration has the point symmetry C_3v.


Analysis of constrained symmetry for selective dynamics:
=====================================================================
 Subroutine PRICEL returns:
 Original cell was already a primitive cell.
 

 Routine SETGRP: Setting up the symmetry group for a 
 simple cubic supercell.


 Subroutine GETGRP returns: Found  6 space group operations
 (whereof  6 operations were pure point group operations)
 out of a pool of 48 trial point group operations.


The constrained configuration has the point symmetry C_3v.


Analysis of magnetic symmetry:
=====================================================================

 Subroutine MAGSYM returns: Found  6 space group operations
 (whereof  6 operations were pure point group operations)
 out of a pool of  6 trial space group operations
 (whereof  6 operations were pure point group operations)
 and found also     1 'primitive' translations


The magnetic configuration has the point symmetry C_3v.
 
 KPOINTS: Automatic kpoint scheme                 

Automatic generation of k-mesh.
Space group operators:
 irot       det(A)        alpha          n_x          n_y          n_z        tau_x        tau_y        tau_z
    1     1.000000     0.000000     1.000000     0.000000     0.000000     0.000000     0.000000     0.000000
    2     1.000000   120.000000    -0.577350    -0.577350    -0.577350     0.000000     0.000000     0.000000
    3     1.000000   120.000000     0.577350     0.577350     0.577350     0.000000     0.000000     0.000000
    4    -1.000000   180.000000     0.000000    -0.707107     0.707107     0.000000     0.000000     0.000000
    5    -1.000000   180.000000     0.707107    -0.707107     0.000000     0.000000     0.000000     0.000000
    6    -1.000000   180.000000     0.707107     0.000000    -0.707107     0.000000     0.000000     0.000000
 
 Subroutine IBZKPT returns following result:
 ===========================================
 
 Found     10 irreducible k-points:
 
 Following reciprocal coordinates:
            Coordinates               Weight
  0.125000  0.125000  0.125000      2.000000
  0.375000  0.125000  0.125000      6.000000
 -0.375000  0.125000  0.125000      6.000000
 -0.125000  0.125000  0.125000      6.000000
  0.375000  0.375000  0.125000      6.000000
 -0.375000  0.375000  0.125000     12.000000
 -0.125000  0.375000  0.125000     12.000000
 -0.375000 -0.375000  0.125000      6.000000
  0.375000  0.375000  0.375000      2.000000
 -0.375000  0.375000  0.375000      6.000000
 
 Following cartesian coordinates:
            Coordinates               Weight
  0.013068  0.013068  0.013068      2.000000
  0.039205  0.013068  0.013068      6.000000
 -0.039205  0.013068  0.013068      6.000000
 -0.013068  0.013068  0.013068      6.000000
  0.039205  0.039205  0.013068      6.000000
 -0.039205  0.039205  0.013068     12.000000
 -0.013068  0.039205  0.013068     12.000000
 -0.039205 -0.039205  0.013068      6.000000
  0.039205  0.039205  0.039205      2.000000
 -0.039205  0.039205  0.039205      6.000000
 
     LOOP+:  cpu time 3818.30: real time 3836.69
    4ORBIT:  cpu time    0.00: real time    0.00

 total amount of memory used by VASP on root node   231190. kBytes
========================================================================

   base      :      30000. kBytes
   nonlr-proj:      50797. kBytes
   fftplans  :       4920. kBytes
   grid      :      30392. kBytes
   one-center:       1648. kBytes
   wavefun   :     113433. kBytes
 
  
  
 General timing and accounting informations for this job:
 ========================================================
  
                  Total CPU time used (sec):    28244.975
                            User time (sec):    28220.739
                          System time (sec):       24.236
                         Elapsed time (sec):    28329.947
  
                   Maximum memory used (kb):      738176.
                   Average memory used (kb):           0.
  
                          Minor page faults:       527372
                          Major page faults:            0
                 Voluntary context switches:      5028396
