 vasp.5.3.3 18Dez12 (build Aug 26 2013 15:55:55) complex                        
  
 executed on             LinuxIFC date 2015.04.17  10:38:18
 running on   20 total cores
 distrk:  each k-point on   20 cores,    1 groups
 distr:  one band on NCORES_PER_BAND=   1 cores,   20 groups


--------------------------------------------------------------------------------------------------------


 INCAR:
 POTCAR:    PAW_PBE Ag 02Apr2005                  
 POTCAR:   PAW_PBE W_pv 06Sep2000                 

 ----------------------------------------------------------------------------- 
|                                                                             |
|           W    W    AA    RRRRR   N    N  II  N    N   GGGG   !!!           |
|           W    W   A  A   R    R  NN   N  II  NN   N  G    G  !!!           |
|           W    W  A    A  R    R  N N  N  II  N N  N  G       !!!           |
|           W WW W  AAAAAA  RRRRR   N  N N  II  N  N N  G  GGG   !            |
|           WW  WW  A    A  R   R   N   NN  II  N   NN  G    G                |
|           W    W  A    A  R    R  N    N  II  N    N   GGGG   !!!           |
|                                                                             |
|      For optimal performance we recommend that you set                      |
|        NPAR = 4 - approx SQRT( number of cores)                             |
|      (number of cores/NPAR must be integer)                                 |
|      This setting will greatly improve the performance of VASP for DFT.     |
|      The default NPAR=number of cores might be grossly inefficient          |
|      on modern multi-core architectures or massively parallel machines.     |
|      Do your own testing.                                                   |
|      Unfortunately you need to use the default for hybrid, GW and RPA       |
|      calculations.                                                          |
|                                                                             |
 ----------------------------------------------------------------------------- 

 POTCAR:    PAW_PBE Ag 02Apr2005                  
   VRHFIN =Ag : s1 d10                                                          
   LEXCH  = PE                                                                  
   EATOM  =  1037.2671 eV,   76.2370 Ry                                         
                                                                                
   TITEL  = PAW_PBE Ag 02Apr2005                                                
   LULTRA =        F    use ultrasoft PP ?                                      
   IUNSCR =        1    unscreen: 0-lin 1-nonlin 2-no                           
   RPACOR =    2.000    partial core radius                                     
   POMASS =  107.868; ZVAL   =   11.000    mass and valenz                      
   RCORE  =    2.500    outmost cutoff radius                                   
   RWIGS  =    2.840; RWIGS  =    1.503    wigner-seitz radius (au A)           
   ENMAX  =  249.844; ENMIN  =  187.383 eV                                      
   ICORE  =        3    local potential                                         
   LCOR   =        T    correct aug charges                                     
   LPAW   =        T    paw PP                                                  
   EAUG   =  412.496                                                            
   DEXC   =     .000                                                            
   RMAX   =    2.917    core radius for proj-oper                               
   RAUG   =    1.300    factor for augmentation sphere                          
   RDEP   =    2.576    radius for radial grids                                 
   QCUT   =   -4.285; QGAM   =    8.570    optimization parameters              
                                                                                
   Description                                                                  
     l     E      TYP  RCUT    TYP  RCUT                                        
     2   .000     23  2.400                                                     
     2   .000     23  2.400                                                     
     0   .000     23  2.400                                                     
     0   .000     23  2.400                                                     
     1  -.100     23  2.500                                                     
     1  2.000     23  2.500                                                     
     3  -.300     23  2.400                                                     
  local pseudopotential read in
  partial core-charges read in
  atomic valenz-charges read in
  non local Contribution for L=           2  read in
    real space projection operators read in
  non local Contribution for L=           2  read in
    real space projection operators read in
  non local Contribution for L=           0  read in
    real space projection operators read in
  non local Contribution for L=           0  read in
    real space projection operators read in
  non local Contribution for L=           1  read in
    real space projection operators read in
  non local Contribution for L=           1  read in
    real space projection operators read in
    PAW grid and wavefunctions read in
 
   number of l-projection  operators is LMAX  =           6
   number of lm-projection operators is LMMAX =          18
 
 POTCAR:   PAW_PBE W_pv 06Sep2000                 
   VRHFIN =W : 5p6s5d                                                           
   LEXCH  = PE                                                                  
   EATOM  =  1260.0376 eV,   92.6101 Ry                                         
                                                                                
   TITEL  = PAW_PBE W_pv 06Sep2000                                              
   LULTRA =        F    use ultrasoft PP ?                                      
   IUNSCR =        1    unscreen: 0-lin 1-nonlin 2-no                           
   RPACOR =    2.330    partial core radius                                     
   POMASS =  183.850; ZVAL   =   12.000    mass and valenz                      
   RCORE  =    2.500    outmost cutoff radius                                   
   RWIGS  =    2.750; RWIGS  =    1.455    wigner-seitz radius (au A)           
   ENMAX  =  223.065; ENMIN  =  167.299 eV                                      
   RCLOC  =    2.147    cutoff for local pot                                    
   LCOR   =        T    correct aug charges                                     
   LPAW   =        T    paw PP                                                  
   EAUG   =  373.438                                                            
   DEXC   =    -.018                                                            
   RMAX   =    3.087    core radius for proj-oper                               
   RAUG   =    1.300    factor for augmentation sphere                          
   RDEP   =    2.539    radius for radial grids                                 
   QCUT   =   -4.049; QGAM   =    8.098    optimization parameters              
                                                                                
   Description                                                                  
     l     E      TYP  RCUT    TYP  RCUT                                        
     1   .000     23  2.500                                                     
     1  -.200     23  2.500                                                     
     2   .000     23  2.500                                                     
     2   .000     23  2.500                                                     
     0   .000     23  2.500                                                     
     0   .000     23  2.500                                                     
     3   .000      7   .000                                                     
  local pseudopotential read in
  partial core-charges read in
  atomic valenz-charges read in
  non local Contribution for L=           1  read in
    real space projection operators read in
  non local Contribution for L=           1  read in
    real space projection operators read in
  non local Contribution for L=           2  read in
    real space projection operators read in
  non local Contribution for L=           2  read in
    real space projection operators read in
  non local Contribution for L=           0  read in
    real space projection operators read in
  non local Contribution for L=           0  read in
    real space projection operators read in
    PAW grid and wavefunctions read in
 
   number of l-projection  operators is LMAX  =           6
   number of lm-projection operators is LMMAX =          18
 
 Optimization of the real space projectors (new method)

 maximal supplied QI-value         = 15.12
 optimisation between [QCUT,QGAM] = [ 10.13, 20.41] = [ 28.73,116.64] Ry 
 Optimized for a Real-space Cutoff    1.55 Angstroem

   l    n(q)    QCUT    max X(q) W(low)/X(q) W(high)/X(q)  e(spline) 
   2      9    10.129     4.129    0.25E-04    0.14E-04    0.66E-07
   2      9    10.129    12.470    0.12E-03    0.58E-04    0.12E-06
   0      9    10.129    16.625    0.16E-04    0.12E-05    0.80E-08
   0      9    10.129    93.080    0.43E-04    0.60E-05    0.80E-07
   1      9    10.129     6.858    0.12E-04    0.37E-05    0.21E-07
   1      9    10.129    10.884    0.10E-03    0.55E-05    0.10E-06
 Optimization of the real space projectors (new method)

 maximal supplied QI-value         = 15.12
 optimisation between [QCUT,QGAM] = [ 10.13, 20.41] = [ 28.73,116.64] Ry 
 Optimized for a Real-space Cutoff    1.65 Angstroem

   l    n(q)    QCUT    max X(q) W(low)/X(q) W(high)/X(q)  e(spline) 
   1     10    10.129     4.922    0.37E-05    0.98E-05    0.22E-07
   1     10    10.129     5.461    0.53E-04    0.42E-05    0.17E-06
   2      9    10.129     3.602    0.19E-04    0.55E-05    0.62E-07
   2      9    10.129    60.440    0.17E-03    0.27E-03    0.52E-06
   0     10    10.129    21.769    0.24E-04    0.29E-05    0.97E-08
   0     10    10.129    71.369    0.49E-04    0.40E-04    0.14E-06
  PAW_PBE Ag 02Apr2005                  :
 energy of atom  1       EATOM=-1037.2671
 kinetic energy error for atom=    0.0091 (will be added to EATOM!!)
 PAW_PBE W_pv 06Sep2000                 :
 energy of atom  2       EATOM=-1260.0376
 kinetic energy error for atom=    0.0051 (will be added to EATOM!!)
 
 
 POSCAR: Ag1 W52                                 
  positions in direct lattice
  velocities in cartesian coordinates
 exchange correlation table for  LEXCH =        8
   RHO(1)=    0.500       N(1)  =     2000
   RHO(2)=  100.500       N(2)  =     4000

 VTST: version 3.0c, (03/27/13)

 CHAIN: initializing optimizer
 
 OPT: Using VASP Dynamics algorithm
 CHAIN: Read ICHAIN            0
 
 POSCAR: Ag1 W52                                 
  positions in direct lattice
  velocities in cartesian coordinates
 


--------------------------------------------------------------------------------------------------------


 ion  position               nearest neighbor table
   1  0.184  0.184  0.184-   7 2.73  13 2.73  15 2.73   4 2.87   6 2.87  12 2.87  29 3.00  31 3.00
                            37 3.00   3 3.06  30 3.35  34 3.35  45 3.35
   2  0.416  0.416  0.416-  16 2.68  18 2.68  24 2.68  32 2.70  38 2.70  40 2.70  37 3.41  31 3.41
                            29 3.41  19 3.42  25 3.42  27 3.42
   3  1.000  1.000  1.000-  34 2.74  45 2.74  30 2.74  53 2.76  47 2.76  51 2.76  36 2.76   1 3.06
                             9 3.20  20 3.20   5 3.20  12 3.20   6 3.20   4 3.20
   4  0.001  0.001  0.334-  35 2.75  46 2.75  45 2.75  34 2.75  29 2.77  52 2.78  51 2.78   1 2.87
                             5 3.17  21 3.19  10 3.19   3 3.20   7 3.21  13 3.21
   5  0.000  0.000  0.665-  35 2.75  46 2.75  36 2.77  47 2.77  30 2.77  53 2.77  52 2.78  29 2.81
                             4 3.17   8 3.17  14 3.17  11 3.19  22 3.19   3 3.20
   6  0.001  0.334  0.001-  33 2.75  48 2.75  45 2.75  30 2.75  31 2.77  50 2.78  47 2.78   1 2.87
                             9 3.17  23 3.19   8 3.19   3 3.20   7 3.21  15 3.21
   7  0.996  0.336  0.336-  32 2.73   1 2.73  49 2.74  48 2.74  46 2.74  45 2.77  31 2.77  29 2.77
                            24 3.12   8 3.17  10 3.17   4 3.21   6 3.21
   8  0.999  0.332  0.667-  32 2.74  47 2.75  46 2.76  50 2.76  33 2.77  30 2.77  29 2.78  49 2.79
                             7 3.17   5 3.17  16 3.18   6 3.19  11 3.20  25 3.22
   9  0.000  0.665  0.000-  33 2.75  48 2.75  36 2.77  51 2.77  34 2.77  53 2.77  50 2.78  31 2.81
                             6 3.17  10 3.17  17 3.17  11 3.19  26 3.19   3 3.20
  10  0.999  0.667  0.332-  32 2.74  51 2.75  48 2.76  52 2.76  35 2.77  34 2.77  31 2.78  49 2.79
                             7 3.17   9 3.17  18 3.18   4 3.19  11 3.20  27 3.22
  11  0.999  0.667  0.667-  32 2.73  53 2.75  52 2.76  50 2.76  36 2.76  33 2.76  35 2.76  49 2.78
                            28 3.19   9 3.19   5 3.19  10 3.20   8 3.20  19 3.21
  12  0.334  0.001  0.001-  39 2.75  42 2.75  30 2.75  34 2.75  37 2.77  44 2.78  36 2.78   1 2.87
                            20 3.17  14 3.19  17 3.19   3 3.20  15 3.21  13 3.21
  13  0.336  0.996  0.336-  38 2.73   1 2.73  43 2.74  42 2.74  35 2.74  34 2.77  37 2.77  29 2.77
                            18 3.12  21 3.17  14 3.17   4 3.21  12 3.21
  14  0.332  0.999  0.667-  38 2.74  36 2.75  35 2.76  44 2.76  39 2.77  30 2.77  29 2.78  43 2.79
                            13 3.17   5 3.17  16 3.18  12 3.19  22 3.20  19 3.22
  15  0.336  0.336  0.996-  40 2.73   1 2.73  41 2.74  33 2.74  39 2.74  30 2.77  37 2.77  31 2.77
                            16 3.12  23 3.17  17 3.17   6 3.21  12 3.21
  16  0.332  0.332  0.670-   2 2.68  29 2.74  41 2.74  30 2.75  39 2.75  33 2.75  32 2.81  38 2.81
                            15 3.12  25 3.16  19 3.16   8 3.18  14 3.18
  17  0.332  0.667  0.999-  40 2.74  36 2.75  33 2.76  44 2.76  42 2.77  34 2.77  31 2.78  41 2.79
                            15 3.17   9 3.17  18 3.18  12 3.19  26 3.20  19 3.22
  18  0.332  0.670  0.332-   2 2.68  31 2.74  43 2.74  34 2.75  42 2.75  35 2.75  32 2.81  40 2.81
                            13 3.12  27 3.16  19 3.16  17 3.18  10 3.18
  19  0.334  0.662  0.662-  41 2.73  43 2.73  32 2.74  33 2.77  35 2.77  44 2.79  36 2.81  18 3.16
                            16 3.16  28 3.17  11 3.21  17 3.22  14 3.22   2 3.42
  20  0.665  0.000  0.000-  39 2.75  42 2.75  47 2.77  51 2.77  45 2.77  53 2.77  44 2.78  37 2.81
                            12 3.17  21 3.17  23 3.17  22 3.19  26 3.19   3 3.20
  21  0.667  0.999  0.332-  38 2.74  51 2.75  42 2.76  52 2.76  46 2.77  45 2.77  37 2.78  43 2.79
                            13 3.17  20 3.17  24 3.18   4 3.19  22 3.20  27 3.22
  22  0.667  0.999  0.667-  38 2.73  53 2.75  52 2.76  44 2.76  47 2.76  46 2.76  39 2.76  43 2.78
                            28 3.19  20 3.19   5 3.19  21 3.20  14 3.20  25 3.21
  23  0.667  0.332  0.999-  40 2.74  47 2.75  39 2.76  50 2.76  48 2.77  45 2.77  37 2.78  41 2.79
                            15 3.17  20 3.17  24 3.18   6 3.19  26 3.20  25 3.22
  24  0.670  0.332  0.332-   2 2.68  37 2.74  49 2.74  45 2.75  48 2.75  46 2.75  38 2.81  40 2.81
                             7 3.12  27 3.16  25 3.16  23 3.18  21 3.18
  25  0.662  0.334  0.662-  41 2.73  49 2.73  38 2.74  39 2.77  46 2.77  50 2.79  47 2.81  24 3.16
                            16 3.16  28 3.17  22 3.21  23 3.22   8 3.22   2 3.42
  26  0.667  0.667  0.999-  40 2.73  53 2.75  50 2.76  44 2.76  51 2.76  48 2.76  42 2.76  41 2.78
                            28 3.19  20 3.19   9 3.19  23 3.20  17 3.20  27 3.21
  27  0.662  0.662  0.334-  43 2.73  49 2.73  40 2.74  48 2.77  42 2.77  52 2.79  51 2.81  24 3.16
                            18 3.16  28 3.17  26 3.21  10 3.22  21 3.22   2 3.42
  28  0.666  0.666  0.666-  41 2.72  43 2.72  49 2.72  44 2.75  50 2.75  52 2.75  53 2.78  25 3.17
                            27 3.17  19 3.17  26 3.19  22 3.19  11 3.19
  29  0.171  0.171  0.497-  16 2.74  13 2.77   7 2.77   4 2.77  14 2.78   8 2.78   5 2.81   1 3.00
                            32 3.16  38 3.16  35 3.23  46 3.23  30 3.24   2 3.41
  30  0.166  0.166  0.836-   3 2.74  16 2.75  12 2.75   6 2.75  15 2.77   5 2.77   8 2.77  14 2.77
                            36 3.19  47 3.19  39 3.20  33 3.20  29 3.24   1 3.35
  31  0.171  0.497  0.171-  18 2.74  15 2.77   7 2.77   6 2.77  17 2.78  10 2.78   9 2.81   1 3.00
                            32 3.16  40 3.16  48 3.23  33 3.23  34 3.24   2 3.41
  32  0.161  0.501  0.501-   2 2.70  11 2.73   7 2.73  10 2.74   8 2.74  19 2.74  18 2.81  16 2.81
                            29 3.16  31 3.16  49 3.18  35 3.18  33 3.18
  33  0.166  0.500  0.833-  15 2.74   9 2.75  16 2.75   6 2.75  17 2.76  11 2.76   8 2.77  19 2.77
                            32 3.18  36 3.18  50 3.19  30 3.20  41 3.20  31 3.23
  34  0.166  0.836  0.166-   3 2.74  18 2.75  12 2.75   4 2.75  13 2.77   9 2.77  17 2.77  10 2.77
                            36 3.19  51 3.19  42 3.20  35 3.20  31 3.24   1 3.35
  35  0.166  0.833  0.500-  13 2.74   5 2.75  18 2.75   4 2.75  14 2.76  11 2.76  10 2.77  19 2.77
                            32 3.18  36 3.18  52 3.19  34 3.20  43 3.20  29 3.23
  36  0.166  0.833  0.833-  14 2.75  17 2.75  11 2.76   3 2.76   9 2.77   5 2.77  12 2.78  19 2.81
                            35 3.18  33 3.18  34 3.19  30 3.19  44 3.19  53 3.19
  37  0.497  0.171  0.171-  24 2.74  15 2.77  13 2.77  12 2.77  23 2.78  21 2.78  20 2.81   1 3.00
                            38 3.16  40 3.16  42 3.23  39 3.23  45 3.24   2 3.41
  38  0.501  0.161  0.501-   2 2.70  22 2.73  13 2.73  21 2.74  14 2.74  25 2.74  24 2.81  16 2.81
                            29 3.16  37 3.16  43 3.18  39 3.18  46 3.18
  39  0.500  0.166  0.833-  15 2.74  20 2.75  16 2.75  12 2.75  23 2.76  22 2.76  14 2.77  25 2.77
                            38 3.18  47 3.18  44 3.19  30 3.20  41 3.20  37 3.23
  40  0.501  0.501  0.161-   2 2.70  26 2.73  15 2.73  23 2.74  17 2.74  27 2.74  18 2.81  24 2.81
                            31 3.16  37 3.16  41 3.18  42 3.18  48 3.18
  41  0.500  0.500  0.829-  28 2.72  25 2.73  19 2.73  15 2.74  16 2.74  26 2.78  23 2.79  17 2.79
                            44 3.17  50 3.17  40 3.18  39 3.20  33 3.20
  42  0.500  0.833  0.166-  13 2.74  20 2.75  18 2.75  12 2.75  21 2.76  26 2.76  17 2.77  27 2.77
                            40 3.18  51 3.18  44 3.19  34 3.20  43 3.20  37 3.23
  43  0.500  0.829  0.500-  28 2.72  27 2.73  19 2.73  13 2.74  18 2.74  22 2.78  21 2.79  14 2.79
                            44 3.17  52 3.17  38 3.18  42 3.20  35 3.20
  44  0.500  0.832  0.832-  28 2.75  17 2.76  14 2.76  26 2.76  22 2.76  20 2.78  12 2.78  19 2.79
                            41 3.17  43 3.17  36 3.19  53 3.19  39 3.19  42 3.19
  45  0.836  0.166  0.166-   3 2.74  24 2.75   6 2.75   4 2.75   7 2.77  20 2.77  23 2.77  21 2.77
                            47 3.19  51 3.19  48 3.20  46 3.20  37 3.24   1 3.35
  46  0.833  0.166  0.500-   7 2.74   5 2.75  24 2.75   4 2.75   8 2.76  22 2.76  21 2.77  25 2.77
                            38 3.18  47 3.18  52 3.19  45 3.20  49 3.20  29 3.23
  47  0.833  0.166  0.833-   8 2.75  23 2.75  22 2.76   3 2.76   5 2.77  20 2.77   6 2.78  25 2.81
                            46 3.18  39 3.18  45 3.19  30 3.19  50 3.19  53 3.19
  48  0.833  0.500  0.166-   7 2.74   9 2.75  24 2.75   6 2.75  10 2.76  26 2.76  23 2.77  27 2.77
                            40 3.18  51 3.18  50 3.19  45 3.20  49 3.20  31 3.23
  49  0.829  0.500  0.500-  28 2.72  27 2.73  25 2.73   7 2.74  24 2.74  11 2.78  10 2.79   8 2.79
                            50 3.17  52 3.17  32 3.18  48 3.20  46 3.20
  50  0.832  0.500  0.832-  28 2.75  23 2.76   8 2.76  26 2.76  11 2.76   9 2.78   6 2.78  25 2.79
                            41 3.17  49 3.17  47 3.19  53 3.19  33 3.19  48 3.19
  51  0.833  0.833  0.166-  10 2.75  21 2.75  26 2.76   3 2.76   9 2.77  20 2.77   4 2.78  27 2.81
                            42 3.18  48 3.18  45 3.19  34 3.19  52 3.19  53 3.19
  52  0.832  0.832  0.500-  28 2.75  21 2.76  10 2.76  22 2.76  11 2.76   5 2.78   4 2.78  27 2.79
                            43 3.17  49 3.17  51 3.19  53 3.19  46 3.19  35 3.19
  53  0.833  0.833  0.833-  11 2.75  22 2.75  26 2.75   3 2.76  20 2.77   9 2.77   5 2.77  28 2.78
                            51 3.19  47 3.19  36 3.19  50 3.19  44 3.19  52 3.19
 
  LATTYP: Found a simple cubic cell.
 ALAT       =     9.5650190000
  
  Lattice vectors:
  
 A1 = (   9.5650190000,   0.0000000000,   0.0000000000)
 A2 = (   0.0000000000,   9.5650190000,   0.0000000000)
 A3 = (   0.0000000000,   0.0000000000,   9.5650190000)


Analysis of symmetry for initial positions (statically):
=====================================================================
 Subroutine PRICEL returns:
 Original cell was already a primitive cell.
 

 Routine SETGRP: Setting up the symmetry group for a 
 simple cubic supercell.


 Subroutine GETGRP returns: Found  6 space group operations
 (whereof  6 operations were pure point group operations)
 out of a pool of 48 trial point group operations.


The static configuration has the point symmetry C_3v.


Analysis of symmetry for dynamics (positions and initial velocities):
=====================================================================
 Subroutine PRICEL returns:
 Original cell was already a primitive cell.
 

 Routine SETGRP: Setting up the symmetry group for a 
 simple cubic supercell.


 Subroutine GETGRP returns: Found  6 space group operations
 (whereof  6 operations were pure point group operations)
 out of a pool of 48 trial point group operations.


The dynamic configuration has the point symmetry C_3v.


Analysis of constrained symmetry for selective dynamics:
=====================================================================
 Subroutine PRICEL returns:
 Original cell was already a primitive cell.
 

 Routine SETGRP: Setting up the symmetry group for a 
 simple cubic supercell.


 Subroutine GETGRP returns: Found  6 space group operations
 (whereof  6 operations were pure point group operations)
 out of a pool of 48 trial point group operations.


The constrained configuration has the point symmetry C_3v.


Analysis of magnetic symmetry:
=====================================================================

 Subroutine MAGSYM returns: Found  6 space group operations
 (whereof  6 operations were pure point group operations)
 out of a pool of  6 trial space group operations
 (whereof  6 operations were pure point group operations)
 and found also     1 'primitive' translations


The magnetic configuration has the point symmetry C_3v.


 irot  :   1
 --------------------------------------------------------------------
 isymop:   1   0   0
           0   1   0
           0   0   1

 gtrans:     0.0000000     0.0000000     0.0000000

 ptrans:     0.0000000     0.0000000     0.0000000
 rotmap:
 (   1->   1)  (   2->   2)  (   3->   3)  (   4->   4)  (   5->   5) 
 (   6->   6)  (   7->   7)  (   8->   8)  (   9->   9)  (  10->  10) 
 (  11->  11)  (  12->  12)  (  13->  13)  (  14->  14)  (  15->  15) 
 (  16->  16)  (  17->  17)  (  18->  18)  (  19->  19)  (  20->  20) 
 (  21->  21)  (  22->  22)  (  23->  23)  (  24->  24)  (  25->  25) 
 (  26->  26)  (  27->  27)  (  28->  28)  (  29->  29)  (  30->  30) 
 (  31->  31)  (  32->  32)  (  33->  33)  (  34->  34)  (  35->  35) 
 (  36->  36)  (  37->  37)  (  38->  38)  (  39->  39)  (  40->  40) 
 (  41->  41)  (  42->  42)  (  43->  43)  (  44->  44)  (  45->  45) 
 (  46->  46)  (  47->  47)  (  48->  48)  (  49->  49)  (  50->  50) 
 (  51->  51)  (  52->  52)  (  53->  53) 


 irot  :   2
 --------------------------------------------------------------------
 isymop:   0   0   1
           1   0   0
           0   1   0

 gtrans:     0.0000000     0.0000000     0.0000000

 ptrans:     0.0000000     0.0000000     0.0000000
 rotmap:
 (   1->   1)  (   2->   2)  (   3->   3)  (   4->  12)  (   5->  20) 
 (   6->   4)  (   7->  13)  (   8->  21)  (   9->   5)  (  10->  14) 
 (  11->  22)  (  12->   6)  (  13->  15)  (  14->  23)  (  15->   7) 
 (  16->  24)  (  17->   8)  (  18->  16)  (  19->  25)  (  20->   9) 
 (  21->  17)  (  22->  26)  (  23->  10)  (  24->  18)  (  25->  27) 
 (  26->  11)  (  27->  19)  (  28->  28)  (  29->  37)  (  30->  45) 
 (  31->  29)  (  32->  38)  (  33->  46)  (  34->  30)  (  35->  39) 
 (  36->  47)  (  37->  31)  (  38->  40)  (  39->  48)  (  40->  32) 
 (  41->  49)  (  42->  33)  (  43->  41)  (  44->  50)  (  45->  34) 
 (  46->  42)  (  47->  51)  (  48->  35)  (  49->  43)  (  50->  52) 
 (  51->  36)  (  52->  44)  (  53->  53) 


 irot  :   3
 --------------------------------------------------------------------
 isymop:   0   1   0
           0   0   1
           1   0   0

 gtrans:     0.0000000     0.0000000     0.0000000

 ptrans:     0.0000000     0.0000000     0.0000000
 rotmap:
 (   1->   1)  (   2->   2)  (   3->   3)  (   4->   6)  (   5->   9) 
 (   6->  12)  (   7->  15)  (   8->  17)  (   9->  20)  (  10->  23) 
 (  11->  26)  (  12->   4)  (  13->   7)  (  14->  10)  (  15->  13) 
 (  16->  18)  (  17->  21)  (  18->  24)  (  19->  27)  (  20->   5) 
 (  21->   8)  (  22->  11)  (  23->  14)  (  24->  16)  (  25->  19) 
 (  26->  22)  (  27->  25)  (  28->  28)  (  29->  31)  (  30->  34) 
 (  31->  37)  (  32->  40)  (  33->  42)  (  34->  45)  (  35->  48) 
 (  36->  51)  (  37->  29)  (  38->  32)  (  39->  35)  (  40->  38) 
 (  41->  43)  (  42->  46)  (  43->  49)  (  44->  52)  (  45->  30) 
 (  46->  33)  (  47->  36)  (  48->  39)  (  49->  41)  (  50->  44) 
 (  51->  47)  (  52->  50)  (  53->  53) 


 irot  :   4
 --------------------------------------------------------------------
 isymop:   1   0   0
           0   0   1
           0   1   0

 gtrans:     0.0000000     0.0000000     0.0000000

 ptrans:     0.0000000     0.0000000     0.0000000
 rotmap:
 (   1->   1)  (   2->   2)  (   3->   3)  (   4->   6)  (   5->   9) 
 (   6->   4)  (   7->   7)  (   8->  10)  (   9->   5)  (  10->   8) 
 (  11->  11)  (  12->  12)  (  13->  15)  (  14->  17)  (  15->  13) 
 (  16->  18)  (  17->  14)  (  18->  16)  (  19->  19)  (  20->  20) 
 (  21->  23)  (  22->  26)  (  23->  21)  (  24->  24)  (  25->  27) 
 (  26->  22)  (  27->  25)  (  28->  28)  (  29->  31)  (  30->  34) 
 (  31->  29)  (  32->  32)  (  33->  35)  (  34->  30)  (  35->  33) 
 (  36->  36)  (  37->  37)  (  38->  40)  (  39->  42)  (  40->  38) 
 (  41->  43)  (  42->  39)  (  43->  41)  (  44->  44)  (  45->  45) 
 (  46->  48)  (  47->  51)  (  48->  46)  (  49->  49)  (  50->  52) 
 (  51->  47)  (  52->  50)  (  53->  53) 


 irot  :   5
 --------------------------------------------------------------------
 isymop:   0   1   0
           1   0   0
           0   0   1

 gtrans:     0.0000000     0.0000000     0.0000000

 ptrans:     0.0000000     0.0000000     0.0000000
 rotmap:
 (   1->   1)  (   2->   2)  (   3->   3)  (   4->   4)  (   5->   5) 
 (   6->  12)  (   7->  13)  (   8->  14)  (   9->  20)  (  10->  21) 
 (  11->  22)  (  12->   6)  (  13->   7)  (  14->   8)  (  15->  15) 
 (  16->  16)  (  17->  23)  (  18->  24)  (  19->  25)  (  20->   9) 
 (  21->  10)  (  22->  11)  (  23->  17)  (  24->  18)  (  25->  19) 
 (  26->  26)  (  27->  27)  (  28->  28)  (  29->  29)  (  30->  30) 
 (  31->  37)  (  32->  38)  (  33->  39)  (  34->  45)  (  35->  46) 
 (  36->  47)  (  37->  31)  (  38->  32)  (  39->  33)  (  40->  40) 
 (  41->  41)  (  42->  48)  (  43->  49)  (  44->  50)  (  45->  34) 
 (  46->  35)  (  47->  36)  (  48->  42)  (  49->  43)  (  50->  44) 
 (  51->  51)  (  52->  52)  (  53->  53) 


 irot  :   6
 --------------------------------------------------------------------
 isymop:   0   0   1
           0   1   0
           1   0   0

 gtrans:     0.0000000     0.0000000     0.0000000

 ptrans:     0.0000000     0.0000000     0.0000000
 rotmap:
 (   1->   1)  (   2->   2)  (   3->   3)  (   4->  12)  (   5->  20) 
 (   6->   6)  (   7->  15)  (   8->  23)  (   9->   9)  (  10->  17) 
 (  11->  26)  (  12->   4)  (  13->  13)  (  14->  21)  (  15->   7) 
 (  16->  24)  (  17->  10)  (  18->  18)  (  19->  27)  (  20->   5) 
 (  21->  14)  (  22->  22)  (  23->   8)  (  24->  16)  (  25->  25) 
 (  26->  11)  (  27->  19)  (  28->  28)  (  29->  37)  (  30->  45) 
 (  31->  31)  (  32->  40)  (  33->  48)  (  34->  34)  (  35->  42) 
 (  36->  51)  (  37->  29)  (  38->  38)  (  39->  46)  (  40->  32) 
 (  41->  49)  (  42->  35)  (  43->  43)  (  44->  52)  (  45->  30) 
 (  46->  39)  (  47->  47)  (  48->  33)  (  49->  41)  (  50->  50) 
 (  51->  36)  (  52->  44)  (  53->  53) 
 
 
 KPOINTS: Automatic kpoint scheme                 

Automatic generation of k-mesh.
Space group operators:
 irot       det(A)        alpha          n_x          n_y          n_z        tau_x        tau_y        tau_z
    1     1.000000     0.000000     1.000000     0.000000     0.000000     0.000000     0.000000     0.000000
    2     1.000000   120.000000    -0.577350    -0.577350    -0.577350     0.000000     0.000000     0.000000
    3     1.000000   120.000000     0.577350     0.577350     0.577350     0.000000     0.000000     0.000000
    4    -1.000000   180.000000     0.000000    -0.707107     0.707107     0.000000     0.000000     0.000000
    5    -1.000000   180.000000     0.707107    -0.707107     0.000000     0.000000     0.000000     0.000000
    6    -1.000000   180.000000     0.707107     0.000000    -0.707107     0.000000     0.000000     0.000000
 
 Subroutine IBZKPT returns following result:
 ===========================================
 
 Found     10 irreducible k-points:
 
 Following reciprocal coordinates:
            Coordinates               Weight
  0.125000  0.125000  0.125000      2.000000
  0.375000  0.125000  0.125000      6.000000
 -0.375000  0.125000  0.125000      6.000000
 -0.125000  0.125000  0.125000      6.000000
  0.375000  0.375000  0.125000      6.000000
 -0.375000  0.375000  0.125000     12.000000
 -0.125000  0.375000  0.125000     12.000000
 -0.375000 -0.375000  0.125000      6.000000
  0.375000  0.375000  0.375000      2.000000
 -0.375000  0.375000  0.375000      6.000000
 
 Following cartesian coordinates:
            Coordinates               Weight
  0.013068  0.013068  0.013068      2.000000
  0.039205  0.013068  0.013068      6.000000
 -0.039205  0.013068  0.013068      6.000000
 -0.013068  0.013068  0.013068      6.000000
  0.039205  0.039205  0.013068      6.000000
 -0.039205  0.039205  0.013068     12.000000
 -0.013068  0.039205  0.013068     12.000000
 -0.039205 -0.039205  0.013068      6.000000
  0.039205  0.039205  0.039205      2.000000
 -0.039205  0.039205  0.039205      6.000000
 
 
 Subroutine IBZKPT_HF returns following result:
 ==============================================
 
 Found     64 k-points in 1st BZ
 the following     64 k-points will be used (e.g. in the exchange kernel)
 Following reciprocal coordinates:   # in IRBZ
  0.125000  0.125000  0.125000       1 t-inv F
  0.375000  0.125000  0.125000       2 t-inv F
 -0.375000  0.125000  0.125000       3 t-inv F
 -0.125000  0.125000  0.125000       4 t-inv F
  0.375000  0.375000  0.125000       5 t-inv F
 -0.375000  0.375000  0.125000       6 t-inv F
 -0.125000  0.375000  0.125000       7 t-inv F
 -0.375000 -0.375000  0.125000       8 t-inv F
  0.375000  0.375000  0.375000       9 t-inv F
 -0.375000  0.375000  0.375000      10 t-inv F
  0.125000  0.375000  0.125000       2 t-inv F
  0.125000  0.125000  0.375000       2 t-inv F
  0.125000 -0.375000  0.125000       3 t-inv F
  0.125000  0.125000 -0.375000       3 t-inv F
  0.125000 -0.125000  0.125000       4 t-inv F
  0.125000  0.125000 -0.125000       4 t-inv F
  0.125000  0.375000  0.375000       5 t-inv F
  0.375000  0.125000  0.375000       5 t-inv F
  0.125000 -0.375000  0.375000       6 t-inv F
  0.375000  0.125000 -0.375000       6 t-inv F
 -0.375000  0.125000  0.375000       6 t-inv F
  0.375000 -0.375000  0.125000       6 t-inv F
  0.125000  0.375000 -0.375000       6 t-inv F
  0.125000 -0.125000  0.375000       7 t-inv F
  0.375000  0.125000 -0.125000       7 t-inv F
 -0.125000  0.125000  0.375000       7 t-inv F
  0.375000 -0.125000  0.125000       7 t-inv F
  0.125000  0.375000 -0.125000       7 t-inv F
  0.125000 -0.375000 -0.375000       8 t-inv F
 -0.375000  0.125000 -0.375000       8 t-inv F
  0.375000 -0.375000  0.375000      10 t-inv F
  0.375000  0.375000 -0.375000      10 t-inv F
 -0.125000 -0.125000 -0.125000       1 t-inv T
 -0.375000 -0.125000 -0.125000       2 t-inv T
 -0.125000 -0.375000 -0.125000       2 t-inv T
 -0.125000 -0.125000 -0.375000       2 t-inv T
  0.375000 -0.125000 -0.125000       3 t-inv T
 -0.125000  0.375000 -0.125000       3 t-inv T
 -0.125000 -0.125000  0.375000       3 t-inv T
  0.125000 -0.125000 -0.125000       4 t-inv T
 -0.125000  0.125000 -0.125000       4 t-inv T
 -0.125000 -0.125000  0.125000       4 t-inv T
 -0.375000 -0.375000 -0.125000       5 t-inv T
 -0.125000 -0.375000 -0.375000       5 t-inv T
 -0.375000 -0.125000 -0.375000       5 t-inv T
  0.375000 -0.375000 -0.125000       6 t-inv T
 -0.125000  0.375000 -0.375000       6 t-inv T
 -0.375000 -0.125000  0.375000       6 t-inv T
  0.375000 -0.125000 -0.375000       6 t-inv T
 -0.375000  0.375000 -0.125000       6 t-inv T
 -0.125000 -0.375000  0.375000       6 t-inv T
  0.125000 -0.375000 -0.125000       7 t-inv T
 -0.125000  0.125000 -0.375000       7 t-inv T
 -0.375000 -0.125000  0.125000       7 t-inv T
  0.125000 -0.125000 -0.375000       7 t-inv T
 -0.375000  0.125000 -0.125000       7 t-inv T
 -0.125000 -0.375000  0.125000       7 t-inv T
  0.375000  0.375000 -0.125000       8 t-inv T
 -0.125000  0.375000  0.375000       8 t-inv T
  0.375000 -0.125000  0.375000       8 t-inv T
 -0.375000 -0.375000 -0.375000       9 t-inv T
  0.375000 -0.375000 -0.375000      10 t-inv T
 -0.375000  0.375000 -0.375000      10 t-inv T
 -0.375000 -0.375000  0.375000      10 t-inv T


--------------------------------------------------------------------------------------------------------




 Dimension of arrays:
   k-points           NKPTS =     10   k-points in BZ     NKDIM =     10   number of bands    NBANDS=    420
   number of dos      NEDOS =    301   number of ions     NIONS =     53
   non local maximal  LDIM  =      6   non local SUM 2l+1 LMDIM =     18
   total plane-waves  NPLWV = 262144
   max r-space proj   IRMAX =   5670   max aug-charges    IRDMAX=  17297
   dimension x,y,z NGX =    64 NGY =   64 NGZ =   64
   dimension x,y,z NGXF=   128 NGYF=  128 NGZF=  128
   support grid    NGXF=   128 NGYF=  128 NGZF=  128
   ions per type =               1  52
 NGX,Y,Z   is equivalent  to a cutoff of  11.12, 11.12, 11.12 a.u.
 NGXF,Y,Z  is equivalent  to a cutoff of  22.25, 22.25, 22.25 a.u.


 I would recommend the setting:
   dimension x,y,z NGX =    62 NGY =   62 NGZ =   62
 SYSTEM =  unknown system                          
 POSCAR =  Ag1 W52                                 

 Startparameter for this run:
   NWRITE =      2    write-flag & timer
   PREC   = accura    normal or accurate (medium, high low for compatibility)
   ISTART =      0    job   : 0-new  1-cont  2-samecut
   ICHARG =      2    charge: 1-file 2-atom 10-const
   ISPIN  =      2    spin polarized calculation?
   LNONCOLLINEAR =      F non collinear calculations
   LSORBIT =      F    spin-orbit coupling
   INIWAV =      1    electr: 0-lowe 1-rand  2-diag
   LASPH  =      F    aspherical Exc in radial PAW
   METAGGA=      F    non-selfconsistent MetaGGA calc.

 Electronic Relaxation 1
   ENCUT  =  400.0 eV  29.40 Ry    5.42 a.u.  15.60 15.60 15.60*2*pi/ulx,y,z
   ENINI  =  400.0     initial cutoff
   ENAUG  =  412.5 eV  augmentation charge cutoff
   NELM   =     60;   NELMIN=  2; NELMDL= -5     # of ELM steps 
   EDIFF  = 0.1E-04   stopping-criterion for ELM
   LREAL  =      T    real-space projection
   NLSPLINE    = F    spline interpolate recip. space projectors
   LCOMPAT=      F    compatible to vasp.4.4
   GGA_COMPAT  = T    GGA compatible to vasp.4.4-vasp.4.6
   LMAXPAW     = -100 max onsite density
   LMAXMIX     =    2 max onsite mixed and CHGCAR
   VOSKOWN=      0    Vosko Wilk Nusair interpolation
   ROPT   =   -0.00025  -0.00025
 Ionic relaxation
   EDIFFG = -.1E-01   stopping-criterion for IOM
   NSW    =    606    number of steps for IOM
   NBLOCK =      1;   KBLOCK =    101    inner block; outer block 
   IBRION =      5    ionic relax: 0-MD 1-quasi-New 2-CG
   NFREE  =      2    steps in history (QN), initial steepest desc. (CG)
   ISIF   =      2    stress and relaxation
   IWAVPR =     11    prediction:  0-non 1-charg 2-wave 3-comb
   ISYM   =      2    0-nonsym 1-usesym 2-fastsym
   LCORR  =      T    Harris-Foulkes like correction to forces

   POTIM  = 0.0500    time-step for ionic-motion
   TEIN   =    0.0    initial temperature
   TEBEG  =    0.0;   TEEND  =   0.0 temperature during run
   SMASS  =  -3.00    Nose mass-parameter (am)
   estimated Nose-frequenzy (Omega)   =  0.10E-29 period in steps =****** mass=  -0.209E-26a.u.
   SCALEE = 1.0000    scale energy and forces
   NPACO  =    256;   APACO  = 16.0  distance and # of slots for P.C.
   PSTRESS=    0.0 pullay stress

  Mass of Ions in am
   POMASS = 107.87183.85
  Ionic Valenz
   ZVAL   =  11.00 12.00
  Atomic Wigner-Seitz radii
   RWIGS  =  -1.00 -1.00
  virtual crystal weights 
   VCA    =   1.00  1.00
   NELECT =     635.0000    total number of electrons
   NUPDOWN=      -1.0000    fix difference up-down

 DOS related values:
   EMIN   =  10.00;   EMAX   =-10.00  energy-range for DOS
   EFERMI =   0.00
   ISMEAR =     1;   SIGMA  =   0.20  broadening in eV -4-tet -1-fermi 0-gaus

 Electronic relaxation 2 (details)
   IALGO  =     38    algorithm
   LDIAG  =      T    sub-space diagonalisation (order eigenvalues)
   LSUBROT=      T    optimize rotation matrix (better conditioning)
   TURBO    =      0    0=normal 1=particle mesh
   IRESTART =      0    0=no restart 2=restart with 2 vectors
   NREBOOT  =      0    no. of reboots
   NMIN     =      0    reboot dimension
   EREF     =   0.00    reference energy to select bands
   IMIX   =      4    mixing-type and parameters
     AMIX     =   0.40;   BMIX     =  1.00
     AMIX_MAG =   1.60;   BMIX_MAG =  1.00
     AMIN     =   0.10
     WC   =   100.;   INIMIX=   1;  MIXPRE=   1;  MAXMIX= -45

 Intra band minimization:
   WEIMIN = 0.0010     energy-eigenvalue tresh-hold
   EBREAK =  0.60E-08  absolut break condition
   DEPER  =   0.30     relativ break condition  

   TIME   =   0.40     timestep for ELM

  volume/ion in A,a.u.               =      16.51       111.42
  Fermi-wavevector in a.u.,A,eV,Ry     =   1.471116  2.780006 29.445485  2.164182
  Thomas-Fermi vector in A             =   2.586291
 
 Write flags
   LWAVE  =      F    write WAVECAR
   LCHARG =      F    write CHGCAR
   LVTOT  =      F    write LOCPOT, total local potential
   LVHAR  =      F    write LOCPOT, Hartree potential only
   LELF   =      F    write electronic localiz. function (ELF)
   LORBIT =      0    0 simple, 1 ext, 2 COOP (PROOUT)


 Dipole corrections
   LMONO  =      F    monopole corrections only (constant potential shift)
   LDIPOL =      F    correct potential (dipole corrections)
   IDIPOL =      0    1-x, 2-y, 3-z, 4-all directions 
   EPSILON=  1.0000000 bulk dielectric constant

 Exchange correlation treatment:
   GGA     =    --    GGA type
   LEXCH   =     8    internal setting for exchange type
   VOSKOWN=      0    Vosko Wilk Nusair interpolation
   LHFCALC =     F    Hartree Fock is set to
   LHFONE  =     F    Hartree Fock one center treatment
   AEXX    =    0.0000 exact exchange contribution

 Linear response parameters
   LEPSILON=     F    determine dielectric tensor
   LRPA    =     F    only Hartree local field effects (RPA)
   LNABLA  =     F    use nabla operator in PAW spheres
   LVEL    =     F    velocity operator in full k-point grid
   LINTERFAST=   F  fast interpolation
   KINTER  =     0    interpolate to denser k-point grid
   CSHIFT  =0.1000    complex shift for real part using Kramers Kronig
   OMEGAMAX=  -1.0    maximum frequency
   DEG_THRESHOLD= 0.2000000E-02 threshold for treating states as degnerate
   RTIME   =    0.100 relaxation time in fs

 Orbital magnetization related:
   ORBITALMAG=     F  switch on orbital magnetization
   LCHIMAG   =     F  perturbation theory with respect to B field
   DQ        =  0.001000  dq finite difference perturbation B field



--------------------------------------------------------------------------------------------------------


 finite differences
   using selective dynamics as specified on POSCAR
 charge density and potential will be updated during run
 spin polarized calculation
 Variant of blocked Davidson
 Davidson routine will perform the subspace rotation
 perform sub-space diagonalisation
    after iterative eigenvector-optimisation
 modified Broyden-mixing scheme, WC =      100.0
 initial mixing is a Kerker type mixing with AMIX =  0.4000 and BMIX =      1.0000
 Hartree-type preconditioning will be used
 using additional bands          102
 real space projection scheme for non local part
 use partial core corrections
 calculate Harris-corrections to forces 
   (improved forces if not selfconsistent)
 use gradient corrections 
 use of overlap-Matrix (Vanderbilt PP)
 Methfessel and Paxton  Order N= 1 SIGMA  =   0.20


--------------------------------------------------------------------------------------------------------


  energy-cutoff  :      400.00
  volume of cell :      875.10
      direct lattice vectors                 reciprocal lattice vectors
     9.565019000  0.000000000  0.000000000     0.104547623  0.000000000  0.000000000
     0.000000000  9.565019000  0.000000000     0.000000000  0.104547623  0.000000000
     0.000000000  0.000000000  9.565019000     0.000000000  0.000000000  0.104547623

  length of vectors
     9.565019000  9.565019000  9.565019000     0.104547623  0.104547623  0.104547623


 
 k-points in units of 2pi/SCALE and weight: Automatic kpoint scheme                 
   0.01306845  0.01306845  0.01306845       0.031
   0.03920536  0.01306845  0.01306845       0.094
  -0.03920536  0.01306845  0.01306845       0.094
  -0.01306845  0.01306845  0.01306845       0.094
   0.03920536  0.03920536  0.01306845       0.094
  -0.03920536  0.03920536  0.01306845       0.188
  -0.01306845  0.03920536  0.01306845       0.188
  -0.03920536 -0.03920536  0.01306845       0.094
   0.03920536  0.03920536  0.03920536       0.031
  -0.03920536  0.03920536  0.03920536       0.094
 
 k-points in reciprocal lattice and weights: Automatic kpoint scheme                 
   0.12500000  0.12500000  0.12500000       0.031
   0.37500000  0.12500000  0.12500000       0.094
  -0.37500000  0.12500000  0.12500000       0.094
  -0.12500000  0.12500000  0.12500000       0.094
   0.37500000  0.37500000  0.12500000       0.094
  -0.37500000  0.37500000  0.12500000       0.188
  -0.12500000  0.37500000  0.12500000       0.188
  -0.37500000 -0.37500000  0.12500000       0.094
   0.37500000  0.37500000  0.37500000       0.031
  -0.37500000  0.37500000  0.37500000       0.094
 
 position of ions in fractional coordinates (direct lattice) 
   0.18444200  0.18444200  0.18444200
   0.41581700  0.41581700  0.41581700
   0.99981400  0.99981400  0.99981400
   0.00075900  0.00075900  0.33432800
   0.00033600  0.00033600  0.66544700
   0.00075900  0.33432800  0.00075900
   0.99564700  0.33609500  0.33609500
   0.99877500  0.33220300  0.66716300
   0.00033600  0.66544700  0.00033600
   0.99877500  0.66716300  0.33220300
   0.99885400  0.66696100  0.66696100
   0.33432800  0.00075900  0.00075900
   0.33609500  0.99564700  0.33609500
   0.33220300  0.99877500  0.66716300
   0.33609500  0.33609500  0.99564700
   0.33165500  0.33165500  0.66992100
   0.33220300  0.66716300  0.99877500
   0.33165500  0.66992100  0.33165500
   0.33427800  0.66221200  0.66221200
   0.66544700  0.00033600  0.00033600
   0.66716300  0.99877500  0.33220300
   0.66696100  0.99885400  0.66696100
   0.66716300  0.33220300  0.99877500
   0.66992100  0.33165500  0.33165500
   0.66221200  0.33427800  0.66221200
   0.66696100  0.66696100  0.99885400
   0.66221200  0.66221200  0.33427800
   0.66556000  0.66556000  0.66556000
   0.17051700  0.17051700  0.49713100
   0.16584500  0.16584500  0.83564100
   0.17051700  0.49713100  0.17051700
   0.16059400  0.50074500  0.50074500
   0.16561800  0.50017500  0.83332100
   0.16584500  0.83564100  0.16584500
   0.16561800  0.83332100  0.50017500
   0.16648700  0.83281100  0.83281100
   0.49713100  0.17051700  0.17051700
   0.50074500  0.16059400  0.50074500
   0.50017500  0.16561800  0.83332100
   0.50074500  0.50074500  0.16059400
   0.50040200  0.50040200  0.82851800
   0.50017500  0.83332100  0.16561800
   0.50040200  0.82851800  0.50040200
   0.49963800  0.83184200  0.83184200
   0.83564100  0.16584500  0.16584500
   0.83332100  0.16561800  0.50017500
   0.83281100  0.16648700  0.83281100
   0.83332100  0.50017500  0.16561800
   0.82851800  0.50040200  0.50040200
   0.83184200  0.49963800  0.83184200
   0.83281100  0.83281100  0.16648700
   0.83184200  0.83184200  0.49963800
   0.83307100  0.83307100  0.83307100
 
 position of ions in cartesian coordinates  (Angst):
   1.76419123  1.76419123  1.76419123
   3.97729751  3.97729751  3.97729751
   9.56323991  9.56323991  9.56323991
   0.00725985  0.00725985  3.19785367
   0.00321385  0.00321385  6.36501320
   0.00725985  3.19785367  0.00725985
   9.52338247  3.21475506  3.21475506
   9.55330185  3.17752801  6.38142677
   0.00321385  6.36501320  0.00321385
   9.55330185  6.38142677  3.17752801
   9.55405749  6.37949464  6.37949464
   3.19785367  0.00725985  0.00725985
   3.21475506  9.52338247  3.21475506
   3.17752801  9.55330185  6.38142677
   3.21475506  3.21475506  9.52338247
   3.17228638  3.17228638  6.40780709
   3.17752801  6.38142677  9.55330185
   3.17228638  6.40780709  3.17228638
   3.19737542  6.33407036  6.33407036
   6.36501320  0.00321385  0.00321385
   6.38142677  9.55330185  3.17752801
   6.37949464  9.55405749  6.37949464
   6.38142677  3.17752801  9.55330185
   6.40780709  3.17228638  3.17228638
   6.33407036  3.19737542  6.33407036
   6.37949464  6.37949464  9.55405749
   6.33407036  6.33407036  3.19737542
   6.36609405  6.36609405  6.36609405
   1.63099834  1.63099834  4.75506746
   1.58631058  1.58631058  7.99292204
   1.63099834  4.75506746  1.63099834
   1.53608466  4.78963544  4.78963544
   1.58413932  4.78418338  7.97073120
   1.58631058  7.99292204  1.58631058
   1.58413932  7.97073120  4.78418338
   1.59245132  7.96585304  7.96585304
   4.75506746  1.63099834  1.63099834
   4.78963544  1.53608466  4.78963544
   4.78418338  1.58413932  7.97073120
   4.78963544  4.78963544  1.53608466
   4.78635464  4.78635464  7.92479041
   4.78418338  7.97073120  1.58413932
   4.78635464  7.92479041  4.78635464
   4.77904696  7.95658453  7.95658453
   7.99292204  1.58631058  1.58631058
   7.97073120  1.58413932  4.78418338
   7.96585304  1.59245132  7.96585304
   7.97073120  4.78418338  1.58413932
   7.92479041  4.78635464  4.78635464
   7.95658453  4.77904696  7.95658453
   7.96585304  7.96585304  1.59245132
   7.95658453  7.95658453  4.77904696
   7.96833994  7.96833994  7.96833994
 


--------------------------------------------------------------------------------------------------------


 k-point  1 :   0.1250 0.1250 0.1250  plane waves:   15915
 k-point  2 :   0.3750 0.1250 0.1250  plane waves:   15901
 k-point  3 :  -0.3750 0.1250 0.1250  plane waves:   15901
 k-point  4 :  -0.1250 0.1250 0.1250  plane waves:   15915
 k-point  5 :   0.3750 0.3750 0.1250  plane waves:   15910
 k-point  6 :  -0.3750 0.3750 0.1250  plane waves:   15910
 k-point  7 :  -0.1250 0.3750 0.1250  plane waves:   15901
 k-point  8 :  -0.3750-0.3750 0.1250  plane waves:   15910
 k-point  9 :   0.3750 0.3750 0.3750  plane waves:   15867
 k-point 10 :  -0.3750 0.3750 0.3750  plane waves:   15867

 maximum and minimum number of plane-waves per node :     15915    15867

 maximum number of plane-waves:     15915
 maximum index in each direction: 
   IXMAX=   15   IYMAX=   15   IZMAX=   15
   IXMIN=  -15   IYMIN=  -15   IZMIN=  -15

 NGX is ok and might be reduce to  62
 NGY is ok and might be reduce to  62
 NGZ is ok and might be reduce to  62

 serial   3D FFT for wavefunctions
 parallel 3D FFT for charge:
    minimum data exchange during FFTs selected (reduces bandwidth)


 total amount of memory used by VASP on root node   231158. kBytes
========================================================================

   base      :      30000. kBytes
   nonlr-proj:      50765. kBytes
   fftplans  :       4920. kBytes
   grid      :      30392. kBytes
   one-center:       1648. kBytes
   wavefun   :     113433. kBytes
 
 Broyden mixing: mesh for mixing (old mesh)
   NGX = 31   NGY = 31   NGZ = 31
  (NGX  =128   NGY  =128   NGZ  =128)
  gives a total of  29791 points

 initial charge density was supplied:
 charge density of overlapping atoms calculated
 number of electron     635.0000000 magnetization      53.0000000
 keeping initial charge density in first step


--------------------------------------------------------------------------------------------------------


 Maximum index for non-local projection operator         5484
 Maximum index for augmentation-charges         1394 (set IRDMAX)


--------------------------------------------------------------------------------------------------------


 First call to EWALD:  gamma=   0.185
 Maximum number of real-space cells 3x 3x 3
 Maximum number of reciprocal cells 3x 3x 3

 FEWALD executed in parallel
    FEWALD:  cpu time    0.01: real time    0.01


----------------------------------------- Iteration    1(   1)  ---------------------------------------


    POTLOK:  cpu time    0.30: real time    0.52
    SETDIJ:  cpu time    0.05: real time    0.06
     EDDAV:  cpu time  133.38: real time  133.52
       DOS:  cpu time    0.00: real time    0.00
    --------------------------------------------
      LOOP:  cpu time  133.73: real time  134.13

 eigenvalue-minimisations  : 17200
 total energy-change (2. order) : 0.7135248E+04  (-0.2863914E+05)
 number of electron     635.0000000 magnetization      53.0000000
 augmentation part      635.0000000 magnetization      53.0000000

 Free energy of the ion-electron system (eV)
  ---------------------------------------------------
  alpha Z        PSCENC =      8177.14454612
  Ewald energy   TEWEN  =    -61839.43375289
  -1/2 Hartree   DENC   =     -8307.70672296
  -exchange  EXHF       =         0.00000000
  -V(xc)+E(xc)   XCENC  =      1835.11307890
  PAW double counting   =     43230.44359611   -42532.73462782
  entropy T*S    EENTRO =        -0.01849361
  eigenvalues    EBANDS =        13.49141573
  atomic energy  EATOM  =     66558.94894662
  ---------------------------------------------------
  free energy    TOTEN  =      7135.24798619 eV

  energy without entropy =     7135.26647981  energy(sigma->0) =     7135.25415073


--------------------------------------------------------------------------------------------------------




----------------------------------------- Iteration    1(   2)  ---------------------------------------


     EDDAV:  cpu time  131.36: real time  131.52
       DOS:  cpu time    0.00: real time    0.00
    --------------------------------------------
      LOOP:  cpu time  131.36: real time  131.54

 eigenvalue-minimisations  : 16800
 total energy-change (2. order) :-0.7207162E+04  (-0.6904982E+04)
 number of electron     635.0000000 magnetization      53.0000000
 augmentation part      635.0000000 magnetization      53.0000000

 Free energy of the ion-electron system (eV)
  ---------------------------------------------------
  alpha Z        PSCENC =      8177.14454612
  Ewald energy   TEWEN  =    -61839.43375289
  -1/2 Hartree   DENC   =     -8307.70672296
  -exchange  EXHF       =         0.00000000
  -V(xc)+E(xc)   XCENC  =      1835.11307890
  PAW double counting   =     43230.44359611   -42532.73462782
  entropy T*S    EENTRO =        -0.00709916
  eigenvalues    EBANDS =     -7193.68233440
  atomic energy  EATOM  =     66558.94894662
  ---------------------------------------------------
  free energy    TOTEN  =       -71.91436948 eV

  energy without entropy =      -71.90727032  energy(sigma->0) =      -71.91200309


--------------------------------------------------------------------------------------------------------




----------------------------------------- Iteration    1(   3)  ---------------------------------------


     EDDAV:  cpu time  148.99: real time  149.12
       DOS:  cpu time    0.00: real time    0.00
    --------------------------------------------
      LOOP:  cpu time  149.00: real time  149.15

 eigenvalue-minimisations  : 19680
 total energy-change (2. order) :-0.5885029E+03  (-0.5368740E+03)
 number of electron     635.0000000 magnetization      53.0000000
 augmentation part      635.0000000 magnetization      53.0000000

 Free energy of the ion-electron system (eV)
  ---------------------------------------------------
  alpha Z        PSCENC =      8177.14454612
  Ewald energy   TEWEN  =    -61839.43375289
  -1/2 Hartree   DENC   =     -8307.70672296
  -exchange  EXHF       =         0.00000000
  -V(xc)+E(xc)   XCENC  =      1835.11307890
  PAW double counting   =     43230.44359611   -42532.73462782
  entropy T*S    EENTRO =         0.00681644
  eigenvalues    EBANDS =     -7782.19915621
  atomic energy  EATOM  =     66558.94894662
  ---------------------------------------------------
  free energy    TOTEN  =      -660.41727569 eV

  energy without entropy =     -660.42409214  energy(sigma->0) =     -660.41954784


--------------------------------------------------------------------------------------------------------




----------------------------------------- Iteration    1(   4)  ---------------------------------------


     EDDAV:  cpu time  154.36: real time  154.51
       DOS:  cpu time    0.00: real time    0.00
    --------------------------------------------
      LOOP:  cpu time  154.37: real time  154.54

 eigenvalue-minimisations  : 20540
 total energy-change (2. order) :-0.3521721E+02  (-0.3379493E+02)
 number of electron     635.0000000 magnetization      53.0000000
 augmentation part      635.0000000 magnetization      53.0000000

 Free energy of the ion-electron system (eV)
  ---------------------------------------------------
  alpha Z        PSCENC =      8177.14454612
  Ewald energy   TEWEN  =    -61839.43375289
  -1/2 Hartree   DENC   =     -8307.70672296
  -exchange  EXHF       =         0.00000000
  -V(xc)+E(xc)   XCENC  =      1835.11307890
  PAW double counting   =     43230.44359611   -42532.73462782
  entropy T*S    EENTRO =         0.00791095
  eigenvalues    EBANDS =     -7817.41746253
  atomic energy  EATOM  =     66558.94894662
  ---------------------------------------------------
  free energy    TOTEN  =      -695.63448750 eV

  energy without entropy =     -695.64239845  energy(sigma->0) =     -695.63712449


--------------------------------------------------------------------------------------------------------




----------------------------------------- Iteration    1(   5)  ---------------------------------------


     EDDAV:  cpu time  162.89: real time  163.06
       DOS:  cpu time    0.00: real time    0.00
    CHARGE:  cpu time    5.62: real time    5.62
    MIXING:  cpu time    0.00: real time    0.01
    --------------------------------------------
      LOOP:  cpu time  168.52: real time  168.71

 eigenvalue-minimisations  : 22000
 total energy-change (2. order) :-0.1645115E+01  (-0.1632720E+01)
 number of electron     634.9999987 magnetization      30.2131428
 augmentation part      210.6835847 magnetization      25.8142784

 Broyden mixing:
  rms(total) = 0.40715E+01    rms(broyden)= 0.40715E+01
  rms(prec ) = 0.51028E+01
  weight for this iteration     100.00

 Free energy of the ion-electron system (eV)
  ---------------------------------------------------
  alpha Z        PSCENC =      8177.14454612
  Ewald energy   TEWEN  =    -61839.43375289
  -1/2 Hartree   DENC   =     -8307.70672296
  -exchange  EXHF       =         0.00000000
  -V(xc)+E(xc)   XCENC  =      1835.11307890
  PAW double counting   =     43230.44359611   -42532.73462782
  entropy T*S    EENTRO =         0.00885592
  eigenvalues    EBANDS =     -7819.06352280
  atomic energy  EATOM  =     66558.94894662
  ---------------------------------------------------
  free energy    TOTEN  =      -697.27960281 eV

  energy without entropy =     -697.28845873  energy(sigma->0) =     -697.28255478


--------------------------------------------------------------------------------------------------------




----------------------------------------- Iteration    1(   6)  ---------------------------------------


    POTLOK:  cpu time    0.29: real time    0.29
    SETDIJ:  cpu time    0.06: real time    0.06
     EDDAV:  cpu time  149.29: real time  149.44
       DOS:  cpu time    0.00: real time    0.00
    CHARGE:  cpu time    5.61: real time    5.61
    MIXING:  cpu time    0.01: real time    0.01
    --------------------------------------------
      LOOP:  cpu time  155.26: real time  155.44

 eigenvalue-minimisations  : 19580
 total energy-change (2. order) : 0.2503679E+02  (-0.5398413E+01)
 number of electron     634.9999986 magnetization      17.2539095
 augmentation part      214.6135239 magnetization      12.0176501

 Broyden mixing:
  rms(total) = 0.18916E+01    rms(broyden)= 0.18915E+01
  rms(prec ) = 0.24722E+01
  weight for this iteration     100.00

 eigenvalues of (default mixing * dielectric matrix)
  average eigenvalue GAMMA=   0.8589
  0.8589

 Free energy of the ion-electron system (eV)
  ---------------------------------------------------
  alpha Z        PSCENC =      8177.14454612
  Ewald energy   TEWEN  =    -61839.43375289
  -1/2 Hartree   DENC   =     -7731.85450708
  -exchange  EXHF       =         0.00000000
  -V(xc)+E(xc)   XCENC  =      1804.60861121
  PAW double counting   =     43207.59067143   -42628.02062096
  entropy T*S    EENTRO =         0.01284544
  eigenvalues    EBANDS =     -8221.23955280
  atomic energy  EATOM  =     66558.94894662
  ---------------------------------------------------
  free energy    TOTEN  =      -672.24281291 eV

  energy without entropy =     -672.25565835  energy(sigma->0) =     -672.24709473


--------------------------------------------------------------------------------------------------------




----------------------------------------- Iteration    1(   7)  ---------------------------------------


    POTLOK:  cpu time    0.29: real time    0.29
    SETDIJ:  cpu time    0.06: real time    0.06
     EDDAV:  cpu time  156.96: real time  157.10
       DOS:  cpu time    0.00: real time    0.00
    CHARGE:  cpu time    5.62: real time    5.63
    MIXING:  cpu time    0.01: real time    0.01
    --------------------------------------------
      LOOP:  cpu time  162.93: real time  163.12

 eigenvalue-minimisations  : 20860
 total energy-change (2. order) : 0.1305586E+01  (-0.2030788E+01)
 number of electron     634.9999987 magnetization       6.3907348
 augmentation part      216.0400382 magnetization       4.2092057

 Broyden mixing:
  rms(total) = 0.10074E+01    rms(broyden)= 0.10074E+01
  rms(prec ) = 0.14683E+01
  weight for this iteration     100.00

 eigenvalues of (default mixing * dielectric matrix)
  average eigenvalue GAMMA=   1.2868
  0.7340  1.8396

 Free energy of the ion-electron system (eV)
  ---------------------------------------------------
  alpha Z        PSCENC =      8177.14454612
  Ewald energy   TEWEN  =    -61839.43375289
  -1/2 Hartree   DENC   =     -7463.86425495
  -exchange  EXHF       =         0.00000000
  -V(xc)+E(xc)   XCENC  =      1789.56653432
  PAW double counting   =     43622.80320068   -43109.97907388
  entropy T*S    EENTRO =         0.01222405
  eigenvalues    EBANDS =     -8406.13559714
  atomic energy  EATOM  =     66558.94894662
  ---------------------------------------------------
  free energy    TOTEN  =      -670.93722707 eV

  energy without entropy =     -670.94945113  energy(sigma->0) =     -670.94130176


--------------------------------------------------------------------------------------------------------




----------------------------------------- Iteration    1(   8)  ---------------------------------------


    POTLOK:  cpu time    0.30: real time    0.30
    SETDIJ:  cpu time    0.06: real time    0.06
     EDDAV:  cpu time  159.91: real time  160.05
       DOS:  cpu time    0.00: real time    0.00
    CHARGE:  cpu time    5.67: real time    5.67
    MIXING:  cpu time    0.01: real time    0.01
    --------------------------------------------
      LOOP:  cpu time  165.95: real time  166.11

 eigenvalue-minimisations  : 21240
 total energy-change (2. order) : 0.8225024E+00  (-0.9413816E+00)
 number of electron     634.9999986 magnetization       3.2941010
 augmentation part      217.2825107 magnetization       2.4795617

 Broyden mixing:
  rms(total) = 0.39693E+00    rms(broyden)= 0.39692E+00
  rms(prec ) = 0.75900E+00
  weight for this iteration     100.00

 eigenvalues of (default mixing * dielectric matrix)
  average eigenvalue GAMMA=   1.1510
  2.0445  0.7981  0.6103

 Free energy of the ion-electron system (eV)
  ---------------------------------------------------
  alpha Z        PSCENC =      8177.14454612
  Ewald energy   TEWEN  =    -61839.43375289
  -1/2 Hartree   DENC   =     -7288.64604806
  -exchange  EXHF       =         0.00000000
  -V(xc)+E(xc)   XCENC  =      1780.52189266
  PAW double counting   =     44084.53833566   -43620.11704959
  entropy T*S    EENTRO =         0.01638539
  eigenvalues    EBANDS =     -8523.08798056
  atomic energy  EATOM  =     66558.94894662
  ---------------------------------------------------
  free energy    TOTEN  =      -670.11472466 eV

  energy without entropy =     -670.13111005  energy(sigma->0) =     -670.12018646


--------------------------------------------------------------------------------------------------------




----------------------------------------- Iteration    1(   9)  ---------------------------------------


    POTLOK:  cpu time    0.31: real time    0.31
    SETDIJ:  cpu time    0.06: real time    0.06
     EDDAV:  cpu time  160.47: real time  160.68
       DOS:  cpu time    0.00: real time    0.00
    CHARGE:  cpu time    5.66: real time    5.69
    MIXING:  cpu time    0.01: real time    0.01
    --------------------------------------------
      LOOP:  cpu time  166.51: real time  166.78

 eigenvalue-minimisations  : 21500
 total energy-change (2. order) : 0.1828362E+00  (-0.1898601E+00)
 number of electron     634.9999986 magnetization       1.7637644
 augmentation part      217.6037435 magnetization       1.2368918

 Broyden mixing:
  rms(total) = 0.18424E+00    rms(broyden)= 0.18424E+00
  rms(prec ) = 0.23717E+00
  weight for this iteration     100.00

 eigenvalues of (default mixing * dielectric matrix)
  average eigenvalue GAMMA=   1.1071
  2.1071  1.1131  0.7281  0.4799

 Free energy of the ion-electron system (eV)
  ---------------------------------------------------
  alpha Z        PSCENC =      8177.14454612
  Ewald energy   TEWEN  =    -61839.43375289
  -1/2 Hartree   DENC   =     -7259.41154582
  -exchange  EXHF       =         0.00000000
  -V(xc)+E(xc)   XCENC  =      1779.20795155
  PAW double counting   =     44329.01603891   -43875.35191890
  entropy T*S    EENTRO =         0.01044462
  eigenvalues    EBANDS =     -8540.06259869
  atomic energy  EATOM  =     66558.94894662
  ---------------------------------------------------
  free energy    TOTEN  =      -669.93188849 eV

  energy without entropy =     -669.94233311  energy(sigma->0) =     -669.93537003


--------------------------------------------------------------------------------------------------------




----------------------------------------- Iteration    1(  10)  ---------------------------------------


    POTLOK:  cpu time    0.29: real time    0.29
    SETDIJ:  cpu time    0.06: real time    0.06
     EDDAV:  cpu time  160.76: real time  160.92
       DOS:  cpu time    0.00: real time    0.00
    CHARGE:  cpu time    5.64: real time    5.65
    MIXING:  cpu time    0.01: real time    0.01
    --------------------------------------------
      LOOP:  cpu time  166.76: real time  166.94

 eigenvalue-minimisations  : 21640
 total energy-change (2. order) :-0.7479464E-02  (-0.3045015E-01)
 number of electron     634.9999987 magnetization       0.5531625
 augmentation part      217.5985765 magnetization       0.2863178

 Broyden mixing:
  rms(total) = 0.11191E+00    rms(broyden)= 0.11191E+00
  rms(prec ) = 0.17325E+00
  weight for this iteration     100.00

 eigenvalues of (default mixing * dielectric matrix)
  average eigenvalue GAMMA=   1.1763
  2.2114  1.7381  0.8196  0.6569  0.4552

 Free energy of the ion-electron system (eV)
  ---------------------------------------------------
  alpha Z        PSCENC =      8177.14454612
  Ewald energy   TEWEN  =    -61839.43375289
  -1/2 Hartree   DENC   =     -7271.87795030
  -exchange  EXHF       =         0.00000000
  -V(xc)+E(xc)   XCENC  =      1779.83247793
  PAW double counting   =     44574.07192961   -44122.67518811
  entropy T*S    EENTRO =         0.00966772
  eigenvalues    EBANDS =     -8525.96004464
  atomic energy  EATOM  =     66558.94894662
  ---------------------------------------------------
  free energy    TOTEN  =      -669.93936795 eV

  energy without entropy =     -669.94903567  energy(sigma->0) =     -669.94259052


--------------------------------------------------------------------------------------------------------




----------------------------------------- Iteration    1(  11)  ---------------------------------------


    POTLOK:  cpu time    0.28: real time    0.28
    SETDIJ:  cpu time    0.06: real time    0.06
     EDDAV:  cpu time  159.73: real time  159.89
       DOS:  cpu time    0.00: real time    0.00
    CHARGE:  cpu time    5.62: real time    5.63
    MIXING:  cpu time    0.01: real time    0.01
    --------------------------------------------
      LOOP:  cpu time  165.71: real time  165.90

 eigenvalue-minimisations  : 21540
 total energy-change (2. order) : 0.1117116E-01  (-0.1026931E-01)
 number of electron     634.9999986 magnetization       0.0556475
 augmentation part      217.5074010 magnetization      -0.0294278

 Broyden mixing:
  rms(total) = 0.36226E-01    rms(broyden)= 0.36225E-01
  rms(prec ) = 0.56135E-01
  weight for this iteration     100.00

 eigenvalues of (default mixing * dielectric matrix)
  average eigenvalue GAMMA=   1.1527
  2.4772  1.8435  0.9028  0.7106  0.4410  0.5412

 Free energy of the ion-electron system (eV)
  ---------------------------------------------------
  alpha Z        PSCENC =      8177.14454612
  Ewald energy   TEWEN  =    -61839.43375289
  -1/2 Hartree   DENC   =     -7283.85671340
  -exchange  EXHF       =         0.00000000
  -V(xc)+E(xc)   XCENC  =      1780.44310713
  PAW double counting   =     44775.03041850   -44324.92409975
  entropy T*S    EENTRO =         0.01023390
  eigenvalues    EBANDS =     -8513.29088301
  atomic energy  EATOM  =     66558.94894662
  ---------------------------------------------------
  free energy    TOTEN  =      -669.92819679 eV

  energy without entropy =     -669.93843069  energy(sigma->0) =     -669.93160809


--------------------------------------------------------------------------------------------------------




----------------------------------------- Iteration    1(  12)  ---------------------------------------


    POTLOK:  cpu time    0.28: real time    0.28
    SETDIJ:  cpu time    0.06: real time    0.06
     EDDAV:  cpu time  158.45: real time  158.66
       DOS:  cpu time    0.00: real time    0.00
    CHARGE:  cpu time    5.78: real time    5.79
    MIXING:  cpu time    0.01: real time    0.01
    --------------------------------------------
      LOOP:  cpu time  164.58: real time  164.82

 eigenvalue-minimisations  : 21360
 total energy-change (2. order) :-0.2329977E-02  (-0.2249956E-02)
 number of electron     634.9999986 magnetization      -0.0461257
 augmentation part      217.4797181 magnetization      -0.0679743

 Broyden mixing:
  rms(total) = 0.16869E-01    rms(broyden)= 0.16868E-01
  rms(prec ) = 0.34054E-01
  weight for this iteration     100.00

 eigenvalues of (default mixing * dielectric matrix)
  average eigenvalue GAMMA=   1.0787
  2.5205  1.8163  0.9233  0.7572  0.6346  0.4700  0.4293

 Free energy of the ion-electron system (eV)
  ---------------------------------------------------
  alpha Z        PSCENC =      8177.14454612
  Ewald energy   TEWEN  =    -61839.43375289
  -1/2 Hartree   DENC   =     -7284.50241871
  -exchange  EXHF       =         0.00000000
  -V(xc)+E(xc)   XCENC  =      1780.47894759
  PAW double counting   =     44838.04261087   -44388.74046658
  entropy T*S    EENTRO =         0.01035199
  eigenvalues    EBANDS =     -8511.87929176
  atomic energy  EATOM  =     66558.94894662
  ---------------------------------------------------
  free energy    TOTEN  =      -669.93052677 eV

  energy without entropy =     -669.94087876  energy(sigma->0) =     -669.93397743


--------------------------------------------------------------------------------------------------------




----------------------------------------- Iteration    1(  13)  ---------------------------------------


    POTLOK:  cpu time    0.30: real time    0.30
    SETDIJ:  cpu time    0.05: real time    0.05
     EDDAV:  cpu time  159.63: real time  159.91
       DOS:  cpu time    0.00: real time    0.00
    CHARGE:  cpu time    5.62: real time    5.66
    MIXING:  cpu time    0.01: real time    0.01
    --------------------------------------------
      LOOP:  cpu time  165.62: real time  165.96

 eigenvalue-minimisations  : 21480
 total energy-change (2. order) : 0.6557803E-03  (-0.3888125E-03)
 number of electron     634.9999986 magnetization      -0.0386530
 augmentation part      217.4848895 magnetization      -0.0387120

 Broyden mixing:
  rms(total) = 0.62540E-02    rms(broyden)= 0.62538E-02
  rms(prec ) = 0.89462E-02
  weight for this iteration     100.00

 eigenvalues of (default mixing * dielectric matrix)
  average eigenvalue GAMMA=   1.0444
  2.5283  1.7801  0.9182  0.9182  0.7163  0.5890  0.4780  0.4270

 Free energy of the ion-electron system (eV)
  ---------------------------------------------------
  alpha Z        PSCENC =      8177.14454612
  Ewald energy   TEWEN  =    -61839.43375289
  -1/2 Hartree   DENC   =     -7283.20234559
  -exchange  EXHF       =         0.00000000
  -V(xc)+E(xc)   XCENC  =      1780.42363396
  PAW double counting   =     44846.66092517   -44397.52071508
  entropy T*S    EENTRO =         0.01009405
  eigenvalues    EBANDS =     -8512.96120333
  atomic energy  EATOM  =     66558.94894662
  ---------------------------------------------------
  free energy    TOTEN  =      -669.92987099 eV

  energy without entropy =     -669.93996504  energy(sigma->0) =     -669.93323567


--------------------------------------------------------------------------------------------------------




----------------------------------------- Iteration    1(  14)  ---------------------------------------


    POTLOK:  cpu time    0.29: real time    0.29
    SETDIJ:  cpu time    0.06: real time    0.06
     EDDAV:  cpu time  154.43: real time  154.74
       DOS:  cpu time    0.00: real time    0.00
    CHARGE:  cpu time    5.72: real time    5.76
    MIXING:  cpu time    0.01: real time    0.01
    --------------------------------------------
      LOOP:  cpu time  160.52: real time  160.88

 eigenvalue-minimisations  : 20540
 total energy-change (2. order) : 0.7073108E-04  (-0.6008667E-04)
 number of electron     634.9999986 magnetization      -0.0166959
 augmentation part      217.4912252 magnetization      -0.0121729

 Broyden mixing:
  rms(total) = 0.32984E-02    rms(broyden)= 0.32982E-02
  rms(prec ) = 0.43218E-02
  weight for this iteration     100.00

 eigenvalues of (default mixing * dielectric matrix)
  average eigenvalue GAMMA=   1.1163
  2.5430  1.8339  1.8339  0.9691  0.7771  0.6652  0.5354  0.4238  0.4649

 Free energy of the ion-electron system (eV)
  ---------------------------------------------------
  alpha Z        PSCENC =      8177.14454612
  Ewald energy   TEWEN  =    -61839.43375289
  -1/2 Hartree   DENC   =     -7282.66977324
  -exchange  EXHF       =         0.00000000
  -V(xc)+E(xc)   XCENC  =      1780.39834416
  PAW double counting   =     44845.07918645   -44395.81979494
  entropy T*S    EENTRO =         0.01011704
  eigenvalues    EBANDS =     -8513.58761957
  atomic energy  EATOM  =     66558.94894662
  ---------------------------------------------------
  free energy    TOTEN  =      -669.92980026 eV

  energy without entropy =     -669.93991729  energy(sigma->0) =     -669.93317260


--------------------------------------------------------------------------------------------------------




----------------------------------------- Iteration    1(  15)  ---------------------------------------


    POTLOK:  cpu time    0.26: real time    0.26
    SETDIJ:  cpu time    0.06: real time    0.06
     EDDAV:  cpu time  157.67: real time  157.81
       DOS:  cpu time    0.00: real time    0.00
    CHARGE:  cpu time    5.69: real time    5.69
    MIXING:  cpu time    0.01: real time    0.01
    --------------------------------------------
      LOOP:  cpu time  163.69: real time  163.85

 eigenvalue-minimisations  : 21120
 total energy-change (2. order) : 0.5413612E-04  (-0.1843953E-04)
 number of electron     634.9999986 magnetization      -0.0060020
 augmentation part      217.4970445 magnetization      -0.0033241

 Broyden mixing:
  rms(total) = 0.18359E-02    rms(broyden)= 0.18358E-02
  rms(prec ) = 0.26505E-02
  weight for this iteration     100.00

 eigenvalues of (default mixing * dielectric matrix)
  average eigenvalue GAMMA=   1.0973
  2.5589  2.1590  1.7816  0.8724  0.8724  0.7060  0.6312  0.5090  0.4226  0.4598

 Free energy of the ion-electron system (eV)
  ---------------------------------------------------
  alpha Z        PSCENC =      8177.14454612
  Ewald energy   TEWEN  =    -61839.43375289
  -1/2 Hartree   DENC   =     -7282.28159946
  -exchange  EXHF       =         0.00000000
  -V(xc)+E(xc)   XCENC  =      1780.38050995
  PAW double counting   =     44842.80633580   -44393.29235193
  entropy T*S    EENTRO =         0.01006273
  eigenvalues    EBANDS =     -8514.21244305
  atomic energy  EATOM  =     66558.94894662
  ---------------------------------------------------
  free energy    TOTEN  =      -669.92974612 eV

  energy without entropy =     -669.93980885  energy(sigma->0) =     -669.93310036


--------------------------------------------------------------------------------------------------------




----------------------------------------- Iteration    1(  16)  ---------------------------------------


    POTLOK:  cpu time    0.28: real time    0.28
    SETDIJ:  cpu time    0.06: real time    0.06
     EDDAV:  cpu time  126.71: real time  127.02
       DOS:  cpu time    0.00: real time    0.00
    CHARGE:  cpu time    5.63: real time    5.65
    MIXING:  cpu time    0.01: real time    0.01
    --------------------------------------------
      LOOP:  cpu time  132.69: real time  133.03

 eigenvalue-minimisations  : 15920
 total energy-change (2. order) : 0.1844243E-04  (-0.3045245E-05)
 number of electron     634.9999986 magnetization      -0.0014837
 augmentation part      217.4974612 magnetization      -0.0006964

 Broyden mixing:
  rms(total) = 0.89286E-03    rms(broyden)= 0.89284E-03
  rms(prec ) = 0.12563E-02
  weight for this iteration     100.00

 eigenvalues of (default mixing * dielectric matrix)
  average eigenvalue GAMMA=   1.0964
  2.5882  2.3543  1.6518  1.0305  1.0305  0.7789  0.6846  0.5631  0.4230  0.4617
  0.4938

 Free energy of the ion-electron system (eV)
  ---------------------------------------------------
  alpha Z        PSCENC =      8177.14454612
  Ewald energy   TEWEN  =    -61839.43375289
  -1/2 Hartree   DENC   =     -7282.40002888
  -exchange  EXHF       =         0.00000000
  -V(xc)+E(xc)   XCENC  =      1780.38650069
  PAW double counting   =     44842.64129027   -44392.98300231
  entropy T*S    EENTRO =         0.01007288
  eigenvalues    EBANDS =     -8514.24430016
  atomic energy  EATOM  =     66558.94894662
  ---------------------------------------------------
  free energy    TOTEN  =      -669.92972768 eV

  energy without entropy =     -669.93980055  energy(sigma->0) =     -669.93308530


--------------------------------------------------------------------------------------------------------




----------------------------------------- Iteration    1(  17)  ---------------------------------------


    POTLOK:  cpu time    0.30: real time    0.30
    SETDIJ:  cpu time    0.06: real time    0.06
     EDDAV:  cpu time   98.73: real time   98.82
       DOS:  cpu time    0.01: real time    0.00
    --------------------------------------------
      LOOP:  cpu time   99.09: real time   99.21

 eigenvalue-minimisations  : 11040
 total energy-change (2. order) : 0.7822615E-05  (-0.1141856E-05)
 number of electron     634.9999986 magnetization      -0.0014837
 augmentation part      217.4974612 magnetization      -0.0006964

 Free energy of the ion-electron system (eV)
  ---------------------------------------------------
  alpha Z        PSCENC =      8177.14454612
  Ewald energy   TEWEN  =    -61839.43375289
  -1/2 Hartree   DENC   =     -7282.66006859
  -exchange  EXHF       =         0.00000000
  -V(xc)+E(xc)   XCENC  =      1780.39917441
  PAW double counting   =     44843.15006518   -44393.41655748
  entropy T*S    EENTRO =         0.01007760
  eigenvalues    EBANDS =     -8514.07215082
  atomic energy  EATOM  =     66558.94894662
  ---------------------------------------------------
  free energy    TOTEN  =      -669.92971985 eV

  energy without entropy =     -669.93979746  energy(sigma->0) =     -669.93307906


--------------------------------------------------------------------------------------------------------




 average (electrostatic) potential at core
  the test charge radii are     1.1249  1.1823
  (the norm of the test charge is              1.0000)
       1 -72.8997       2 -38.6420       3 -38.6469       4 -38.6367       5 -38.6864
       6 -38.6367       7 -38.5770       8 -38.6912       9 -38.6864      10 -38.6912
      11 -38.6579      12 -38.6367      13 -38.5770      14 -38.6912      15 -38.5770
      16 -38.5081      17 -38.6912      18 -38.5081      19 -38.6619      20 -38.6864
      21 -38.6912      22 -38.6579      23 -38.6912      24 -38.5081      25 -38.6619
      26 -38.6579      27 -38.6619      28 -38.5779      29 -38.6848      30 -38.6020
      31 -38.6848      32 -38.5150      33 -38.6711      34 -38.6020      35 -38.6711
      36 -38.6627      37 -38.6848      38 -38.5150      39 -38.6711      40 -38.5150
      41 -38.5506      42 -38.6711      43 -38.5506      44 -38.6310      45 -38.6020
      46 -38.6711      47 -38.6627      48 -38.6711      49 -38.5506      50 -38.6310
      51 -38.6627      52 -38.6310      53 -38.6170
 
 
 
[...]
      7.97073      4.78418      1.58414        -0.003785      0.012141     -0.012616
      7.92479      4.78635      4.78635         0.011031      0.000828      0.009989
      7.95658      4.77905      7.95658        -0.000432     -0.002134     -0.000717
      7.96585      7.96585      1.59245        -0.003286     -0.003286     -0.001103
      7.95658      7.95658      4.77905        -0.002478     -0.002478     -0.001345
      7.96834      7.96834      7.96834        -0.002797     -0.002797      0.002599
 -----------------------------------------------------------------------------------
    total drift:                               -0.000398      0.002887     -0.004203


--------------------------------------------------------------------------------------------------------



  FREE ENERGIE OF THE ION-ELECTRON SYSTEM (eV)
  ---------------------------------------------------
  free  energy   TOTEN  =      -669.91369658 eV

  energy  without entropy=     -669.92336349  energy(sigma->0) =     -669.91691888
 
 d Force =-0.8627633E-04[-0.642E-01, 0.640E-01]  d Energy =-0.1291324E-03 0.429E-04
 d Force = 0.7656851E-01[-0.250E+01, 0.265E+01]  d Ewald  = 0.7578596E-01 0.783E-03


--------------------------------------------------------------------------------------------------------


    POTLOK:  cpu time    0.37: real time    0.38


--------------------------------------------------------------------------------------------------------


 stress matrix after NEB project (eV)
     -7.07517     -3.86723     -3.89381
     -3.86723     -7.07517     -3.89381
     -3.89381     -3.89381     -7.08219
  FORCES: max atom, RMS     0.721943    0.099167
  FORCE total and by dimension    0.721943    0.642095
  Stress total and by dimension   15.518745    7.082185
 Finite differences progress:
  Degree of freedom:   3/  3
  Displacement:        2/  2
  Total:               6/  6
 
 SECOND DERIVATIVES (NOT SYMMETRIZED)
 ------------------------------------
               2X          2Y          2Z 
  2X   -12.843742    4.756374    4.756374
  2Y     4.755715  -12.808498    4.755715
  2Z     4.741384    4.741384  -12.824648
 
 
 Eigenvectors and eigenvalues of the dynamical matrix
 ----------------------------------------------------
 
 
   1 f  =    4.835406 THz    30.381752 2PiTHz  161.291778 cm-1    19.997639 meV
             X         Y         Z           dx          dy          dz
      1.764191  1.764191  1.764191            0           0           0  
      3.977298  3.977298  3.977298     0.816730   -0.392022   -0.423403  
      9.563240  9.563240  9.563240            0           0           0  
      0.007260  0.007260  3.197854            0           0           0  
      0.003214  0.003214  6.365013            0           0           0  
      0.007260  3.197854  0.007260            0           0           0  
      9.523382  3.214755  3.214755            0           0           0  
      9.553302  3.177528  6.381427            0           0           0  
      0.003214  6.365013  0.003214            0           0           0  
      9.553302  6.381427  3.177528            0           0           0  
      9.554057  6.379495  6.379495            0           0           0  
      3.197854  0.007260  0.007260            0           0           0  
      3.214755  9.523382  3.214755            0           0           0  
      3.177528  9.553302  6.381427            0           0           0  
      3.214755  3.214755  9.523382            0           0           0  
      3.172286  3.172286  6.407807            0           0           0  
      3.177528  6.381427  9.553302            0           0           0  
      3.172286  6.407807  3.172286            0           0           0  
      3.197375  6.334070  6.334070            0           0           0  
      6.365013  0.003214  0.003214            0           0           0  
      6.381427  9.553302  3.177528            0           0           0  
      6.379495  9.554057  6.379495            0           0           0  
      6.381427  3.177528  9.553302            0           0           0  
      6.407807  3.172286  3.172286            0           0           0  
      6.334070  3.197375  6.334070            0           0           0  
      6.379495  6.379495  9.554057            0           0           0  
      6.334070  6.334070  3.197375            0           0           0  
      6.366094  6.366094  6.366094            0           0           0  
      1.630998  1.630998  4.755067            0           0           0  
      1.586311  1.586311  7.992922            0           0           0  
      1.630998  4.755067  1.630998            0           0           0  
      1.536085  4.789635  4.789635            0           0           0  
      1.584139  4.784183  7.970731            0           0           0  
      1.586311  7.992922  1.586311            0           0           0  
      1.584139  7.970731  4.784183            0           0           0  
      1.592451  7.965853  7.965853            0           0           0  
      4.755067  1.630998  1.630998            0           0           0  
      4.789635  1.536085  4.789635            0           0           0  
      4.784183  1.584139  7.970731            0           0           0  
      4.789635  4.789635  1.536085            0           0           0  
      4.786355  4.786355  7.924790            0           0           0  
      4.784183  7.970731  1.584139            0           0           0  
      4.786355  7.924790  4.786355            0           0           0  
      4.779047  7.956585  7.956585            0           0           0  
      7.992922  1.586311  1.586311            0           0           0  
      7.970731  1.584139  4.784183            0           0           0  
      7.965853  1.592451  7.965853            0           0           0  
      7.970731  4.784183  1.584139            0           0           0  
      7.924790  4.786355  4.786355            0           0           0  
      7.956585  4.779047  7.956585            0           0           0  
      7.965853  7.965853  1.592451            0           0           0  
      7.956585  7.956585  4.779047            0           0           0  
      7.968340  7.968340  7.968340            0           0           0  
 
   2 f  =    4.832195 THz    30.361575 2PiTHz  161.184661 cm-1    19.984358 meV
             X         Y         Z           dx          dy          dz
      1.764191  1.764191  1.764191            0           0           0  
      3.977298  3.977298  3.977298    -0.018513    0.715596   -0.698269  
      9.563240  9.563240  9.563240            0           0           0  
      0.007260  0.007260  3.197854            0           0           0  
      0.003214  0.003214  6.365013            0           0           0  
      0.007260  3.197854  0.007260            0           0           0  
      9.523382  3.214755  3.214755            0           0           0  
      9.553302  3.177528  6.381427            0           0           0  
      0.003214  6.365013  0.003214            0           0           0  
      9.553302  6.381427  3.177528            0           0           0  
      9.554057  6.379495  6.379495            0           0           0  
      3.197854  0.007260  0.007260            0           0           0  
      3.214755  9.523382  3.214755            0           0           0  
      3.177528  9.553302  6.381427            0           0           0  
      3.214755  3.214755  9.523382            0           0           0  
      3.172286  3.172286  6.407807            0           0           0  
      3.177528  6.381427  9.553302            0           0           0  
      3.172286  6.407807  3.172286            0           0           0  
      3.197375  6.334070  6.334070            0           0           0  
      6.365013  0.003214  0.003214            0           0           0  
      6.381427  9.553302  3.177528            0           0           0  
      6.379495  9.554057  6.379495            0           0           0  
      6.381427  3.177528  9.553302            0           0           0  
      6.407807  3.172286  3.172286            0           0           0  
      6.334070  3.197375  6.334070            0           0           0  
      6.379495  6.379495  9.554057            0           0           0  
      6.334070  6.334070  3.197375            0           0           0  
      6.366094  6.366094  6.366094            0           0           0  
      1.630998  1.630998  4.755067            0           0           0  
      1.586311  1.586311  7.992922            0           0           0  
      1.630998  4.755067  1.630998            0           0           0  
      1.536085  4.789635  4.789635            0           0           0  
      1.584139  4.784183  7.970731            0           0           0  
      1.586311  7.992922  1.586311            0           0           0  
      1.584139  7.970731  4.784183            0           0           0  
      1.592451  7.965853  7.965853            0           0           0  
      4.755067  1.630998  1.630998            0           0           0  
      4.789635  1.536085  4.789635            0           0           0  
      4.784183  1.584139  7.970731            0           0           0  
      4.789635  4.789635  1.536085            0           0           0  
      4.786355  4.786355  7.924790            0           0           0  
      4.784183  7.970731  1.584139            0           0           0  
      4.786355  7.924790  4.786355            0           0           0  
      4.779047  7.956585  7.956585            0           0           0  
      7.992922  1.586311  1.586311            0           0           0  
      7.970731  1.584139  4.784183            0           0           0  
      7.965853  1.592451  7.965853            0           0           0  
      7.970731  4.784183  1.584139            0           0           0  
      7.924790  4.786355  4.786355            0           0           0  
      7.956585  4.779047  7.956585            0           0           0  
      7.965853  7.965853  1.592451            0           0           0  
      7.956585  7.956585  4.779047            0           0           0  
      7.968340  7.968340  7.968340            0           0           0  
 
   3 f  =    2.101859 THz    13.206371 2PiTHz   70.110472 cm-1     8.692594 meV
             X         Y         Z           dx          dy          dz
      1.764191  1.764191  1.764191            0           0           0  
      3.977298  3.977298  3.977298     0.576722    0.578136    0.577191  
      9.563240  9.563240  9.563240            0           0           0  
      0.007260  0.007260  3.197854            0           0           0  
      0.003214  0.003214  6.365013            0           0           0  
      0.007260  3.197854  0.007260            0           0           0  
      9.523382  3.214755  3.214755            0           0           0  
      9.553302  3.177528  6.381427            0           0           0  
      0.003214  6.365013  0.003214            0           0           0  
      9.553302  6.381427  3.177528            0           0           0  
      9.554057  6.379495  6.379495            0           0           0  
      3.197854  0.007260  0.007260            0           0           0  
      3.214755  9.523382  3.214755            0           0           0  
      3.177528  9.553302  6.381427            0           0           0  
      3.214755  3.214755  9.523382            0           0           0  
      3.172286  3.172286  6.407807            0           0           0  
      3.177528  6.381427  9.553302            0           0           0  
      3.172286  6.407807  3.172286            0           0           0  
      3.197375  6.334070  6.334070            0           0           0  
      6.365013  0.003214  0.003214            0           0           0  
      6.381427  9.553302  3.177528            0           0           0  
      6.379495  9.554057  6.379495            0           0           0  
      6.381427  3.177528  9.553302            0           0           0  
      6.407807  3.172286  3.172286            0           0           0  
      6.334070  3.197375  6.334070            0           0           0  
      6.379495  6.379495  9.554057            0           0           0  
      6.334070  6.334070  3.197375            0           0           0  
      6.366094  6.366094  6.366094            0           0           0  
      1.630998  1.630998  4.755067            0           0           0  
      1.586311  1.586311  7.992922            0           0           0  
      1.630998  4.755067  1.630998            0           0           0  
      1.536085  4.789635  4.789635            0           0           0  
      1.584139  4.784183  7.970731            0           0           0  
      1.586311  7.992922  1.586311            0           0           0  
      1.584139  7.970731  4.784183            0           0           0  
      1.592451  7.965853  7.965853            0           0           0  
      4.755067  1.630998  1.630998            0           0           0  
      4.789635  1.536085  4.789635            0           0           0  
      4.784183  1.584139  7.970731            0           0           0  
      4.789635  4.789635  1.536085            0           0           0  
      4.786355  4.786355  7.924790            0           0           0  
      4.784183  7.970731  1.584139            0           0           0  
      4.786355  7.924790  4.786355            0           0           0  
      4.779047  7.956585  7.956585            0           0           0  
      7.992922  1.586311  1.586311            0           0           0  
      7.970731  1.584139  4.784183            0           0           0  
      7.965853  1.592451  7.965853            0           0           0  
      7.970731  4.784183  1.584139            0           0           0  
      7.924790  4.786355  4.786355            0           0           0  
      7.956585  4.779047  7.956585            0           0           0  
      7.965853  7.965853  1.592451            0           0           0  
      7.956585  7.956585  4.779047            0           0           0  
      7.968340  7.968340  7.968340            0           0           0  
 
 Finite differences POTIM=  5.000000000000000E-002
  LATTYP: Found a simple cubic cell.
 ALAT       =     9.5650190000
  
  Lattice vectors:
  
 A1 = (   9.5650190000,   0.0000000000,   0.0000000000)
 A2 = (   0.0000000000,   9.5650190000,   0.0000000000)
 A3 = (   0.0000000000,   0.0000000000,   9.5650190000)


Analysis of symmetry for initial positions (statically):
=====================================================================
 Subroutine PRICEL returns:
 Original cell was already a primitive cell.
 

 Routine SETGRP: Setting up the symmetry group for a 
 simple cubic supercell.


 Subroutine GETGRP returns: Found  6 space group operations
 (whereof  6 operations were pure point group operations)
 out of a pool of 48 trial point group operations.


The static configuration has the point symmetry C_3v.


Analysis of symmetry for dynamics (positions and initial velocities):
=====================================================================
 Subroutine PRICEL returns:
 Original cell was already a primitive cell.
 

 Routine SETGRP: Setting up the symmetry group for a 
 simple cubic supercell.


 Subroutine GETGRP returns: Found  6 space group operations
 (whereof  6 operations were pure point group operations)
 out of a pool of 48 trial point group operations.


The dynamic configuration has the point symmetry C_3v.


Analysis of constrained symmetry for selective dynamics:
=====================================================================
 Subroutine PRICEL returns:
 Original cell was already a primitive cell.
 

 Routine SETGRP: Setting up the symmetry group for a 
 simple cubic supercell.


 Subroutine GETGRP returns: Found  6 space group operations
 (whereof  6 operations were pure point group operations)
 out of a pool of 48 trial point group operations.


The constrained configuration has the point symmetry C_3v.


Analysis of magnetic symmetry:
=====================================================================

 Subroutine MAGSYM returns: Found  6 space group operations
 (whereof  6 operations were pure point group operations)
 out of a pool of  6 trial space group operations
 (whereof  6 operations were pure point group operations)
 and found also     1 'primitive' translations


The magnetic configuration has the point symmetry C_3v.
 
 KPOINTS: Automatic kpoint scheme                 

Automatic generation of k-mesh.
Space group operators:
 irot       det(A)        alpha          n_x          n_y          n_z        tau_x        tau_y        tau_z
    1     1.000000     0.000000     1.000000     0.000000     0.000000     0.000000     0.000000     0.000000
    2     1.000000   120.000000    -0.577350    -0.577350    -0.577350     0.000000     0.000000     0.000000
    3     1.000000   120.000000     0.577350     0.577350     0.577350     0.000000     0.000000     0.000000
    4    -1.000000   180.000000     0.000000    -0.707107     0.707107     0.000000     0.000000     0.000000
    5    -1.000000   180.000000     0.707107    -0.707107     0.000000     0.000000     0.000000     0.000000
    6    -1.000000   180.000000     0.707107     0.000000    -0.707107     0.000000     0.000000     0.000000
 
 Subroutine IBZKPT returns following result:
 ===========================================
 
 Found     10 irreducible k-points:
 
 Following reciprocal coordinates:
            Coordinates               Weight
  0.125000  0.125000  0.125000      2.000000
  0.375000  0.125000  0.125000      6.000000
 -0.375000  0.125000  0.125000      6.000000
 -0.125000  0.125000  0.125000      6.000000
  0.375000  0.375000  0.125000      6.000000
 -0.375000  0.375000  0.125000     12.000000
 -0.125000  0.375000  0.125000     12.000000
 -0.375000 -0.375000  0.125000      6.000000
  0.375000  0.375000  0.375000      2.000000
 -0.375000  0.375000  0.375000      6.000000
 
 Following cartesian coordinates:
            Coordinates               Weight
  0.013068  0.013068  0.013068      2.000000
  0.039205  0.013068  0.013068      6.000000
 -0.039205  0.013068  0.013068      6.000000
 -0.013068  0.013068  0.013068      6.000000
  0.039205  0.039205  0.013068      6.000000
 -0.039205  0.039205  0.013068     12.000000
 -0.013068  0.039205  0.013068     12.000000
 -0.039205 -0.039205  0.013068      6.000000
  0.039205  0.039205  0.039205      2.000000
 -0.039205  0.039205  0.039205      6.000000
 
     LOOP+:  cpu time 2794.09: real time 2796.93
    4ORBIT:  cpu time    0.00: real time    0.00

 total amount of memory used by VASP on root node   231158. kBytes
========================================================================

   base      :      30000. kBytes
   nonlr-proj:      50765. kBytes
   fftplans  :       4920. kBytes
   grid      :      30392. kBytes
   one-center:       1648. kBytes
   wavefun   :     113433. kBytes
 
  
  
 General timing and accounting informations for this job:
 ========================================================
  
                  Total CPU time used (sec):    20187.814
                            User time (sec):    20175.809
                          System time (sec):       12.005
                         Elapsed time (sec):    20210.689
  
                   Maximum memory used (kb):      697896.
                   Average memory used (kb):           0.
  
                          Minor page faults:       514406
                          Major page faults:            0
                 Voluntary context switches:      1745774
