 vasp.5.3.3 18Dez12 (build Aug 26 2013 15:55:55) complex                        
  
 executed on             LinuxIFC date 2015.04.17  08:47:14
 running on   20 total cores
 distrk:  each k-point on   20 cores,    1 groups
 distr:  one band on NCORES_PER_BAND=   1 cores,   20 groups


--------------------------------------------------------------------------------------------------------


 INCAR:
 POTCAR:    PAW_PBE Ag 02Apr2005                  
 POTCAR:   PAW_PBE W_pv 06Sep2000                 

 ----------------------------------------------------------------------------- 
|                                                                             |
|           W    W    AA    RRRRR   N    N  II  N    N   GGGG   !!!           |
|           W    W   A  A   R    R  NN   N  II  NN   N  G    G  !!!           |
|           W    W  A    A  R    R  N N  N  II  N N  N  G       !!!           |
|           W WW W  AAAAAA  RRRRR   N  N N  II  N  N N  G  GGG   !            |
|           WW  WW  A    A  R   R   N   NN  II  N   NN  G    G                |
|           W    W  A    A  R    R  N    N  II  N    N   GGGG   !!!           |
|                                                                             |
|      For optimal performance we recommend that you set                      |
|        NPAR = 4 - approx SQRT( number of cores)                             |
|      (number of cores/NPAR must be integer)                                 |
|      This setting will greatly improve the performance of VASP for DFT.     |
|      The default NPAR=number of cores might be grossly inefficient          |
|      on modern multi-core architectures or massively parallel machines.     |
|      Do your own testing.                                                   |
|      Unfortunately you need to use the default for hybrid, GW and RPA       |
|      calculations.                                                          |
|                                                                             |
 ----------------------------------------------------------------------------- 

 POTCAR:    PAW_PBE Ag 02Apr2005                  
   VRHFIN =Ag : s1 d10                                                          
   LEXCH  = PE                                                                  
   EATOM  =  1037.2671 eV,   76.2370 Ry                                         
                                                                                
   TITEL  = PAW_PBE Ag 02Apr2005                                                
   LULTRA =        F    use ultrasoft PP ?                                      
   IUNSCR =        1    unscreen: 0-lin 1-nonlin 2-no                           
   RPACOR =    2.000    partial core radius                                     
   POMASS =  107.868; ZVAL   =   11.000    mass and valenz                      
   RCORE  =    2.500    outmost cutoff radius                                   
   RWIGS  =    2.840; RWIGS  =    1.503    wigner-seitz radius (au A)           
   ENMAX  =  249.844; ENMIN  =  187.383 eV                                      
   ICORE  =        3    local potential                                         
   LCOR   =        T    correct aug charges                                     
   LPAW   =        T    paw PP                                                  
   EAUG   =  412.496                                                            
   DEXC   =     .000                                                            
   RMAX   =    2.917    core radius for proj-oper                               
   RAUG   =    1.300    factor for augmentation sphere                          
   RDEP   =    2.576    radius for radial grids                                 
   QCUT   =   -4.285; QGAM   =    8.570    optimization parameters              
                                                                                
   Description                                                                  
     l     E      TYP  RCUT    TYP  RCUT                                        
     2   .000     23  2.400                                                     
     2   .000     23  2.400                                                     
     0   .000     23  2.400                                                     
     0   .000     23  2.400                                                     
     1  -.100     23  2.500                                                     
     1  2.000     23  2.500                                                     
     3  -.300     23  2.400                                                     
  local pseudopotential read in
  partial core-charges read in
  atomic valenz-charges read in
  non local Contribution for L=           2  read in
    real space projection operators read in
  non local Contribution for L=           2  read in
    real space projection operators read in
  non local Contribution for L=           0  read in
    real space projection operators read in
  non local Contribution for L=           0  read in
    real space projection operators read in
  non local Contribution for L=           1  read in
    real space projection operators read in
  non local Contribution for L=           1  read in
    real space projection operators read in
    PAW grid and wavefunctions read in
 
   number of l-projection  operators is LMAX  =           6
   number of lm-projection operators is LMMAX =          18
 
 POTCAR:   PAW_PBE W_pv 06Sep2000                 
   VRHFIN =W : 5p6s5d                                                           
   LEXCH  = PE                                                                  
   EATOM  =  1260.0376 eV,   92.6101 Ry                                         
                                                                                
   TITEL  = PAW_PBE W_pv 06Sep2000                                              
   LULTRA =        F    use ultrasoft PP ?                                      
   IUNSCR =        1    unscreen: 0-lin 1-nonlin 2-no                           
   RPACOR =    2.330    partial core radius                                     
   POMASS =  183.850; ZVAL   =   12.000    mass and valenz                      
   RCORE  =    2.500    outmost cutoff radius                                   
   RWIGS  =    2.750; RWIGS  =    1.455    wigner-seitz radius (au A)           
   ENMAX  =  223.065; ENMIN  =  167.299 eV                                      
   RCLOC  =    2.147    cutoff for local pot                                    
   LCOR   =        T    correct aug charges                                     
   LPAW   =        T    paw PP                                                  
   EAUG   =  373.438                                                            
   DEXC   =    -.018                                                            
   RMAX   =    3.087    core radius for proj-oper                               
   RAUG   =    1.300    factor for augmentation sphere                          
   RDEP   =    2.539    radius for radial grids                                 
   QCUT   =   -4.049; QGAM   =    8.098    optimization parameters              
                                                                                
   Description                                                                  
     l     E      TYP  RCUT    TYP  RCUT                                        
     1   .000     23  2.500                                                     
     1  -.200     23  2.500                                                     
     2   .000     23  2.500                                                     
     2   .000     23  2.500                                                     
     0   .000     23  2.500                                                     
     0   .000     23  2.500                                                     
     3   .000      7   .000                                                     
  local pseudopotential read in
  partial core-charges read in
  atomic valenz-charges read in
  non local Contribution for L=           1  read in
    real space projection operators read in
  non local Contribution for L=           1  read in
    real space projection operators read in
  non local Contribution for L=           2  read in
    real space projection operators read in
  non local Contribution for L=           2  read in
    real space projection operators read in
  non local Contribution for L=           0  read in
    real space projection operators read in
  non local Contribution for L=           0  read in
    real space projection operators read in
    PAW grid and wavefunctions read in
 
   number of l-projection  operators is LMAX  =           6
   number of lm-projection operators is LMMAX =          18
 
 Optimization of the real space projectors (new method)

 maximal supplied QI-value         = 15.12
 optimisation between [QCUT,QGAM] = [ 10.13, 20.41] = [ 28.73,116.64] Ry 
 Optimized for a Real-space Cutoff    1.55 Angstroem

   l    n(q)    QCUT    max X(q) W(low)/X(q) W(high)/X(q)  e(spline) 
   2      9    10.129     4.129    0.25E-04    0.14E-04    0.66E-07
   2      9    10.129    12.470    0.12E-03    0.58E-04    0.12E-06
   0      9    10.129    16.625    0.16E-04    0.12E-05    0.80E-08
   0      9    10.129    93.080    0.43E-04    0.60E-05    0.80E-07
   1      9    10.129     6.858    0.12E-04    0.37E-05    0.21E-07
   1      9    10.129    10.884    0.10E-03    0.55E-05    0.10E-06
 Optimization of the real space projectors (new method)

 maximal supplied QI-value         = 15.12
 optimisation between [QCUT,QGAM] = [ 10.13, 20.41] = [ 28.73,116.64] Ry 
 Optimized for a Real-space Cutoff    1.65 Angstroem

   l    n(q)    QCUT    max X(q) W(low)/X(q) W(high)/X(q)  e(spline) 
   1     10    10.129     4.922    0.37E-05    0.98E-05    0.22E-07
   1     10    10.129     5.461    0.53E-04    0.42E-05    0.17E-06
   2      9    10.129     3.602    0.19E-04    0.55E-05    0.62E-07
   2      9    10.129    60.440    0.17E-03    0.27E-03    0.52E-06
   0     10    10.129    21.769    0.24E-04    0.29E-05    0.97E-08
   0     10    10.129    71.369    0.49E-04    0.40E-04    0.14E-06
  PAW_PBE Ag 02Apr2005                  :
 energy of atom  1       EATOM=-1037.2671
 kinetic energy error for atom=    0.0091 (will be added to EATOM!!)
 PAW_PBE W_pv 06Sep2000                 :
 energy of atom  2       EATOM=-1260.0376
 kinetic energy error for atom=    0.0051 (will be added to EATOM!!)
 
 
 POSCAR: Ag1 W52                                 
  positions in direct lattice
  velocities in cartesian coordinates
 exchange correlation table for  LEXCH =        8
   RHO(1)=    0.500       N(1)  =     2000
   RHO(2)=  100.500       N(2)  =     4000

 VTST: version 3.0c, (03/27/13)

 CHAIN: initializing optimizer
 
 OPT: Using VASP Dynamics algorithm
 CHAIN: Read ICHAIN            0
 
 POSCAR: Ag1 W52                                 
  positions in direct lattice
  velocities in cartesian coordinates
 


--------------------------------------------------------------------------------------------------------


 ion  position               nearest neighbor table
   1  0.250  0.250  0.250-   6 2.71  12 2.71  14 2.71  28 2.71  30 2.71  36 2.71  11 3.42   5 3.42
                            31 3.42   3 3.42  37 3.42  39 3.42
   2  0.001  0.001  0.001-  29 2.74  33 2.74  45 2.74  35 2.76  47 2.76  51 2.76  53 2.77  11 3.16
                             5 3.16   3 3.16  19 3.19   8 3.19   4 3.19
   3  0.004  0.004  0.331-  33 2.73  45 2.73  28 2.74  34 2.78  46 2.78  51 2.78  52 2.81   2 3.16
                            12 3.18   6 3.18   4 3.22  20 3.22   9 3.22   1 3.42
   4  1.000  1.000  0.667-  28 2.70  53 2.75  47 2.76  35 2.76  52 2.77  46 2.77  34 2.77  29 2.77
                            10 3.19  21 3.19   2 3.19  13 3.19   7 3.19   3 3.22
   5  0.004  0.331  0.004-  29 2.73  45 2.73  30 2.74  32 2.78  48 2.78  47 2.78  50 2.81   2 3.16
                            14 3.18   6 3.18   8 3.22  22 3.22   7 3.22   1 3.42
   6  0.994  0.336  0.336-  49 2.70   1 2.71  48 2.74  46 2.74  31 2.74  45 2.74  30 2.83  28 2.83
                            23 3.16   7 3.17   9 3.17   3 3.18   5 3.18
   7  0.000  0.334  0.668-  28 2.74  32 2.74  50 2.75  47 2.75  49 2.77  29 2.78  31 2.78  46 2.78
                             6 3.17  10 3.18  15 3.19   4 3.19  24 3.20   5 3.22
   8  1.000  0.667  1.000-  30 2.70  53 2.75  51 2.76  35 2.76  50 2.77  48 2.77  32 2.77  33 2.77
                            10 3.19  25 3.19   2 3.19  16 3.19   9 3.19   5 3.22
   9  0.000  0.668  0.334-  30 2.74  34 2.74  52 2.75  51 2.75  49 2.77  33 2.78  31 2.78  48 2.78
                             6 3.17  10 3.18  17 3.19   8 3.19  26 3.20   3 3.22
  10  0.001  0.667  0.667-  32 2.75  34 2.75  49 2.77  50 2.77  52 2.77  53 2.77  35 2.77  31 2.81
                            18 3.18   9 3.18   7 3.18   4 3.19   8 3.19  27 3.20
  11  0.331  0.004  0.004-  29 2.73  33 2.73  36 2.74  38 2.78  42 2.78  35 2.78  44 2.81   2 3.16
                            14 3.18  12 3.18  19 3.22  16 3.22  13 3.22   1 3.42
  12  0.336  0.994  0.336-  43 2.70   1 2.71  42 2.74  34 2.74  37 2.74  33 2.74  36 2.83  28 2.83
                            17 3.16  20 3.17  13 3.17   3 3.18  11 3.18
  13  0.334  0.000  0.668-  28 2.74  38 2.74  44 2.75  35 2.75  43 2.77  29 2.78  37 2.78  34 2.78
                            12 3.17  21 3.18  15 3.19   4 3.19  18 3.20  11 3.22
  14  0.336  0.336  0.994-  41 2.70   1 2.71  38 2.74  32 2.74  39 2.74  29 2.74  36 2.83  30 2.83
                            15 3.16  22 3.17  16 3.17   5 3.18  11 3.18
  15  0.334  0.334  0.663-  31 2.73  37 2.73  40 2.74  28 2.74  41 2.77  32 2.78  38 2.78  29 2.80
                            14 3.16  18 3.18  24 3.18  13 3.19   7 3.19
  16  0.334  0.668  0.000-  30 2.74  42 2.74  44 2.75  35 2.75  41 2.77  33 2.78  39 2.78  32 2.78
                            14 3.17  25 3.18  17 3.19   8 3.19  18 3.20  11 3.22
  17  0.334  0.663  0.334-  39 2.73  31 2.73  40 2.74  30 2.74  43 2.77  42 2.78  34 2.78  33 2.80
                            12 3.16  18 3.18  26 3.18   9 3.19  16 3.19
  18  0.333  0.666  0.666-  32 2.75  34 2.75  41 2.76  43 2.76  40 2.76  35 2.77  44 2.77  31 2.78
                            10 3.18  17 3.18  15 3.18  27 3.19  13 3.20  16 3.20
  19  0.667  1.000  1.000-  36 2.70  53 2.75  51 2.76  47 2.76  44 2.77  38 2.77  42 2.77  45 2.77
                            21 3.19  25 3.19   2 3.19  22 3.19  20 3.19  11 3.22
  20  0.668  0.000  0.334-  36 2.74  46 2.74  52 2.75  51 2.75  43 2.77  45 2.78  37 2.78  42 2.78
                            12 3.17  21 3.18  23 3.19  19 3.19  26 3.20   3 3.22
  21  0.667  0.001  0.667-  38 2.75  46 2.75  43 2.77  44 2.77  52 2.77  53 2.77  47 2.77  37 2.81
                            24 3.18  20 3.18  13 3.18   4 3.19  19 3.19  27 3.20
  22  0.668  0.334  0.000-  36 2.74  48 2.74  50 2.75  47 2.75  41 2.77  45 2.78  39 2.78  38 2.78
                            14 3.17  25 3.18  23 3.19  19 3.19  24 3.20   5 3.22
  23  0.663  0.334  0.334-  39 2.73  37 2.73  40 2.74  36 2.74  49 2.77  48 2.78  46 2.78  45 2.80
                             6 3.16  24 3.18  26 3.18  20 3.19  22 3.19
  24  0.666  0.333  0.666-  38 2.75  46 2.75  41 2.76  49 2.76  40 2.76  47 2.77  50 2.77  37 2.78
                            21 3.18  23 3.18  15 3.18  27 3.19   7 3.20  22 3.20
  25  0.667  0.667  0.001-  42 2.75  48 2.75  41 2.77  44 2.77  50 2.77  53 2.77  51 2.77  39 2.81
                            26 3.18  22 3.18  16 3.18   8 3.19  19 3.19  27 3.20
  26  0.666  0.666  0.333-  42 2.75  48 2.75  43 2.76  49 2.76  40 2.76  51 2.77  52 2.77  39 2.78
                            25 3.18  23 3.18  17 3.18  27 3.19  20 3.20   9 3.20
  27  0.666  0.666  0.666-  41 2.75  43 2.75  49 2.75  44 2.77  50 2.77  52 2.77  40 2.77  53 2.77
                            18 3.19  24 3.19  26 3.19  25 3.20  21 3.20  10 3.20
  28  0.164  0.164  0.506-   4 2.70   1 2.71   7 2.74  13 2.74   3 2.74  15 2.74   6 2.83  12 2.83
                            29 3.16  34 3.17  46 3.17  37 3.18  31 3.18
  29  0.166  0.166  0.837-   5 2.73  11 2.73   2 2.74  14 2.74   4 2.77  13 2.78   7 2.78  15 2.80
                            28 3.16  35 3.18  47 3.18  38 3.19  32 3.19
  30  0.164  0.506  0.164-   8 2.70   1 2.71   9 2.74  16 2.74   5 2.74  17 2.74   6 2.83  14 2.83
                            33 3.16  32 3.17  48 3.17  39 3.18  31 3.18
  31  0.169  0.496  0.496-  15 2.73  17 2.73   6 2.74   7 2.78   9 2.78  18 2.78  10 2.81  40 3.16
                            30 3.18  28 3.18  49 3.22  34 3.22  32 3.22   1 3.42
  32  0.166  0.500  0.832-  14 2.74   7 2.74  10 2.75  18 2.75   8 2.77  15 2.78   5 2.78  16 2.78
                            30 3.17  50 3.18  29 3.19  41 3.19  35 3.20  31 3.22
  33  0.166  0.837  0.166-   3 2.73  11 2.73   2 2.74  12 2.74   8 2.77   9 2.78  16 2.78  17 2.80
                            30 3.16  35 3.18  51 3.18  42 3.19  34 3.19
  34  0.166  0.832  0.500-  12 2.74   9 2.74  10 2.75  18 2.75   4 2.77  17 2.78   3 2.78  13 2.78
                            28 3.17  52 3.18  33 3.19  43 3.19  35 3.20  31 3.22
  35  0.167  0.834  0.834-  13 2.75  16 2.75   4 2.76   8 2.76   2 2.76  18 2.77  10 2.77  11 2.78
                            44 3.18  33 3.18  29 3.18  53 3.19  32 3.20  34 3.20
  36  0.506  0.164  0.164-  19 2.70   1 2.71  20 2.74  22 2.74  11 2.74  23 2.74  12 2.83  14 2.83
                            45 3.16  42 3.17  38 3.17  37 3.18  39 3.18
  37  0.496  0.169  0.496-  15 2.73  23 2.73  12 2.74  20 2.78  13 2.78  24 2.78  21 2.81  40 3.16
                            36 3.18  28 3.18  43 3.22  46 3.22  38 3.22   1 3.42
  38  0.500  0.166  0.832-  14 2.74  13 2.74  21 2.75  24 2.75  19 2.77  15 2.78  11 2.78  22 2.78
                            36 3.17  44 3.18  29 3.19  41 3.19  47 3.20  37 3.22
  39  0.496  0.496  0.169-  17 2.73  23 2.73  14 2.74  22 2.78  16 2.78  26 2.78  25 2.81  40 3.16
                            36 3.18  30 3.18  41 3.22  42 3.22  48 3.22   1 3.42
  40  0.499  0.499  0.499-  15 2.74  17 2.74  23 2.74  18 2.76  24 2.76  26 2.76  27 2.77  31 3.16
                            37 3.16  39 3.16  43 3.19  49 3.19  41 3.19
  41  0.500  0.500  0.833-  14 2.70  27 2.75  24 2.76  18 2.76  25 2.77  22 2.77  16 2.77  15 2.77
                            44 3.19  50 3.19  40 3.19  38 3.19  32 3.19  39 3.22
  42  0.500  0.832  0.166-  12 2.74  16 2.74  25 2.75  26 2.75  19 2.77  17 2.78  11 2.78  20 2.78
                            36 3.17  44 3.18  33 3.19  43 3.19  51 3.20  39 3.22
  43  0.500  0.833  0.500-  12 2.70  27 2.75  26 2.76  18 2.76  21 2.77  20 2.77  13 2.77  17 2.77
                            44 3.19  52 3.19  40 3.19  34 3.19  42 3.19  37 3.22
  44  0.499  0.833  0.833-  13 2.75  16 2.75  19 2.77  21 2.77  25 2.77  27 2.77  18 2.77  11 2.81
                            35 3.18  38 3.18  42 3.18  41 3.19  43 3.19  53 3.20
  45  0.837  0.166  0.166-   3 2.73   5 2.73   2 2.74   6 2.74  19 2.77  20 2.78  22 2.78  23 2.80
                            36 3.16  47 3.18  51 3.18  48 3.19  46 3.19
  46  0.832  0.166  0.500-   6 2.74  20 2.74  21 2.75  24 2.75   4 2.77  23 2.78   3 2.78   7 2.78
                            28 3.17  52 3.18  45 3.19  49 3.19  47 3.20  37 3.22
  47  0.834  0.167  0.834-   7 2.75  22 2.75  19 2.76   4 2.76   2 2.76  24 2.77  21 2.77   5 2.78
                            50 3.18  45 3.18  29 3.18  53 3.19  38 3.20  46 3.20
  48  0.832  0.500  0.166-   6 2.74  22 2.74  25 2.75  26 2.75   8 2.77  23 2.78   5 2.78   9 2.78
                            30 3.17  50 3.18  45 3.19  49 3.19  51 3.20  39 3.22
  49  0.833  0.500  0.500-   6 2.70  27 2.75  26 2.76  24 2.76  10 2.77   7 2.77   9 2.77  23 2.77
                            50 3.19  52 3.19  40 3.19  46 3.19  48 3.19  31 3.22
  50  0.833  0.499  0.833-   7 2.75  22 2.75   8 2.77  10 2.77  25 2.77  27 2.77  24 2.77   5 2.81
                            47 3.18  32 3.18  48 3.18  41 3.19  49 3.19  53 3.20
  51  0.834  0.834  0.167-   9 2.75  20 2.75  19 2.76   8 2.76   2 2.76  26 2.77  25 2.77   3 2.78
                            52 3.18  45 3.18  33 3.18  53 3.19  42 3.20  48 3.20
  52  0.833  0.833  0.499-   9 2.75  20 2.75   4 2.77  10 2.77  21 2.77  27 2.77  26 2.77   3 2.81
                            51 3.18  46 3.18  34 3.18  49 3.19  43 3.19  53 3.20
  53  0.834  0.834  0.834-   4 2.75   8 2.75  19 2.75  10 2.77  21 2.77  25 2.77   2 2.77  27 2.77
                            35 3.19  47 3.19  51 3.19  52 3.20  44 3.20  50 3.20
 
  LATTYP: Found a simple cubic cell.
 ALAT       =     9.5650190000
  
  Lattice vectors:
  
 A1 = (   9.5650190000,   0.0000000000,   0.0000000000)
 A2 = (   0.0000000000,   9.5650190000,   0.0000000000)
 A3 = (   0.0000000000,   0.0000000000,   9.5650190000)


Analysis of symmetry for initial positions (statically):
=====================================================================
 Subroutine PRICEL returns:
 Original cell was already a primitive cell.
 

 Routine SETGRP: Setting up the symmetry group for a 
 simple cubic supercell.


 Subroutine GETGRP returns: Found 12 space group operations
 (whereof  6 operations were pure point group operations)
 out of a pool of 48 trial point group operations.


The static configuration has the point symmetry C_3v.
 The point group associated with its full space group is D_3d.


Analysis of symmetry for dynamics (positions and initial velocities):
=====================================================================
 Subroutine PRICEL returns:
 Original cell was already a primitive cell.
 

 Routine SETGRP: Setting up the symmetry group for a 
 simple cubic supercell.


 Subroutine GETGRP returns: Found 12 space group operations
 (whereof  6 operations were pure point group operations)
 out of a pool of 48 trial point group operations.


The dynamic configuration has the point symmetry C_3v.
 The point group associated with its full space group is D_3d.


Analysis of constrained symmetry for selective dynamics:
=====================================================================
 Subroutine PRICEL returns:
 Original cell was already a primitive cell.
 

 Routine SETGRP: Setting up the symmetry group for a 
 simple cubic supercell.


 Subroutine GETGRP returns: Found 12 space group operations
 (whereof  6 operations were pure point group operations)
 out of a pool of 48 trial point group operations.


The constrained configuration has the point symmetry C_3v.
 The point group associated with its full space group is D_3d.


Analysis of magnetic symmetry:
=====================================================================

 Subroutine MAGSYM returns: Found 12 space group operations
 (whereof  6 operations were pure point group operations)
 out of a pool of 12 trial space group operations
 (whereof  6 operations were pure point group operations)
 and found also     1 'primitive' translations


The magnetic configuration has the point symmetry C_3v.
 The point group associated with its full space group is D_3d.


 irot  :   1
 --------------------------------------------------------------------
 isymop:   1   0   0
           0   1   0
           0   0   1

 gtrans:     0.0000000     0.0000000     0.0000000

 ptrans:     0.0000000     0.0000000     0.0000000
 rotmap:
 (   1->   1)  (   2->   2)  (   3->   3)  (   4->   4)  (   5->   5) 
 (   6->   6)  (   7->   7)  (   8->   8)  (   9->   9)  (  10->  10) 
 (  11->  11)  (  12->  12)  (  13->  13)  (  14->  14)  (  15->  15) 
 (  16->  16)  (  17->  17)  (  18->  18)  (  19->  19)  (  20->  20) 
 (  21->  21)  (  22->  22)  (  23->  23)  (  24->  24)  (  25->  25) 
 (  26->  26)  (  27->  27)  (  28->  28)  (  29->  29)  (  30->  30) 
 (  31->  31)  (  32->  32)  (  33->  33)  (  34->  34)  (  35->  35) 
 (  36->  36)  (  37->  37)  (  38->  38)  (  39->  39)  (  40->  40) 
 (  41->  41)  (  42->  42)  (  43->  43)  (  44->  44)  (  45->  45) 
 (  46->  46)  (  47->  47)  (  48->  48)  (  49->  49)  (  50->  50) 
 (  51->  51)  (  52->  52)  (  53->  53) 


 irot  :   2
 --------------------------------------------------------------------
 isymop:   0   0   1
           1   0   0
           0   1   0

 gtrans:     0.0000000     0.0000000     0.0000000

 ptrans:     0.0000000     0.0000000     0.0000000
 rotmap:
 (   1->   1)  (   2->   2)  (   3->  11)  (   4->  19)  (   5->   3) 
 (   6->  12)  (   7->  20)  (   8->   4)  (   9->  13)  (  10->  21) 
 (  11->   5)  (  12->  14)  (  13->  22)  (  14->   6)  (  15->  23) 
 (  16->   7)  (  17->  15)  (  18->  24)  (  19->   8)  (  20->  16) 
 (  21->  25)  (  22->   9)  (  23->  17)  (  24->  26)  (  25->  10) 
 (  26->  18)  (  27->  27)  (  28->  36)  (  29->  45)  (  30->  28) 
 (  31->  37)  (  32->  46)  (  33->  29)  (  34->  38)  (  35->  47) 
 (  36->  30)  (  37->  39)  (  38->  48)  (  39->  31)  (  40->  40) 
 (  41->  49)  (  42->  32)  (  43->  41)  (  44->  50)  (  45->  33) 
 (  46->  42)  (  47->  51)  (  48->  34)  (  49->  43)  (  50->  52) 
 (  51->  35)  (  52->  44)  (  53->  53) 


 irot  :   3
 --------------------------------------------------------------------
 isymop:   0   1   0
           0   0   1
           1   0   0

 gtrans:     0.0000000     0.0000000     0.0000000

 ptrans:     0.0000000     0.0000000     0.0000000
 rotmap:
 (   1->   1)  (   2->   2)  (   3->   5)  (   4->   8)  (   5->  11) 
 (   6->  14)  (   7->  16)  (   8->  19)  (   9->  22)  (  10->  25) 
 (  11->   3)  (  12->   6)  (  13->   9)  (  14->  12)  (  15->  17) 
 (  16->  20)  (  17->  23)  (  18->  26)  (  19->   4)  (  20->   7) 
 (  21->  10)  (  22->  13)  (  23->  15)  (  24->  18)  (  25->  21) 
 (  26->  24)  (  27->  27)  (  28->  30)  (  29->  33)  (  30->  36) 
 (  31->  39)  (  32->  42)  (  33->  45)  (  34->  48)  (  35->  51) 
 (  36->  28)  (  37->  31)  (  38->  34)  (  39->  37)  (  40->  40) 
 (  41->  43)  (  42->  46)  (  43->  49)  (  44->  52)  (  45->  29) 
 (  46->  32)  (  47->  35)  (  48->  38)  (  49->  41)  (  50->  44) 
 (  51->  47)  (  52->  50)  (  53->  53) 


 irot  :   4
 --------------------------------------------------------------------
 isymop:   1   0   0
           0   0   1
           0   1   0

 gtrans:     0.0000000     0.0000000     0.0000000

 ptrans:     0.0000000     0.0000000     0.0000000
 rotmap:
 (   1->   1)  (   2->   2)  (   3->   5)  (   4->   8)  (   5->   3) 
 (   6->   6)  (   7->   9)  (   8->   4)  (   9->   7)  (  10->  10) 
 (  11->  11)  (  12->  14)  (  13->  16)  (  14->  12)  (  15->  17) 
 (  16->  13)  (  17->  15)  (  18->  18)  (  19->  19)  (  20->  22) 
 (  21->  25)  (  22->  20)  (  23->  23)  (  24->  26)  (  25->  21) 
 (  26->  24)  (  27->  27)  (  28->  30)  (  29->  33)  (  30->  28) 
 (  31->  31)  (  32->  34)  (  33->  29)  (  34->  32)  (  35->  35) 
 (  36->  36)  (  37->  39)  (  38->  42)  (  39->  37)  (  40->  40) 
 (  41->  43)  (  42->  38)  (  43->  41)  (  44->  44)  (  45->  45) 
 (  46->  48)  (  47->  51)  (  48->  46)  (  49->  49)  (  50->  52) 
 (  51->  47)  (  52->  50)  (  53->  53) 


 irot  :   5
 --------------------------------------------------------------------
 isymop:   0   1   0
           1   0   0
           0   0   1

 gtrans:     0.0000000     0.0000000     0.0000000

 ptrans:     0.0000000     0.0000000     0.0000000
 rotmap:
 (   1->   1)  (   2->   2)  (   3->   3)  (   4->   4)  (   5->  11) 
 (   6->  12)  (   7->  13)  (   8->  19)  (   9->  20)  (  10->  21) 
 (  11->   5)  (  12->   6)  (  13->   7)  (  14->  14)  (  15->  15) 
 (  16->  22)  (  17->  23)  (  18->  24)  (  19->   8)  (  20->   9) 
 (  21->  10)  (  22->  16)  (  23->  17)  (  24->  18)  (  25->  25) 
 (  26->  26)  (  27->  27)  (  28->  28)  (  29->  29)  (  30->  36) 
 (  31->  37)  (  32->  38)  (  33->  45)  (  34->  46)  (  35->  47) 
 (  36->  30)  (  37->  31)  (  38->  32)  (  39->  39)  (  40->  40) 
 (  41->  41)  (  42->  48)  (  43->  49)  (  44->  50)  (  45->  33) 
 (  46->  34)  (  47->  35)  (  48->  42)  (  49->  43)  (  50->  44) 
 (  51->  51)  (  52->  52)  (  53->  53) 


 irot  :   6
 --------------------------------------------------------------------
 isymop:   0   0   1
           0   1   0
           1   0   0

 gtrans:     0.0000000     0.0000000     0.0000000

 ptrans:     0.0000000     0.0000000     0.0000000
 rotmap:
 (   1->   1)  (   2->   2)  (   3->  11)  (   4->  19)  (   5->   5) 
 (   6->  14)  (   7->  22)  (   8->   8)  (   9->  16)  (  10->  25) 
 (  11->   3)  (  12->  12)  (  13->  20)  (  14->   6)  (  15->  23) 
 (  16->   9)  (  17->  17)  (  18->  26)  (  19->   4)  (  20->  13) 
 (  21->  21)  (  22->   7)  (  23->  15)  (  24->  24)  (  25->  10) 
 (  26->  18)  (  27->  27)  (  28->  36)  (  29->  45)  (  30->  30) 
 (  31->  39)  (  32->  48)  (  33->  33)  (  34->  42)  (  35->  51) 
 (  36->  28)  (  37->  37)  (  38->  46)  (  39->  31)  (  40->  40) 
 (  41->  49)  (  42->  34)  (  43->  43)  (  44->  52)  (  45->  29) 
 (  46->  38)  (  47->  47)  (  48->  32)  (  49->  41)  (  50->  50) 
 (  51->  35)  (  52->  44)  (  53->  53) 


 irot  :   7
 --------------------------------------------------------------------
 isymop:  -1   0   0
           0  -1   0
           0   0  -1

 gtrans:     0.5000000     0.5000000     0.5000000

 ptrans:     0.0000000     0.0000000     0.0000000
 rotmap:
 (   1->   1)  (   2->  40)  (   3->  39)  (   4->  41)  (   5->  37) 
 (   6->  36)  (   7->  38)  (   8->  43)  (   9->  42)  (  10->  44) 
 (  11->  31)  (  12->  30)  (  13->  32)  (  14->  28)  (  15->  29) 
 (  16->  34)  (  17->  33)  (  18->  35)  (  19->  49)  (  20->  48) 
 (  21->  50)  (  22->  46)  (  23->  45)  (  24->  47)  (  25->  52) 
 (  26->  51)  (  27->  53)  (  28->  14)  (  29->  15)  (  30->  12) 
 (  31->  11)  (  32->  13)  (  33->  17)  (  34->  16)  (  35->  18) 
 (  36->   6)  (  37->   5)  (  38->   7)  (  39->   3)  (  40->   2) 
 (  41->   4)  (  42->   9)  (  43->   8)  (  44->  10)  (  45->  23) 
 (  46->  22)  (  47->  24)  (  48->  20)  (  49->  19)  (  50->  21) 
 (  51->  26)  (  52->  25)  (  53->  27) 


 irot  :   8
 --------------------------------------------------------------------
 isymop:   0   0  -1
          -1   0   0
           0  -1   0

 gtrans:     0.5000000     0.5000000     0.5000000

 ptrans:     0.0000000     0.0000000     0.0000000
 rotmap:
 (   1->   1)  (   2->  40)  (   3->  31)  (   4->  49)  (   5->  39) 
 (   6->  30)  (   7->  48)  (   8->  41)  (   9->  32)  (  10->  50) 
 (  11->  37)  (  12->  28)  (  13->  46)  (  14->  36)  (  15->  45) 
 (  16->  38)  (  17->  29)  (  18->  47)  (  19->  43)  (  20->  34) 
 (  21->  52)  (  22->  42)  (  23->  33)  (  24->  51)  (  25->  44) 
 (  26->  35)  (  27->  53)  (  28->   6)  (  29->  23)  (  30->  14) 
 (  31->   5)  (  32->  22)  (  33->  15)  (  34->   7)  (  35->  24) 
 (  36->  12)  (  37->   3)  (  38->  20)  (  39->  11)  (  40->   2) 
 (  41->  19)  (  42->  13)  (  43->   4)  (  44->  21)  (  45->  17) 
 (  46->   9)  (  47->  26)  (  48->  16)  (  49->   8)  (  50->  25) 
 (  51->  18)  (  52->  10)  (  53->  27) 


 irot  :   9
 --------------------------------------------------------------------
 isymop:   0  -1   0
           0   0  -1
          -1   0   0

 gtrans:     0.5000000     0.5000000     0.5000000

 ptrans:     0.0000000     0.0000000     0.0000000
 rotmap:
 (   1->   1)  (   2->  40)  (   3->  37)  (   4->  43)  (   5->  31) 
 (   6->  28)  (   7->  34)  (   8->  49)  (   9->  46)  (  10->  52) 
 (  11->  39)  (  12->  36)  (  13->  42)  (  14->  30)  (  15->  33) 
 (  16->  48)  (  17->  45)  (  18->  51)  (  19->  41)  (  20->  38) 
 (  21->  44)  (  22->  32)  (  23->  29)  (  24->  35)  (  25->  50) 
 (  26->  47)  (  27->  53)  (  28->  12)  (  29->  17)  (  30->   6) 
 (  31->   3)  (  32->   9)  (  33->  23)  (  34->  20)  (  35->  26) 
 (  36->  14)  (  37->  11)  (  38->  16)  (  39->   5)  (  40->   2) 
 (  41->   8)  (  42->  22)  (  43->  19)  (  44->  25)  (  45->  15) 
 (  46->  13)  (  47->  18)  (  48->   7)  (  49->   4)  (  50->  10) 
 (  51->  24)  (  52->  21)  (  53->  27) 


 irot  :  10
 --------------------------------------------------------------------
 isymop:  -1   0   0
           0   0  -1
           0  -1   0

 gtrans:     0.5000000     0.5000000     0.5000000

 ptrans:     0.0000000     0.0000000     0.0000000
 rotmap:
 (   1->   1)  (   2->  40)  (   3->  37)  (   4->  43)  (   5->  39) 
 (   6->  36)  (   7->  42)  (   8->  41)  (   9->  38)  (  10->  44) 
 (  11->  31)  (  12->  28)  (  13->  34)  (  14->  30)  (  15->  33) 
 (  16->  32)  (  17->  29)  (  18->  35)  (  19->  49)  (  20->  46) 
 (  21->  52)  (  22->  48)  (  23->  45)  (  24->  51)  (  25->  50) 
 (  26->  47)  (  27->  53)  (  28->  12)  (  29->  17)  (  30->  14) 
 (  31->  11)  (  32->  16)  (  33->  15)  (  34->  13)  (  35->  18) 
 (  36->   6)  (  37->   3)  (  38->   9)  (  39->   5)  (  40->   2) 
 (  41->   8)  (  42->   7)  (  43->   4)  (  44->  10)  (  45->  23) 
 (  46->  20)  (  47->  26)  (  48->  22)  (  49->  19)  (  50->  25) 
 (  51->  24)  (  52->  21)  (  53->  27) 


 irot  :  11
 --------------------------------------------------------------------
 isymop:   0  -1   0
          -1   0   0
           0   0  -1

 gtrans:     0.5000000     0.5000000     0.5000000

 ptrans:     0.0000000     0.0000000     0.0000000
 rotmap:
 (   1->   1)  (   2->  40)  (   3->  39)  (   4->  41)  (   5->  31) 
 (   6->  30)  (   7->  32)  (   8->  49)  (   9->  48)  (  10->  50) 
 (  11->  37)  (  12->  36)  (  13->  38)  (  14->  28)  (  15->  29) 
 (  16->  46)  (  17->  45)  (  18->  47)  (  19->  43)  (  20->  42) 
 (  21->  44)  (  22->  34)  (  23->  33)  (  24->  35)  (  25->  52) 
 (  26->  51)  (  27->  53)  (  28->  14)  (  29->  15)  (  30->   6) 
 (  31->   5)  (  32->   7)  (  33->  23)  (  34->  22)  (  35->  24) 
 (  36->  12)  (  37->  11)  (  38->  13)  (  39->   3)  (  40->   2) 
 (  41->   4)  (  42->  20)  (  43->  19)  (  44->  21)  (  45->  17) 
 (  46->  16)  (  47->  18)  (  48->   9)  (  49->   8)  (  50->  10) 
 (  51->  26)  (  52->  25)  (  53->  27) 


 irot  :  12
 --------------------------------------------------------------------
 isymop:   0   0  -1
           0  -1   0
          -1   0   0

 gtrans:     0.5000000     0.5000000     0.5000000

 ptrans:     0.0000000     0.0000000     0.0000000
 rotmap:
 (   1->   1)  (   2->  40)  (   3->  31)  (   4->  49)  (   5->  37) 
 (   6->  28)  (   7->  46)  (   8->  43)  (   9->  34)  (  10->  52) 
 (  11->  39)  (  12->  30)  (  13->  48)  (  14->  36)  (  15->  45) 
 (  16->  42)  (  17->  33)  (  18->  51)  (  19->  41)  (  20->  32) 
 (  21->  50)  (  22->  38)  (  23->  29)  (  24->  47)  (  25->  44) 
 (  26->  35)  (  27->  53)  (  28->   6)  (  29->  23)  (  30->  12) 
 (  31->   3)  (  32->  20)  (  33->  17)  (  34->   9)  (  35->  26) 
 (  36->  14)  (  37->   5)  (  38->  22)  (  39->  11)  (  40->   2) 
 (  41->  19)  (  42->  16)  (  43->   8)  (  44->  25)  (  45->  15) 
 (  46->   7)  (  47->  24)  (  48->  13)  (  49->   4)  (  50->  21) 
 (  51->  18)  (  52->  10)  (  53->  27) 
 
 
 KPOINTS: Automatic kpoint scheme                 

Automatic generation of k-mesh.
Space group operators:
 irot       det(A)        alpha          n_x          n_y          n_z        tau_x        tau_y        tau_z
    1     1.000000     0.000000     1.000000     0.000000     0.000000     0.000000     0.000000     0.000000
    2     1.000000   120.000000    -0.577350    -0.577350    -0.577350     0.000000     0.000000     0.000000
    3     1.000000   120.000000     0.577350     0.577350     0.577350     0.000000     0.000000     0.000000
    4    -1.000000   180.000000     0.000000    -0.707107     0.707107     0.000000     0.000000     0.000000
    5    -1.000000   180.000000     0.707107    -0.707107     0.000000     0.000000     0.000000     0.000000
    6    -1.000000   180.000000     0.707107     0.000000    -0.707107     0.000000     0.000000     0.000000
    7    -1.000000     0.000000     1.000000     0.000000     0.000000     0.500000     0.500000     0.500000
    8    -1.000000   120.000000    -0.577350    -0.577350    -0.577350     0.500000     0.500000     0.500000
    9    -1.000000   120.000000     0.577350     0.577350     0.577350     0.500000     0.500000     0.500000
   10     1.000000   180.000000     0.000000    -0.707107     0.707107     0.500000     0.500000     0.500000
   11     1.000000   180.000000     0.707107    -0.707107     0.000000     0.500000     0.500000     0.500000
   12     1.000000   180.000000     0.707107     0.000000    -0.707107     0.500000     0.500000     0.500000
 
 Subroutine IBZKPT returns following result:
 ===========================================
 
 Found     10 irreducible k-points:
 
 Following reciprocal coordinates:
            Coordinates               Weight
  0.125000  0.125000  0.125000      2.000000
  0.375000  0.125000  0.125000      6.000000
 -0.375000  0.125000  0.125000      6.000000
 -0.125000  0.125000  0.125000      6.000000
  0.375000  0.375000  0.125000      6.000000
 -0.375000  0.375000  0.125000     12.000000
 -0.125000  0.375000  0.125000     12.000000
 -0.375000 -0.375000  0.125000      6.000000
  0.375000  0.375000  0.375000      2.000000
 -0.375000  0.375000  0.375000      6.000000
 
 Following cartesian coordinates:
            Coordinates               Weight
  0.013068  0.013068  0.013068      2.000000
  0.039205  0.013068  0.013068      6.000000
 -0.039205  0.013068  0.013068      6.000000
 -0.013068  0.013068  0.013068      6.000000
  0.039205  0.039205  0.013068      6.000000
 -0.039205  0.039205  0.013068     12.000000
 -0.013068  0.039205  0.013068     12.000000
 -0.039205 -0.039205  0.013068      6.000000
  0.039205  0.039205  0.039205      2.000000
 -0.039205  0.039205  0.039205      6.000000
 
 
 Subroutine IBZKPT_HF returns following result:
 ==============================================
 
 Found     64 k-points in 1st BZ
 the following     64 k-points will be used (e.g. in the exchange kernel)
 Following reciprocal coordinates:   # in IRBZ
  0.125000  0.125000  0.125000       1 t-inv F
  0.375000  0.125000  0.125000       2 t-inv F
 -0.375000  0.125000  0.125000       3 t-inv F
 -0.125000  0.125000  0.125000       4 t-inv F
  0.375000  0.375000  0.125000       5 t-inv F
 -0.375000  0.375000  0.125000       6 t-inv F
 -0.125000  0.375000  0.125000       7 t-inv F
 -0.375000 -0.375000  0.125000       8 t-inv F
  0.375000  0.375000  0.375000       9 t-inv F
 -0.375000  0.375000  0.375000      10 t-inv F
 -0.125000 -0.125000 -0.125000       1 t-inv F
  0.125000  0.375000  0.125000       2 t-inv F
  0.125000  0.125000  0.375000       2 t-inv F
 -0.375000 -0.125000 -0.125000       2 t-inv F
 -0.125000 -0.375000 -0.125000       2 t-inv F
 -0.125000 -0.125000 -0.375000       2 t-inv F
  0.125000 -0.375000  0.125000       3 t-inv F
  0.125000  0.125000 -0.375000       3 t-inv F
  0.375000 -0.125000 -0.125000       3 t-inv F
 -0.125000  0.375000 -0.125000       3 t-inv F
 -0.125000 -0.125000  0.375000       3 t-inv F
  0.125000 -0.125000  0.125000       4 t-inv F
  0.125000  0.125000 -0.125000       4 t-inv F
  0.125000 -0.125000 -0.125000       4 t-inv F
 -0.125000  0.125000 -0.125000       4 t-inv F
 -0.125000 -0.125000  0.125000       4 t-inv F
  0.125000  0.375000  0.375000       5 t-inv F
  0.375000  0.125000  0.375000       5 t-inv F
 -0.375000 -0.375000 -0.125000       5 t-inv F
 -0.125000 -0.375000 -0.375000       5 t-inv F
 -0.375000 -0.125000 -0.375000       5 t-inv F
  0.125000 -0.375000  0.375000       6 t-inv F
  0.375000  0.125000 -0.375000       6 t-inv F
 -0.375000  0.125000  0.375000       6 t-inv F
  0.375000 -0.375000  0.125000       6 t-inv F
  0.125000  0.375000 -0.375000       6 t-inv F
  0.375000 -0.375000 -0.125000       6 t-inv F
 -0.125000  0.375000 -0.375000       6 t-inv F
 -0.375000 -0.125000  0.375000       6 t-inv F
  0.375000 -0.125000 -0.375000       6 t-inv F
 -0.375000  0.375000 -0.125000       6 t-inv F
 -0.125000 -0.375000  0.375000       6 t-inv F
  0.125000 -0.125000  0.375000       7 t-inv F
  0.375000  0.125000 -0.125000       7 t-inv F
 -0.125000  0.125000  0.375000       7 t-inv F
  0.375000 -0.125000  0.125000       7 t-inv F
  0.125000  0.375000 -0.125000       7 t-inv F
  0.125000 -0.375000 -0.125000       7 t-inv F
 -0.125000  0.125000 -0.375000       7 t-inv F
 -0.375000 -0.125000  0.125000       7 t-inv F
  0.125000 -0.125000 -0.375000       7 t-inv F
 -0.375000  0.125000 -0.125000       7 t-inv F
 -0.125000 -0.375000  0.125000       7 t-inv F
  0.125000 -0.375000 -0.375000       8 t-inv F
 -0.375000  0.125000 -0.375000       8 t-inv F
  0.375000  0.375000 -0.125000       8 t-inv F
 -0.125000  0.375000  0.375000       8 t-inv F
  0.375000 -0.125000  0.375000       8 t-inv F
 -0.375000 -0.375000 -0.375000       9 t-inv F
  0.375000 -0.375000  0.375000      10 t-inv F
  0.375000  0.375000 -0.375000      10 t-inv F
  0.375000 -0.375000 -0.375000      10 t-inv F
 -0.375000  0.375000 -0.375000      10 t-inv F
 -0.375000 -0.375000  0.375000      10 t-inv F


--------------------------------------------------------------------------------------------------------




 Dimension of arrays:
   k-points           NKPTS =     10   k-points in BZ     NKDIM =     10   number of bands    NBANDS=    420
   number of dos      NEDOS =    301   number of ions     NIONS =     53
   non local maximal  LDIM  =      6   non local SUM 2l+1 LMDIM =     18
   total plane-waves  NPLWV = 262144
   max r-space proj   IRMAX =   5670   max aug-charges    IRDMAX=  17297
   dimension x,y,z NGX =    64 NGY =   64 NGZ =   64
   dimension x,y,z NGXF=   128 NGYF=  128 NGZF=  128
   support grid    NGXF=   128 NGYF=  128 NGZF=  128
   ions per type =               1  52
 NGX,Y,Z   is equivalent  to a cutoff of  11.12, 11.12, 11.12 a.u.
 NGXF,Y,Z  is equivalent  to a cutoff of  22.25, 22.25, 22.25 a.u.


 I would recommend the setting:
   dimension x,y,z NGX =    62 NGY =   62 NGZ =   62
 SYSTEM =  unknown system                          
 POSCAR =  Ag1 W52                                 

 Startparameter for this run:
   NWRITE =      2    write-flag & timer
   PREC   = accura    normal or accurate (medium, high low for compatibility)
   ISTART =      0    job   : 0-new  1-cont  2-samecut
   ICHARG =      2    charge: 1-file 2-atom 10-const
   ISPIN  =      2    spin polarized calculation?
   LNONCOLLINEAR =      F non collinear calculations
   LSORBIT =      F    spin-orbit coupling
   INIWAV =      1    electr: 0-lowe 1-rand  2-diag
   LASPH  =      F    aspherical Exc in radial PAW
   METAGGA=      F    non-selfconsistent MetaGGA calc.

 Electronic Relaxation 1
   ENCUT  =  400.0 eV  29.40 Ry    5.42 a.u.  15.60 15.60 15.60*2*pi/ulx,y,z
   ENINI  =  400.0     initial cutoff
   ENAUG  =  412.5 eV  augmentation charge cutoff
   NELM   =     60;   NELMIN=  2; NELMDL= -5     # of ELM steps 
   EDIFF  = 0.1E-04   stopping-criterion for ELM
   LREAL  =      T    real-space projection
   NLSPLINE    = F    spline interpolate recip. space projectors
   LCOMPAT=      F    compatible to vasp.4.4
   GGA_COMPAT  = T    GGA compatible to vasp.4.4-vasp.4.6
   LMAXPAW     = -100 max onsite density
   LMAXMIX     =    2 max onsite mixed and CHGCAR
   VOSKOWN=      0    Vosko Wilk Nusair interpolation
   ROPT   =   -0.00025  -0.00025
 Ionic relaxation
   EDIFFG = -.1E-01   stopping-criterion for IOM
   NSW    =    606    number of steps for IOM
   NBLOCK =      1;   KBLOCK =    101    inner block; outer block 
   IBRION =      5    ionic relax: 0-MD 1-quasi-New 2-CG
   NFREE  =      2    steps in history (QN), initial steepest desc. (CG)
   ISIF   =      2    stress and relaxation
   IWAVPR =     11    prediction:  0-non 1-charg 2-wave 3-comb
   ISYM   =      2    0-nonsym 1-usesym 2-fastsym
   LCORR  =      T    Harris-Foulkes like correction to forces

   POTIM  = 0.0500    time-step for ionic-motion
   TEIN   =    0.0    initial temperature
   TEBEG  =    0.0;   TEEND  =   0.0 temperature during run
   SMASS  =  -3.00    Nose mass-parameter (am)
   estimated Nose-frequenzy (Omega)   =  0.10E-29 period in steps =****** mass=  -0.209E-26a.u.
   SCALEE = 1.0000    scale energy and forces
   NPACO  =    256;   APACO  = 16.0  distance and # of slots for P.C.
   PSTRESS=    0.0 pullay stress

  Mass of Ions in am
   POMASS = 107.87183.85
  Ionic Valenz
   ZVAL   =  11.00 12.00
  Atomic Wigner-Seitz radii
   RWIGS  =  -1.00 -1.00
  virtual crystal weights 
   VCA    =   1.00  1.00
   NELECT =     635.0000    total number of electrons
   NUPDOWN=      -1.0000    fix difference up-down

 DOS related values:
   EMIN   =  10.00;   EMAX   =-10.00  energy-range for DOS
   EFERMI =   0.00
   ISMEAR =     1;   SIGMA  =   0.20  broadening in eV -4-tet -1-fermi 0-gaus

 Electronic relaxation 2 (details)
   IALGO  =     38    algorithm
   LDIAG  =      T    sub-space diagonalisation (order eigenvalues)
   LSUBROT=      T    optimize rotation matrix (better conditioning)
   TURBO    =      0    0=normal 1=particle mesh
   IRESTART =      0    0=no restart 2=restart with 2 vectors
   NREBOOT  =      0    no. of reboots
   NMIN     =      0    reboot dimension
   EREF     =   0.00    reference energy to select bands
   IMIX   =      4    mixing-type and parameters
     AMIX     =   0.40;   BMIX     =  1.00
     AMIX_MAG =   1.60;   BMIX_MAG =  1.00
     AMIN     =   0.10
     WC   =   100.;   INIMIX=   1;  MIXPRE=   1;  MAXMIX= -45

 Intra band minimization:
   WEIMIN = 0.0010     energy-eigenvalue tresh-hold
   EBREAK =  0.60E-08  absolut break condition
   DEPER  =   0.30     relativ break condition  

   TIME   =   0.40     timestep for ELM

  volume/ion in A,a.u.               =      16.51       111.42
  Fermi-wavevector in a.u.,A,eV,Ry     =   1.471116  2.780006 29.445485  2.164182
  Thomas-Fermi vector in A             =   2.586291
 
 Write flags
   LWAVE  =      F    write WAVECAR
   LCHARG =      F    write CHGCAR
   LVTOT  =      F    write LOCPOT, total local potential
   LVHAR  =      F    write LOCPOT, Hartree potential only
   LELF   =      F    write electronic localiz. function (ELF)
   LORBIT =      0    0 simple, 1 ext, 2 COOP (PROOUT)


 Dipole corrections
   LMONO  =      F    monopole corrections only (constant potential shift)
   LDIPOL =      F    correct potential (dipole corrections)
   IDIPOL =      0    1-x, 2-y, 3-z, 4-all directions 
   EPSILON=  1.0000000 bulk dielectric constant

 Exchange correlation treatment:
   GGA     =    --    GGA type
   LEXCH   =     8    internal setting for exchange type
   VOSKOWN=      0    Vosko Wilk Nusair interpolation
   LHFCALC =     F    Hartree Fock is set to
   LHFONE  =     F    Hartree Fock one center treatment
   AEXX    =    0.0000 exact exchange contribution

 Linear response parameters
   LEPSILON=     F    determine dielectric tensor
   LRPA    =     F    only Hartree local field effects (RPA)
   LNABLA  =     F    use nabla operator in PAW spheres
   LVEL    =     F    velocity operator in full k-point grid
   LINTERFAST=   F  fast interpolation
   KINTER  =     0    interpolate to denser k-point grid
   CSHIFT  =0.1000    complex shift for real part using Kramers Kronig
   OMEGAMAX=  -1.0    maximum frequency
   DEG_THRESHOLD= 0.2000000E-02 threshold for treating states as degnerate
   RTIME   =    0.100 relaxation time in fs

 Orbital magnetization related:
   ORBITALMAG=     F  switch on orbital magnetization
   LCHIMAG   =     F  perturbation theory with respect to B field
   DQ        =  0.001000  dq finite difference perturbation B field



--------------------------------------------------------------------------------------------------------


 finite differences
   using selective dynamics as specified on POSCAR
 charge density and potential will be updated during run
 spin polarized calculation
 Variant of blocked Davidson
 Davidson routine will perform the subspace rotation
 perform sub-space diagonalisation
    after iterative eigenvector-optimisation
 modified Broyden-mixing scheme, WC =      100.0
 initial mixing is a Kerker type mixing with AMIX =  0.4000 and BMIX =      1.0000
 Hartree-type preconditioning will be used
 using additional bands          102
 real space projection scheme for non local part
 use partial core corrections
 calculate Harris-corrections to forces 
   (improved forces if not selfconsistent)
 use gradient corrections 
 use of overlap-Matrix (Vanderbilt PP)
 Methfessel and Paxton  Order N= 1 SIGMA  =   0.20


--------------------------------------------------------------------------------------------------------


  energy-cutoff  :      400.00
  volume of cell :      875.10
      direct lattice vectors                 reciprocal lattice vectors
     9.565019000  0.000000000  0.000000000     0.104547623  0.000000000  0.000000000
     0.000000000  9.565019000  0.000000000     0.000000000  0.104547623  0.000000000
     0.000000000  0.000000000  9.565019000     0.000000000  0.000000000  0.104547623

  length of vectors
     9.565019000  9.565019000  9.565019000     0.104547623  0.104547623  0.104547623


 
 k-points in units of 2pi/SCALE and weight: Automatic kpoint scheme                 
   0.01306845  0.01306845  0.01306845       0.031
   0.03920536  0.01306845  0.01306845       0.094
  -0.03920536  0.01306845  0.01306845       0.094
  -0.01306845  0.01306845  0.01306845       0.094
   0.03920536  0.03920536  0.01306845       0.094
  -0.03920536  0.03920536  0.01306845       0.188
  -0.01306845  0.03920536  0.01306845       0.188
  -0.03920536 -0.03920536  0.01306845       0.094
   0.03920536  0.03920536  0.03920536       0.031
  -0.03920536  0.03920536  0.03920536       0.094
 
 k-points in reciprocal lattice and weights: Automatic kpoint scheme                 
   0.12500000  0.12500000  0.12500000       0.031
   0.37500000  0.12500000  0.12500000       0.094
  -0.37500000  0.12500000  0.12500000       0.094
  -0.12500000  0.12500000  0.12500000       0.094
   0.37500000  0.37500000  0.12500000       0.094
  -0.37500000  0.37500000  0.12500000       0.188
  -0.12500000  0.37500000  0.12500000       0.188
  -0.37500000 -0.37500000  0.12500000       0.094
   0.37500000  0.37500000  0.37500000       0.031
  -0.37500000  0.37500000  0.37500000       0.094
 
 position of ions in fractional coordinates (direct lattice) 
   0.25000000  0.25000000  0.25000000
   0.00083200  0.00083200  0.00083200
   0.00399000  0.00399000  0.33120400
   0.99993600  0.99993600  0.66733500
   0.00399000  0.33120400  0.00399000
   0.99387900  0.33597000  0.33597000
   0.00014300  0.33375400  0.66780500
   0.99993600  0.66733500  0.99993600
   0.00014300  0.66780500  0.33375400
   0.00061700  0.66653600  0.66653600
   0.33120400  0.00399000  0.00399000
   0.33597000  0.99387900  0.33597000
   0.33375400  0.00014300  0.66780500
   0.33597000  0.33597000  0.99387900
   0.33356200  0.33356200  0.66328000
   0.33375400  0.66780500  0.00014300
   0.33356200  0.66328000  0.33356200
   0.33257900  0.66605900  0.66605900
   0.66733500  0.99993600  0.99993600
   0.66780500  0.00014300  0.33375400
   0.66653600  0.00061700  0.66653600
   0.66780500  0.33375400  0.00014300
   0.66328000  0.33356200  0.33356200
   0.66605900  0.33257900  0.66605900
   0.66653600  0.66653600  0.00061700
   0.66605900  0.66605900  0.33257900
   0.66629100  0.66629100  0.66629100
   0.16403000  0.16403000  0.50612100
   0.16643800  0.16643800  0.83672000
   0.16403000  0.50612100  0.16403000
   0.16879600  0.49601000  0.49601000
   0.16624600  0.49985700  0.83219500
   0.16643800  0.83672000  0.16643800
   0.16624600  0.83219500  0.49985700
   0.16742100  0.83394100  0.83394100
   0.50612100  0.16403000  0.16403000
   0.49601000  0.16879600  0.49601000
   0.49985700  0.16624600  0.83219500
   0.49601000  0.49601000  0.16879600
   0.49916800  0.49916800  0.49916800
   0.50006400  0.50006400  0.83266500
   0.49985700  0.83219500  0.16624600
   0.50006400  0.83266500  0.50006400
   0.49938300  0.83346400  0.83346400
   0.83672000  0.16643800  0.16643800
   0.83219500  0.16624600  0.49985700
   0.83394100  0.16742100  0.83394100
   0.83219500  0.49985700  0.16624600
   0.83266500  0.50006400  0.50006400
   0.83346400  0.49938300  0.83346400
   0.83394100  0.83394100  0.16742100
   0.83346400  0.83346400  0.49938300
   0.83370900  0.83370900  0.83370900
 
 position of ions in cartesian coordinates  (Angst):
   2.39125475  2.39125475  2.39125475
   0.00795810  0.00795810  0.00795810
   0.03816443  0.03816443  3.16797255
   9.56440684  9.56440684  6.38307195
   0.03816443  3.16797255  0.03816443
   9.50647152  3.21355943  3.21355943
   0.00136780  3.19236335  6.38756751
   9.56440684  6.38307195  9.56440684
   0.00136780  6.38756751  3.19236335
   0.00590162  6.37542950  6.37542950
   3.16797255  0.03816443  0.03816443
   3.21355943  9.50647152  3.21355943
   3.19236335  0.00136780  6.38756751
   3.21355943  3.21355943  9.50647152
   3.19052687  3.19052687  6.34428580
   3.19236335  6.38756751  0.00136780
   3.19052687  6.34428580  3.19052687
   3.18112445  6.37086699  6.37086699
   6.38307195  9.56440684  9.56440684
   6.38756751  0.00136780  3.19236335
   6.37542950  0.00590162  6.37542950
   6.38756751  3.19236335  0.00136780
   6.34428580  3.19052687  3.19052687
   6.37086699  3.18112445  6.37086699
   6.37542950  6.37542950  0.00590162
   6.37086699  6.37086699  3.18112445
   6.37308607  6.37308607  6.37308607
   1.56895007  1.56895007  4.84105698
   1.59198263  1.59198263  8.00324270
   1.56895007  4.84105698  1.56895007
   1.61453695  4.74434507  4.74434507
   1.59014615  4.78114170  7.95996099
   1.59198263  8.00324270  1.59198263
   1.59014615  7.95996099  4.78114170
   1.60138505  7.97666151  7.97666151
   4.84105698  1.56895007  1.56895007
   4.74434507  1.61453695  4.74434507
   4.78114170  1.59014615  7.95996099
   4.74434507  4.74434507  1.61453695
   4.77455140  4.77455140  4.77455140
   4.78312166  4.78312166  7.96445655
   4.78114170  7.95996099  1.59014615
   4.78312166  7.96445655  4.78312166
   4.77660788  7.97209900  7.97209900
   8.00324270  1.59198263  1.59198263
   7.95996099  1.59014615  4.78114170
   7.97666151  1.60138505  7.97666151
   7.95996099  4.78114170  1.59014615
   7.96445655  4.78312166  4.78312166
   7.97209900  4.77660788  7.97209900
   7.97666151  7.97666151  1.60138505
   7.97209900  7.97209900  4.77660788
   7.97444243  7.97444243  7.97444243
 


--------------------------------------------------------------------------------------------------------


 k-point  1 :   0.1250 0.1250 0.1250  plane waves:   15915
 k-point  2 :   0.3750 0.1250 0.1250  plane waves:   15901
 k-point  3 :  -0.3750 0.1250 0.1250  plane waves:   15901
 k-point  4 :  -0.1250 0.1250 0.1250  plane waves:   15915
 k-point  5 :   0.3750 0.3750 0.1250  plane waves:   15910
 k-point  6 :  -0.3750 0.3750 0.1250  plane waves:   15910
 k-point  7 :  -0.1250 0.3750 0.1250  plane waves:   15901
 k-point  8 :  -0.3750-0.3750 0.1250  plane waves:   15910
 k-point  9 :   0.3750 0.3750 0.3750  plane waves:   15867
 k-point 10 :  -0.3750 0.3750 0.3750  plane waves:   15867

 maximum and minimum number of plane-waves per node :     15915    15867

 maximum number of plane-waves:     15915
 maximum index in each direction: 
   IXMAX=   15   IYMAX=   15   IZMAX=   15
   IXMIN=  -15   IYMIN=  -15   IZMIN=  -15

 NGX is ok and might be reduce to  62
 NGY is ok and might be reduce to  62
 NGZ is ok and might be reduce to  62

 serial   3D FFT for wavefunctions
 parallel 3D FFT for charge:
    minimum data exchange during FFTs selected (reduces bandwidth)


 total amount of memory used by VASP on root node   231198. kBytes
========================================================================

   base      :      30000. kBytes
   nonlr-proj:      50805. kBytes
   fftplans  :       4920. kBytes
   grid      :      30392. kBytes
   one-center:       1648. kBytes
   wavefun   :     113433. kBytes
 
 Broyden mixing: mesh for mixing (old mesh)
   NGX = 31   NGY = 31   NGZ = 31
  (NGX  =128   NGY  =128   NGZ  =128)
  gives a total of  29791 points

 initial charge density was supplied:
 charge density of overlapping atoms calculated
 number of electron     635.0000000 magnetization      53.0000000
 keeping initial charge density in first step


--------------------------------------------------------------------------------------------------------


 Maximum index for non-local projection operator         5484
 Maximum index for augmentation-charges         1398 (set IRDMAX)


--------------------------------------------------------------------------------------------------------


 First call to EWALD:  gamma=   0.185
 Maximum number of real-space cells 3x 3x 3
 Maximum number of reciprocal cells 3x 3x 3

 FEWALD executed in parallel
    FEWALD:  cpu time    0.00: real time    0.00


----------------------------------------- Iteration    1(   1)  ---------------------------------------


    POTLOK:  cpu time    0.30: real time    0.31
    SETDIJ:  cpu time    0.07: real time    0.07
     EDDAV:  cpu time  147.19: real time  147.76
       DOS:  cpu time    0.00: real time    0.00
    --------------------------------------------
      LOOP:  cpu time  147.56: real time  148.16

 eigenvalue-minimisations  : 17200
 total energy-change (2. order) : 0.7137904E+04  (-0.2863960E+05)
 number of electron     635.0000000 magnetization      53.0000000
 augmentation part      635.0000000 magnetization      53.0000000

 Free energy of the ion-electron system (eV)
  ---------------------------------------------------
  alpha Z        PSCENC =      8177.14454612
  Ewald energy   TEWEN  =    -61783.98406113
  -1/2 Hartree   DENC   =     -8359.98670246
  -exchange  EXHF       =         0.00000000
  -V(xc)+E(xc)   XCENC  =      1835.34289088
  PAW double counting   =     43230.44359611   -42532.73462782
  entropy T*S    EENTRO =        -0.01503026
  eigenvalues    EBANDS =        12.74486347
  atomic energy  EATOM  =     66558.94894662
  ---------------------------------------------------
  free energy    TOTEN  =      7137.90442153 eV

  energy without entropy =     7137.91945179  energy(sigma->0) =     7137.90943162


--------------------------------------------------------------------------------------------------------




----------------------------------------- Iteration    1(   2)  ---------------------------------------


     EDDAV:  cpu time  144.02: real time  144.60
       DOS:  cpu time    0.00: real time    0.00
    --------------------------------------------
      LOOP:  cpu time  144.03: real time  144.63

 eigenvalue-minimisations  : 16800
 total energy-change (2. order) :-0.7210082E+04  (-0.6907607E+04)
 number of electron     635.0000000 magnetization      53.0000000
 augmentation part      635.0000000 magnetization      53.0000000

 Free energy of the ion-electron system (eV)
  ---------------------------------------------------
  alpha Z        PSCENC =      8177.14454612
  Ewald energy   TEWEN  =    -61783.98406113
  -1/2 Hartree   DENC   =     -8359.98670246
  -exchange  EXHF       =         0.00000000
  -V(xc)+E(xc)   XCENC  =      1835.34289088
  PAW double counting   =     43230.44359611   -42532.73462782
  entropy T*S    EENTRO =        -0.00445820
  eigenvalues    EBANDS =     -7197.34727280
  atomic energy  EATOM  =     66558.94894662
  ---------------------------------------------------
  free energy    TOTEN  =       -72.17714267 eV

  energy without entropy =      -72.17268447  energy(sigma->0) =      -72.17565660


--------------------------------------------------------------------------------------------------------




----------------------------------------- Iteration    1(   3)  ---------------------------------------


     EDDAV:  cpu time  161.46: real time  162.09
       DOS:  cpu time    0.00: real time    0.00
    --------------------------------------------
      LOOP:  cpu time  161.47: real time  162.12

 eigenvalue-minimisations  : 19740
 total energy-change (2. order) :-0.5892020E+03  (-0.5382360E+03)
 number of electron     635.0000000 magnetization      53.0000000
 augmentation part      635.0000000 magnetization      53.0000000

 Free energy of the ion-electron system (eV)
  ---------------------------------------------------
  alpha Z        PSCENC =      8177.14454612
  Ewald energy   TEWEN  =    -61783.98406113
  -1/2 Hartree   DENC   =     -8359.98670246
  -exchange  EXHF       =         0.00000000
  -V(xc)+E(xc)   XCENC  =      1835.34289088
  PAW double counting   =     43230.44359611   -42532.73462782
  entropy T*S    EENTRO =        -0.00838891
  eigenvalues    EBANDS =     -7786.54536385
  atomic energy  EATOM  =     66558.94894662
  ---------------------------------------------------
  free energy    TOTEN  =      -661.37916443 eV

  energy without entropy =     -661.37077552  energy(sigma->0) =     -661.37636813


--------------------------------------------------------------------------------------------------------




----------------------------------------- Iteration    1(   4)  ---------------------------------------


     EDDAV:  cpu time  167.39: real time  168.04
       DOS:  cpu time    0.00: real time    0.00
    --------------------------------------------
      LOOP:  cpu time  167.40: real time  168.06

 eigenvalue-minimisations  : 20660
 total energy-change (2. order) :-0.3492132E+02  (-0.3358622E+02)
 number of electron     635.0000000 magnetization      53.0000000
 augmentation part      635.0000000 magnetization      53.0000000

 Free energy of the ion-electron system (eV)
  ---------------------------------------------------
  alpha Z        PSCENC =      8177.14454612
  Ewald energy   TEWEN  =    -61783.98406113
  -1/2 Hartree   DENC   =     -8359.98670246
  -exchange  EXHF       =         0.00000000
  -V(xc)+E(xc)   XCENC  =      1835.34289088
  PAW double counting   =     43230.44359611   -42532.73462782
  entropy T*S    EENTRO =        -0.00373011
  eigenvalues    EBANDS =     -7821.47134347
  atomic energy  EATOM  =     66558.94894662
  ---------------------------------------------------
  free energy    TOTEN  =      -696.30048526 eV

  energy without entropy =     -696.29675514  energy(sigma->0) =     -696.29924188


--------------------------------------------------------------------------------------------------------




----------------------------------------- Iteration    1(   5)  ---------------------------------------


     EDDAV:  cpu time  175.45: real time  176.11
       DOS:  cpu time    0.00: real time    0.00
    CHARGE:  cpu time    6.44: real time    6.46
    MIXING:  cpu time    0.01: real time    0.01
    --------------------------------------------
      LOOP:  cpu time  181.90: real time  182.61

 eigenvalue-minimisations  : 22000
 total energy-change (2. order) :-0.1521776E+01  (-0.1510595E+01)
 number of electron     635.0000017 magnetization      30.2812393
 augmentation part      210.7194930 magnetization      25.7542269

 Broyden mixing:
  rms(total) = 0.40511E+01    rms(broyden)= 0.40510E+01
  rms(prec ) = 0.50467E+01
  weight for this iteration     100.00

 Free energy of the ion-electron system (eV)
  ---------------------------------------------------
  alpha Z        PSCENC =      8177.14454612
  Ewald energy   TEWEN  =    -61783.98406113
  -1/2 Hartree   DENC   =     -8359.98670246
  -exchange  EXHF       =         0.00000000
  -V(xc)+E(xc)   XCENC  =      1835.34289088
  PAW double counting   =     43230.44359611   -42532.73462782
  entropy T*S    EENTRO =        -0.00387351
  eigenvalues    EBANDS =     -7822.99297604
  atomic energy  EATOM  =     66558.94894662
  ---------------------------------------------------
  free energy    TOTEN  =      -697.82226122 eV

  energy without entropy =     -697.81838771  energy(sigma->0) =     -697.82097005


--------------------------------------------------------------------------------------------------------




----------------------------------------- Iteration    1(   6)  ---------------------------------------


    POTLOK:  cpu time    0.29: real time    0.29
    SETDIJ:  cpu time    0.06: real time    0.06
     EDDAV:  cpu time  160.75: real time  161.33
       DOS:  cpu time    0.00: real time    0.00
    CHARGE:  cpu time    6.32: real time    6.34
    MIXING:  cpu time    0.01: real time    0.01
    --------------------------------------------
      LOOP:  cpu time  167.42: real time  168.05

 eigenvalue-minimisations  : 19400
 total energy-change (2. order) : 0.2481371E+02  (-0.5112963E+01)
 number of electron     635.0000019 magnetization      16.5723960
 augmentation part      214.5965005 magnetization      11.3036786

 Broyden mixing:
  rms(total) = 0.18694E+01    rms(broyden)= 0.18694E+01
  rms(prec ) = 0.23905E+01
  weight for this iteration     100.00

 eigenvalues of (default mixing * dielectric matrix)
  average eigenvalue GAMMA=   0.8624
  0.8624

 Free energy of the ion-electron system (eV)
  ---------------------------------------------------
  alpha Z        PSCENC =      8177.14454612
  Ewald energy   TEWEN  =    -61783.98406113
  -1/2 Hartree   DENC   =     -7782.85673000
  -exchange  EXHF       =         0.00000000
  -V(xc)+E(xc)   XCENC  =      1804.85682576
  PAW double counting   =     43212.40978663   -42632.98455527
  entropy T*S    EENTRO =         0.00657853
  eigenvalues    EBANDS =     -8226.54988927
  atomic energy  EATOM  =     66558.94894662
  ---------------------------------------------------
  free energy    TOTEN  =      -673.00855201 eV

  energy without entropy =     -673.01513054  energy(sigma->0) =     -673.01074485


--------------------------------------------------------------------------------------------------------




----------------------------------------- Iteration    1(   7)  ---------------------------------------


    POTLOK:  cpu time    0.28: real time    0.29
    SETDIJ:  cpu time    0.06: real time    0.06
     EDDAV:  cpu time  168.27: real time  168.67
       DOS:  cpu time    0.00: real time    0.00
    CHARGE:  cpu time    6.24: real time    6.26
    MIXING:  cpu time    0.01: real time    0.01
    --------------------------------------------
      LOOP:  cpu time  174.86: real time  175.43

 eigenvalue-minimisations  : 20620
 total energy-change (2. order) : 0.1252864E+01  (-0.1782733E+01)
 number of electron     635.0000018 magnetization       5.7854301
 augmentation part      216.1926474 magnetization       3.8020960

 Broyden mixing:
  rms(total) = 0.95580E+00    rms(broyden)= 0.95579E+00
  rms(prec ) = 0.13008E+01
  weight for this iteration     100.00

 eigenvalues of (default mixing * dielectric matrix)
  average eigenvalue GAMMA=   1.2971
  0.7401  1.8540

 Free energy of the ion-electron system (eV)
  ---------------------------------------------------
  alpha Z        PSCENC =      8177.14454612
  Ewald energy   TEWEN  =    -61783.98406113
  -1/2 Hartree   DENC   =     -7499.59575196
  -exchange  EXHF       =         0.00000000
  -V(xc)+E(xc)   XCENC  =      1788.99024942
  PAW double counting   =     43641.16178697   -43132.47301852
  entropy T*S    EENTRO =         0.01473279
  eigenvalues    EBANDS =     -8421.96311864
  atomic energy  EATOM  =     66558.94894662
  ---------------------------------------------------
  free energy    TOTEN  =      -671.75568831 eV

  energy without entropy =     -671.77042111  energy(sigma->0) =     -671.76059924


--------------------------------------------------------------------------------------------------------




----------------------------------------- Iteration    1(   8)  ---------------------------------------


    POTLOK:  cpu time    0.29: real time    0.29
    SETDIJ:  cpu time    0.06: real time    0.06
     EDDAV:  cpu time  171.48: real time  171.89
       DOS:  cpu time    0.00: real time    0.00
    CHARGE:  cpu time    6.30: real time    6.31
    MIXING:  cpu time    0.01: real time    0.01
    --------------------------------------------
      LOOP:  cpu time  178.13: real time  178.58

 eigenvalue-minimisations  : 21320
 total energy-change (2. order) : 0.5150047E+00  (-0.7838841E+00)
 number of electron     635.0000019 magnetization       3.2170398
 augmentation part      217.3536350 magnetization       2.4451721

 Broyden mixing:
  rms(total) = 0.34456E+00    rms(broyden)= 0.34456E+00
  rms(prec ) = 0.67658E+00
  weight for this iteration     100.00

 eigenvalues of (default mixing * dielectric matrix)
  average eigenvalue GAMMA=   1.1844
  2.0609  0.8353  0.6571

 Free energy of the ion-electron system (eV)
  ---------------------------------------------------
  alpha Z        PSCENC =      8177.14454612
  Ewald energy   TEWEN  =    -61783.98406113
  -1/2 Hartree   DENC   =     -7332.15394340
  -exchange  EXHF       =         0.00000000
  -V(xc)+E(xc)   XCENC  =      1780.40042839
  PAW double counting   =     44122.24773345   -43660.46990148
  entropy T*S    EENTRO =         0.01873141
  eigenvalues    EBANDS =     -8533.39316363
  atomic energy  EATOM  =     66558.94894662
  ---------------------------------------------------
  free energy    TOTEN  =      -671.24068366 eV

  energy without entropy =     -671.25941507  energy(sigma->0) =     -671.24692747


--------------------------------------------------------------------------------------------------------




----------------------------------------- Iteration    1(   9)  ---------------------------------------


    POTLOK:  cpu time    0.29: real time    0.29
    SETDIJ:  cpu time    0.06: real time    0.06
     EDDAV:  cpu time  173.24: real time  173.65
       DOS:  cpu time    0.00: real time    0.00
    CHARGE:  cpu time    6.32: real time    6.34
    MIXING:  cpu time    0.01: real time    0.01
    --------------------------------------------
      LOOP:  cpu time  179.92: real time  180.38

 eigenvalue-minimisations  : 21500
 total energy-change (2. order) : 0.1723323E+00  (-0.1337260E+00)
 number of electron     635.0000019 magnetization       1.2200335
 augmentation part      217.5794981 magnetization       0.7110203

 Broyden mixing:
  rms(total) = 0.17378E+00    rms(broyden)= 0.17378E+00
  rms(prec ) = 0.20769E+00
  weight for this iteration     100.00

 eigenvalues of (default mixing * dielectric matrix)
  average eigenvalue GAMMA=   1.1417
  2.1266  1.1683  0.7430  0.5288

 Free energy of the ion-electron system (eV)
  ---------------------------------------------------
  alpha Z        PSCENC =      8177.14454612
  Ewald energy   TEWEN  =    -61783.98406113
  -1/2 Hartree   DENC   =     -7311.97604834
  -exchange  EXHF       =         0.00000000
  -V(xc)+E(xc)   XCENC  =      1779.50801636
  PAW double counting   =     44348.62085387   -43895.38507979
  entropy T*S    EENTRO =         0.01649896
  eigenvalues    EBANDS =     -8543.96202401
  atomic energy  EATOM  =     66558.94894662
  ---------------------------------------------------
  free energy    TOTEN  =      -671.06835135 eV

  energy without entropy =     -671.08485032  energy(sigma->0) =     -671.07385101


--------------------------------------------------------------------------------------------------------




----------------------------------------- Iteration    1(  10)  ---------------------------------------


    POTLOK:  cpu time    0.29: real time    0.29
    SETDIJ:  cpu time    0.06: real time    0.06
     EDDAV:  cpu time  172.90: real time  173.32
       DOS:  cpu time    0.00: real time    0.00
    CHARGE:  cpu time    6.23: real time    6.25
    MIXING:  cpu time    0.01: real time    0.01
    --------------------------------------------
      LOOP:  cpu time  179.49: real time  179.95

 eigenvalue-minimisations  : 21360
 total energy-change (2. order) :-0.1422267E-01  (-0.2528111E-01)
 number of electron     635.0000019 magnetization       0.3008477
 augmentation part      217.5474086 magnetization       0.1372493

 Broyden mixing:
  rms(total) = 0.86431E-01    rms(broyden)= 0.86431E-01
  rms(prec ) = 0.12391E+00
  weight for this iteration     100.00

 eigenvalues of (default mixing * dielectric matrix)
  average eigenvalue GAMMA=   1.2282
  2.3385  1.7750  0.8545  0.6811  0.4918

 Free energy of the ion-electron system (eV)
  ---------------------------------------------------
  alpha Z        PSCENC =      8177.14454612
  Ewald energy   TEWEN  =    -61783.98406113
  -1/2 Hartree   DENC   =     -7326.33817808
  -exchange  EXHF       =         0.00000000
  -V(xc)+E(xc)   XCENC  =      1780.23386713
  PAW double counting   =     44663.84636574   -44213.75214490
  entropy T*S    EENTRO =         0.01445910
  eigenvalues    EBANDS =     -8527.19637462
  atomic energy  EATOM  =     66558.94894662
  ---------------------------------------------------
  free energy    TOTEN  =      -671.08257402 eV

  energy without entropy =     -671.09703312  energy(sigma->0) =     -671.08739372


--------------------------------------------------------------------------------------------------------




----------------------------------------- Iteration    1(  11)  ---------------------------------------


    POTLOK:  cpu time    0.29: real time    0.29
    SETDIJ:  cpu time    0.06: real time    0.06
     EDDAV:  cpu time  173.60: real time  174.01
       DOS:  cpu time    0.00: real time    0.00
    CHARGE:  cpu time    6.08: real time    6.09
    MIXING:  cpu time    0.01: real time    0.01
    --------------------------------------------
      LOOP:  cpu time  180.03: real time  180.52

 eigenvalue-minimisations  : 21660
 total energy-change (2. order) : 0.8426915E-02  (-0.6347464E-02)
 number of electron     635.0000019 magnetization      -0.0268305
 augmentation part      217.4869288 magnetization      -0.0756172

 Broyden mixing:
  rms(total) = 0.23896E-01    rms(broyden)= 0.23896E-01
  rms(prec ) = 0.34183E-01
  weight for this iteration     100.00

 eigenvalues of (default mixing * dielectric matrix)
  average eigenvalue GAMMA=   1.1802
  2.4991  1.8330  0.8981  0.7502  0.4778  0.6232

 Free energy of the ion-electron system (eV)
  ---------------------------------------------------
  alpha Z        PSCENC =      8177.14454612
  Ewald energy   TEWEN  =    -61783.98406113
  -1/2 Hartree   DENC   =     -7333.24133748
  -exchange  EXHF       =         0.00000000
  -V(xc)+E(xc)   XCENC  =      1780.58426537
  PAW double counting   =     44807.30448502   -44358.37891434
  entropy T*S    EENTRO =         0.01566275
  eigenvalues    EBANDS =     -8519.46774003
  atomic energy  EATOM  =     66558.94894662
  ---------------------------------------------------
  free energy    TOTEN  =      -671.07414710 eV

  energy without entropy =     -671.08980986  energy(sigma->0) =     -671.07936802


--------------------------------------------------------------------------------------------------------




----------------------------------------- Iteration    1(  12)  ---------------------------------------


    POTLOK:  cpu time    0.28: real time    0.28
    SETDIJ:  cpu time    0.06: real time    0.06
     EDDAV:  cpu time  165.31: real time  165.70
       DOS:  cpu time    0.00: real time    0.00
    CHARGE:  cpu time    6.39: real time    6.40
    MIXING:  cpu time    0.01: real time    0.01
    --------------------------------------------
      LOOP:  cpu time  172.06: real time  172.48

 eigenvalue-minimisations  : 20200
 total energy-change (2. order) :-0.1431350E-02  (-0.1089946E-02)
 number of electron     635.0000019 magnetization      -0.0502110
 augmentation part      217.4705077 magnetization      -0.0590937

 Broyden mixing:
  rms(total) = 0.10136E-01    rms(broyden)= 0.10135E-01
  rms(prec ) = 0.14734E-01
  weight for this iteration     100.00

 eigenvalues of (default mixing * dielectric matrix)
  average eigenvalue GAMMA=   1.1150
  2.5231  1.8174  0.9095  0.8410  0.6797  0.4836  0.5506

 Free energy of the ion-electron system (eV)
  ---------------------------------------------------
  alpha Z        PSCENC =      8177.14454612
  Ewald energy   TEWEN  =    -61783.98406113
  -1/2 Hartree   DENC   =     -7333.34601938
  -exchange  EXHF       =         0.00000000
  -V(xc)+E(xc)   XCENC  =      1780.59685199
  PAW double counting   =     44849.62004697   -44401.12052299
  entropy T*S    EENTRO =         0.01519355
  eigenvalues    EBANDS =     -8518.95056020
  atomic energy  EATOM  =     66558.94894662
  ---------------------------------------------------
  free energy    TOTEN  =      -671.07557845 eV

  energy without entropy =     -671.09077200  energy(sigma->0) =     -671.08064297


--------------------------------------------------------------------------------------------------------




----------------------------------------- Iteration    1(  13)  ---------------------------------------


    POTLOK:  cpu time    0.29: real time    0.29
    SETDIJ:  cpu time    0.06: real time    0.06
     EDDAV:  cpu time  168.02: real time  168.43
       DOS:  cpu time    0.00: real time    0.00
    CHARGE:  cpu time    6.24: real time    6.25
    MIXING:  cpu time    0.01: real time    0.01
    --------------------------------------------
      LOOP:  cpu time  174.63: real time  175.25

 eigenvalue-minimisations  : 20240
 total energy-change (2. order) : 0.1011350E-03  (-0.1522925E-03)
 number of electron     635.0000019 magnetization      -0.0275784
 augmentation part      217.4745006 magnetization      -0.0234649

 Broyden mixing:
  rms(total) = 0.39287E-02    rms(broyden)= 0.39285E-02
  rms(prec ) = 0.49824E-02
  weight for this iteration     100.00

 eigenvalues of (default mixing * dielectric matrix)
  average eigenvalue GAMMA=   1.1565
  2.5315  1.7081  1.5787  0.9701  0.7958  0.6681  0.4770  0.5223

 Free energy of the ion-electron system (eV)
  ---------------------------------------------------
  alpha Z        PSCENC =      8177.14454612
  Ewald energy   TEWEN  =    -61783.98406113
  -1/2 Hartree   DENC   =     -7332.83433647
  -exchange  EXHF       =         0.00000000
  -V(xc)+E(xc)   XCENC  =      1780.57393012
  PAW double counting   =     44852.47254774   -44403.89521134
  entropy T*S    EENTRO =         0.01539267
  eigenvalues    EBANDS =     -8519.51723165
  atomic energy  EATOM  =     66558.94894662
  ---------------------------------------------------
  free energy    TOTEN  =      -671.07547732 eV

  energy without entropy =     -671.09086999  energy(sigma->0) =     -671.08060821


--------------------------------------------------------------------------------------------------------




----------------------------------------- Iteration    1(  14)  ---------------------------------------


    POTLOK:  cpu time    0.29: real time    0.29
    SETDIJ:  cpu time    0.06: real time    0.06
     EDDAV:  cpu time  174.45: real time  174.86
       DOS:  cpu time    0.00: real time    0.00
    CHARGE:  cpu time    6.71: real time    6.72
    MIXING:  cpu time    0.01: real time    0.01
    --------------------------------------------
      LOOP:  cpu time  181.52: real time  181.98

 eigenvalue-minimisations  : 21460
 total energy-change (2. order) : 0.5382985E-04  (-0.2584018E-04)
 number of electron     635.0000019 magnetization      -0.0087098
 augmentation part      217.4798148 magnetization      -0.0053170

 Broyden mixing:
  rms(total) = 0.21246E-02    rms(broyden)= 0.21244E-02
  rms(prec ) = 0.28429E-02
  weight for this iteration     100.00

 eigenvalues of (default mixing * dielectric matrix)
  average eigenvalue GAMMA=   1.1621
  2.5408  2.0304  1.8112  0.9178  0.8074  0.7275  0.6389  0.4738  0.5113

 Free energy of the ion-electron system (eV)
  ---------------------------------------------------
[...]
  free  energy   TOTEN  =      -671.06454103 eV

  energy  without entropy=     -671.07996116  energy(sigma->0) =     -671.06968107
 
 d Force = 0.9894578E-04[-0.431E-01, 0.433E-01]  d Energy =-0.7978233E-06 0.997E-04
 d Force = 0.1132427E-13[-0.237E+01, 0.237E+01]  d Ewald  = 0.0000000E+00 0.000E+00


--------------------------------------------------------------------------------------------------------


    POTLOK:  cpu time    0.35: real time    0.36


--------------------------------------------------------------------------------------------------------


 stress matrix after NEB project (eV)
     -6.58167     -3.50244     -3.53344
     -3.50244     -6.58167     -3.53344
     -3.53344     -3.53344     -6.54010
  FORCES: max atom, RMS     0.582013    0.079946
  FORCE total and by dimension    0.582013    0.431481
  Stress total and by dimension   14.278821    6.581668
 Finite differences progress:
  Degree of freedom:   3/  3
  Displacement:        2/  2
  Total:               6/  6
 
 SECOND DERIVATIVES (NOT SYMMETRIZED)
 ------------------------------------
               1X          1Y          1Z 
  1X    -8.643858    5.521530    5.521530
  1Y     5.520938   -8.650791    5.520938
  1Z     5.521083    5.521083   -8.649415
 
 
 Eigenvectors and eigenvalues of the dynamical matrix
 ----------------------------------------------------
 
 
   1 f  =    5.666396 THz    35.603014 2PiTHz  189.010610 cm-1    23.434337 meV
             X         Y         Z           dx          dy          dz
      2.391255  2.391255  2.391255    -0.075020    0.741669   -0.666558  
      0.007958  0.007958  0.007958            0           0           0  
      0.038164  0.038164  3.167973            0           0           0  
      9.564407  9.564407  6.383072            0           0           0  
      0.038164  3.167973  0.038164            0           0           0  
      9.506472  3.213559  3.213559            0           0           0  
      0.001368  3.192363  6.387568            0           0           0  
      9.564407  6.383072  9.564407            0           0           0  
      0.001368  6.387568  3.192363            0           0           0  
      0.005902  6.375430  6.375430            0           0           0  
      3.167973  0.038164  0.038164            0           0           0  
      3.213559  9.506472  3.213559            0           0           0  
      3.192363  0.001368  6.387568            0           0           0  
      3.213559  3.213559  9.506472            0           0           0  
      3.190527  3.190527  6.344286            0           0           0  
      3.192363  6.387568  0.001368            0           0           0  
      3.190527  6.344286  3.190527            0           0           0  
      3.181124  6.370867  6.370867            0           0           0  
      6.383072  9.564407  9.564407            0           0           0  
      6.387568  0.001368  3.192363            0           0           0  
      6.375430  0.005902  6.375430            0           0           0  
      6.387568  3.192363  0.001368            0           0           0  
      6.344286  3.190527  3.190527            0           0           0  
      6.370867  3.181124  6.370867            0           0           0  
      6.375430  6.375430  0.005902            0           0           0  
      6.370867  6.370867  3.181124            0           0           0  
      6.373086  6.373086  6.373086            0           0           0  
      1.568950  1.568950  4.841057            0           0           0  
      1.591983  1.591983  8.003243            0           0           0  
      1.568950  4.841057  1.568950            0           0           0  
      1.614537  4.744345  4.744345            0           0           0  
      1.590146  4.781142  7.959961            0           0           0  
      1.591983  8.003243  1.591983            0           0           0  
      1.590146  7.959961  4.781142            0           0           0  
      1.601385  7.976662  7.976662            0           0           0  
      4.841057  1.568950  1.568950            0           0           0  
      4.744345  1.614537  4.744345            0           0           0  
      4.781142  1.590146  7.959961            0           0           0  
      4.744345  4.744345  1.614537            0           0           0  
      4.774551  4.774551  4.774551            0           0           0  
      4.783122  4.783122  7.964457            0           0           0  
      4.781142  7.959961  1.590146            0           0           0  
      4.783122  7.964457  4.783122            0           0           0  
      4.776608  7.972099  7.972099            0           0           0  
      8.003243  1.591983  1.591983            0           0           0  
      7.959961  1.590146  4.781142            0           0           0  
      7.976662  1.601385  7.976662            0           0           0  
      7.959961  4.781142  1.590146            0           0           0  
      7.964457  4.783122  4.783122            0           0           0  
      7.972099  4.776608  7.972099            0           0           0  
      7.976662  7.976662  1.601385            0           0           0  
      7.972099  7.972099  4.776608            0           0           0  
      7.974442  7.974442  7.974442            0           0           0  
 
   2 f  =    5.665619 THz    35.598137 2PiTHz  188.984715 cm-1    23.431127 meV
             X         Y         Z           dx          dy          dz
      2.391255  2.391255  2.391255    -0.812935    0.341629    0.471620  
      0.007958  0.007958  0.007958            0           0           0  
      0.038164  0.038164  3.167973            0           0           0  
      9.564407  9.564407  6.383072            0           0           0  
      0.038164  3.167973  0.038164            0           0           0  
      9.506472  3.213559  3.213559            0           0           0  
      0.001368  3.192363  6.387568            0           0           0  
      9.564407  6.383072  9.564407            0           0           0  
      0.001368  6.387568  3.192363            0           0           0  
      0.005902  6.375430  6.375430            0           0           0  
      3.167973  0.038164  0.038164            0           0           0  
      3.213559  9.506472  3.213559            0           0           0  
      3.192363  0.001368  6.387568            0           0           0  
      3.213559  3.213559  9.506472            0           0           0  
      3.190527  3.190527  6.344286            0           0           0  
      3.192363  6.387568  0.001368            0           0           0  
      3.190527  6.344286  3.190527            0           0           0  
      3.181124  6.370867  6.370867            0           0           0  
      6.383072  9.564407  9.564407            0           0           0  
      6.387568  0.001368  3.192363            0           0           0  
      6.375430  0.005902  6.375430            0           0           0  
      6.387568  3.192363  0.001368            0           0           0  
      6.344286  3.190527  3.190527            0           0           0  
      6.370867  3.181124  6.370867            0           0           0  
      6.375430  6.375430  0.005902            0           0           0  
      6.370867  6.370867  3.181124            0           0           0  
      6.373086  6.373086  6.373086            0           0           0  
      1.568950  1.568950  4.841057            0           0           0  
      1.591983  1.591983  8.003243            0           0           0  
      1.568950  4.841057  1.568950            0           0           0  
      1.614537  4.744345  4.744345            0           0           0  
      1.590146  4.781142  7.959961            0           0           0  
      1.591983  8.003243  1.591983            0           0           0  
      1.590146  7.959961  4.781142            0           0           0  
      1.601385  7.976662  7.976662            0           0           0  
      4.841057  1.568950  1.568950            0           0           0  
      4.744345  1.614537  4.744345            0           0           0  
      4.781142  1.590146  7.959961            0           0           0  
      4.744345  4.744345  1.614537            0           0           0  
      4.774551  4.774551  4.774551            0           0           0  
      4.783122  4.783122  7.964457            0           0           0  
      4.781142  7.959961  1.590146            0           0           0  
      4.783122  7.964457  4.783122            0           0           0  
      4.776608  7.972099  7.972099            0           0           0  
      8.003243  1.591983  1.591983            0           0           0  
      7.959961  1.590146  4.781142            0           0           0  
      7.976662  1.601385  7.976662            0           0           0  
      7.959961  4.781142  1.590146            0           0           0  
      7.964457  4.783122  4.783122            0           0           0  
      7.972099  4.776608  7.972099            0           0           0  
      7.976662  7.976662  1.601385            0           0           0  
      7.972099  7.972099  4.776608            0           0           0  
      7.974442  7.974442  7.974442            0           0           0  
 
   3 f/i=    2.329153 THz    14.634497 2PiTHz   77.692165 cm-1     9.632604 meV
             X         Y         Z           dx          dy          dz
      2.391255  2.391255  2.391255    -0.577501   -0.577249   -0.577300  
      0.007958  0.007958  0.007958            0           0           0  
      0.038164  0.038164  3.167973            0           0           0  
      9.564407  9.564407  6.383072            0           0           0  
      0.038164  3.167973  0.038164            0           0           0  
      9.506472  3.213559  3.213559            0           0           0  
      0.001368  3.192363  6.387568            0           0           0  
      9.564407  6.383072  9.564407            0           0           0  
      0.001368  6.387568  3.192363            0           0           0  
      0.005902  6.375430  6.375430            0           0           0  
      3.167973  0.038164  0.038164            0           0           0  
      3.213559  9.506472  3.213559            0           0           0  
      3.192363  0.001368  6.387568            0           0           0  
      3.213559  3.213559  9.506472            0           0           0  
      3.190527  3.190527  6.344286            0           0           0  
      3.192363  6.387568  0.001368            0           0           0  
      3.190527  6.344286  3.190527            0           0           0  
      3.181124  6.370867  6.370867            0           0           0  
      6.383072  9.564407  9.564407            0           0           0  
      6.387568  0.001368  3.192363            0           0           0  
      6.375430  0.005902  6.375430            0           0           0  
      6.387568  3.192363  0.001368            0           0           0  
      6.344286  3.190527  3.190527            0           0           0  
      6.370867  3.181124  6.370867            0           0           0  
      6.375430  6.375430  0.005902            0           0           0  
      6.370867  6.370867  3.181124            0           0           0  
      6.373086  6.373086  6.373086            0           0           0  
      1.568950  1.568950  4.841057            0           0           0  
      1.591983  1.591983  8.003243            0           0           0  
      1.568950  4.841057  1.568950            0           0           0  
      1.614537  4.744345  4.744345            0           0           0  
      1.590146  4.781142  7.959961            0           0           0  
      1.591983  8.003243  1.591983            0           0           0  
      1.590146  7.959961  4.781142            0           0           0  
      1.601385  7.976662  7.976662            0           0           0  
      4.841057  1.568950  1.568950            0           0           0  
      4.744345  1.614537  4.744345            0           0           0  
      4.781142  1.590146  7.959961            0           0           0  
      4.744345  4.744345  1.614537            0           0           0  
      4.774551  4.774551  4.774551            0           0           0  
      4.783122  4.783122  7.964457            0           0           0  
      4.781142  7.959961  1.590146            0           0           0  
      4.783122  7.964457  4.783122            0           0           0  
      4.776608  7.972099  7.972099            0           0           0  
      8.003243  1.591983  1.591983            0           0           0  
      7.959961  1.590146  4.781142            0           0           0  
      7.976662  1.601385  7.976662            0           0           0  
      7.959961  4.781142  1.590146            0           0           0  
      7.964457  4.783122  4.783122            0           0           0  
      7.972099  4.776608  7.972099            0           0           0  
      7.976662  7.976662  1.601385            0           0           0  
      7.972099  7.972099  4.776608            0           0           0  
      7.974442  7.974442  7.974442            0           0           0  
 
 Finite differences POTIM=  5.000000000000000E-002
  LATTYP: Found a simple cubic cell.
 ALAT       =     9.5650190000
  
  Lattice vectors:
  
 A1 = (   9.5650190000,   0.0000000000,   0.0000000000)
 A2 = (   0.0000000000,   9.5650190000,   0.0000000000)
 A3 = (   0.0000000000,   0.0000000000,   9.5650190000)


Analysis of symmetry for initial positions (statically):
=====================================================================
 Subroutine PRICEL returns:
 Original cell was already a primitive cell.
 

 Routine SETGRP: Setting up the symmetry group for a 
 simple cubic supercell.


 Subroutine GETGRP returns: Found 12 space group operations
 (whereof  6 operations were pure point group operations)
 out of a pool of 48 trial point group operations.


The static configuration has the point symmetry C_3v.
 The point group associated with its full space group is D_3d.


Analysis of symmetry for dynamics (positions and initial velocities):
=====================================================================
 Subroutine PRICEL returns:
 Original cell was already a primitive cell.
 

 Routine SETGRP: Setting up the symmetry group for a 
 simple cubic supercell.


 Subroutine GETGRP returns: Found 12 space group operations
 (whereof  6 operations were pure point group operations)
 out of a pool of 48 trial point group operations.


The dynamic configuration has the point symmetry C_3v.
 The point group associated with its full space group is D_3d.


Analysis of constrained symmetry for selective dynamics:
=====================================================================
 Subroutine PRICEL returns:
 Original cell was already a primitive cell.
 

 Routine SETGRP: Setting up the symmetry group for a 
 simple cubic supercell.


 Subroutine GETGRP returns: Found 12 space group operations
 (whereof  6 operations were pure point group operations)
 out of a pool of 48 trial point group operations.


The constrained configuration has the point symmetry C_3v.
 The point group associated with its full space group is D_3d.


Analysis of magnetic symmetry:
=====================================================================

 Subroutine MAGSYM returns: Found 12 space group operations
 (whereof  6 operations were pure point group operations)
 out of a pool of 12 trial space group operations
 (whereof  6 operations were pure point group operations)
 and found also     1 'primitive' translations


The magnetic configuration has the point symmetry C_3v.
 The point group associated with its full space group is D_3d.
 
 KPOINTS: Automatic kpoint scheme                 

Automatic generation of k-mesh.
Space group operators:
 irot       det(A)        alpha          n_x          n_y          n_z        tau_x        tau_y        tau_z
    1     1.000000     0.000000     1.000000     0.000000     0.000000     0.000000     0.000000     0.000000
    2     1.000000   120.000000    -0.577350    -0.577350    -0.577350     0.000000     0.000000     0.000000
    3     1.000000   120.000000     0.577350     0.577350     0.577350     0.000000     0.000000     0.000000
    4    -1.000000   180.000000     0.000000    -0.707107     0.707107     0.000000     0.000000     0.000000
    5    -1.000000   180.000000     0.707107    -0.707107     0.000000     0.000000     0.000000     0.000000
    6    -1.000000   180.000000     0.707107     0.000000    -0.707107     0.000000     0.000000     0.000000
    7    -1.000000     0.000000     1.000000     0.000000     0.000000     0.500000     0.500000     0.500000
    8    -1.000000   120.000000    -0.577350    -0.577350    -0.577350     0.500000     0.500000     0.500000
    9    -1.000000   120.000000     0.577350     0.577350     0.577350     0.500000     0.500000     0.500000
   10     1.000000   180.000000     0.000000    -0.707107     0.707107     0.500000     0.500000     0.500000
   11     1.000000   180.000000     0.707107    -0.707107     0.000000     0.500000     0.500000     0.500000
   12     1.000000   180.000000     0.707107     0.000000    -0.707107     0.500000     0.500000     0.500000
 
 Subroutine IBZKPT returns following result:
 ===========================================
 
 Found     10 irreducible k-points:
 
 Following reciprocal coordinates:
            Coordinates               Weight
  0.125000  0.125000  0.125000      2.000000
  0.375000  0.125000  0.125000      6.000000
 -0.375000  0.125000  0.125000      6.000000
 -0.125000  0.125000  0.125000      6.000000
  0.375000  0.375000  0.125000      6.000000
 -0.375000  0.375000  0.125000     12.000000
 -0.125000  0.375000  0.125000     12.000000
 -0.375000 -0.375000  0.125000      6.000000
  0.375000  0.375000  0.375000      2.000000
 -0.375000  0.375000  0.375000      6.000000
 
 Following cartesian coordinates:
            Coordinates               Weight
  0.013068  0.013068  0.013068      2.000000
  0.039205  0.013068  0.013068      6.000000
 -0.039205  0.013068  0.013068      6.000000
 -0.013068  0.013068  0.013068      6.000000
  0.039205  0.039205  0.013068      6.000000
 -0.039205  0.039205  0.013068     12.000000
 -0.013068  0.039205  0.013068     12.000000
 -0.039205 -0.039205  0.013068      6.000000
  0.039205  0.039205  0.039205      2.000000
 -0.039205  0.039205  0.039205      6.000000
 
     LOOP+:  cpu time 2798.00: real time 2813.28
    4ORBIT:  cpu time    0.00: real time    0.00

 total amount of memory used by VASP on root node   231198. kBytes
========================================================================

   base      :      30000. kBytes
   nonlr-proj:      50805. kBytes
   fftplans  :       4920. kBytes
   grid      :      30392. kBytes
   one-center:       1648. kBytes
   wavefun   :     113433. kBytes
 
  
  
 General timing and accounting informations for this job:
 ========================================================
  
                  Total CPU time used (sec):    18793.594
                            User time (sec):    18743.581
                          System time (sec):       50.013
                         Elapsed time (sec):    18878.355
  
                   Maximum memory used (kb):      681500.
                   Average memory used (kb):           0.
  
                          Minor page faults:       514550
                          Major page faults:            1
                 Voluntary context switches:     14493371
