 vasp.5.3.3 18Dez12 (build Aug 26 2013 15:55:55) complex                        
  
 executed on             LinuxIFC date 2015.04.18  10:20:53
 running on   20 total cores
 distrk:  each k-point on   20 cores,    1 groups
 distr:  one band on NCORES_PER_BAND=   1 cores,   20 groups


--------------------------------------------------------------------------------------------------------


 INCAR:
 POTCAR:    PAW_PBE Ag 02Apr2005                  
 POTCAR:   PAW_PBE W_pv 06Sep2000                 

 ----------------------------------------------------------------------------- 
|                                                                             |
|           W    W    AA    RRRRR   N    N  II  N    N   GGGG   !!!           |
|           W    W   A  A   R    R  NN   N  II  NN   N  G    G  !!!           |
|           W    W  A    A  R    R  N N  N  II  N N  N  G       !!!           |
|           W WW W  AAAAAA  RRRRR   N  N N  II  N  N N  G  GGG   !            |
|           WW  WW  A    A  R   R   N   NN  II  N   NN  G    G                |
|           W    W  A    A  R    R  N    N  II  N    N   GGGG   !!!           |
|                                                                             |
|      For optimal performance we recommend that you set                      |
|        NPAR = 4 - approx SQRT( number of cores)                             |
|      (number of cores/NPAR must be integer)                                 |
|      This setting will greatly improve the performance of VASP for DFT.     |
|      The default NPAR=number of cores might be grossly inefficient          |
|      on modern multi-core architectures or massively parallel machines.     |
|      Do your own testing.                                                   |
|      Unfortunately you need to use the default for hybrid, GW and RPA       |
|      calculations.                                                          |
|                                                                             |
 ----------------------------------------------------------------------------- 

 POTCAR:    PAW_PBE Ag 02Apr2005                  
   VRHFIN =Ag : s1 d10                                                          
   LEXCH  = PE                                                                  
   EATOM  =  1037.2671 eV,   76.2370 Ry                                         
                                                                                
   TITEL  = PAW_PBE Ag 02Apr2005                                                
   LULTRA =        F    use ultrasoft PP ?                                      
   IUNSCR =        1    unscreen: 0-lin 1-nonlin 2-no                           
   RPACOR =    2.000    partial core radius                                     
   POMASS =  107.868; ZVAL   =   11.000    mass and valenz                      
   RCORE  =    2.500    outmost cutoff radius                                   
   RWIGS  =    2.840; RWIGS  =    1.503    wigner-seitz radius (au A)           
   ENMAX  =  249.844; ENMIN  =  187.383 eV                                      
   ICORE  =        3    local potential                                         
   LCOR   =        T    correct aug charges                                     
   LPAW   =        T    paw PP                                                  
   EAUG   =  412.496                                                            
   DEXC   =     .000                                                            
   RMAX   =    2.917    core radius for proj-oper                               
   RAUG   =    1.300    factor for augmentation sphere                          
   RDEP   =    2.576    radius for radial grids                                 
   QCUT   =   -4.285; QGAM   =    8.570    optimization parameters              
                                                                                
   Description                                                                  
     l     E      TYP  RCUT    TYP  RCUT                                        
     2   .000     23  2.400                                                     
     2   .000     23  2.400                                                     
     0   .000     23  2.400                                                     
     0   .000     23  2.400                                                     
     1  -.100     23  2.500                                                     
     1  2.000     23  2.500                                                     
     3  -.300     23  2.400                                                     
  local pseudopotential read in
  partial core-charges read in
  atomic valenz-charges read in
  non local Contribution for L=           2  read in
    real space projection operators read in
  non local Contribution for L=           2  read in
    real space projection operators read in
  non local Contribution for L=           0  read in
    real space projection operators read in
  non local Contribution for L=           0  read in
    real space projection operators read in
  non local Contribution for L=           1  read in
    real space projection operators read in
  non local Contribution for L=           1  read in
    real space projection operators read in
    PAW grid and wavefunctions read in
 
   number of l-projection  operators is LMAX  =           6
   number of lm-projection operators is LMMAX =          18
 
 POTCAR:   PAW_PBE W_pv 06Sep2000                 
   VRHFIN =W : 5p6s5d                                                           
   LEXCH  = PE                                                                  
   EATOM  =  1260.0376 eV,   92.6101 Ry                                         
                                                                                
   TITEL  = PAW_PBE W_pv 06Sep2000                                              
   LULTRA =        F    use ultrasoft PP ?                                      
   IUNSCR =        1    unscreen: 0-lin 1-nonlin 2-no                           
   RPACOR =    2.330    partial core radius                                     
   POMASS =  183.850; ZVAL   =   12.000    mass and valenz                      
   RCORE  =    2.500    outmost cutoff radius                                   
   RWIGS  =    2.750; RWIGS  =    1.455    wigner-seitz radius (au A)           
   ENMAX  =  223.065; ENMIN  =  167.299 eV                                      
   RCLOC  =    2.147    cutoff for local pot                                    
   LCOR   =        T    correct aug charges                                     
   LPAW   =        T    paw PP                                                  
   EAUG   =  373.438                                                            
   DEXC   =    -.018                                                            
   RMAX   =    3.087    core radius for proj-oper                               
   RAUG   =    1.300    factor for augmentation sphere                          
   RDEP   =    2.539    radius for radial grids                                 
   QCUT   =   -4.049; QGAM   =    8.098    optimization parameters              
                                                                                
   Description                                                                  
     l     E      TYP  RCUT    TYP  RCUT                                        
     1   .000     23  2.500                                                     
     1  -.200     23  2.500                                                     
     2   .000     23  2.500                                                     
     2   .000     23  2.500                                                     
     0   .000     23  2.500                                                     
     0   .000     23  2.500                                                     
     3   .000      7   .000                                                     
  local pseudopotential read in
  partial core-charges read in
  atomic valenz-charges read in
  non local Contribution for L=           1  read in
    real space projection operators read in
  non local Contribution for L=           1  read in
    real space projection operators read in
  non local Contribution for L=           2  read in
    real space projection operators read in
  non local Contribution for L=           2  read in
    real space projection operators read in
  non local Contribution for L=           0  read in
    real space projection operators read in
  non local Contribution for L=           0  read in
    real space projection operators read in
    PAW grid and wavefunctions read in
 
   number of l-projection  operators is LMAX  =           6
   number of lm-projection operators is LMMAX =          18
 
 Optimization of the real space projectors (new method)

 maximal supplied QI-value         = 15.12
 optimisation between [QCUT,QGAM] = [ 10.13, 20.41] = [ 28.73,116.64] Ry 
 Optimized for a Real-space Cutoff    1.55 Angstroem

   l    n(q)    QCUT    max X(q) W(low)/X(q) W(high)/X(q)  e(spline) 
   2      9    10.129     4.129    0.25E-04    0.14E-04    0.66E-07
   2      9    10.129    12.470    0.12E-03    0.58E-04    0.12E-06
   0      9    10.129    16.625    0.16E-04    0.12E-05    0.80E-08
   0      9    10.129    93.080    0.43E-04    0.60E-05    0.80E-07
   1      9    10.129     6.858    0.12E-04    0.37E-05    0.21E-07
   1      9    10.129    10.884    0.10E-03    0.55E-05    0.10E-06
 Optimization of the real space projectors (new method)

 maximal supplied QI-value         = 15.12
 optimisation between [QCUT,QGAM] = [ 10.13, 20.41] = [ 28.73,116.64] Ry 
 Optimized for a Real-space Cutoff    1.65 Angstroem

   l    n(q)    QCUT    max X(q) W(low)/X(q) W(high)/X(q)  e(spline) 
   1     10    10.129     4.922    0.37E-05    0.98E-05    0.22E-07
   1     10    10.129     5.461    0.53E-04    0.42E-05    0.17E-06
   2      9    10.129     3.602    0.19E-04    0.55E-05    0.62E-07
   2      9    10.129    60.440    0.17E-03    0.27E-03    0.52E-06
   0     10    10.129    21.769    0.24E-04    0.29E-05    0.97E-08
   0     10    10.129    71.369    0.49E-04    0.40E-04    0.14E-06
  PAW_PBE Ag 02Apr2005                  :
 energy of atom  1       EATOM=-1037.2671
 kinetic energy error for atom=    0.0091 (will be added to EATOM!!)
 PAW_PBE W_pv 06Sep2000                 :
 energy of atom  2       EATOM=-1260.0376
 kinetic energy error for atom=    0.0051 (will be added to EATOM!!)
 
 
 POSCAR: Ag1 W52                                 
  positions in direct lattice
  velocities in cartesian coordinates
 exchange correlation table for  LEXCH =        8
   RHO(1)=    0.500       N(1)  =     2000
   RHO(2)=  100.500       N(2)  =     4000

 VTST: version 3.0c, (03/27/13)

 CHAIN: initializing optimizer
 
 OPT: Using VASP Dynamics algorithm
 CHAIN: Read ICHAIN            0
 
 POSCAR: Ag1 W52                                 
  positions in direct lattice
  velocities in cartesian coordinates
 


--------------------------------------------------------------------------------------------------------


 ion  position               nearest neighbor table
   1  0.169  0.169  0.169-   6 2.79  12 2.79  14 2.79  15 2.80   5 2.82   3 2.82  11 2.82   2 2.83
                            29 3.15  31 3.15  37 3.15  34 3.20  30 3.20  45 3.20
   2  0.998  0.998  0.998-  53 2.74  47 2.76  51 2.76  36 2.76  34 2.77  30 2.77  45 2.77   1 2.83
                             8 3.18  20 3.18   4 3.18  11 3.23   5 3.23   3 3.23
   3  0.997  0.997  0.336-  52 2.73  51 2.75  35 2.76  46 2.76  45 2.77  34 2.77  29 2.77   1 2.82
                             4 3.16  21 3.17   9 3.17   2 3.23   6 3.23  12 3.23
   4  0.000  0.000  0.666-  52 2.76  46 2.76  35 2.76  47 2.77  36 2.77  53 2.77  29 2.77  30 2.78
                             3 3.16   2 3.18   7 3.19  13 3.19  10 3.19  22 3.19
   5  0.997  0.336  0.997-  50 2.73  47 2.75  48 2.76  33 2.76  45 2.77  30 2.77  31 2.77   1 2.82
                             8 3.16   7 3.17  23 3.17   2 3.23   6 3.23  14 3.23
   6  0.998  0.335  0.335-  49 2.75  48 2.75  46 2.75  45 2.76  29 2.76  31 2.76  32 2.77   1 2.79
                             9 3.16   7 3.16  24 3.19   3 3.23   5 3.23  15 3.26
   7  0.000  0.333  0.666-  46 2.76  33 2.76  47 2.76  50 2.77  32 2.77  29 2.77  30 2.77  49 2.78
                             6 3.16   5 3.17  10 3.19   4 3.19  25 3.20  16 3.20
   8  0.000  0.666  0.000-  50 2.76  48 2.76  33 2.76  36 2.77  51 2.77  53 2.77  31 2.77  34 2.78
                             5 3.16   2 3.18   9 3.19  17 3.19  26 3.19  10 3.19
   9  0.000  0.666  0.333-  48 2.76  35 2.76  51 2.76  52 2.77  32 2.77  31 2.77  34 2.77  49 2.78
                             6 3.16   3 3.17  10 3.19   8 3.19  27 3.20  18 3.20
  10  0.000  0.667  0.667-  36 2.75  53 2.76  52 2.76  50 2.76  33 2.76  35 2.76  32 2.77  49 2.77
                             7 3.19   9 3.19   4 3.19   8 3.19  19 3.20  28 3.21
  11  0.336  0.997  0.997-  44 2.73  36 2.75  42 2.76  39 2.76  30 2.77  34 2.77  37 2.77   1 2.82
                            20 3.16  13 3.17  17 3.17   2 3.23  14 3.23  12 3.23
  12  0.335  0.998  0.335-  43 2.75  42 2.75  35 2.75  34 2.76  29 2.76  37 2.76  38 2.77   1 2.79
                            21 3.16  13 3.16  18 3.19   3 3.23  11 3.23  15 3.26
  13  0.333  0.000  0.666-  35 2.76  39 2.76  36 2.76  44 2.77  38 2.77  29 2.77  30 2.77  43 2.78
                            12 3.16  11 3.17  22 3.19   4 3.19  19 3.20  16 3.20
  14  0.335  0.335  0.998-  41 2.75  39 2.75  33 2.75  30 2.76  31 2.76  37 2.76  40 2.77   1 2.79
                            23 3.16  17 3.16  16 3.19   5 3.23  11 3.23  15 3.26
  15  0.338  0.338  0.338-  32 2.73  38 2.73  40 2.73  37 2.77  31 2.77  29 2.77   1 2.80  16 3.12
                            18 3.12  24 3.12   6 3.26  12 3.26  14 3.26
  16  0.335  0.335  0.664-  32 2.74  38 2.74  41 2.74  39 2.77  33 2.77  29 2.78  30 2.80  15 3.12
                            25 3.16  19 3.16  14 3.19  13 3.20   7 3.20
  17  0.333  0.666  0.000-  33 2.76  42 2.76  36 2.76  44 2.77  40 2.77  31 2.77  34 2.77  41 2.78
                            14 3.16  11 3.17  26 3.19   8 3.19  19 3.20  18 3.20
  18  0.335  0.664  0.335-  32 2.74  40 2.74  43 2.74  42 2.77  35 2.77  31 2.78  34 2.80  15 3.12
                            27 3.16  19 3.16  12 3.19  17 3.20   9 3.20
  19  0.335  0.666  0.666-  41 2.74  43 2.74  32 2.74  33 2.76  35 2.76  44 2.76  36 2.77  28 3.16
                            16 3.16  18 3.16  10 3.20  17 3.20  13 3.20
  20  0.666  0.000  0.000-  44 2.76  42 2.76  39 2.76  47 2.77  51 2.77  53 2.77  37 2.77  45 2.78
                            11 3.16   2 3.18  21 3.19  23 3.19  26 3.19  22 3.19
  21  0.666  0.000  0.333-  42 2.76  46 2.76  51 2.76  52 2.77  38 2.77  37 2.77  45 2.77  43 2.78
                            12 3.16   3 3.17  22 3.19  20 3.19  27 3.20  24 3.20
  22  0.667  0.000  0.667-  47 2.75  53 2.76  52 2.76  44 2.76  46 2.76  39 2.76  38 2.77  43 2.77
                            13 3.19  21 3.19   4 3.19  20 3.19  25 3.20  28 3.21
  23  0.666  0.333  0.000-  39 2.76  48 2.76  47 2.76  50 2.77  40 2.77  37 2.77  45 2.77  41 2.78
                            14 3.16   5 3.17  26 3.19  20 3.19  25 3.20  24 3.20
  24  0.664  0.335  0.335-  38 2.74  40 2.74  49 2.74  48 2.77  46 2.77  37 2.78  45 2.80  15 3.12
                            27 3.16  25 3.16   6 3.19  23 3.20  21 3.20
  25  0.666  0.335  0.666-  41 2.74  49 2.74  38 2.74  46 2.76  39 2.76  50 2.76  47 2.77  28 3.16
                            16 3.16  24 3.16  22 3.20  23 3.20   7 3.20
  26  0.667  0.667  0.000-  51 2.75  53 2.76  44 2.76  50 2.76  48 2.76  42 2.76  40 2.77  41 2.77
                            17 3.19  23 3.19  20 3.19   8 3.19  27 3.20  28 3.21
  27  0.666  0.666  0.335-  43 2.74  49 2.74  40 2.74  48 2.76  42 2.76  52 2.76  51 2.77  28 3.16
                            18 3.16  24 3.16  26 3.20   9 3.20  21 3.20
  28  0.665  0.665  0.665-  41 2.73  43 2.73  49 2.73  44 2.76  50 2.76  52 2.76  53 2.78  25 3.16
                            27 3.16  19 3.16  26 3.21  22 3.21  10 3.21
  29  0.167  0.167  0.498-   6 2.76  12 2.76   7 2.77  13 2.77   3 2.77   4 2.77  15 2.77  16 2.78
                             1 3.15  32 3.19  38 3.19  35 3.20  46 3.20  30 3.22
  30  0.167  0.167  0.835-  14 2.76  11 2.77   5 2.77  13 2.77   7 2.77   2 2.77   4 2.78  16 2.80
                            33 3.18  39 3.18   1 3.20  36 3.20  47 3.20  29 3.22
  31  0.167  0.498  0.167-   6 2.76  14 2.76   9 2.77  17 2.77   5 2.77   8 2.77  15 2.77  18 2.78
                             1 3.15  32 3.19  40 3.19  33 3.20  48 3.20  34 3.22
  32  0.169  0.500  0.500-  15 2.73  16 2.74  18 2.74  19 2.74  10 2.77   6 2.77   9 2.77   7 2.77
                            33 3.18  35 3.18  29 3.19  31 3.19  49 3.24
  33  0.167  0.500  0.833-  14 2.75   5 2.76  10 2.76  19 2.76  17 2.76   7 2.76   8 2.76  16 2.77
                            32 3.18  36 3.18  30 3.18  41 3.19  31 3.20  50 3.20
  34  0.167  0.835  0.167-  12 2.76  11 2.77   3 2.77   9 2.77  17 2.77   2 2.77   8 2.78  18 2.80
                            35 3.18  42 3.18   1 3.20  36 3.20  51 3.20  31 3.22
  35  0.167  0.833  0.500-  12 2.75   3 2.76  10 2.76  19 2.76  13 2.76   9 2.76   4 2.76  18 2.77
                            32 3.18  36 3.18  34 3.18  43 3.19  29 3.20  52 3.20
  36  0.167  0.833  0.833-  11 2.75  10 2.75   2 2.76  13 2.76  17 2.76   4 2.77   8 2.77  19 2.77
                            35 3.18  33 3.18  44 3.19  53 3.20  34 3.20  30 3.20
  37  0.498  0.167  0.167-  12 2.76  14 2.76  21 2.77  23 2.77  11 2.77  20 2.77  15 2.77  24 2.78
                             1 3.15  38 3.19  40 3.19  39 3.20  42 3.20  45 3.22
  38  0.500  0.169  0.500-  15 2.73  16 2.74  24 2.74  25 2.74  22 2.77  12 2.77  21 2.77  13 2.77
                            39 3.18  46 3.18  29 3.19  37 3.19  43 3.24
  39  0.500  0.167  0.833-  14 2.75  11 2.76  22 2.76  25 2.76  23 2.76  13 2.76  20 2.76  16 2.77
                            38 3.18  47 3.18  30 3.18  41 3.19  37 3.20  44 3.20
  40  0.500  0.500  0.169-  15 2.73  18 2.74  24 2.74  27 2.74  26 2.77  14 2.77  23 2.77  17 2.77
                            42 3.18  48 3.18  31 3.19  37 3.19  41 3.24
  41  0.500  0.500  0.830-  28 2.73  25 2.74  19 2.74  16 2.74  14 2.75  26 2.77  23 2.78  17 2.78
                            44 3.18  50 3.18  33 3.19  39 3.19  40 3.24
  42  0.500  0.833  0.167-  12 2.75  11 2.76  26 2.76  27 2.76  21 2.76  17 2.76  20 2.76  18 2.77
                            40 3.18  51 3.18  34 3.18  43 3.19  37 3.20  44 3.20
  43  0.500  0.830  0.500-  28 2.73  27 2.74  19 2.74  18 2.74  12 2.75  22 2.77  13 2.78  21 2.78
                            44 3.18  52 3.18  35 3.19  42 3.19  38 3.24
  44  0.501  0.833  0.833-  11 2.73  22 2.76  26 2.76  28 2.76  19 2.76  20 2.76  17 2.77  13 2.77
                            53 3.17  43 3.18  41 3.18  36 3.19  39 3.20  42 3.20
  45  0.835  0.167  0.167-   6 2.76   5 2.77   3 2.77  21 2.77  23 2.77   2 2.77  20 2.78  24 2.80
                            46 3.18  48 3.18   1 3.20  47 3.20  51 3.20  37 3.22
  46  0.833  0.167  0.500-   6 2.75   3 2.76  22 2.76  25 2.76   7 2.76  21 2.76   4 2.76  24 2.77
                            38 3.18  47 3.18  45 3.18  49 3.19  29 3.20  52 3.20
  47  0.833  0.167  0.833-   5 2.75  22 2.75   2 2.76   7 2.76  23 2.76   4 2.77  20 2.77  25 2.77
                            46 3.18  39 3.18  50 3.19  53 3.20  45 3.20  30 3.20
  48  0.833  0.500  0.167-   6 2.75   5 2.76  26 2.76  27 2.76   9 2.76  23 2.76   8 2.76  24 2.77
                            40 3.18  51 3.18  45 3.18  49 3.19  31 3.20  50 3.20
  49  0.830  0.500  0.500-  28 2.73  27 2.74  25 2.74  24 2.74   6 2.75  10 2.77   7 2.78   9 2.78
                            50 3.18  52 3.18  46 3.19  48 3.19  32 3.24
  50  0.833  0.501  0.833-   5 2.73  10 2.76  26 2.76  28 2.76  25 2.76   8 2.76  23 2.77   7 2.77
                            53 3.17  49 3.18  41 3.18  47 3.19  33 3.20  48 3.20
  51  0.833  0.833  0.167-   3 2.75  26 2.75   2 2.76  21 2.76   9 2.76   8 2.77  20 2.77  27 2.77
                            42 3.18  48 3.18  52 3.19  53 3.20  45 3.20  34 3.20
  52  0.833  0.833  0.501-   3 2.73  10 2.76  22 2.76  28 2.76  27 2.76   4 2.76  21 2.77   9 2.77
                            53 3.17  49 3.18  43 3.18  51 3.19  46 3.20  35 3.20
  53  0.832  0.832  0.832-   2 2.74  10 2.76  22 2.76  26 2.76  20 2.77   8 2.77   4 2.77  28 2.78
                            44 3.17  50 3.17  52 3.17  36 3.20  47 3.20  51 3.20
 
  LATTYP: Found a simple cubic cell.
 ALAT       =     9.5650190000
  
  Lattice vectors:
  
 A1 = (   9.5650190000,   0.0000000000,   0.0000000000)
 A2 = (   0.0000000000,   9.5650190000,   0.0000000000)
 A3 = (   0.0000000000,   0.0000000000,   9.5650190000)


Analysis of symmetry for initial positions (statically):
=====================================================================
 Subroutine PRICEL returns:
 Original cell was already a primitive cell.
 

 Routine SETGRP: Setting up the symmetry group for a 
 simple cubic supercell.


 Subroutine GETGRP returns: Found  6 space group operations
 (whereof  6 operations were pure point group operations)
 out of a pool of 48 trial point group operations.


The static configuration has the point symmetry C_3v.


Analysis of symmetry for dynamics (positions and initial velocities):
=====================================================================
 Subroutine PRICEL returns:
 Original cell was already a primitive cell.
 

 Routine SETGRP: Setting up the symmetry group for a 
 simple cubic supercell.


 Subroutine GETGRP returns: Found  6 space group operations
 (whereof  6 operations were pure point group operations)
 out of a pool of 48 trial point group operations.


The dynamic configuration has the point symmetry C_3v.


Analysis of constrained symmetry for selective dynamics:
=====================================================================
 Subroutine PRICEL returns:
 Original cell was already a primitive cell.
 

 Routine SETGRP: Setting up the symmetry group for a 
 simple cubic supercell.


 Subroutine GETGRP returns: Found  6 space group operations
 (whereof  6 operations were pure point group operations)
 out of a pool of 48 trial point group operations.


The constrained configuration has the point symmetry C_3v.


Analysis of magnetic symmetry:
=====================================================================

 Subroutine MAGSYM returns: Found  6 space group operations
 (whereof  6 operations were pure point group operations)
 out of a pool of  6 trial space group operations
 (whereof  6 operations were pure point group operations)
 and found also     1 'primitive' translations


The magnetic configuration has the point symmetry C_3v.


 irot  :   1
 --------------------------------------------------------------------
 isymop:   1   0   0
           0   1   0
           0   0   1

 gtrans:     0.0000000     0.0000000     0.0000000

 ptrans:     0.0000000     0.0000000     0.0000000
 rotmap:
 (   1->   1)  (   2->   2)  (   3->   3)  (   4->   4)  (   5->   5) 
 (   6->   6)  (   7->   7)  (   8->   8)  (   9->   9)  (  10->  10) 
 (  11->  11)  (  12->  12)  (  13->  13)  (  14->  14)  (  15->  15) 
 (  16->  16)  (  17->  17)  (  18->  18)  (  19->  19)  (  20->  20) 
 (  21->  21)  (  22->  22)  (  23->  23)  (  24->  24)  (  25->  25) 
 (  26->  26)  (  27->  27)  (  28->  28)  (  29->  29)  (  30->  30) 
 (  31->  31)  (  32->  32)  (  33->  33)  (  34->  34)  (  35->  35) 
 (  36->  36)  (  37->  37)  (  38->  38)  (  39->  39)  (  40->  40) 
 (  41->  41)  (  42->  42)  (  43->  43)  (  44->  44)  (  45->  45) 
 (  46->  46)  (  47->  47)  (  48->  48)  (  49->  49)  (  50->  50) 
 (  51->  51)  (  52->  52)  (  53->  53) 


 irot  :   2
 --------------------------------------------------------------------
 isymop:   0   0   1
           1   0   0
           0   1   0

 gtrans:     0.0000000     0.0000000     0.0000000

 ptrans:     0.0000000     0.0000000     0.0000000
 rotmap:
 (   1->   1)  (   2->   2)  (   3->  11)  (   4->  20)  (   5->   3) 
 (   6->  12)  (   7->  21)  (   8->   4)  (   9->  13)  (  10->  22) 
 (  11->   5)  (  12->  14)  (  13->  23)  (  14->   6)  (  15->  15) 
 (  16->  24)  (  17->   7)  (  18->  16)  (  19->  25)  (  20->   8) 
 (  21->  17)  (  22->  26)  (  23->   9)  (  24->  18)  (  25->  27) 
 (  26->  10)  (  27->  19)  (  28->  28)  (  29->  37)  (  30->  45) 
 (  31->  29)  (  32->  38)  (  33->  46)  (  34->  30)  (  35->  39) 
 (  36->  47)  (  37->  31)  (  38->  40)  (  39->  48)  (  40->  32) 
 (  41->  49)  (  42->  33)  (  43->  41)  (  44->  50)  (  45->  34) 
 (  46->  42)  (  47->  51)  (  48->  35)  (  49->  43)  (  50->  52) 
 (  51->  36)  (  52->  44)  (  53->  53) 


 irot  :   3
 --------------------------------------------------------------------
 isymop:   0   1   0
           0   0   1
           1   0   0

 gtrans:     0.0000000     0.0000000     0.0000000

 ptrans:     0.0000000     0.0000000     0.0000000
 rotmap:
 (   1->   1)  (   2->   2)  (   3->   5)  (   4->   8)  (   5->  11) 
 (   6->  14)  (   7->  17)  (   8->  20)  (   9->  23)  (  10->  26) 
 (  11->   3)  (  12->   6)  (  13->   9)  (  14->  12)  (  15->  15) 
 (  16->  18)  (  17->  21)  (  18->  24)  (  19->  27)  (  20->   4) 
 (  21->   7)  (  22->  10)  (  23->  13)  (  24->  16)  (  25->  19) 
 (  26->  22)  (  27->  25)  (  28->  28)  (  29->  31)  (  30->  34) 
 (  31->  37)  (  32->  40)  (  33->  42)  (  34->  45)  (  35->  48) 
 (  36->  51)  (  37->  29)  (  38->  32)  (  39->  35)  (  40->  38) 
 (  41->  43)  (  42->  46)  (  43->  49)  (  44->  52)  (  45->  30) 
 (  46->  33)  (  47->  36)  (  48->  39)  (  49->  41)  (  50->  44) 
 (  51->  47)  (  52->  50)  (  53->  53) 


 irot  :   4
 --------------------------------------------------------------------
 isymop:   1   0   0
           0   0   1
           0   1   0

 gtrans:     0.0000000     0.0000000     0.0000000

 ptrans:     0.0000000     0.0000000     0.0000000
 rotmap:
 (   1->   1)  (   2->   2)  (   3->   5)  (   4->   8)  (   5->   3) 
 (   6->   6)  (   7->   9)  (   8->   4)  (   9->   7)  (  10->  10) 
 (  11->  11)  (  12->  14)  (  13->  17)  (  14->  12)  (  15->  15) 
 (  16->  18)  (  17->  13)  (  18->  16)  (  19->  19)  (  20->  20) 
 (  21->  23)  (  22->  26)  (  23->  21)  (  24->  24)  (  25->  27) 
 (  26->  22)  (  27->  25)  (  28->  28)  (  29->  31)  (  30->  34) 
 (  31->  29)  (  32->  32)  (  33->  35)  (  34->  30)  (  35->  33) 
 (  36->  36)  (  37->  37)  (  38->  40)  (  39->  42)  (  40->  38) 
 (  41->  43)  (  42->  39)  (  43->  41)  (  44->  44)  (  45->  45) 
 (  46->  48)  (  47->  51)  (  48->  46)  (  49->  49)  (  50->  52) 
 (  51->  47)  (  52->  50)  (  53->  53) 


 irot  :   5
 --------------------------------------------------------------------
 isymop:   0   1   0
           1   0   0
           0   0   1

 gtrans:     0.0000000     0.0000000     0.0000000

 ptrans:     0.0000000     0.0000000     0.0000000
 rotmap:
 (   1->   1)  (   2->   2)  (   3->   3)  (   4->   4)  (   5->  11) 
 (   6->  12)  (   7->  13)  (   8->  20)  (   9->  21)  (  10->  22) 
 (  11->   5)  (  12->   6)  (  13->   7)  (  14->  14)  (  15->  15) 
 (  16->  16)  (  17->  23)  (  18->  24)  (  19->  25)  (  20->   8) 
 (  21->   9)  (  22->  10)  (  23->  17)  (  24->  18)  (  25->  19) 
 (  26->  26)  (  27->  27)  (  28->  28)  (  29->  29)  (  30->  30) 
 (  31->  37)  (  32->  38)  (  33->  39)  (  34->  45)  (  35->  46) 
 (  36->  47)  (  37->  31)  (  38->  32)  (  39->  33)  (  40->  40) 
 (  41->  41)  (  42->  48)  (  43->  49)  (  44->  50)  (  45->  34) 
 (  46->  35)  (  47->  36)  (  48->  42)  (  49->  43)  (  50->  44) 
 (  51->  51)  (  52->  52)  (  53->  53) 


 irot  :   6
 --------------------------------------------------------------------
 isymop:   0   0   1
           0   1   0
           1   0   0

 gtrans:     0.0000000     0.0000000     0.0000000

 ptrans:     0.0000000     0.0000000     0.0000000
 rotmap:
 (   1->   1)  (   2->   2)  (   3->  11)  (   4->  20)  (   5->   5) 
 (   6->  14)  (   7->  23)  (   8->   8)  (   9->  17)  (  10->  26) 
 (  11->   3)  (  12->  12)  (  13->  21)  (  14->   6)  (  15->  15) 
 (  16->  24)  (  17->   9)  (  18->  18)  (  19->  27)  (  20->   4) 
 (  21->  13)  (  22->  22)  (  23->   7)  (  24->  16)  (  25->  25) 
 (  26->  10)  (  27->  19)  (  28->  28)  (  29->  37)  (  30->  45) 
 (  31->  31)  (  32->  40)  (  33->  48)  (  34->  34)  (  35->  42) 
 (  36->  51)  (  37->  29)  (  38->  38)  (  39->  46)  (  40->  32) 
 (  41->  49)  (  42->  35)  (  43->  43)  (  44->  52)  (  45->  30) 
 (  46->  39)  (  47->  47)  (  48->  33)  (  49->  41)  (  50->  50) 
 (  51->  36)  (  52->  44)  (  53->  53) 
 
 
 KPOINTS: Automatic kpoint scheme                 

Automatic generation of k-mesh.
Space group operators:
 irot       det(A)        alpha          n_x          n_y          n_z        tau_x        tau_y        tau_z
    1     1.000000     0.000000     1.000000     0.000000     0.000000     0.000000     0.000000     0.000000
    2     1.000000   120.000000    -0.577350    -0.577350    -0.577350     0.000000     0.000000     0.000000
    3     1.000000   120.000000     0.577350     0.577350     0.577350     0.000000     0.000000     0.000000
    4    -1.000000   180.000000     0.000000    -0.707107     0.707107     0.000000     0.000000     0.000000
    5    -1.000000   180.000000     0.707107    -0.707107     0.000000     0.000000     0.000000     0.000000
    6    -1.000000   180.000000     0.707107     0.000000    -0.707107     0.000000     0.000000     0.000000
 
 Subroutine IBZKPT returns following result:
 ===========================================
 
 Found     10 irreducible k-points:
 
 Following reciprocal coordinates:
            Coordinates               Weight
  0.125000  0.125000  0.125000      2.000000
  0.375000  0.125000  0.125000      6.000000
 -0.375000  0.125000  0.125000      6.000000
 -0.125000  0.125000  0.125000      6.000000
  0.375000  0.375000  0.125000      6.000000
 -0.375000  0.375000  0.125000     12.000000
 -0.125000  0.375000  0.125000     12.000000
 -0.375000 -0.375000  0.125000      6.000000
  0.375000  0.375000  0.375000      2.000000
 -0.375000  0.375000  0.375000      6.000000
 
 Following cartesian coordinates:
            Coordinates               Weight
  0.013068  0.013068  0.013068      2.000000
  0.039205  0.013068  0.013068      6.000000
 -0.039205  0.013068  0.013068      6.000000
 -0.013068  0.013068  0.013068      6.000000
  0.039205  0.039205  0.013068      6.000000
 -0.039205  0.039205  0.013068     12.000000
 -0.013068  0.039205  0.013068     12.000000
 -0.039205 -0.039205  0.013068      6.000000
  0.039205  0.039205  0.039205      2.000000
 -0.039205  0.039205  0.039205      6.000000
 
 
 Subroutine IBZKPT_HF returns following result:
 ==============================================
 
 Found     64 k-points in 1st BZ
 the following     64 k-points will be used (e.g. in the exchange kernel)
 Following reciprocal coordinates:   # in IRBZ
  0.125000  0.125000  0.125000       1 t-inv F
  0.375000  0.125000  0.125000       2 t-inv F
 -0.375000  0.125000  0.125000       3 t-inv F
 -0.125000  0.125000  0.125000       4 t-inv F
  0.375000  0.375000  0.125000       5 t-inv F
 -0.375000  0.375000  0.125000       6 t-inv F
 -0.125000  0.375000  0.125000       7 t-inv F
 -0.375000 -0.375000  0.125000       8 t-inv F
  0.375000  0.375000  0.375000       9 t-inv F
 -0.375000  0.375000  0.375000      10 t-inv F
  0.125000  0.375000  0.125000       2 t-inv F
  0.125000  0.125000  0.375000       2 t-inv F
  0.125000 -0.375000  0.125000       3 t-inv F
  0.125000  0.125000 -0.375000       3 t-inv F
  0.125000 -0.125000  0.125000       4 t-inv F
  0.125000  0.125000 -0.125000       4 t-inv F
  0.125000  0.375000  0.375000       5 t-inv F
  0.375000  0.125000  0.375000       5 t-inv F
  0.125000 -0.375000  0.375000       6 t-inv F
  0.375000  0.125000 -0.375000       6 t-inv F
 -0.375000  0.125000  0.375000       6 t-inv F
  0.375000 -0.375000  0.125000       6 t-inv F
  0.125000  0.375000 -0.375000       6 t-inv F
  0.125000 -0.125000  0.375000       7 t-inv F
  0.375000  0.125000 -0.125000       7 t-inv F
 -0.125000  0.125000  0.375000       7 t-inv F
  0.375000 -0.125000  0.125000       7 t-inv F
  0.125000  0.375000 -0.125000       7 t-inv F
  0.125000 -0.375000 -0.375000       8 t-inv F
 -0.375000  0.125000 -0.375000       8 t-inv F
  0.375000 -0.375000  0.375000      10 t-inv F
  0.375000  0.375000 -0.375000      10 t-inv F
 -0.125000 -0.125000 -0.125000       1 t-inv T
 -0.375000 -0.125000 -0.125000       2 t-inv T
 -0.125000 -0.375000 -0.125000       2 t-inv T
 -0.125000 -0.125000 -0.375000       2 t-inv T
  0.375000 -0.125000 -0.125000       3 t-inv T
 -0.125000  0.375000 -0.125000       3 t-inv T
 -0.125000 -0.125000  0.375000       3 t-inv T
  0.125000 -0.125000 -0.125000       4 t-inv T
 -0.125000  0.125000 -0.125000       4 t-inv T
 -0.125000 -0.125000  0.125000       4 t-inv T
 -0.375000 -0.375000 -0.125000       5 t-inv T
 -0.125000 -0.375000 -0.375000       5 t-inv T
 -0.375000 -0.125000 -0.375000       5 t-inv T
  0.375000 -0.375000 -0.125000       6 t-inv T
 -0.125000  0.375000 -0.375000       6 t-inv T
 -0.375000 -0.125000  0.375000       6 t-inv T
  0.375000 -0.125000 -0.375000       6 t-inv T
 -0.375000  0.375000 -0.125000       6 t-inv T
 -0.125000 -0.375000  0.375000       6 t-inv T
  0.125000 -0.375000 -0.125000       7 t-inv T
 -0.125000  0.125000 -0.375000       7 t-inv T
 -0.375000 -0.125000  0.125000       7 t-inv T
  0.125000 -0.125000 -0.375000       7 t-inv T
 -0.375000  0.125000 -0.125000       7 t-inv T
 -0.125000 -0.375000  0.125000       7 t-inv T
  0.375000  0.375000 -0.125000       8 t-inv T
 -0.125000  0.375000  0.375000       8 t-inv T
  0.375000 -0.125000  0.375000       8 t-inv T
 -0.375000 -0.375000 -0.375000       9 t-inv T
  0.375000 -0.375000 -0.375000      10 t-inv T
 -0.375000  0.375000 -0.375000      10 t-inv T
 -0.375000 -0.375000  0.375000      10 t-inv T


--------------------------------------------------------------------------------------------------------




 Dimension of arrays:
   k-points           NKPTS =     10   k-points in BZ     NKDIM =     10   number of bands    NBANDS=    420
   number of dos      NEDOS =    301   number of ions     NIONS =     53
   non local maximal  LDIM  =      6   non local SUM 2l+1 LMDIM =     18
   total plane-waves  NPLWV = 262144
   max r-space proj   IRMAX =   5670   max aug-charges    IRDMAX=  17297
   dimension x,y,z NGX =    64 NGY =   64 NGZ =   64
   dimension x,y,z NGXF=   128 NGYF=  128 NGZF=  128
   support grid    NGXF=   128 NGYF=  128 NGZF=  128
   ions per type =               1  52
 NGX,Y,Z   is equivalent  to a cutoff of  11.12, 11.12, 11.12 a.u.
 NGXF,Y,Z  is equivalent  to a cutoff of  22.25, 22.25, 22.25 a.u.


 I would recommend the setting:
   dimension x,y,z NGX =    62 NGY =   62 NGZ =   62
 SYSTEM =  unknown system                          
 POSCAR =  Ag1 W52                                 

 Startparameter for this run:
   NWRITE =      2    write-flag & timer
   PREC   = accura    normal or accurate (medium, high low for compatibility)
   ISTART =      0    job   : 0-new  1-cont  2-samecut
   ICHARG =      2    charge: 1-file 2-atom 10-const
   ISPIN  =      2    spin polarized calculation?
   LNONCOLLINEAR =      F non collinear calculations
   LSORBIT =      F    spin-orbit coupling
   INIWAV =      1    electr: 0-lowe 1-rand  2-diag
   LASPH  =      F    aspherical Exc in radial PAW
   METAGGA=      F    non-selfconsistent MetaGGA calc.

 Electronic Relaxation 1
   ENCUT  =  400.0 eV  29.40 Ry    5.42 a.u.  15.60 15.60 15.60*2*pi/ulx,y,z
   ENINI  =  400.0     initial cutoff
   ENAUG  =  412.5 eV  augmentation charge cutoff
   NELM   =     60;   NELMIN=  2; NELMDL=  0     # of ELM steps 
   EDIFF  = 0.1E-04   stopping-criterion for ELM
   LREAL  =      T    real-space projection
   NLSPLINE    = F    spline interpolate recip. space projectors
   LCOMPAT=      F    compatible to vasp.4.4
   GGA_COMPAT  = T    GGA compatible to vasp.4.4-vasp.4.6
   LMAXPAW     = -100 max onsite density
   LMAXMIX     =    2 max onsite mixed and CHGCAR
   VOSKOWN=      0    Vosko Wilk Nusair interpolation
   ROPT   =   -0.00025  -0.00025
 Ionic relaxation
   EDIFFG = -.1E-01   stopping-criterion for IOM
   NSW    =    606    number of steps for IOM
   NBLOCK =      1;   KBLOCK =    101    inner block; outer block 
   IBRION =      5    ionic relax: 0-MD 1-quasi-New 2-CG
   NFREE  =      2    steps in history (QN), initial steepest desc. (CG)
   ISIF   =      2    stress and relaxation
   IWAVPR =     11    prediction:  0-non 1-charg 2-wave 3-comb
   ISYM   =      2    0-nonsym 1-usesym 2-fastsym
   LCORR  =      T    Harris-Foulkes like correction to forces

   POTIM  = 0.0500    time-step for ionic-motion
   TEIN   =    0.0    initial temperature
   TEBEG  =    0.0;   TEEND  =   0.0 temperature during run
   SMASS  =  -3.00    Nose mass-parameter (am)
   estimated Nose-frequenzy (Omega)   =  0.10E-29 period in steps =****** mass=  -0.209E-26a.u.
   SCALEE = 1.0000    scale energy and forces
   NPACO  =    256;   APACO  = 16.0  distance and # of slots for P.C.
   PSTRESS=    0.0 pullay stress

  Mass of Ions in am
   POMASS = 107.87183.85
  Ionic Valenz
   ZVAL   =  11.00 12.00
  Atomic Wigner-Seitz radii
   RWIGS  =  -1.00 -1.00
  virtual crystal weights 
   VCA    =   1.00  1.00
   NELECT =     635.0000    total number of electrons
   NUPDOWN=      -1.0000    fix difference up-down

 DOS related values:
   EMIN   =  10.00;   EMAX   =-10.00  energy-range for DOS
   EFERMI =   0.00
   ISMEAR =     1;   SIGMA  =   0.20  broadening in eV -4-tet -1-fermi 0-gaus

 Electronic relaxation 2 (details)
   IALGO  =     38    algorithm
   LDIAG  =      T    sub-space diagonalisation (order eigenvalues)
   LSUBROT=      T    optimize rotation matrix (better conditioning)
   TURBO    =      0    0=normal 1=particle mesh
   IRESTART =      0    0=no restart 2=restart with 2 vectors
   NREBOOT  =      0    no. of reboots
   NMIN     =      0    reboot dimension
   EREF     =   0.00    reference energy to select bands
   IMIX   =      4    mixing-type and parameters
     AMIX     =   0.40;   BMIX     =  1.00
     AMIX_MAG =   1.60;   BMIX_MAG =  1.00
     AMIN     =   0.10
     WC   =   100.;   INIMIX=   1;  MIXPRE=   1;  MAXMIX= -45

 Intra band minimization:
   WEIMIN = 0.0010     energy-eigenvalue tresh-hold
   EBREAK =  0.60E-08  absolut break condition
   DEPER  =   0.30     relativ break condition  

   TIME   =   0.40     timestep for ELM

  volume/ion in A,a.u.               =      16.51       111.42
  Fermi-wavevector in a.u.,A,eV,Ry     =   1.471116  2.780006 29.445485  2.164182
  Thomas-Fermi vector in A             =   2.586291
 
 Write flags
   LWAVE  =      F    write WAVECAR
   LCHARG =      F    write CHGCAR
   LVTOT  =      F    write LOCPOT, total local potential
   LVHAR  =      F    write LOCPOT, Hartree potential only
   LELF   =      F    write electronic localiz. function (ELF)
   LORBIT =      0    0 simple, 1 ext, 2 COOP (PROOUT)


 Dipole corrections
   LMONO  =      F    monopole corrections only (constant potential shift)
   LDIPOL =      F    correct potential (dipole corrections)
   IDIPOL =      0    1-x, 2-y, 3-z, 4-all directions 
   EPSILON=  1.0000000 bulk dielectric constant

 Exchange correlation treatment:
   GGA     =    --    GGA type
   LEXCH   =     8    internal setting for exchange type
   VOSKOWN=      0    Vosko Wilk Nusair interpolation
   LHFCALC =     F    Hartree Fock is set to
   LHFONE  =     F    Hartree Fock one center treatment
   AEXX    =    0.0000 exact exchange contribution

 Linear response parameters
   LEPSILON=     F    determine dielectric tensor
   LRPA    =     F    only Hartree local field effects (RPA)
   LNABLA  =     F    use nabla operator in PAW spheres
   LVEL    =     F    velocity operator in full k-point grid
   LINTERFAST=   F  fast interpolation
   KINTER  =     0    interpolate to denser k-point grid
   CSHIFT  =0.1000    complex shift for real part using Kramers Kronig
   OMEGAMAX=  -1.0    maximum frequency
   DEG_THRESHOLD= 0.2000000E-02 threshold for treating states as degnerate
   RTIME   =    0.100 relaxation time in fs

 Orbital magnetization related:
   ORBITALMAG=     F  switch on orbital magnetization
   LCHIMAG   =     F  perturbation theory with respect to B field
   DQ        =  0.001000  dq finite difference perturbation B field



--------------------------------------------------------------------------------------------------------


 finite differences
   using selective dynamics as specified on POSCAR
 charge density and potential will be updated during run
 spin polarized calculation
 Variant of blocked Davidson
 Davidson routine will perform the subspace rotation
 perform sub-space diagonalisation
    after iterative eigenvector-optimisation
 modified Broyden-mixing scheme, WC =      100.0
 initial mixing is a Kerker type mixing with AMIX =  0.4000 and BMIX =      1.0000
 Hartree-type preconditioning will be used
 using additional bands          102
 real space projection scheme for non local part
 use partial core corrections
 calculate Harris-corrections to forces 
   (improved forces if not selfconsistent)
 use gradient corrections 
 use of overlap-Matrix (Vanderbilt PP)
 Methfessel and Paxton  Order N= 1 SIGMA  =   0.20


--------------------------------------------------------------------------------------------------------


  energy-cutoff  :      400.00
  volume of cell :      875.10
      direct lattice vectors                 reciprocal lattice vectors
     9.565019000  0.000000000  0.000000000     0.104547623  0.000000000  0.000000000
     0.000000000  9.565019000  0.000000000     0.000000000  0.104547623  0.000000000
     0.000000000  0.000000000  9.565019000     0.000000000  0.000000000  0.104547623

  length of vectors
     9.565019000  9.565019000  9.565019000     0.104547623  0.104547623  0.104547623


 
 k-points in units of 2pi/SCALE and weight: Automatic kpoint scheme                 
   0.01306845  0.01306845  0.01306845       0.031
   0.03920536  0.01306845  0.01306845       0.094
  -0.03920536  0.01306845  0.01306845       0.094
  -0.01306845  0.01306845  0.01306845       0.094
   0.03920536  0.03920536  0.01306845       0.094
  -0.03920536  0.03920536  0.01306845       0.188
  -0.01306845  0.03920536  0.01306845       0.188
  -0.03920536 -0.03920536  0.01306845       0.094
   0.03920536  0.03920536  0.03920536       0.031
  -0.03920536  0.03920536  0.03920536       0.094
 
 k-points in reciprocal lattice and weights: Automatic kpoint scheme                 
   0.12500000  0.12500000  0.12500000       0.031
   0.37500000  0.12500000  0.12500000       0.094
  -0.37500000  0.12500000  0.12500000       0.094
  -0.12500000  0.12500000  0.12500000       0.094
   0.37500000  0.37500000  0.12500000       0.094
  -0.37500000  0.37500000  0.12500000       0.188
  -0.12500000  0.37500000  0.12500000       0.188
  -0.37500000 -0.37500000  0.12500000       0.094
   0.37500000  0.37500000  0.37500000       0.031
  -0.37500000  0.37500000  0.37500000       0.094
 
 position of ions in fractional coordinates (direct lattice) 
   0.16898000  0.16898000  0.16898000
   0.99796900  0.99796900  0.99796900
   0.99721600  0.99721600  0.33575500
   0.00000200  0.00000200  0.66582300
   0.99721600  0.33575500  0.99721600
   0.99750400  0.33539600  0.33539600
   0.00036200  0.33333800  0.66624100
   0.00000200  0.66582300  0.00000200
   0.00036200  0.66624100  0.33333800
   0.00020900  0.66655900  0.66655900
   0.33575500  0.99721600  0.99721600
   0.33539600  0.99750400  0.33539600
   0.33333800  0.00036200  0.66624100
   0.33539600  0.33539600  0.99750400
   0.33828500  0.33828500  0.33828500
   0.33537400  0.33537400  0.66420500
   0.33333800  0.66624100  0.00036200
   0.33537400  0.66420500  0.33537400
   0.33456700  0.66558600  0.66558600
   0.66582300  0.00000200  0.00000200
   0.66624100  0.00036200  0.33333800
   0.66655900  0.00020900  0.66655900
   0.66624100  0.33333800  0.00036200
   0.66420500  0.33537400  0.33537400
   0.66558600  0.33456700  0.66558600
   0.66655900  0.66655900  0.00020900
   0.66558600  0.66558600  0.33456700
   0.66466000  0.66466000  0.66466000
   0.16697200  0.16697200  0.49784600
   0.16728500  0.16728500  0.83470600
   0.16697200  0.49784600  0.16697200
   0.16882600  0.50031800  0.50031800
   0.16732500  0.50006000  0.83262600
   0.16728500  0.83470600  0.16728500
   0.16732500  0.83262600  0.50006000
   0.16701600  0.83253100  0.83253100
   0.49784600  0.16697200  0.16697200
   0.50031800  0.16882600  0.50031800
   0.50006000  0.16732500  0.83262600
   0.50031800  0.50031800  0.16882600
   0.50045300  0.50045300  0.83034600
   0.50006000  0.83262600  0.16732500
   0.50045300  0.83034600  0.50045300
   0.50055800  0.83254100  0.83254100
   0.83470600  0.16728500  0.16728500
   0.83262600  0.16732500  0.50006000
   0.83253100  0.16701600  0.83253100
   0.83262600  0.50006000  0.16732500
   0.83034600  0.50045300  0.50045300
   0.83254100  0.50055800  0.83254100
   0.83253100  0.83253100  0.16701600
   0.83254100  0.83254100  0.50055800
   0.83238100  0.83238100  0.83238100
 
 position of ions in cartesian coordinates  (Angst):
   1.61629691  1.61629691  1.61629691
   9.54559245  9.54559245  9.54559245
   9.53838999  9.53838999  3.21150295
   0.00001913  0.00001913  6.36860965
   9.53838999  3.21150295  9.53838999
   9.54114471  3.20806911  3.20806911
   0.00346254  3.18838430  6.37260782
   0.00001913  6.36860965  0.00001913
   0.00346254  6.37260782  3.18838430
   0.00199909  6.37564950  6.37564950
   3.21150295  9.53838999  9.53838999
   3.20806911  9.54114471  3.20806911
   3.18838430  0.00346254  6.37260782
   3.20806911  3.20806911  9.54114471
   3.23570245  3.23570245  3.23570245
   3.20785868  3.20785868  6.35313344
   3.18838430  6.37260782  0.00346254
   3.20785868  6.35313344  3.20785868
   3.20013971  6.36634274  6.36634274
   6.36860965  0.00001913  0.00001913
   6.37260782  0.00346254  3.18838430
   6.37564950  0.00199909  6.37564950
   6.37260782  3.18838430  0.00346254
   6.35313344  3.20785868  3.20785868
   6.36634274  3.20013971  6.36634274
   6.37564950  6.37564950  0.00199909
   6.36634274  6.36634274  3.20013971
   6.35748553  6.35748553  6.35748553
   1.59709035  1.59709035  4.76190645
   1.60008420  1.60008420  7.98397875
   1.59709035  4.76190645  1.59709035
   1.61482390  4.78555118  4.78555118
   1.60046680  4.78308340  7.96408351
   1.60008420  7.98397875  1.60008420
   1.60046680  7.96408351  4.78308340
   1.59751121  7.96317483  7.96317483
   4.76190645  1.59709035  1.59709035
   4.78555118  1.61482390  4.78555118
   4.78308340  1.60046680  7.96408351
   4.78555118  4.78555118  1.61482390
   4.78684245  4.78684245  7.94227527
   4.78308340  7.96408351  1.60046680
   4.78684245  7.94227527  4.78684245
   4.78784678  7.96327048  7.96327048
   7.98397875  1.60008420  1.60008420
   7.96408351  1.60046680  4.78308340
   7.96317483  1.59751121  7.96317483
   7.96408351  4.78308340  1.60046680
   7.94227527  4.78684245  4.78684245
   7.96327048  4.78784678  7.96327048
   7.96317483  7.96317483  1.59751121
   7.96327048  7.96327048  4.78784678
   7.96174008  7.96174008  7.96174008
 


--------------------------------------------------------------------------------------------------------


 k-point  1 :   0.1250 0.1250 0.1250  plane waves:   15915
 k-point  2 :   0.3750 0.1250 0.1250  plane waves:   15901
 k-point  3 :  -0.3750 0.1250 0.1250  plane waves:   15901
 k-point  4 :  -0.1250 0.1250 0.1250  plane waves:   15915
 k-point  5 :   0.3750 0.3750 0.1250  plane waves:   15910
 k-point  6 :  -0.3750 0.3750 0.1250  plane waves:   15910
 k-point  7 :  -0.1250 0.3750 0.1250  plane waves:   15901
 k-point  8 :  -0.3750-0.3750 0.1250  plane waves:   15910
 k-point  9 :   0.3750 0.3750 0.3750  plane waves:   15867
 k-point 10 :  -0.3750 0.3750 0.3750  plane waves:   15867

 maximum and minimum number of plane-waves per node :     15915    15867

 maximum number of plane-waves:     15915
 maximum index in each direction: 
   IXMAX=   15   IYMAX=   15   IZMAX=   15
   IXMIN=  -15   IYMIN=  -15   IZMIN=  -15

 NGX is ok and might be reduce to  62
 NGY is ok and might be reduce to  62
 NGZ is ok and might be reduce to  62

 serial   3D FFT for wavefunctions
 parallel 3D FFT for charge:
    minimum data exchange during FFTs selected (reduces bandwidth)


 total amount of memory used by VASP on root node   231181. kBytes
========================================================================

   base      :      30000. kBytes
   nonlr-proj:      50788. kBytes
   fftplans  :       4920. kBytes
   grid      :      30392. kBytes
   one-center:       1648. kBytes
   wavefun   :     113433. kBytes
 
 Broyden mixing: mesh for mixing (old mesh)
   NGX = 31   NGY = 31   NGZ = 31
  (NGX  =128   NGY  =128   NGZ  =128)
  gives a total of  29791 points

 initial charge density was supplied:
 charge density of overlapping atoms calculated
 number of electron     635.0000000 magnetization      53.0000000
 keeping initial charge density in first step


--------------------------------------------------------------------------------------------------------


 Maximum index for non-local projection operator         5484
 Maximum index for augmentation-charges         1388 (set IRDMAX)


--------------------------------------------------------------------------------------------------------


 First call to EWALD:  gamma=   0.185
 Maximum number of real-space cells 3x 3x 3
 Maximum number of reciprocal cells 3x 3x 3

 FEWALD executed in parallel
    FEWALD:  cpu time    0.01: real time    0.01


----------------------------------------- Iteration    1(   1)  ---------------------------------------


    POTLOK:  cpu time    1.61: real time    1.64
    SETDIJ:  cpu time    0.10: real time    0.10
     EDDAV:  cpu time  189.88: real time  190.79
       DOS:  cpu time    0.04: real time    0.04
    --------------------------------------------
      LOOP:  cpu time  191.64: real time  192.64

 eigenvalue-minimisations  : 17020
 total energy-change (2. order) : 0.7116105E+04  (-0.2865705E+05)
 number of electron     635.0000000 magnetization      53.0000000
 augmentation part      635.0000000 magnetization      53.0000000

 Free energy of the ion-electron system (eV)
  ---------------------------------------------------
  alpha Z        PSCENC =      8177.14454612
  Ewald energy   TEWEN  =    -61748.10662776
  -1/2 Hartree   DENC   =     -8398.78439323
  -exchange  EXHF       =         0.00000000
  -V(xc)+E(xc)   XCENC  =      1835.24917482
  PAW double counting   =     43230.44359611   -42532.73462782
  entropy T*S    EENTRO =         0.00662451
  eigenvalues    EBANDS =        -6.06237244
  atomic energy  EATOM  =     66558.94894662
  ---------------------------------------------------
  free energy    TOTEN  =      7116.10486693 eV

  energy without entropy =     7116.09824243  energy(sigma->0) =     7116.10265876


--------------------------------------------------------------------------------------------------------




----------------------------------------- Iteration    1(   2)  ---------------------------------------


     EDDAV:  cpu time  179.25: real time  180.40
       DOS:  cpu time    0.04: real time    0.04
    --------------------------------------------
      LOOP:  cpu time  179.30: real time  180.51

 eigenvalue-minimisations  : 16800
 total energy-change (2. order) :-0.7201482E+04  (-0.6903210E+04)
 number of electron     635.0000000 magnetization      53.0000000
 augmentation part      635.0000000 magnetization      53.0000000

 Free energy of the ion-electron system (eV)
  ---------------------------------------------------
  alpha Z        PSCENC =      8177.14454612
  Ewald energy   TEWEN  =    -61748.10662776
  -1/2 Hartree   DENC   =     -8398.78439323
  -exchange  EXHF       =         0.00000000
  -V(xc)+E(xc)   XCENC  =      1835.24917482
  PAW double counting   =     43230.44359611   -42532.73462782
  entropy T*S    EENTRO =        -0.00521805
  eigenvalues    EBANDS =     -7207.53277945
  atomic energy  EATOM  =     66558.94894662
  ---------------------------------------------------
  free energy    TOTEN  =       -85.37738263 eV

  energy without entropy =      -85.37216458  energy(sigma->0) =      -85.37564328


--------------------------------------------------------------------------------------------------------




----------------------------------------- Iteration    1(   3)  ---------------------------------------


     EDDAV:  cpu time  195.46: real time  197.33
       DOS:  cpu time    0.04: real time    0.04
    --------------------------------------------
      LOOP:  cpu time  195.50: real time  197.45

 eigenvalue-minimisations  : 19620
 total energy-change (2. order) :-0.5773264E+03  (-0.5279735E+03)
 number of electron     635.0000000 magnetization      53.0000000
 augmentation part      635.0000000 magnetization      53.0000000

 Free energy of the ion-electron system (eV)
  ---------------------------------------------------
  alpha Z        PSCENC =      8177.14454612
  Ewald energy   TEWEN  =    -61748.10662776
  -1/2 Hartree   DENC   =     -8398.78439323
  -exchange  EXHF       =         0.00000000
  -V(xc)+E(xc)   XCENC  =      1835.24917482
  PAW double counting   =     43230.44359611   -42532.73462782
  entropy T*S    EENTRO =         0.00752546
  eigenvalues    EBANDS =     -7784.87197260
  atomic energy  EATOM  =     66558.94894662
  ---------------------------------------------------
  free energy    TOTEN  =      -662.70383227 eV

  energy without entropy =     -662.71135773  energy(sigma->0) =     -662.70634076


--------------------------------------------------------------------------------------------------------




----------------------------------------- Iteration    1(   4)  ---------------------------------------


     EDDAV:  cpu time  213.57: real time  214.77
       DOS:  cpu time    0.04: real time    0.04
    --------------------------------------------
      LOOP:  cpu time  213.62: real time  214.89

 eigenvalue-minimisations  : 20700
 total energy-change (2. order) :-0.3395594E+02  (-0.3260685E+02)
 number of electron     635.0000000 magnetization      53.0000000
 augmentation part      635.0000000 magnetization      53.0000000

 Free energy of the ion-electron system (eV)
  ---------------------------------------------------
  alpha Z        PSCENC =      8177.14454612
  Ewald energy   TEWEN  =    -61748.10662776
  -1/2 Hartree   DENC   =     -8398.78439323
  -exchange  EXHF       =         0.00000000
  -V(xc)+E(xc)   XCENC  =      1835.24917482
  PAW double counting   =     43230.44359611   -42532.73462782
  entropy T*S    EENTRO =         0.02384867
  eigenvalues    EBANDS =     -7818.84424039
  atomic energy  EATOM  =     66558.94894662
  ---------------------------------------------------
  free energy    TOTEN  =      -696.65977686 eV

  energy without entropy =     -696.68362553  energy(sigma->0) =     -696.66772641


--------------------------------------------------------------------------------------------------------




----------------------------------------- Iteration    1(   5)  ---------------------------------------


     EDDAV:  cpu time  226.89: real time  228.10
       DOS:  cpu time    0.04: real time    0.04
    CHARGE:  cpu time    7.24: real time    7.27
    MIXING:  cpu time    0.02: real time    0.02
    --------------------------------------------
      LOOP:  cpu time  234.21: real time  235.54

 eigenvalue-minimisations  : 21980
 total energy-change (2. order) :-0.1496603E+01  (-0.1485167E+01)
 number of electron     634.9999996 magnetization      30.1690392
 augmentation part      210.6327543 magnetization      25.8313708

 Broyden mixing:
  rms(total) = 0.40765E+01    rms(broyden)= 0.40764E+01
  rms(prec ) = 0.50941E+01
  weight for this iteration     100.00

 Free energy of the ion-electron system (eV)
  ---------------------------------------------------
  alpha Z        PSCENC =      8177.14454612
  Ewald energy   TEWEN  =    -61748.10662776
  -1/2 Hartree   DENC   =     -8398.78439323
  -exchange  EXHF       =         0.00000000
  -V(xc)+E(xc)   XCENC  =      1835.24917482
  PAW double counting   =     43230.44359611   -42532.73462782
  entropy T*S    EENTRO =         0.02572358
  eigenvalues    EBANDS =     -7820.34271848
  atomic energy  EATOM  =     66558.94894662
  ---------------------------------------------------
  free energy    TOTEN  =      -698.15638004 eV

  energy without entropy =     -698.18210361  energy(sigma->0) =     -698.16495456


--------------------------------------------------------------------------------------------------------




----------------------------------------- Iteration    1(   6)  ---------------------------------------


    POTLOK:  cpu time    0.51: real time    0.51
    SETDIJ:  cpu time    0.10: real time    0.10
     EDDAV:  cpu time  211.27: real time  212.59
       DOS:  cpu time    0.04: real time    0.04
    CHARGE:  cpu time    5.88: real time    5.90
    MIXING:  cpu time    0.03: real time    0.03
    --------------------------------------------
      LOOP:  cpu time  217.84: real time  219.22

 eigenvalue-minimisations  : 19460
 total energy-change (2. order) : 0.2498734E+02  (-0.5398475E+01)
 number of electron     634.9999996 magnetization      16.9666320
 augmentation part      214.5900193 magnetization      11.7466791

 Broyden mixing:
  rms(total) = 0.18856E+01    rms(broyden)= 0.18856E+01
  rms(prec ) = 0.24510E+01
  weight for this iteration     100.00

 eigenvalues of (default mixing * dielectric matrix)
  average eigenvalue GAMMA=   0.8599
  0.8599

 Free energy of the ion-electron system (eV)
  ---------------------------------------------------
  alpha Z        PSCENC =      8177.14454612
  Ewald energy   TEWEN  =    -61748.10662776
  -1/2 Hartree   DENC   =     -7815.93855572
  -exchange  EXHF       =         0.00000000
  -V(xc)+E(xc)   XCENC  =      1804.64940531
  PAW double counting   =     43202.84569613   -42623.65185167
  entropy T*S    EENTRO =         0.03233727
  eigenvalues    EBANDS =     -8229.09294131
  atomic energy  EATOM  =     66558.94894662
  ---------------------------------------------------
  free energy    TOTEN  =      -673.16904501 eV

  energy without entropy =     -673.20138228  energy(sigma->0) =     -673.17982410


--------------------------------------------------------------------------------------------------------




----------------------------------------- Iteration    1(   7)  ---------------------------------------


    POTLOK:  cpu time    0.48: real time    0.48
    SETDIJ:  cpu time    0.11: real time    0.11
     EDDAV:  cpu time  219.18: real time  220.81
       DOS:  cpu time    0.05: real time    0.05
    CHARGE:  cpu time    5.92: real time    5.94
    MIXING:  cpu time    0.03: real time    0.03
    --------------------------------------------
      LOOP:  cpu time  225.76: real time  227.49

 eigenvalue-minimisations  : 20280
 total energy-change (2. order) : 0.1286059E+01  (-0.1950849E+01)
 number of electron     634.9999996 magnetization       6.2242529
 augmentation part      216.0320023 magnetization       4.2115900

 Broyden mixing:
  rms(total) = 0.99189E+00    rms(broyden)= 0.99188E+00
  rms(prec ) = 0.14289E+01
  weight for this iteration     100.00

 eigenvalues of (default mixing * dielectric matrix)
  average eigenvalue GAMMA=   1.2901
  0.7368  1.8434

 Free energy of the ion-electron system (eV)
  ---------------------------------------------------
  alpha Z        PSCENC =      8177.14454612
  Ewald energy   TEWEN  =    -61748.10662776
  -1/2 Hartree   DENC   =     -7545.04220997
  -exchange  EXHF       =         0.00000000
  -V(xc)+E(xc)   XCENC  =      1789.22637802
  PAW double counting   =     43621.00307299   -43110.23031268
  entropy T*S    EENTRO =         0.01211692
  eigenvalues    EBANDS =     -8414.83889620
  atomic energy  EATOM  =     66558.94894662
  ---------------------------------------------------
  free energy    TOTEN  =      -671.88298596 eV

  energy without entropy =     -671.89510287  energy(sigma->0) =     -671.88702493


--------------------------------------------------------------------------------------------------------




----------------------------------------- Iteration    1(   8)  ---------------------------------------


    POTLOK:  cpu time    0.52: real time    0.52
    SETDIJ:  cpu time    0.13: real time    0.13
     EDDAV:  cpu time  221.14: real time  222.80
       DOS:  cpu time    0.04: real time    0.04
    CHARGE:  cpu time    5.83: real time    5.84
    MIXING:  cpu time    0.03: real time    0.03
    --------------------------------------------
      LOOP:  cpu time  227.70: real time  229.41

 eigenvalue-minimisations  : 21320
 total energy-change (2. order) : 0.6905540E+00  (-0.8812492E+00)
 number of electron     634.9999996 magnetization       3.1909301
 augmentation part      217.2722593 magnetization       2.3812027

 Broyden mixing:
  rms(total) = 0.37619E+00    rms(broyden)= 0.37619E+00
  rms(prec ) = 0.75399E+00
  weight for this iteration     100.00

 eigenvalues of (default mixing * dielectric matrix)
  average eigenvalue GAMMA=   1.1656
  2.0507  0.8142  0.6318

 Free energy of the ion-electron system (eV)
  ---------------------------------------------------
  alpha Z        PSCENC =      8177.14454612
  Ewald energy   TEWEN  =    -61748.10662776
  -1/2 Hartree   DENC   =     -7369.60713359
  -exchange  EXHF       =         0.00000000
  -V(xc)+E(xc)   XCENC  =      1780.38613035
  PAW double counting   =     44082.70907375   -43619.43048714
  entropy T*S    EENTRO =         0.00863010
  eigenvalues    EBANDS =     -8533.24551044
  atomic energy  EATOM  =     66558.94894662
  ---------------------------------------------------
  free energy    TOTEN  =      -671.19243199 eV

  energy without entropy =     -671.20106209  energy(sigma->0) =     -671.19530869


--------------------------------------------------------------------------------------------------------




----------------------------------------- Iteration    1(   9)  ---------------------------------------


    POTLOK:  cpu time    0.48: real time    0.48
    SETDIJ:  cpu time    0.10: real time    0.10
     EDDAV:  cpu time  224.57: real time  226.14
       DOS:  cpu time    0.03: real time    0.04
    CHARGE:  cpu time    6.80: real time    6.89
    MIXING:  cpu time    0.02: real time    0.03
    --------------------------------------------
      LOOP:  cpu time  232.01: real time  233.75

 eigenvalue-minimisations  : 21460
 total energy-change (2. order) : 0.1692931E+00  (-0.1799678E+00)
 number of electron     634.9999996 magnetization       1.5556409
 augmentation part      217.5764225 magnetization       1.0497732

 Broyden mixing:
  rms(total) = 0.17956E+00    rms(broyden)= 0.17956E+00
  rms(prec ) = 0.22362E+00
  weight for this iteration     100.00

 eigenvalues of (default mixing * dielectric matrix)
  average eigenvalue GAMMA=   1.1126
  2.1060  1.1163  0.7331  0.4951

 Free energy of the ion-electron system (eV)
  ---------------------------------------------------
  alpha Z        PSCENC =      8177.14454612
  Ewald energy   TEWEN  =    -61748.10662776
  -1/2 Hartree   DENC   =     -7342.83452554
  -exchange  EXHF       =         0.00000000
  -V(xc)+E(xc)   XCENC  =      1779.08833492
  PAW double counting   =     44328.49595777   -43875.92170339
  entropy T*S    EENTRO =         0.00509607
  eigenvalues    EBANDS =     -8547.84316374
  atomic energy  EATOM  =     66558.94894662
  ---------------------------------------------------
  free energy    TOTEN  =      -671.02313894 eV

  energy without entropy =     -671.02823500  energy(sigma->0) =     -671.02483763


--------------------------------------------------------------------------------------------------------




----------------------------------------- Iteration    1(  10)  ---------------------------------------


    POTLOK:  cpu time    0.50: real time    0.50
    SETDIJ:  cpu time    0.11: real time    0.11
     EDDAV:  cpu time  228.48: real time  229.78
       DOS:  cpu time    0.04: real time    0.04
    CHARGE:  cpu time    6.16: real time    6.18
    MIXING:  cpu time    0.03: real time    0.04
    --------------------------------------------
      LOOP:  cpu time  235.33: real time  236.68

 eigenvalue-minimisations  : 21780
 total energy-change (2. order) :-0.1094400E-01  (-0.3114328E-01)
 number of electron     634.9999996 magnetization       0.4562109
 augmentation part      217.5679813 magnetization       0.2313039

 Broyden mixing:
  rms(total) = 0.10669E+00    rms(broyden)= 0.10669E+00
  rms(prec ) = 0.15846E+00
  weight for this iteration     100.00

 eigenvalues of (default mixing * dielectric matrix)
  average eigenvalue GAMMA=   1.1870
  2.2264  1.7528  0.8276  0.6618  0.4665

 Free energy of the ion-electron system (eV)
  ---------------------------------------------------
  alpha Z        PSCENC =      8177.14454612
  Ewald energy   TEWEN  =    -61748.10662776
  -1/2 Hartree   DENC   =     -7356.64541763
  -exchange  EXHF       =         0.00000000
  -V(xc)+E(xc)   XCENC  =      1779.80743164
  PAW double counting   =     44600.59586922   -44150.44528756
  entropy T*S    EENTRO =         0.00279464
  eigenvalues    EBANDS =     -8532.33633822
  atomic energy  EATOM  =     66558.94894662
  ---------------------------------------------------
  free energy    TOTEN  =      -671.03408293 eV

  energy without entropy =     -671.03687757  energy(sigma->0) =     -671.03501448


--------------------------------------------------------------------------------------------------------




----------------------------------------- Iteration    1(  11)  ---------------------------------------


    POTLOK:  cpu time    0.47: real time    0.47
    SETDIJ:  cpu time    0.11: real time    0.11
     EDDAV:  cpu time  226.08: real time  227.04
       DOS:  cpu time    0.04: real time    0.04
    CHARGE:  cpu time    6.93: real time    6.96
    MIXING:  cpu time    0.03: real time    0.15
    --------------------------------------------
      LOOP:  cpu time  233.67: real time  234.82

 eigenvalue-minimisations  : 21880
 total energy-change (2. order) : 0.1135400E-01  (-0.9496409E-02)
 number of electron     634.9999996 magnetization       0.0114949
 augmentation part      217.4781622 magnetization      -0.0567717

 Broyden mixing:
  rms(total) = 0.32260E-01    rms(broyden)= 0.32259E-01
  rms(prec ) = 0.49744E-01
  weight for this iteration     100.00

 eigenvalues of (default mixing * dielectric matrix)
  average eigenvalue GAMMA=   1.1540
  2.4761  1.8559  0.8941  0.7116  0.4538  0.5326

 Free energy of the ion-electron system (eV)
  ---------------------------------------------------
  alpha Z        PSCENC =      8177.14454612
  Ewald energy   TEWEN  =    -61748.10662776
  -1/2 Hartree   DENC   =     -7367.88077003
  -exchange  EXHF       =         0.00000000
  -V(xc)+E(xc)   XCENC  =      1780.35273063
  PAW double counting   =     44785.74964580   -44336.85348323
  entropy T*S    EENTRO =         0.00399148
  eigenvalues    EBANDS =     -8520.38170856
  atomic energy  EATOM  =     66558.94894662
  ---------------------------------------------------
  free energy    TOTEN  =      -671.02272893 eV

  energy without entropy =     -671.02672040  energy(sigma->0) =     -671.02405942


--------------------------------------------------------------------------------------------------------




----------------------------------------- Iteration    1(  12)  ---------------------------------------


    POTLOK:  cpu time    0.49: real time    0.50
    SETDIJ:  cpu time    0.10: real time    0.10
     EDDAV:  cpu time  213.01: real time  213.96
       DOS:  cpu time    0.04: real time    0.04
    CHARGE:  cpu time    5.60: real time    5.61
    MIXING:  cpu time    0.04: real time    0.04
    --------------------------------------------
      LOOP:  cpu time  219.29: real time  220.35

 eigenvalue-minimisations  : 20620
 total energy-change (2. order) :-0.1810672E-02  (-0.1695200E-02)
 number of electron     634.9999996 magnetization      -0.0487415
 augmentation part      217.4581186 magnetization      -0.0653386

 Broyden mixing:
  rms(total) = 0.13353E-01    rms(broyden)= 0.13353E-01
  rms(prec ) = 0.23790E-01
  weight for this iteration     100.00

 eigenvalues of (default mixing * dielectric matrix)
  average eigenvalue GAMMA=   1.0919
  2.5184  1.8204  0.9215  0.7962  0.6622  0.4621  0.4621

 Free energy of the ion-electron system (eV)
  ---------------------------------------------------
  alpha Z        PSCENC =      8177.14454612
  Ewald energy   TEWEN  =    -61748.10662776
  -1/2 Hartree   DENC   =     -7367.88437171
  -exchange  EXHF       =         0.00000000
  -V(xc)+E(xc)   XCENC  =      1780.36838010
  PAW double counting   =     44841.50874187   -44393.34288161
  entropy T*S    EENTRO =         0.00364799
  eigenvalues    EBANDS =     -8519.66492123
  atomic energy  EATOM  =     66558.94894662
  ---------------------------------------------------
  free energy    TOTEN  =      -671.02453960 eV

  energy without entropy =     -671.02818759  energy(sigma->0) =     -671.02575560


--------------------------------------------------------------------------------------------------------




----------------------------------------- Iteration    1(  13)  ---------------------------------------


    POTLOK:  cpu time    0.46: real time    0.47
    SETDIJ:  cpu time    0.10: real time    0.10
     EDDAV:  cpu time  217.93: real time  218.89
       DOS:  cpu time    0.04: real time    0.04
    CHARGE:  cpu time    6.53: real time    6.55
    MIXING:  cpu time    0.03: real time    0.03
    --------------------------------------------
      LOOP:  cpu time  225.10: real time  226.20

 eigenvalue-minimisations  : 20840
 total energy-change (2. order) : 0.4103011E-03  (-0.2336333E-03)
 number of electron     634.9999996 magnetization      -0.0388550
 augmentation part      217.4624748 magnetization      -0.0365235

 Broyden mixing:
  rms(total) = 0.52976E-02    rms(broyden)= 0.52974E-02
  rms(prec ) = 0.83296E-02
  weight for this iteration     100.00

 eigenvalues of (default mixing * dielectric matrix)
  average eigenvalue GAMMA=   1.0760
  2.5240  1.7743  0.9953  0.9953  0.7537  0.6438  0.4449  0.4768

 Free energy of the ion-electron system (eV)
  ---------------------------------------------------
  alpha Z        PSCENC =      8177.14454612
  Ewald energy   TEWEN  =    -61748.10662776
  -1/2 Hartree   DENC   =     -7366.94703160
  -exchange  EXHF       =         0.00000000
  -V(xc)+E(xc)   XCENC  =      1780.32313110
  PAW double counting   =     44846.62784437   -44398.52767633
  entropy T*S    EENTRO =         0.00354174
  eigenvalues    EBANDS =     -8520.49080356
  atomic energy  EATOM  =     66558.94894662
  ---------------------------------------------------
  free energy    TOTEN  =      -671.02412930 eV

  energy without entropy =     -671.02767104  energy(sigma->0) =     -671.02530988


--------------------------------------------------------------------------------------------------------




----------------------------------------- Iteration    1(  14)  ---------------------------------------


    POTLOK:  cpu time    0.51: real time    0.51
    SETDIJ:  cpu time    0.11: real time    0.11
     EDDAV:  cpu time  218.60: real time  219.56
       DOS:  cpu time    0.04: real time    0.05
    CHARGE:  cpu time    6.17: real time    6.18
    MIXING:  cpu time    0.04: real time    0.04
    --------------------------------------------
      LOOP:  cpu time  225.48: real time  226.49

 eigenvalue-minimisations  : 20500
 total energy-change (2. order) : 0.6464405E-04  (-0.4107042E-04)
 number of electron     634.9999996 magnetization      -0.0152247
 augmentation part      217.4682118 magnetization      -0.0106440

 Broyden mixing:
  rms(total) = 0.29937E-02    rms(broyden)= 0.29935E-02
  rms(prec ) = 0.37907E-02
  weight for this iteration     100.00

 eigenvalues of (default mixing * dielectric matrix)
  average eigenvalue GAMMA=   1.1175
  2.5348  1.8356  1.8356  0.9495  0.7892  0.6702  0.5329  0.4372  0.4727

 Free energy of the ion-electron system (eV)
  ---------------------------------------------------
  alpha Z        PSCENC =      8177.14454612
  Ewald energy   TEWEN  =    -61748.10662776
  -1/2 Hartree   DENC   =     -7366.45054753
  -exchange  EXHF       =         0.00000000
  -V(xc)+E(xc)   XCENC  =      1780.30019437
  PAW double counting   =     44844.76338424   -44396.54435077
  entropy T*S    EENTRO =         0.00361175
  eigenvalues    EBANDS =     -8521.08322170
  atomic energy  EATOM  =     66558.94894662
  ---------------------------------------------------
  free energy    TOTEN  =      -671.02406466 eV

  energy without entropy =     -671.02767640  energy(sigma->0) =     -671.02526857


--------------------------------------------------------------------------------------------------------




----------------------------------------- Iteration    1(  15)  ---------------------------------------


    POTLOK:  cpu time    0.45: real time    0.47
    SETDIJ:  cpu time    0.10: real time    0.11
     EDDAV:  cpu time  223.00: real time  224.00
       DOS:  cpu time    0.04: real time    0.04
    CHARGE:  cpu time    5.44: real time    5.44
    MIXING:  cpu time    0.04: real time    0.04
    --------------------------------------------
      LOOP:  cpu time  229.07: real time  230.29

 eigenvalue-minimisations  : 20940
 total energy-change (2. order) : 0.4747565E-04  (-0.1595810E-04)
 number of electron     634.9999996 magnetization      -0.0045154
 augmentation part      217.4738634 magnetization      -0.0021996

 Broyden mixing:
  rms(total) = 0.16464E-02    rms(broyden)= 0.16464E-02
  rms(prec ) = 0.23045E-02
  weight for this iteration     100.00

 eigenvalues of (default mixing * dielectric matrix)
  average eigenvalue GAMMA=   1.1108
  2.5512  2.2243  1.7509  0.8930  0.8930  0.7382  0.6514  0.5044  0.4406  0.4606

 Free energy of the ion-electron system (eV)
  ---------------------------------------------------
  alpha Z        PSCENC =      8177.14454612
  Ewald energy   TEWEN  =    -61748.10662776
  -1/2 Hartree   DENC   =     -7366.11886935
  -exchange  EXHF       =         0.00000000
  -V(xc)+E(xc)   XCENC  =      1780.28449308
  PAW double counting   =     44842.42301933   -44393.94251919
  entropy T*S    EENTRO =         0.00357542
  eigenvalues    EBANDS =     -8521.66058146
  atomic energy  EATOM  =     66558.94894662
  ---------------------------------------------------
  free energy    TOTEN  =      -671.02401718 eV

  energy without entropy =     -671.02759260  energy(sigma->0) =     -671.02520899


--------------------------------------------------------------------------------------------------------




----------------------------------------- Iteration    1(  16)  ---------------------------------------


    POTLOK:  cpu time    0.48: real time    0.48
    SETDIJ:  cpu time    0.11: real time    0.11
     EDDAV:  cpu time  163.39: real time  164.11
       DOS:  cpu time    0.04: real time    0.04
    CHARGE:  cpu time    5.64: real time    5.66
    MIXING:  cpu time    0.04: real time    0.04
    --------------------------------------------
      LOOP:  cpu time  169.71: real time  170.53

 eigenvalue-minimisations  : 13560
 total energy-change (2. order) : 0.1710287E-04  (-0.1977313E-05)
 number of electron     634.9999996 magnetization      -0.0005004
 augmentation part      217.4737895 magnetization       0.0001249

 Broyden mixing:
  rms(total) = 0.74340E-03    rms(broyden)= 0.74339E-03
  rms(prec ) = 0.10255E-02
  weight for this iteration     100.00

 eigenvalues of (default mixing * dielectric matrix)
  average eigenvalue GAMMA=   1.1082
  2.6020  2.4022  1.6618  1.0340  1.0340  0.7748  0.6969  0.5970  0.4366  0.4753
  0.4753

 Free energy of the ion-electron system (eV)
  ---------------------------------------------------
  alpha Z        PSCENC =      8177.14454612
  Ewald energy   TEWEN  =    -61748.10662776
  -1/2 Hartree   DENC   =     -7366.30724050
  -exchange  EXHF       =         0.00000000
  -V(xc)+E(xc)   XCENC  =      1780.29376302
  PAW double counting   =     44842.50302243   -44393.87919069
  entropy T*S    EENTRO =         0.00360103
  eigenvalues    EBANDS =     -8521.62482034
  atomic energy  EATOM  =     66558.94894662
  ---------------------------------------------------
  free energy    TOTEN  =      -671.02400008 eV

  energy without entropy =     -671.02760111  energy(sigma->0) =     -671.02520042


--------------------------------------------------------------------------------------------------------




----------------------------------------- Iteration    1(  17)  ---------------------------------------


    POTLOK:  cpu time    0.47: real time    0.47
    SETDIJ:  cpu time    0.11: real time    0.11
     EDDAV:  cpu time  143.26: real time  143.90
       DOS:  cpu time    0.04: real time    0.04
    --------------------------------------------
      LOOP:  cpu time  143.89: real time  144.76

 eigenvalue-minimisations  : 10960
 total energy-change (2. order) : 0.6871211E-05  (-0.8799190E-06)
 number of electron     634.9999996 magnetization      -0.0005004
 augmentation part      217.4737895 magnetization       0.0001249

 Free energy of the ion-electron system (eV)
  ---------------------------------------------------
  alpha Z        PSCENC =      8177.14454612
  Ewald energy   TEWEN  =    -61748.10662776
  -1/2 Hartree   DENC   =     -7366.52791572
  -exchange  EXHF       =         0.00000000
  -V(xc)+E(xc)   XCENC  =      1780.30447384
  PAW double counting   =     44842.89267732   -44394.20078429
  entropy T*S    EENTRO =         0.00360198
  eigenvalues    EBANDS =     -8521.48291132
  atomic energy  EATOM  =     66558.94894662
  ---------------------------------------------------
  free energy    TOTEN  =      -671.02399321 eV

  energy without entropy =     -671.02759519  energy(sigma->0) =     -671.02519387


--------------------------------------------------------------------------------------------------------




 average (electrostatic) potential at core
  the test charge radii are     1.1249  1.1823
  (the norm of the test charge is              1.0000)
       1 -72.9591       2 -38.6781       3 -38.6372       4 -38.7276       5 -38.6372
       6 -38.6453       7 -38.7104       8 -38.7276       9 -38.7104      10 -38.6938
      11 -38.6372      12 -38.6453      13 -38.7104      14 -38.6453      15 -38.6406
      16 -38.6439      17 -38.7104      18 -38.6439      19 -38.6051      20 -38.7276
      21 -38.7104      22 -38.6938      23 -38.7104      24 -38.6439      25 -38.6051
      26 -38.6938      27 -38.6051      28 -38.6474      29 -38.6683      30 -38.6060
      31 -38.6683      32 -38.5378      33 -38.6853      34 -38.6060      35 -38.6853
      36 -38.6363      37 -38.6683      38 -38.5378      39 -38.6853      40 -38.5378
      41 -38.4802      42 -38.6853      43 -38.4802      44 -38.6218      45 -38.6060
      46 -38.6853      47 -38.6363      48 -38.6853      49 -38.4802      50 -38.6218
      51 -38.6363      52 -38.6218      53 -38.5802
 
 
 
[...]
      7.96408      4.78308      1.60047        -0.002373      0.008083     -0.010344
      7.94228      4.78684      4.78684        -0.002847     -0.004121      0.000027
      7.96327      4.78785      7.96327         0.001347     -0.001391     -0.005594
      7.96317      7.96317      1.59751        -0.003865     -0.003865      0.005926
      7.96327      7.96327      4.78785        -0.002209     -0.002209      0.002860
      7.96174      7.96174      7.96174        -0.005005     -0.005005      0.003785
 -----------------------------------------------------------------------------------
    total drift:                               -0.002678     -0.000174     -0.004933


--------------------------------------------------------------------------------------------------------



  FREE ENERGIE OF THE ION-ELECTRON SYSTEM (eV)
  ---------------------------------------------------
  free  energy   TOTEN  =      -671.00726095 eV

  energy  without entropy=     -671.01127148  energy(sigma->0) =     -671.00859779
 
 d Force =-0.7346350E-03[-0.675E-01, 0.661E-01]  d Energy =-0.1999871E-03-0.535E-03
 d Force =-0.1020308E+02[-0.128E+02,-0.763E+01]  d Ewald  =-0.1020917E+02 0.610E-02


--------------------------------------------------------------------------------------------------------


    POTLOK:  cpu time    0.36: real time    0.36


--------------------------------------------------------------------------------------------------------


 stress matrix after NEB project (eV)
     -7.56026      0.07031      0.06932
      0.07031     -7.56026      0.06932
      0.06932      0.06932     -7.65639
  FORCES: max atom, RMS     0.675486    0.092785
  FORCE total and by dimension    0.675486    0.675470
  Stress total and by dimension   13.151593    7.656390
 Finite differences progress:
  Degree of freedom:   3/  3
  Displacement:        2/  2
  Total:               6/  6
 
 SECOND DERIVATIVES (NOT SYMMETRIZED)
 ------------------------------------
              15X         15Y         15Z 
 15X   -13.383419    0.192772    0.192772
 15Y     0.183685  -13.363661    0.183685
 15Z     0.181501    0.181501  -13.362480
 
 
 Eigenvectors and eigenvalues of the dynamical matrix
 ----------------------------------------------------
 
 
   1 f  =    4.246658 THz    26.682537 2PiTHz  141.653247 cm-1    17.562771 meV
             X         Y         Z           dx          dy          dz
      1.616297  1.616297  1.616297            0           0           0  
      9.545592  9.545592  9.545592            0           0           0  
      9.538390  9.538390  3.211503            0           0           0  
      0.000019  0.000019  6.368610            0           0           0  
      9.538390  3.211503  9.538390            0           0           0  
      9.541145  3.208069  3.208069            0           0           0  
      0.003463  3.188384  6.372608            0           0           0  
      0.000019  6.368610  0.000019            0           0           0  
      0.003463  6.372608  3.188384            0           0           0  
      0.001999  6.375649  6.375649            0           0           0  
      3.211503  9.538390  9.538390            0           0           0  
      3.208069  9.541145  3.208069            0           0           0  
      3.188384  0.003463  6.372608            0           0           0  
      3.208069  3.208069  9.541145            0           0           0  
      3.235702  3.235702  3.235702     0.822814   -0.433921   -0.367001  
      3.207859  3.207859  6.353133            0           0           0  
      3.188384  6.372608  0.003463            0           0           0  
      3.207859  6.353133  3.207859            0           0           0  
      3.200140  6.366343  6.366343            0           0           0  
      6.368610  0.000019  0.000019            0           0           0  
      6.372608  0.003463  3.188384            0           0           0  
      6.375649  0.001999  6.375649            0           0           0  
      6.372608  3.188384  0.003463            0           0           0  
      6.353133  3.207859  3.207859            0           0           0  
      6.366343  3.200140  6.366343            0           0           0  
      6.375649  6.375649  0.001999            0           0           0  
      6.366343  6.366343  3.200140            0           0           0  
      6.357486  6.357486  6.357486            0           0           0  
      1.597090  1.597090  4.761906            0           0           0  
      1.600084  1.600084  7.983979            0           0           0  
      1.597090  4.761906  1.597090            0           0           0  
      1.614824  4.785551  4.785551            0           0           0  
      1.600467  4.783083  7.964084            0           0           0  
      1.600084  7.983979  1.600084            0           0           0  
      1.600467  7.964084  4.783083            0           0           0  
      1.597511  7.963175  7.963175            0           0           0  
      4.761906  1.597090  1.597090            0           0           0  
      4.785551  1.614824  4.785551            0           0           0  
      4.783083  1.600467  7.964084            0           0           0  
      4.785551  4.785551  1.614824            0           0           0  
      4.786842  4.786842  7.942275            0           0           0  
      4.783083  7.964084  1.600467            0           0           0  
      4.786842  7.942275  4.786842            0           0           0  
      4.787847  7.963270  7.963270            0           0           0  
      7.983979  1.600084  1.600084            0           0           0  
      7.964084  1.600467  4.783083            0           0           0  
      7.963175  1.597511  7.963175            0           0           0  
      7.964084  4.783083  1.600467            0           0           0  
      7.942275  4.786842  4.786842            0           0           0  
      7.963270  4.787847  7.963270            0           0           0  
      7.963175  7.963175  1.597511            0           0           0  
      7.963270  7.963270  4.787847            0           0           0  
      7.961740  7.961740  7.961740            0           0           0  
 
   2 f  =    4.243442 THz    26.662335 2PiTHz  141.545997 cm-1    17.549473 meV
             X         Y         Z           dx          dy          dz
      1.616297  1.616297  1.616297            0           0           0  
      9.545592  9.545592  9.545592            0           0           0  
      9.538390  9.538390  3.211503            0           0           0  
      0.000019  0.000019  6.368610            0           0           0  
      9.538390  3.211503  9.538390            0           0           0  
      9.541145  3.208069  3.208069            0           0           0  
      0.003463  3.188384  6.372608            0           0           0  
      0.000019  6.368610  0.000019            0           0           0  
      0.003463  6.372608  3.188384            0           0           0  
      0.001999  6.375649  6.375649            0           0           0  
      3.211503  9.538390  9.538390            0           0           0  
      3.208069  9.541145  3.208069            0           0           0  
      3.188384  0.003463  6.372608            0           0           0  
      3.208069  3.208069  9.541145            0           0           0  
      3.235702  3.235702  3.235702     0.039029    0.687396   -0.725234  
      3.207859  3.207859  6.353133            0           0           0  
      3.188384  6.372608  0.003463            0           0           0  
      3.207859  6.353133  3.207859            0           0           0  
      3.200140  6.366343  6.366343            0           0           0  
      6.368610  0.000019  0.000019            0           0           0  
      6.372608  0.003463  3.188384            0           0           0  
      6.375649  0.001999  6.375649            0           0           0  
      6.372608  3.188384  0.003463            0           0           0  
      6.353133  3.207859  3.207859            0           0           0  
      6.366343  3.200140  6.366343            0           0           0  
      6.375649  6.375649  0.001999            0           0           0  
      6.366343  6.366343  3.200140            0           0           0  
      6.357486  6.357486  6.357486            0           0           0  
      1.597090  1.597090  4.761906            0           0           0  
      1.600084  1.600084  7.983979            0           0           0  
      1.597090  4.761906  1.597090            0           0           0  
      1.614824  4.785551  4.785551            0           0           0  
      1.600467  4.783083  7.964084            0           0           0  
      1.600084  7.983979  1.600084            0           0           0  
      1.600467  7.964084  4.783083            0           0           0  
      1.597511  7.963175  7.963175            0           0           0  
      4.761906  1.597090  1.597090            0           0           0  
      4.785551  1.614824  4.785551            0           0           0  
      4.783083  1.600467  7.964084            0           0           0  
      4.785551  4.785551  1.614824            0           0           0  
      4.786842  4.786842  7.942275            0           0           0  
      4.783083  7.964084  1.600467            0           0           0  
      4.786842  7.942275  4.786842            0           0           0  
      4.787847  7.963270  7.963270            0           0           0  
      7.983979  1.600084  1.600084            0           0           0  
      7.964084  1.600467  4.783083            0           0           0  
      7.963175  1.597511  7.963175            0           0           0  
      7.964084  4.783083  1.600467            0           0           0  
      7.942275  4.786842  4.786842            0           0           0  
      7.963270  4.787847  7.963270            0           0           0  
      7.963175  7.963175  1.597511            0           0           0  
      7.963270  7.963270  4.787847            0           0           0  
      7.961740  7.961740  7.961740            0           0           0  
 
   3 f  =    4.156748 THz    26.117616 2PiTHz  138.654174 cm-1    17.190933 meV
             X         Y         Z           dx          dy          dz
      1.616297  1.616297  1.616297            0           0           0  
      9.545592  9.545592  9.545592            0           0           0  
      9.538390  9.538390  3.211503            0           0           0  
      0.000019  0.000019  6.368610            0           0           0  
      9.538390  3.211503  9.538390            0           0           0  
      9.541145  3.208069  3.208069            0           0           0  
      0.003463  3.188384  6.372608            0           0           0  
      0.000019  6.368610  0.000019            0           0           0  
      0.003463  6.372608  3.188384            0           0           0  
      0.001999  6.375649  6.375649            0           0           0  
      3.211503  9.538390  9.538390            0           0           0  
      3.208069  9.541145  3.208069            0           0           0  
      3.188384  0.003463  6.372608            0           0           0  
      3.208069  3.208069  9.541145            0           0           0  
      3.235702  3.235702  3.235702     0.566969    0.582409    0.582534  
      3.207859  3.207859  6.353133            0           0           0  
      3.188384  6.372608  0.003463            0           0           0  
      3.207859  6.353133  3.207859            0           0           0  
      3.200140  6.366343  6.366343            0           0           0  
      6.368610  0.000019  0.000019            0           0           0  
      6.372608  0.003463  3.188384            0           0           0  
      6.375649  0.001999  6.375649            0           0           0  
      6.372608  3.188384  0.003463            0           0           0  
      6.353133  3.207859  3.207859            0           0           0  
      6.366343  3.200140  6.366343            0           0           0  
      6.375649  6.375649  0.001999            0           0           0  
      6.366343  6.366343  3.200140            0           0           0  
      6.357486  6.357486  6.357486            0           0           0  
      1.597090  1.597090  4.761906            0           0           0  
      1.600084  1.600084  7.983979            0           0           0  
      1.597090  4.761906  1.597090            0           0           0  
      1.614824  4.785551  4.785551            0           0           0  
      1.600467  4.783083  7.964084            0           0           0  
      1.600084  7.983979  1.600084            0           0           0  
      1.600467  7.964084  4.783083            0           0           0  
      1.597511  7.963175  7.963175            0           0           0  
      4.761906  1.597090  1.597090            0           0           0  
      4.785551  1.614824  4.785551            0           0           0  
      4.783083  1.600467  7.964084            0           0           0  
      4.785551  4.785551  1.614824            0           0           0  
      4.786842  4.786842  7.942275            0           0           0  
      4.783083  7.964084  1.600467            0           0           0  
      4.786842  7.942275  4.786842            0           0           0  
      4.787847  7.963270  7.963270            0           0           0  
      7.983979  1.600084  1.600084            0           0           0  
      7.964084  1.600467  4.783083            0           0           0  
      7.963175  1.597511  7.963175            0           0           0  
      7.964084  4.783083  1.600467            0           0           0  
      7.942275  4.786842  4.786842            0           0           0  
      7.963270  4.787847  7.963270            0           0           0  
      7.963175  7.963175  1.597511            0           0           0  
      7.963270  7.963270  4.787847            0           0           0  
      7.961740  7.961740  7.961740            0           0           0  
 
 Finite differences POTIM=  5.000000000000000E-002
  LATTYP: Found a simple cubic cell.
 ALAT       =     9.5650190000
  
  Lattice vectors:
  
 A1 = (   9.5650190000,   0.0000000000,   0.0000000000)
 A2 = (   0.0000000000,   9.5650190000,   0.0000000000)
 A3 = (   0.0000000000,   0.0000000000,   9.5650190000)


Analysis of symmetry for initial positions (statically):
=====================================================================
 Subroutine PRICEL returns:
 Original cell was already a primitive cell.
 

 Routine SETGRP: Setting up the symmetry group for a 
 simple cubic supercell.


 Subroutine GETGRP returns: Found  6 space group operations
 (whereof  6 operations were pure point group operations)
 out of a pool of 48 trial point group operations.


The static configuration has the point symmetry C_3v.


Analysis of symmetry for dynamics (positions and initial velocities):
=====================================================================
 Subroutine PRICEL returns:
 Original cell was already a primitive cell.
 

 Routine SETGRP: Setting up the symmetry group for a 
 simple cubic supercell.


 Subroutine GETGRP returns: Found  6 space group operations
 (whereof  6 operations were pure point group operations)
 out of a pool of 48 trial point group operations.


The dynamic configuration has the point symmetry C_3v.


Analysis of constrained symmetry for selective dynamics:
=====================================================================
 Subroutine PRICEL returns:
 Original cell was already a primitive cell.
 

 Routine SETGRP: Setting up the symmetry group for a 
 simple cubic supercell.


 Subroutine GETGRP returns: Found  6 space group operations
 (whereof  6 operations were pure point group operations)
 out of a pool of 48 trial point group operations.


The constrained configuration has the point symmetry C_3v.


Analysis of magnetic symmetry:
=====================================================================

 Subroutine MAGSYM returns: Found  6 space group operations
 (whereof  6 operations were pure point group operations)
 out of a pool of  6 trial space group operations
 (whereof  6 operations were pure point group operations)
 and found also     1 'primitive' translations


The magnetic configuration has the point symmetry C_3v.
 
 KPOINTS: Automatic kpoint scheme                 

Automatic generation of k-mesh.
Space group operators:
 irot       det(A)        alpha          n_x          n_y          n_z        tau_x        tau_y        tau_z
    1     1.000000     0.000000     1.000000     0.000000     0.000000     0.000000     0.000000     0.000000
    2     1.000000   120.000000    -0.577350    -0.577350    -0.577350     0.000000     0.000000     0.000000
    3     1.000000   120.000000     0.577350     0.577350     0.577350     0.000000     0.000000     0.000000
    4    -1.000000   180.000000     0.000000    -0.707107     0.707107     0.000000     0.000000     0.000000
    5    -1.000000   180.000000     0.707107    -0.707107     0.000000     0.000000     0.000000     0.000000
    6    -1.000000   180.000000     0.707107     0.000000    -0.707107     0.000000     0.000000     0.000000
 
 Subroutine IBZKPT returns following result:
 ===========================================
 
 Found     10 irreducible k-points:
 
 Following reciprocal coordinates:
            Coordinates               Weight
  0.125000  0.125000  0.125000      2.000000
  0.375000  0.125000  0.125000      6.000000
 -0.375000  0.125000  0.125000      6.000000
 -0.125000  0.125000  0.125000      6.000000
  0.375000  0.375000  0.125000      6.000000
 -0.375000  0.375000  0.125000     12.000000
 -0.125000  0.375000  0.125000     12.000000
 -0.375000 -0.375000  0.125000      6.000000
  0.375000  0.375000  0.375000      2.000000
 -0.375000  0.375000  0.375000      6.000000
 
 Following cartesian coordinates:
            Coordinates               Weight
  0.013068  0.013068  0.013068      2.000000
  0.039205  0.013068  0.013068      6.000000
 -0.039205  0.013068  0.013068      6.000000
 -0.013068  0.013068  0.013068      6.000000
  0.039205  0.039205  0.013068      6.000000
 -0.039205  0.039205  0.013068     12.000000
 -0.013068  0.039205  0.013068     12.000000
 -0.039205 -0.039205  0.013068      6.000000
  0.039205  0.039205  0.039205      2.000000
 -0.039205  0.039205  0.039205      6.000000
 
     LOOP+:  cpu time 2984.44: real time 2994.08
    4ORBIT:  cpu time    0.00: real time    0.00

 total amount of memory used by VASP on root node   231181. kBytes
========================================================================

   base      :      30000. kBytes
   nonlr-proj:      50788. kBytes
   fftplans  :       4920. kBytes
   grid      :      30392. kBytes
   one-center:       1648. kBytes
   wavefun   :     113433. kBytes
 
  
  
 General timing and accounting informations for this job:
 ========================================================
  
                  Total CPU time used (sec):    23310.689
                            User time (sec):    23107.859
                          System time (sec):      202.830
                         Elapsed time (sec):    25361.725
  
                   Maximum memory used (kb):      723004.
                   Average memory used (kb):           0.
  
                          Minor page faults:       849149
                          Major page faults:           27
                 Voluntary context switches:     11291625
