    4    4  191    1
  0.1166400E+02  0.3600000E-09  0.3600000E-09  0.3600000E-09  0.5000000E-15
  1.000000000000000E-004
  CAR 
 unknown system                          
   32    1   20
 
  0.0000000E+00  0.0000000E+00  0.0000000E+00  0.1000000E+01
   1       -2.553748
   2        2.393501
   3        2.393501
   4        2.393501
   5        3.282204
   6        3.282204
   7        3.282204
   8        5.789117
   9        5.789117
  10        5.789117
  11        7.392766
  12        7.392767
  13        8.379276
  14        8.379276
  15        8.379276
  16        8.539116
  17        8.539116
  18        8.539116
  19        8.539116
  20        8.557844
