 107 107   0   0
  0.1212439E+02  0.1090639E-08  0.1090639E-08  0.1090639E-08  0.5000000E-15
  1.000000000000000E-004
  CAR 
 unknown system                          
     26.92555438     -7.55365431  301      3.68467072      1.00000000
     -7.554  0.0000E+00  0.0000E+00  0.0000E+00  0.0000E+00
     -7.439  0.0000E+00  0.0000E+00  0.0000E+00  0.0000E+00
     -7.324  0.0000E+00  0.0000E+00  0.0000E+00  0.0000E+00
     -7.209  0.0000E+00  0.0000E+00  0.0000E+00  0.0000E+00
     -7.094  0.0000E+00  0.0000E+00  0.0000E+00  0.0000E+00
     -6.979  0.0000E+00  0.0000E+00  0.0000E+00  0.0000E+00
     -6.864  0.0000E+00  0.0000E+00  0.0000E+00  0.0000E+00
     -6.749  0.0000E+00  0.0000E+00  0.0000E+00  0.0000E+00
     -6.634  0.0000E+00  0.0000E+00  0.0000E+00  0.0000E+00
     -6.519  0.0000E+00  0.0000E+00  0.0000E+00  0.0000E+00
     -6.404  0.0000E+00  0.0000E+00  0.0000E+00  0.0000E+00
     -6.289  0.0000E+00  0.0000E+00  0.0000E+00  0.0000E+00
     -6.174  0.0000E+00  0.0000E+00  0.0000E+00  0.0000E+00
     -6.060  0.0000E+00  0.0000E+00  0.0000E+00  0.0000E+00
     -5.945  0.0000E+00  0.0000E+00  0.0000E+00  0.0000E+00
     -5.830  0.0000E+00  0.0000E+00  0.0000E+00  0.0000E+00
     -5.715  0.0000E+00  0.0000E+00  0.0000E+00  0.0000E+00
     -5.600  0.0000E+00  0.0000E+00  0.0000E+00  0.0000E+00
     -5.485  0.1288E+01  0.1284E+01  0.7987E-01  0.7936E-01
     -5.370  0.3256E+01  0.3254E+01  0.3777E+00  0.3764E+00
     -5.255  0.2526E+01  0.2533E+01  0.7975E+00  0.7964E+00
     -5.140  0.7890E+00  0.7940E+00  0.9806E+00  0.9803E+00
     -5.025  0.4322E+01  0.4311E+01  0.1154E+01  0.1152E+01
     -4.910  0.3430E+01  0.3440E+01  0.1744E+01  0.1743E+01
     -4.795  0.3114E+01  0.3113E+01  0.2070E+01  0.2069E+01
     -4.680  0.2350E+01  0.2350E+01  0.2446E+01  0.2445E+01
     -4.565  0.6024E+01  0.5971E+01  0.2876E+01  0.2874E+01
     -4.451  0.4616E+01  0.4621E+01  0.3615E+01  0.3613E+01
     -4.336  0.3423E+01  0.3425E+01  0.4123E+01  0.4122E+01
     -4.221  0.4951E+01  0.4945E+01  0.4549E+01  0.4547E+01
     -4.106  0.4595E+01  0.4598E+01  0.5178E+01  0.5176E+01
     -3.991  0.7324E+01  0.7529E+01  0.6016E+01  0.6014E+01
     -3.876  0.9222E+01  0.9122E+01  0.6527E+01  0.6524E+01
     -3.761  0.1254E+01  0.1253E+01  0.7223E+01  0.7222E+01
     -3.646  0.2681E+00  0.2867E+00  0.7999E+01  0.7999E+01
     -3.531  0.5177E+01  0.5210E+01  0.8779E+01  0.8777E+01
     -3.416  0.8669E+01  0.8600E+01  0.9500E+01  0.9497E+01
     -3.301  0.5602E+01  0.5613E+01  0.1029E+02  0.1029E+02
     -3.186  0.7283E+01  0.7219E+01  0.1094E+02  0.1094E+02
     -3.071  0.7859E+01  0.7866E+01  0.1223E+02  0.1222E+02
     -2.956  0.1377E+02  0.1387E+02  0.1339E+02  0.1339E+02
     -2.841  0.7192E+01  0.7194E+01  0.1441E+02  0.1441E+02
     -2.727  0.1457E+02  0.1461E+02  0.1563E+02  0.1562E+02
     -2.612  0.3050E+01  0.3146E+01  0.1640E+02  0.1640E+02
     -2.497  0.6575E+01  0.6558E+01  0.1691E+02  0.1691E+02
     -2.382  0.2019E+02  0.2105E+02  0.1867E+02  0.1866E+02
     -2.267  0.9477E+01  0.9505E+01  0.2055E+02  0.2054E+02
     -2.152  0.1248E+02  0.1251E+02  0.2177E+02  0.2177E+02
     -2.037  0.1098E+02  0.1093E+02  0.2279E+02  0.2279E+02
     -1.922  0.2005E+02  0.1995E+02  0.2446E+02  0.2445E+02
     -1.807  0.1609E+02  0.1791E+02  0.2634E+02  0.2634E+02
     -1.692  0.2830E+02  0.2829E+02  0.2871E+02  0.2870E+02
     -1.577  0.1736E+02  0.1791E+02  0.3085E+02  0.3085E+02
     -1.462  0.1107E+02  0.1279E+02  0.3255E+02  0.3255E+02
     -1.347  0.2420E+02  0.2426E+02  0.3633E+02  0.3633E+02
     -1.232  0.3513E+02  0.3512E+02  0.4096E+02  0.4095E+02
     -1.118  0.5938E+02  0.5939E+02  0.4598E+02  0.4597E+02
     -1.003  0.5475E+02  0.5594E+02  0.5352E+02  0.5352E+02
     -0.888  0.4146E+02  0.4185E+02  0.6055E+02  0.6054E+02
     -0.773  0.8168E+02  0.8060E+02  0.6819E+02  0.6818E+02
     -0.658  0.8049E+02  0.8045E+02  0.7699E+02  0.7698E+02
     -0.543  0.1464E+03  0.1454E+03  0.8801E+02  0.8800E+02
     -0.428  0.1097E+03  0.1095E+03  0.1011E+03  0.1011E+03
     -0.313  0.1715E+03  0.1723E+03  0.1169E+03  0.1169E+03
     -0.198  0.1384E+03  0.1357E+03  0.1301E+03  0.1301E+03
     -0.083  0.8320E+02  0.8519E+02  0.1434E+03  0.1434E+03
      0.032  0.9405E+02  0.9390E+02  0.1576E+03  0.1576E+03
      0.147  0.1200E+03  0.1199E+03  0.1712E+03  0.1712E+03
      0.262  0.1749E+03  0.1752E+03  0.1866E+03  0.1866E+03
      0.377  0.1681E+03  0.1681E+03  0.2059E+03  0.2059E+03
      0.491  0.1262E+03  0.1263E+03  0.2248E+03  0.2248E+03
      0.606  0.2420E+03  0.2406E+03  0.2477E+03  0.2477E+03
      0.721  0.2597E+03  0.2593E+03  0.2720E+03  0.2720E+03
      0.836  0.2654E+03  0.2656E+03  0.2991E+03  0.2991E+03
      0.951  0.1477E+03  0.1478E+03  0.3232E+03  0.3232E+03
      1.066  0.1361E+03  0.1364E+03  0.3415E+03  0.3415E+03
      1.181  0.1384E+03  0.1379E+03  0.3583E+03  0.3583E+03
      1.296  0.1799E+03  0.1794E+03  0.3773E+03  0.3773E+03
      1.411  0.1684E+03  0.1694E+03  0.4012E+03  0.4012E+03
      1.526  0.1880E+03  0.1867E+03  0.4238E+03  0.4238E+03
      1.641  0.1754E+03  0.1693E+03  0.4447E+03  0.4447E+03
      1.756  0.1369E+03  0.1372E+03  0.4649E+03  0.4649E+03
      1.871  0.2367E+03  0.2084E+03  0.4883E+03  0.4883E+03
      1.986  0.3573E+03  0.3499E+03  0.5186E+03  0.5187E+03
      2.101  0.2302E+03  0.2281E+03  0.5477E+03  0.5478E+03
      2.215  0.2843E+02  0.2841E+02  0.5568E+03  0.5568E+03
      2.330  0.1616E+02  0.1616E+02  0.5593E+03  0.5593E+03
      2.445  0.1221E+02  0.1222E+02  0.5626E+03  0.5626E+03
      2.560  0.1362E+02  0.1361E+02  0.5643E+03  0.5643E+03
      2.675  0.1026E+02  0.1026E+02  0.5662E+03  0.5662E+03
      2.790  0.1637E+02  0.1637E+02  0.5687E+03  0.5687E+03
      2.905  0.1776E+02  0.1776E+02  0.5716E+03  0.5716E+03
      3.020  0.6002E+01  0.6003E+01  0.5729E+03  0.5729E+03
      3.135  0.2281E+02  0.2281E+02  0.5751E+03  0.5751E+03
      3.250  0.1524E+02  0.1528E+02  0.5777E+03  0.5777E+03
      3.365  0.1586E+02  0.1586E+02  0.5800E+03  0.5800E+03
      3.480  0.1346E+02  0.1347E+02  0.5818E+03  0.5818E+03
      3.595  0.9544E+01  0.9549E+01  0.5835E+03  0.5835E+03
      3.710  0.1456E+02  0.1456E+02  0.5849E+03  0.5849E+03
      3.824  0.1562E+02  0.1551E+02  0.5868E+03  0.5868E+03
      3.939  0.1487E+02  0.1486E+02  0.5883E+03  0.5883E+03
      4.054  0.2321E+02  0.2296E+02  0.5912E+03  0.5912E+03
      4.169  0.1076E+02  0.1054E+02  0.5931E+03  0.5931E+03
      4.284  0.6848E+01  0.6822E+01  0.5942E+03  0.5942E+03
      4.399  0.1078E+02  0.1077E+02  0.5952E+03  0.5952E+03
      4.514  0.1614E+02  0.1607E+02  0.5969E+03  0.5969E+03
      4.629  0.1105E+02  0.1105E+02  0.5987E+03  0.5987E+03
      4.744  0.2096E+02  0.2073E+02  0.6005E+03  0.6005E+03
      4.859  0.1578E+02  0.1607E+02  0.6029E+03  0.6029E+03
      4.974  0.1772E+02  0.1762E+02  0.6046E+03  0.6046E+03
      5.089  0.1689E+02  0.1720E+02  0.6063E+03  0.6063E+03
      5.204  0.8693E+01  0.8681E+01  0.6078E+03  0.6078E+03
      5.319  0.1255E+02  0.1254E+02  0.6091E+03  0.6090E+03
      5.434  0.8261E+01  0.8283E+01  0.6104E+03  0.6104E+03
      5.548  0.2094E+02  0.2164E+02  0.6117E+03  0.6117E+03
      5.663  0.6153E+01  0.6156E+01  0.6130E+03  0.6130E+03
      5.778  0.1578E+02  0.1575E+02  0.6144E+03  0.6144E+03
      5.893  0.3543E+02  0.3730E+02  0.6167E+03  0.6167E+03
      6.008  0.7834E+01  0.7830E+01  0.6181E+03  0.6181E+03
      6.123  0.9503E+01  0.9503E+01  0.6191E+03  0.6191E+03
      6.238  0.1304E+02  0.1305E+02  0.6207E+03  0.6207E+03
      6.353  0.7262E+01  0.7311E+01  0.6220E+03  0.6220E+03
      6.468  0.6720E+01  0.6718E+01  0.6228E+03  0.6228E+03
      6.583  0.9607E+01  0.9610E+01  0.6240E+03  0.6240E+03
      6.698  0.9305E+01  0.9308E+01  0.6252E+03  0.6252E+03
      6.813  0.7709E+01  0.7686E+01  0.6262E+03  0.6262E+03
      6.928  0.1446E+02  0.1448E+02  0.6272E+03  0.6272E+03
      7.043  0.1138E+02  0.1055E+02  0.6284E+03  0.6284E+03
      7.157  0.1070E+02  0.1077E+02  0.6299E+03  0.6299E+03
      7.272  0.1323E+02  0.1392E+02  0.6314E+03  0.6314E+03
      7.387  0.9171E+01  0.9165E+01  0.6328E+03  0.6328E+03
      7.502  0.5798E+01  0.5801E+01  0.6337E+03  0.6337E+03
      7.617  0.1682E+02  0.1674E+02  0.6347E+03  0.6347E+03
      7.732  0.1388E+02  0.1384E+02  0.6365E+03  0.6365E+03
      7.847  0.1813E+02  0.1813E+02  0.6391E+03  0.6391E+03
      7.962  0.1604E+02  0.1594E+02  0.6410E+03  0.6410E+03
      8.077  0.7291E+01  0.7211E+01  0.6423E+03  0.6423E+03
      8.192  0.2032E+02  0.2084E+02  0.6438E+03  0.6438E+03
      8.307  0.1813E+02  0.1752E+02  0.6459E+03  0.6459E+03
      8.422  0.1142E+02  0.1147E+02  0.6479E+03  0.6479E+03
      8.537  0.1864E+02  0.1864E+02  0.6495E+03  0.6495E+03
      8.652  0.1310E+02  0.1301E+02  0.6516E+03  0.6516E+03
      8.767  0.2150E+01  0.2145E+01  0.6532E+03  0.6532E+03
      8.881  0.1826E+02  0.1824E+02  0.6546E+03  0.6546E+03
      8.996  0.7470E+01  0.8484E+01  0.6571E+03  0.6571E+03
      9.111  0.1195E+02  0.1217E+02  0.6578E+03  0.6578E+03
      9.226  0.1347E+02  0.1368E+02  0.6591E+03  0.6591E+03
      9.341  0.1735E+02  0.1749E+02  0.6609E+03  0.6609E+03
      9.456  0.1093E+02  0.1092E+02  0.6626E+03  0.6626E+03
      9.571  0.1930E+02  0.1929E+02  0.6646E+03  0.6646E+03
      9.686  0.1133E+02  0.1139E+02  0.6668E+03  0.6668E+03
      9.801  0.8481E+01  0.8474E+01  0.6677E+03  0.6677E+03
      9.916  0.1551E+02  0.1538E+02  0.6690E+03  0.6690E+03
     10.031  0.1509E+02  0.1508E+02  0.6707E+03  0.6707E+03
     10.146  0.1025E+02  0.1025E+02  0.6725E+03  0.6725E+03
     10.261  0.6282E+01  0.6233E+01  0.6736E+03  0.6736E+03
     10.376  0.1830E+02  0.1846E+02  0.6750E+03  0.6750E+03
     10.490  0.1299E+02  0.1315E+02  0.6766E+03  0.6766E+03
     10.605  0.1385E+02  0.1384E+02  0.6782E+03  0.6782E+03
     10.720  0.2091E+02  0.2060E+02  0.6798E+03  0.6798E+03
     10.835  0.1476E+02  0.1480E+02  0.6817E+03  0.6817E+03
     10.950  0.1443E+02  0.1447E+02  0.6836E+03  0.6836E+03
     11.065  0.1385E+02  0.1385E+02  0.6857E+03  0.6857E+03
     11.180  0.2266E+02  0.2245E+02  0.6878E+03  0.6878E+03
     11.295  0.7923E+01  0.8015E+01  0.6897E+03  0.6897E+03
     11.410  0.1689E+02  0.1689E+02  0.6913E+03  0.6913E+03
     11.525  0.1346E+02  0.1357E+02  0.6934E+03  0.6934E+03
     11.640  0.1534E+02  0.1533E+02  0.6950E+03  0.6950E+03
     11.755  0.1899E+02  0.2009E+02  0.6969E+03  0.6968E+03
     11.870  0.2100E+02  0.2099E+02  0.6990E+03  0.6990E+03
     11.985  0.1697E+02  0.1701E+02  0.7010E+03  0.7010E+03
     12.099  0.2549E+02  0.2529E+02  0.7034E+03  0.7034E+03
     12.214  0.2466E+02  0.2472E+02  0.7064E+03  0.7064E+03
     12.329  0.2395E+02  0.2371E+02  0.7092E+03  0.7092E+03
     12.444  0.1566E+02  0.1563E+02  0.7112E+03  0.7112E+03
     12.559  0.1645E+02  0.1648E+02  0.7130E+03  0.7130E+03
     12.674  0.1650E+02  0.1640E+02  0.7148E+03  0.7148E+03
     12.789  0.2630E+02  0.2572E+02  0.7172E+03  0.7172E+03
     12.904  0.2357E+02  0.2358E+02  0.7201E+03  0.7200E+03
     13.019  0.1842E+02  0.1833E+02  0.7225E+03  0.7225E+03
     13.134  0.1450E+02  0.1449E+02  0.7245E+03  0.7245E+03
     13.249  0.1743E+02  0.1765E+02  0.7263E+03  0.7263E+03
     13.364  0.1584E+02  0.1576E+02  0.7278E+03  0.7278E+03
     13.479  0.1521E+02  0.1505E+02  0.7296E+03  0.7296E+03
     13.594  0.2796E+02  0.2793E+02  0.7318E+03  0.7318E+03
     13.709  0.1648E+02  0.1642E+02  0.7347E+03  0.7347E+03
     13.823  0.3373E+02  0.3389E+02  0.7374E+03  0.7373E+03
     13.938  0.3214E+02  0.3203E+02  0.7396E+03  0.7396E+03
     14.053  0.2232E+02  0.2282E+02  0.7424E+03  0.7424E+03
     14.168  0.2188E+02  0.2151E+02  0.7445E+03  0.7445E+03
     14.283  0.1101E+02  0.1104E+02  0.7471E+03  0.7471E+03
     14.398  0.1047E+02  0.9961E+01  0.7491E+03  0.7491E+03
     14.513  0.1666E+02  0.1679E+02  0.7513E+03  0.7513E+03
     14.628  0.2911E+02  0.2953E+02  0.7537E+03  0.7537E+03
     14.743  0.2452E+02  0.2456E+02  0.7564E+03  0.7564E+03
     14.858  0.1721E+02  0.1722E+02  0.7588E+03  0.7588E+03
     14.973  0.2331E+02  0.2292E+02  0.7608E+03  0.7608E+03
     15.088  0.1929E+02  0.1914E+02  0.7633E+03  0.7633E+03
     15.203  0.1737E+02  0.1774E+02  0.7662E+03  0.7662E+03
     15.318  0.2392E+02  0.2417E+02  0.7688E+03  0.7688E+03
     15.432  0.1603E+02  0.1599E+02  0.7706E+03  0.7706E+03
     15.547  0.3486E+02  0.3506E+02  0.7727E+03  0.7727E+03
     15.662  0.1170E+02  0.1112E+02  0.7760E+03  0.7760E+03
     15.777  0.1453E+02  0.1460E+02  0.7773E+03  0.7773E+03
     15.892  0.2787E+02  0.2774E+02  0.7797E+03  0.7797E+03
     16.007  0.2583E+02  0.2584E+02  0.7829E+03  0.7829E+03
     16.122  0.2510E+02  0.2503E+02  0.7856E+03  0.7856E+03
     16.237  0.3351E+02  0.3336E+02  0.7881E+03  0.7881E+03
     16.352  0.1114E+02  0.1113E+02  0.7903E+03  0.7903E+03
     16.467  0.2794E+02  0.2809E+02  0.7930E+03  0.7930E+03
     16.582  0.1620E+02  0.1628E+02  0.7957E+03  0.7957E+03
     16.697  0.3031E+02  0.3084E+02  0.7981E+03  0.7981E+03
     16.812  0.2812E+02  0.3020E+02  0.8013E+03  0.8013E+03
     16.927  0.2547E+02  0.2547E+02  0.8047E+03  0.8047E+03
     17.042  0.2426E+02  0.2569E+02  0.8079E+03  0.8079E+03
     17.156  0.1760E+02  0.1748E+02  0.8105E+03  0.8105E+03
     17.271  0.1898E+02  0.1870E+02  0.8130E+03  0.8130E+03
     17.386  0.2610E+02  0.2593E+02  0.8156E+03  0.8156E+03
     17.501  0.1439E+02  0.1426E+02  0.8187E+03  0.8187E+03
     17.616  0.1255E+02  0.1256E+02  0.8210E+03  0.8210E+03
     17.731  0.2092E+02  0.2098E+02  0.8227E+03  0.8227E+03
     17.846  0.2405E+02  0.2413E+02  0.8255E+03  0.8255E+03
     17.961  0.1483E+02  0.1487E+02  0.8277E+03  0.8277E+03
     18.076  0.3510E+02  0.3490E+02  0.8308E+03  0.8308E+03
     18.191  0.2444E+02  0.2444E+02  0.8342E+03  0.8342E+03
     18.306  0.2200E+02  0.2131E+02  0.8365E+03  0.8365E+03
     18.421  0.1642E+02  0.1635E+02  0.8392E+03  0.8392E+03
     18.536  0.1415E+02  0.1414E+02  0.8412E+03  0.8412E+03
     18.651  0.1602E+02  0.1637E+02  0.8431E+03  0.8431E+03
     18.765  0.2239E+02  0.2318E+02  0.8456E+03  0.8456E+03
     18.880  0.2711E+02  0.2916E+02  0.8487E+03  0.8486E+03
     18.995  0.1964E+02  0.1968E+02  0.8514E+03  0.8514E+03
     19.110  0.1490E+02  0.1494E+02  0.8533E+03  0.8533E+03
     19.225  0.1940E+02  0.1941E+02  0.8552E+03  0.8552E+03
     19.340  0.2655E+02  0.2650E+02  0.8579E+03  0.8579E+03
     19.455  0.2383E+02  0.2375E+02  0.8604E+03  0.8604E+03
     19.570  0.2014E+02  0.2014E+02  0.8633E+03  0.8633E+03
     19.685  0.1872E+02  0.1877E+02  0.8658E+03  0.8658E+03
     19.800  0.1454E+02  0.1439E+02  0.8678E+03  0.8678E+03
     19.915  0.1655E+02  0.1644E+02  0.8700E+03  0.8700E+03
     20.030  0.1049E+02  0.1061E+02  0.8722E+03  0.8722E+03
     20.145  0.1045E+02  0.1045E+02  0.8737E+03  0.8737E+03
     20.260  0.2122E+02  0.2129E+02  0.8753E+03  0.8753E+03
     20.375  0.1840E+02  0.1846E+02  0.8773E+03  0.8773E+03
     20.489  0.2842E+02  0.2853E+02  0.8796E+03  0.8796E+03
     20.604  0.1796E+02  0.1794E+02  0.8817E+03  0.8817E+03
     20.719  0.1692E+02  0.1667E+02  0.8837E+03  0.8837E+03
     20.834  0.1464E+02  0.1467E+02  0.8856E+03  0.8856E+03
     20.949  0.1859E+02  0.1858E+02  0.8875E+03  0.8875E+03
     21.064  0.1705E+02  0.1716E+02  0.8897E+03  0.8897E+03
     21.179  0.2108E+02  0.2077E+02  0.8918E+03  0.8918E+03
     21.294  0.2103E+02  0.2104E+02  0.8941E+03  0.8940E+03
     21.409  0.1662E+02  0.1665E+02  0.8962E+03  0.8961E+03
     21.524  0.1586E+02  0.1606E+02  0.8981E+03  0.8981E+03
     21.639  0.2203E+02  0.2210E+02  0.9002E+03  0.9002E+03
     21.754  0.2190E+02  0.2181E+02  0.9028E+03  0.9028E+03
     21.869  0.1713E+02  0.1698E+02  0.9051E+03  0.9051E+03
     21.984  0.1596E+02  0.1593E+02  0.9071E+03  0.9071E+03
     22.098  0.1666E+02  0.1651E+02  0.9090E+03  0.9090E+03
     22.213  0.1641E+02  0.1639E+02  0.9110E+03  0.9110E+03
     22.328  0.1917E+02  0.1922E+02  0.9131E+03  0.9131E+03
     22.443  0.1758E+02  0.1768E+02  0.9155E+03  0.9155E+03
     22.558  0.1646E+02  0.1645E+02  0.9175E+03  0.9175E+03
     22.673  0.1687E+02  0.1691E+02  0.9195E+03  0.9195E+03
     22.788  0.2510E+02  0.2499E+02  0.9219E+03  0.9218E+03
     22.903  0.2693E+02  0.2778E+02  0.9247E+03  0.9246E+03
     23.018  0.2656E+02  0.2623E+02  0.9276E+03  0.9276E+03
     23.133  0.2068E+02  0.2076E+02  0.9310E+03  0.9310E+03
     23.248  0.3015E+02  0.1476E+02  0.9328E+03  0.9328E+03
     23.363  0.2574E+02  0.2596E+02  0.9351E+03  0.9351E+03
     23.478  0.2649E+02  0.2668E+02  0.9385E+03  0.9385E+03
     23.593  0.2807E+02  0.2649E+02  0.9414E+03  0.9414E+03
     23.707  0.1700E+02  0.1699E+02  0.9440E+03  0.9440E+03
     23.822  0.2050E+02  0.2048E+02  0.9463E+03  0.9463E+03
     23.937  0.2293E+02  0.2267E+02  0.9499E+03  0.9498E+03
     24.052  0.2017E+02  0.2020E+02  0.9531E+03  0.9531E+03
     24.167  0.2504E+02  0.2520E+02  0.9564E+03  0.9564E+03
     24.282  0.2326E+02  0.2323E+02  0.9588E+03  0.9588E+03
     24.397  0.4788E+02  0.7459E+02  0.9621E+03  0.9621E+03
     24.512  0.2208E+02  0.2226E+02  0.9661E+03  0.9661E+03
     24.627  0.1297E+02  0.1269E+02  0.9680E+03  0.9680E+03
     24.742  0.2381E+02  0.2266E+02  0.9704E+03  0.9703E+03
     24.857  0.4034E+01  0.4804E+01  0.9720E+03  0.9718E+03
     24.972  0.0000E+00  0.0000E+00  0.9720E+03  0.9720E+03
     25.087  0.0000E+00  0.0000E+00  0.9720E+03  0.9720E+03
     25.202  0.0000E+00  0.0000E+00  0.9720E+03  0.9720E+03
     25.317  0.0000E+00  0.0000E+00  0.9720E+03  0.9720E+03
     25.431  0.0000E+00  0.0000E+00  0.9720E+03  0.9720E+03
     25.546  0.0000E+00  0.0000E+00  0.9720E+03  0.9720E+03
     25.661  0.0000E+00  0.0000E+00  0.9720E+03  0.9720E+03
     25.776  0.0000E+00  0.0000E+00  0.9720E+03  0.9720E+03
     25.891  0.0000E+00  0.0000E+00  0.9720E+03  0.9720E+03
     26.006  0.0000E+00  0.0000E+00  0.9720E+03  0.9720E+03
     26.121  0.0000E+00  0.0000E+00  0.9720E+03  0.9720E+03
     26.236  0.0000E+00  0.0000E+00  0.9720E+03  0.9720E+03
     26.351  0.0000E+00  0.0000E+00  0.9720E+03  0.9720E+03
     26.466  0.0000E+00  0.0000E+00  0.9720E+03  0.9720E+03
     26.581  0.0000E+00  0.0000E+00  0.9720E+03  0.9720E+03
     26.696  0.0000E+00  0.0000E+00  0.9720E+03  0.9720E+03
     26.811  0.0000E+00  0.0000E+00  0.9720E+03  0.9720E+03
     26.926  0.0000E+00  0.0000E+00  0.9720E+03  0.9720E+03
