unknown system                          
           1
    10.906394    0.000000    0.000000
     0.000000   10.906394    0.000000
     0.000000    0.000000   10.906394
   Al   Mg
   1 106
Direct configuration=     1
   0.00064745  0.00064745  0.00075209
   0.00191765  0.00191765  0.33387993
   0.00054439  0.00054439  0.66517373
   0.00054002  0.33336006  0.00086080
   0.00192022  0.33193002  0.33377212
   0.00057839  0.33315855  0.66541239
   0.00025138  0.66596613  0.00044289
   0.00045725  0.66623784  0.33377064
   0.00027764  0.66624232  0.66581249
   0.33336006  0.00054002  0.00086080
   0.33193002  0.00192022  0.33377212
   0.33315855  0.00057839  0.66541239
   0.33321307  0.33321307  0.00088203
   0.33153370  0.33153370  0.33359212
   0.33302868  0.33302868  0.66549846
   0.33359393  0.66619968  0.00042126
   0.33318402  0.66637556  0.33365719
   0.33339075  0.66637207  0.66592708
   0.66596613  0.00025138  0.00044289
   0.66623784  0.00045725  0.33377064
   0.66624232  0.00027764  0.66581249
   0.66619968  0.33359393  0.00042126
   0.66637556  0.33318402  0.33365719
   0.66637207  0.33339075  0.66592708
   0.66623657  0.66623657  0.00018332
   0.66632689  0.66632689  0.33367428
   0.66638776  0.66638776  0.66622986
   0.00212179  0.16761566  0.16961786
   0.00205108  0.16691472  0.49797334
   0.00042016  0.16754684  0.83255031
   0.00057600  0.49915529  0.16751276
   0.00060356  0.49917745  0.49945189
   0.00026121  0.49956695  0.83301759
   0.00060635  0.83328723  0.16811490
   0.00057986  0.83387274  0.49933979
   0.00027333  0.83286087  0.83246910
   0.33172021  0.16704517  0.16906091
   0.33147453  0.16684871  0.49791586
   0.33328198  0.16709006  0.83297819
   0.33305336  0.49917193  0.16746405
   0.33288904  0.49909690  0.49940318
   0.33341197  0.49955812  0.83310242
   0.33309613  0.83377411  0.16763655
   0.33304557  0.83399116  0.49942263
   0.33352853  0.83334489  0.83291228
   0.66634026  0.16705151  0.16750547
   0.66640220  0.16691856  0.49955075
   0.66615447  0.16709047  0.83283353
   0.66637859  0.49958663  0.16717711
   0.66646906  0.49953913  0.49976382
   0.66637914  0.49987615  0.83309783
   0.66628380  0.83338036  0.16730134
   0.66638498  0.83355741  0.49983485
   0.66633283  0.83313766  0.83298771
   0.16691472  0.00205108  0.49797334
   0.16754684  0.00042016  0.83255031
   0.16704517  0.33172021  0.16906091
   0.16684871  0.33147453  0.49791586
   0.16709006  0.33328198  0.83297819
   0.16705151  0.66634026  0.16750547
   0.16691856  0.66640220  0.49955075
   0.16709047  0.66615447  0.83283353
   0.49915529  0.00057600  0.16751276
   0.49917745  0.00060356  0.49945189
   0.49956695  0.00026121  0.83301759
   0.49917193  0.33305336  0.16746405
   0.49909690  0.33288904  0.49940318
   0.49955812  0.33341197  0.83310242
   0.49958663  0.66637859  0.16717711
   0.49953913  0.66646906  0.49976382
   0.49987615  0.66637914  0.83309783
   0.83328723  0.00060635  0.16811490
   0.83387274  0.00057986  0.49933979
   0.83286087  0.00027333  0.83246910
   0.83377411  0.33309613  0.16763655
   0.83399116  0.33304557  0.49942263
   0.83334489  0.33352853  0.83291228
   0.83338036  0.66628380  0.16730134
   0.83355741  0.66638498  0.49983485
   0.83313766  0.66633283  0.83298771
   0.16755760  0.16755760  0.00128612
   0.16761566  0.00212179  0.16961786
   0.16700506  0.16700506  0.66518860
   0.16701782  0.49969331  0.00036527
   0.16687563  0.49879567  0.33359777
   0.16691103  0.49957773  0.66596117
   0.16759895  0.83257888  0.00018853
   0.16707231  0.83425715  0.33369794
   0.16706520  0.83332815  0.66593881
   0.49969331  0.16701782  0.00036527
   0.49879567  0.16687563  0.33359777
   0.49957773  0.16691103  0.66596117
   0.49967712  0.49967712  0.00034328
   0.49961108  0.49961108  0.33352744
   0.49968157  0.49968157  0.66616563
   0.49967314  0.83335162  0.00034181
   0.49972583  0.83343690  0.33367471
   0.49968908  0.83344245  0.66605170
   0.83257888  0.16759895  0.00018853
   0.83425715  0.16707231  0.33369794
   0.83332815  0.16706520  0.66593881
   0.83335162  0.49967314  0.00034181
   0.83343690  0.49972583  0.33367471
   0.83344245  0.49968908  0.66605170
   0.83279716  0.83279716  0.00034933
   0.83316860  0.83316860  0.33373564
   0.83331773  0.83331773  0.66604006
