  33  33   0   0
  0.1602710E+02  0.8087040E-09  0.8087040E-09  0.8087040E-09  0.5000000E-15
  1.000000000000000E-004
  CAR 
 unknown system                          
     16.52396300     -4.67226943  301      8.28393082      1.00000000
     -4.672  0.0000E+00  0.0000E+00
     -4.602  0.0000E+00  0.0000E+00
     -4.531  0.0000E+00  0.0000E+00
     -4.460  0.0000E+00  0.0000E+00
     -4.390  0.0000E+00  0.0000E+00
     -4.319 -0.1234E-29 -0.8722E-31
     -4.248 -0.3494E-27 -0.2477E-28
     -4.178 -0.7708E-25 -0.5471E-26
     -4.107 -0.1322E-22 -0.9393E-24
     -4.036 -0.1761E-20 -0.1253E-21
     -3.966 -0.1822E-18 -0.1300E-19
     -3.895 -0.1463E-16 -0.1047E-17
     -3.824 -0.8870E-15 -0.6371E-16
     -3.754 -0.4256E-13 -0.3071E-14
     -3.683 -0.1585E-11 -0.1151E-12
     -3.612 -0.4563E-10 -0.3339E-11
     -3.542 -0.1014E-08 -0.7495E-10
     -3.471 -0.1733E-07 -0.1299E-08
     -3.400 -0.2273E-06 -0.1736E-07
     -3.330 -0.2277E-05 -0.1782E-06
     -3.259 -0.1729E-04 -0.1400E-05
     -3.189 -0.9836E-04 -0.8349E-05
     -3.118 -0.4108E-03 -0.3737E-04
     -3.047 -0.1207E-02 -0.1226E-03
     -2.977 -0.2216E-02 -0.2792E-03
     -2.906 -0.1226E-02 -0.3658E-03
     -2.835  0.6083E-02  0.6397E-04
     -2.765  0.2153E-01  0.1585E-02
     -2.694  0.3810E-01  0.4277E-02
     -2.623  0.4323E-01  0.7331E-02
     -2.553  0.3243E-01  0.9623E-02
     -2.482  0.1486E-01  0.1067E-01
     -2.411  0.2272E-02  0.1083E-01
     -2.341 -0.2100E-02  0.1068E-01
     -2.270 -0.1910E-02  0.1055E-01
     -2.199 -0.9892E-03  0.1048E-01
     -2.129 -0.9178E-03  0.1042E-01
     -2.058 -0.2140E-02  0.1026E-01
     -1.987 -0.4193E-02  0.9968E-02
     -1.917 -0.3352E-02  0.9731E-02
     -1.846  0.8616E-02  0.1034E-01
     -1.775  0.3693E-01  0.1295E-01
     -1.705  0.7049E-01  0.1793E-01
     -1.634  0.8474E-01  0.2392E-01
     -1.563  0.6865E-01  0.2877E-01
     -1.493  0.4110E-01  0.3167E-01
     -1.422  0.2853E-01  0.3369E-01
     -1.352  0.3394E-01  0.3609E-01
     -1.281  0.3900E-01  0.3884E-01
     -1.210  0.3085E-01  0.4102E-01
     -1.140  0.1478E-01  0.4206E-01
     -1.069  0.2251E-02  0.4222E-01
     -0.998 -0.3046E-02  0.4201E-01
     -0.928 -0.4713E-02  0.4168E-01
     -0.857 -0.5398E-02  0.4129E-01
     -0.786 -0.1116E-02  0.4122E-01
     -0.716  0.1675E-01  0.4240E-01
     -0.645  0.4942E-01  0.4589E-01
     -0.574  0.7966E-01  0.5152E-01
     -0.504  0.8330E-01  0.5740E-01
     -0.433  0.5663E-01  0.6141E-01
     -0.362  0.2246E-01  0.6299E-01
     -0.292  0.6014E-02  0.6342E-01
     -0.221  0.1349E-01  0.6437E-01
     -0.150  0.3185E-01  0.6662E-01
     -0.080  0.4210E-01  0.6960E-01
     -0.009  0.3520E-01  0.7208E-01
      0.062  0.1818E-01  0.7337E-01
      0.132  0.3642E-02  0.7362E-01
      0.203 -0.3508E-02  0.7338E-01
      0.274 -0.6361E-02  0.7293E-01
      0.344 -0.6715E-02  0.7245E-01
      0.415  0.1631E-02  0.7257E-01
      0.485  0.2863E-01  0.7459E-01
      0.556  0.7241E-01  0.7971E-01
      0.627  0.1100E+00  0.8748E-01
      0.697  0.1155E+00  0.9564E-01
      0.768  0.8933E-01  0.1019E+00
      0.839  0.5837E-01  0.1061E+00
      0.909  0.4322E-01  0.1091E+00
      0.980  0.3898E-01  0.1119E+00
      1.051  0.3095E-01  0.1141E+00
      1.121  0.1628E-01  0.1152E+00
      1.192  0.2478E-02  0.1154E+00
      1.263 -0.5730E-02  0.1150E+00
      1.333 -0.8187E-02  0.1144E+00
      1.404 -0.7620E-03  0.1144E+00
      1.475  0.2584E-01  0.1162E+00
      1.545  0.7104E-01  0.1212E+00
      1.616  0.1112E+00  0.1291E+00
      1.687  0.1169E+00  0.1373E+00
      1.757  0.8904E-01  0.1436E+00
      1.828  0.6184E-01  0.1480E+00
      1.899  0.6220E-01  0.1524E+00
      1.969  0.8006E-01  0.1580E+00
      2.040  0.8883E-01  0.1643E+00
      2.111  0.7922E-01  0.1699E+00
      2.181  0.5972E-01  0.1741E+00
      2.252  0.3826E-01  0.1768E+00
      2.322  0.1837E-01  0.1781E+00
      2.393  0.3726E-02  0.1784E+00
      2.464 -0.3786E-02  0.1781E+00
      2.534 -0.6072E-02  0.1777E+00
      2.605 -0.4136E-02  0.1774E+00
      2.676  0.5858E-02  0.1778E+00
      2.746  0.2911E-01  0.1799E+00
      2.817  0.6409E-01  0.1844E+00
      2.888  0.9762E-01  0.1913E+00
      2.958  0.1100E+00  0.1991E+00
      3.029  0.9080E-01  0.2055E+00
      3.100  0.5150E-01  0.2091E+00
      3.170  0.1591E-01  0.2102E+00
      3.241 -0.1948E-02  0.2101E+00
      3.312 -0.5283E-02  0.2097E+00
      3.382 -0.3667E-02  0.2095E+00
      3.453 -0.3174E-02  0.2093E+00
      3.524 -0.5219E-02  0.2089E+00
      3.594 -0.6933E-02  0.2084E+00
      3.665  0.5796E-03  0.2084E+00
      3.736  0.2903E-01  0.2105E+00
      3.806  0.7962E-01  0.2161E+00
      3.877  0.1334E+00  0.2255E+00
      3.948  0.1631E+00  0.2371E+00
      4.018  0.1561E+00  0.2481E+00
      4.089  0.1224E+00  0.2567E+00
      4.159  0.8418E-01  0.2627E+00
      4.230  0.5759E-01  0.2668E+00
      4.301  0.4126E-01  0.2697E+00
      4.371  0.2511E-01  0.2714E+00
      4.442  0.7027E-02  0.2719E+00
      4.513 -0.4032E-02  0.2717E+00
      4.583  0.4290E-02  0.2720E+00
      4.654  0.3823E-01  0.2747E+00
      4.725  0.8575E-01  0.2807E+00
      4.795  0.1168E+00  0.2890E+00
      4.866  0.1130E+00  0.2969E+00
      4.937  0.9423E-01  0.3036E+00
      5.007  0.9832E-01  0.3106E+00
      5.078  0.1344E+00  0.3200E+00
      5.149  0.1737E+00  0.3323E+00
      5.219  0.1829E+00  0.3452E+00
      5.290  0.1531E+00  0.3561E+00
      5.361  0.1003E+00  0.3632E+00
      5.431  0.4798E-01  0.3665E+00
      5.502  0.1222E-01  0.3674E+00
      5.573 -0.4306E-02  0.3671E+00
      5.643 -0.8744E-02  0.3665E+00
      5.714 -0.7777E-02  0.3659E+00
      5.785  0.4563E-03  0.3660E+00
      5.855  0.2312E-01  0.3676E+00
      5.926  0.5774E-01  0.3717E+00
      5.997  0.8367E-01  0.3776E+00
      6.067  0.7934E-01  0.3832E+00
      6.138  0.4814E-01  0.3866E+00
      6.208  0.1604E-01  0.3877E+00
      6.279  0.4919E-02  0.3881E+00
      6.350  0.1615E-01  0.3892E+00
      6.420  0.3451E-01  0.3917E+00
      6.491  0.4176E-01  0.3946E+00
      6.562  0.3109E-01  0.3968E+00
      6.632  0.1102E-01  0.3976E+00
      6.703 -0.4126E-02  0.3973E+00
      6.774 -0.2066E-02  0.3972E+00
      6.844  0.2552E-01  0.3990E+00
      6.915  0.7376E-01  0.4042E+00
      6.986  0.1170E+00  0.4124E+00
      7.056  0.1306E+00  0.4217E+00
      7.127  0.1218E+00  0.4303E+00
      7.198  0.1181E+00  0.4386E+00
      7.268  0.1257E+00  0.4475E+00
      7.339  0.1251E+00  0.4563E+00
      7.410  0.1036E+00  0.4636E+00
      7.480  0.6848E-01  0.4685E+00
      7.551  0.3341E-01  0.4708E+00
      7.622  0.6964E-02  0.4713E+00
      7.692 -0.6416E-02  0.4709E+00
      7.763 -0.2188E-02  0.4707E+00
      7.834  0.2417E-01  0.4724E+00
      7.904  0.6731E-01  0.4772E+00
      7.975  0.1043E+00  0.4846E+00
      8.045  0.1110E+00  0.4924E+00
      8.116  0.9084E-01  0.4988E+00
      8.187  0.7495E-01  0.5041E+00
      8.257  0.8671E-01  0.5102E+00
      8.328  0.1177E+00  0.5186E+00
      8.399  0.1440E+00  0.5287E+00
      8.469  0.1532E+00  0.5396E+00
      8.540  0.1444E+00  0.5498E+00
      8.611  0.1173E+00  0.5580E+00
      8.681  0.7579E-01  0.5634E+00
      8.752  0.3367E-01  0.5658E+00
      8.823  0.4830E-02  0.5661E+00
      8.893 -0.7938E-02  0.5656E+00
      8.964 -0.8658E-02  0.5649E+00
      9.035  0.2849E-02  0.5651E+00
      9.105  0.2975E-01  0.5673E+00
      9.176  0.6419E-01  0.5718E+00
      9.247  0.8491E-01  0.5778E+00
      9.317  0.7954E-01  0.5834E+00
      9.388  0.6136E-01  0.5877E+00
      9.459  0.5429E-01  0.5916E+00
      9.529  0.6952E-01  0.5965E+00
      9.600  0.9958E-01  0.6035E+00
      9.671  0.1225E+00  0.6122E+00
      9.741  0.1153E+00  0.6203E+00
      9.812  0.7591E-01  0.6257E+00
      9.882  0.2946E-01  0.6278E+00
      9.953  0.7609E-02  0.6283E+00
     10.024  0.2533E-01  0.6301E+00
     10.094  0.7148E-01  0.6351E+00
     10.165  0.1166E+00  0.6434E+00
     10.236  0.1391E+00  0.6532E+00
     10.306  0.1455E+00  0.6635E+00
     10.377  0.1540E+00  0.6744E+00
     10.448  0.1641E+00  0.6860E+00
     10.518  0.1571E+00  0.6971E+00
     10.589  0.1219E+00  0.7057E+00
     10.660  0.6975E-01  0.7106E+00
     10.730  0.2386E-01  0.7123E+00
     10.801  0.1833E-02  0.7124E+00
     10.872  0.7573E-02  0.7130E+00
     10.942  0.3417E-01  0.7154E+00
     11.013  0.6894E-01  0.7202E+00
     11.084  0.9574E-01  0.7270E+00
     11.154  0.9878E-01  0.7340E+00
     11.225  0.7488E-01  0.7393E+00
     11.296  0.4475E-01  0.7424E+00
     11.366  0.4080E-01  0.7453E+00
     11.437  0.7477E-01  0.7506E+00
     11.508  0.1223E+00  0.7592E+00
     11.578  0.1479E+00  0.7697E+00
     11.649  0.1423E+00  0.7797E+00
     11.719  0.1247E+00  0.7886E+00
     11.790  0.1115E+00  0.7964E+00
     11.861  0.1002E+00  0.8035E+00
     11.931  0.8312E-01  0.8094E+00
     12.002  0.5924E-01  0.8136E+00
     12.073  0.3220E-01  0.8158E+00
     12.143  0.8170E-02  0.8164E+00
     12.214 -0.3125E-02  0.8162E+00
     12.285  0.9351E-02  0.8169E+00
     12.355  0.4836E-01  0.8203E+00
     12.426  0.9648E-01  0.8271E+00
     12.497  0.1236E+00  0.8358E+00
     12.567  0.1188E+00  0.8442E+00
     12.638  0.1021E+00  0.8514E+00
     12.709  0.9238E-01  0.8580E+00
     12.779  0.8149E-01  0.8637E+00
     12.850  0.5549E-01  0.8676E+00
     12.921  0.2098E-01  0.8691E+00
     12.991 -0.3539E-02  0.8689E+00
     13.062 -0.5239E-02  0.8685E+00
     13.133  0.2086E-01  0.8700E+00
     13.203  0.6967E-01  0.8749E+00
     13.274  0.1203E+00  0.8834E+00
     13.345  0.1488E+00  0.8939E+00
     13.415  0.1494E+00  0.9045E+00
     13.486  0.1331E+00  0.9139E+00
     13.556  0.1087E+00  0.9216E+00
     13.627  0.8083E-01  0.9273E+00
     13.698  0.5749E-01  0.9313E+00
     13.768  0.4486E-01  0.9345E+00
     13.839  0.4003E-01  0.9373E+00
     13.910  0.3913E-01  0.9401E+00
     13.980  0.4833E-01  0.9435E+00
     14.051  0.7327E-01  0.9487E+00
     14.122  0.1014E+00  0.9558E+00
     14.192  0.1132E+00  0.9638E+00
     14.263  0.1099E+00  0.9716E+00
     14.334  0.1095E+00  0.9793E+00
     14.404  0.1158E+00  0.9875E+00
     14.475  0.1117E+00  0.9954E+00
     14.546  0.8546E-01  0.1001E+01
     14.616  0.4723E-01  0.1005E+01
     14.687  0.1560E-01  0.1006E+01
     14.758 -0.4689E-03  0.1006E+01
     14.828 -0.4250E-02  0.1006E+01
     14.899 -0.2973E-02  0.1005E+01
     14.970 -0.1266E-02  0.1005E+01
     15.040 -0.3812E-03  0.1005E+01
     15.111 -0.8496E-04  0.1005E+01
     15.182 -0.1428E-04  0.1005E+01
     15.252 -0.1827E-05  0.1005E+01
     15.323 -0.1789E-06  0.1005E+01
     15.393 -0.1346E-07  0.1005E+01
     15.464 -0.7807E-09  0.1005E+01
     15.535 -0.3494E-10  0.1005E+01
     15.605 -0.1209E-11  0.1005E+01
     15.676 -0.3238E-13  0.1005E+01
     15.747 -0.6664E-15  0.1005E+01
     15.817  0.0000E+00  0.1005E+01
     15.888  0.0000E+00  0.1005E+01
     15.959  0.0000E+00  0.1005E+01
     16.029  0.0000E+00  0.1005E+01
     16.100  0.0000E+00  0.1005E+01
     16.171  0.0000E+00  0.1005E+01
     16.241  0.0000E+00  0.1005E+01
     16.312  0.0000E+00  0.1005E+01
     16.383  0.0000E+00  0.1005E+01
     16.453  0.0000E+00  0.1005E+01
     16.524  0.0000E+00  0.1005E+01
