   33   33  191    1
  0.1602710E+02  0.8087040E-09  0.8087040E-09  0.8087040E-09  0.5000000E-15
  1.000000000000000E-004
  CAR 
 unknown system                          
   98    2   96
 
  0.2500000E+00  0.2500000E+00  0.2500000E+00  0.2500000E+00
   1       -2.671895
   2       -1.676794
   3       -1.676794
   4       -1.307180
   5       -0.574926
   6       -0.574926
   7       -0.105204
   8        0.607228
   9        0.607228
  10        0.675134
  11        0.985580
  12        1.605125
  13        1.620246
  14        1.620246
  15        1.996310
  16        1.996310
  17        2.130373
  18        2.817085
  19        2.953576
  20        2.953576
  21        3.836493
  22        3.836493
  23        3.896130
  24        4.042402
  25        4.042402
  26        4.276166
  27        4.761491
  28        4.777646
  29        4.777646
  30        5.023629
  31        5.116415
  32        5.116415
  33        5.264158
  34        5.264158
  35        5.279047
  36        5.974146
  37        5.974146
  38        6.454730
  39        6.950264
  40        6.994909
  41        6.994909
  42        7.195296
  43        7.307004
  44        7.307004
  45        7.435459
  46        7.950579
  47        7.950579
  48        8.025940
  49        8.281426
  50        8.372991
  51        8.372991
  52        8.533796
  53        8.533796
  54        8.541719
  55        9.225250
  56        9.225250
  57        9.455292
  58        9.656700
  59        9.656700
  60        9.730825
  61       10.146829
  62       10.146829
  63       10.215283
  64       10.327356
  65       10.327356
  66       10.479873
  67       10.479873
  68       10.581771
  69       10.977623
  70       11.133301
  71       11.133301
  72       11.424955
  73       11.541991
  74       11.541991
  75       11.651336
  76       11.828135
  77       11.828135
  78       11.952074
  79       12.446428
  80       12.446428
  81       12.466650
  82       12.755451
  83       12.755451
  84       13.256910
  85       13.290083
  86       13.290085
  87       13.466805
  88       13.466806
  89       13.655916
  90       13.836741
  91       14.076698
  92       14.076773
  93       14.263144
  94       14.362771
  95       14.364299
  96       14.451391
 
 -0.2500000E+00  0.2500000E+00  0.2500000E+00  0.7500000E+00
   1       -2.672269
   2       -1.677013
   3       -1.662693
   4       -1.334336
   5       -0.572970
   6       -0.550768
   7       -0.117144
   8        0.597501
   9        0.615625
  10        0.710589
  11        0.936465
  12        1.588085
  13        1.623724
  14        1.684838
  15        1.949385
  16        1.953610
  17        2.176018
  18        2.811894
  19        2.949702
  20        2.956849
  21        3.845808
  22        3.877302
  23        3.922937
  24        4.018887
  25        4.041674
  26        4.252358
  27        4.738964
  28        4.781283
  29        4.826807
  30        5.027522
  31        5.097035
  32        5.131908
  33        5.193120
  34        5.204167
  35        5.330445
  36        5.987391
  37        6.000348
  38        6.442381
  39        6.969029
  40        6.994035
  41        7.006827
  42        7.199900
  43        7.272747
  44        7.279597
  45        7.441803
  46        7.947414
  47        7.972347
  48        8.068839
  49        8.266594
  50        8.326561
  51        8.370080
  52        8.482809
  53        8.536553
  54        8.628904
  55        9.215081
  56        9.220207
  57        9.461694
  58        9.636566
  59        9.653516
  60        9.736031
  61       10.131542
  62       10.142891
  63       10.206768
  64       10.372307
  65       10.379190
  66       10.460727
  67       10.499838
  68       10.578037
  69       10.982673
  70       11.115142
  71       11.161873
  72       11.482135
  73       11.513160
  74       11.536290
  75       11.628708
  76       11.777783
  77       11.779111
  78       11.975663
  79       12.429213
  80       12.463993
  81       12.512217
  82       12.714036
  83       12.722586
  84       13.241347
  85       13.287277
  86       13.311471
  87       13.462645
  88       13.472635
  89       13.600515
  90       13.827499
  91       14.093572
  92       14.133503
  93       14.188392
  94       14.391120
  95       14.411576
  96       14.523963
