Disk quotas for user tam (uid 511): none
Processors received = 1
script running on host korczak.msae.wisc.edu
PBS_NODEFILE
korczak.local
 running on    1 nodes
 distr:  one band on    1 nodes,    1 groups
 vasp.5.2.2 15Apr09 complex 
 POSCAR found type information on POSCAR  Al
 POSCAR found :  1 types and    3 ions
 LDA part: xc-table for Ceperly-Alder, standard interpolation
 found WAVECAR, reading the header
 WAVECAR: different cutoff or change in lattice found
 POSCAR, INCAR and KPOINTS ok, starting setup
 FFT: planning ...(           1 )
 reading WAVECAR
 the WAVECAR file was read sucessfully
 WARNING: dimensions on CHGCAR file are different
 entering main loop
       N       E                     dE             d eps       ncg     rms          rms(c)
DAV:   1    -0.105548752500E+02   -0.10555E+02   -0.37651E-01    16   0.557E+00    0.151E+00
DAV:   2    -0.104956021335E+02    0.59273E-01   -0.83016E-02    16   0.161E+00    0.903E-01
DAV:   3    -0.104745972334E+02    0.21005E-01   -0.10993E-01    16   0.167E+00    0.157E-01
DAV:   4    -0.104749244219E+02   -0.32719E-03   -0.68674E-03    16   0.528E-01    0.263E-02
DAV:   5    -0.104748726322E+02    0.51790E-04   -0.42613E-04    16   0.119E-01    0.135E-02
DAV:   6    -0.104748862680E+02   -0.13636E-04   -0.35075E-05    16   0.471E-02    0.209E-03
DAV:   7    -0.104748855345E+02    0.73348E-06   -0.10108E-06     8   0.725E-03
   1 F= -.10474886E+02 E0= -.10447378E+02  d E =-.825229E-01
 Finite differences POTIM= 0.01000 DOF=   1
 bond charge predicted
       N       E                     dE             d eps       ncg     rms          rms(c)
DAV:   1    -0.104749965584E+02   -0.11029E-03   -0.11847E-02    16   0.784E-01    0.462E-02
DAV:   2    -0.104749334141E+02    0.63144E-04   -0.36278E-04    16   0.145E-01    0.165E-02
DAV:   3    -0.104749240779E+02    0.93362E-05   -0.43589E-05    32   0.357E-02    0.390E-03
DAV:   4    -0.104749246261E+02   -0.54816E-06   -0.17678E-06    16   0.117E-02
   2 F= -.10474925E+02 E0= -.10447447E+02  d E =-.824317E-01
 Finite differences progress:
  Degree of freedom:   1/  1
  Displacement:        1/  2
  Total:               1/  2
 bond charge predicted
       N       E                     dE             d eps       ncg     rms          rms(c)
DAV:   1    -0.104752144289E+02   -0.29035E-03   -0.55054E-02    16   0.158E+00    0.924E-02
DAV:   2    -0.104749594653E+02    0.25496E-03   -0.14363E-03    16   0.288E-01    0.329E-02
DAV:   3    -0.104749219483E+02    0.37517E-04   -0.17425E-04    32   0.716E-02    0.782E-03
DAV:   4    -0.104749241231E+02   -0.21748E-05   -0.71340E-06    32   0.235E-02    0.411E-03
DAV:   5    -0.104749248097E+02   -0.68658E-06   -0.53701E-07    32   0.631E-03
   3 F= -.10474925E+02 E0= -.10447448E+02  d E =-.824316E-01
 Finite differences progress:
  Degree of freedom:   1/  1
  Displacement:        2/  2
  Total:               2/  2
 Finite differences POTIM=  1.000000000000000E-002
