    3    3  191    1
  0.1429167E+02  0.3500000E-09  0.3500000E-09  0.3500000E-09  0.5000000E-15
  1.000000000000000E-004
  CAR 
 unknown system                          
    9    2    8
 
  0.2500000E+00  0.2500000E+00  0.2500000E+00  0.5000000E+00
   1       -0.625225
   2        5.070622
   3        5.220718
   4        5.282831
   5       10.502603
   6       10.777674
   7       11.421435
   8       15.880536
 
 -0.2500000E+00  0.2500000E+00  0.2500000E+00  0.5000000E+00
   1       -0.627688
   2        5.101112
   3        5.236034
   4        5.322097
   5       10.072913
   6       10.914950
   7       11.356808
   8       15.863234
