<?xml version="1.0" encoding="ISO-8859-1"?>
<modeling>
 <generator>
  <i name="program" type="string">vasp </i>
  <i name="version" type="string">5.2.2  </i>
  <i name="subversion" type="string">15Apr09 complex  parallel </i>
  <i name="platform" type="string">LinuxIFC </i>
  <i name="date" type="string">2013 08 21 </i>
  <i name="time" type="string">16:12:18 </i>
 </generator>
 <incar>
  <i type="string" name="PREC">accurate</i>
  <i type="int" name="IBRION">    -1</i>
  <i type="int" name="NSW">     0</i>
  <i type="int" name="ISIF">     2</i>
  <i name="ENCUT">    360.65550000</i>
  <i type="int" name="ISMEAR">     1</i>
  <i name="SIGMA">      0.20000000</i>
  <i type="logical" name="LWAVE"> T  </i>
  <i type="logical" name="LCHARG"> F  </i>
  <i type="logical" name="LPEAD"> F  </i>
  <i type="logical" name="LCALCPOL"> F  </i>
  <i type="logical" name="LCALCEPS"> F  </i>
  <v name="EFIELD_PEAD">      0.00000000      0.00000000      0.00000000</v>
  <i type="logical" name="LEFG"> F  </i>
 </incar>
 <kpoints>
  <generation param="Monkhorst-Pack">
   <v type="int" name="divisions">       2        2        2 </v>
   <v name="usershift">      0.00000000       0.00000000       0.00000000 </v>
   <v name="genvec1">      0.50000000       0.00000000       0.00000000 </v>
   <v name="genvec2">      0.00000000       0.50000000       0.00000000 </v>
   <v name="genvec3">      0.00000000       0.00000000       0.50000000 </v>
   <v name="shift">      0.50000000       0.50000000       0.50000000 </v>
  </generation>
  <varray name="kpointlist" >
   <v>       0.25000000       0.25000000       0.25000000 </v>
  </varray>
  <varray name="weights" >
   <v>       1.00000000 </v>
  </varray>
 </kpoints>
 <parameters>
  <separator name="general" >
   <i type="string" name="SYSTEM">unknown system</i>
   <i type="logical" name="LCOMPAT"> F  </i>
  </separator>
  <separator name="electronic" >
   <i type="string" name="PREC">accura</i>
   <i name="ENMAX">    360.65550000</i>
   <i name="ENAUG">    291.05200000</i>
   <i name="EDIFF">      0.00010000</i>
   <i type="int" name="IALGO">    38</i>
   <i type="int" name="IWAVPR">    10</i>
   <i type="int" name="NBANDS">     8</i>
   <i name="NELECT">      9.00000000</i>
   <separator name="electronic smearing" >
    <i type="int" name="ISMEAR">     1</i>
    <i name="SIGMA">      0.20000000</i>
   </separator>
   <separator name="electronic projectors" >
    <i type="logical" name="LREAL"> F  </i>
    <v name="ROPT">      0.00000000</v>
    <i type="int" name="LMAXPAW">  -100</i>
    <i type="int" name="LMAXMIX">     2</i>
   </separator>
   <separator name="electronic startup" >
    <i type="int" name="ISTART">     0</i>
    <i type="int" name="ICHARG">     2</i>
    <i type="int" name="INIWAV">     1</i>
   </separator>
   <separator name="electronic spin" >
    <i type="int" name="ISPIN">     1</i>
    <i type="logical" name="LNONCOLLINEAR"> F  </i>
    <v name="MAGMOM">      1.00000000      1.00000000      1.00000000</v>
    <i name="NUPDOWN">     -1.00000000</i>
    <i type="logical" name="LSORBIT"> F  </i>
    <v name="SAXIS">      0.00000000      0.00000000      1.00000000</v>
    <i type="logical" name="LSPIRAL"> F  </i>
    <v name="QSPIRAL">      0.00000000      0.00000000      0.00000000</v>
    <i type="logical" name="LZEROZ"> F  </i>
   </separator>
   <separator name="electronic exchange-correlation" >
    <i type="logical" name="LASPH"> F  </i>
    <i type="logical" name="LMETAGGA"> F  </i>
   </separator>
   <separator name="electronic convergence" >
    <i type="int" name="NELM">    60</i>
    <i type="int" name="NELMDL">    -5</i>
    <i type="int" name="NELMIN">     2</i>
    <i name="ENINI">    360.65550000</i>
    <separator name="electronic convergence detail" >
     <i type="logical" name="LDIAG"> T  </i>
     <i name="WEIMIN">      0.00000000</i>
     <i name="EBREAK">      0.00000313</i>
     <i name="DEPER">      0.30000000</i>
     <i type="int" name="NRMM">     4</i>
     <i name="TIME">      0.40000000</i>
    </separator>
   </separator>
   <separator name="electronic mixer" >
    <i name="AMIX">      0.40000000</i>
    <i name="BMIX">      1.00000000</i>
    <i name="AMIN">      0.10000000</i>
    <i name="AMIX_MAG">      1.60000000</i>
    <i name="BMIX_MAG">      1.00000000</i>
    <separator name="electronic mixer details" >
     <i type="int" name="IMIX">     4</i>
     <i type="int" name="MAXMIX">   -45</i>
     <i name="WC">    100.00000000</i>
     <i type="int" name="INIMIX">     1</i>
     <i type="int" name="MIXPRE">     1</i>
     <i type="int" name="MREMOVE">     5</i>
    </separator>
   </separator>
   <separator name="electronic dipolcorrection" >
    <i type="logical" name="LDIPOL"> F  </i>
    <i type="logical" name="LMONO"> F  </i>
    <i type="int" name="IDIPOL">     0</i>
    <i name="EPSILON">      1.00000000</i>
    <v name="DIPOL">   -100.00000000   -100.00000000   -100.00000000</v>
    <i name="EFIELD">      0.00000000</i>
   </separator>
  </separator>
  <separator name="grids" >
   <i type="int" name="NGX">    24</i>
   <i type="int" name="NGY">    24</i>
   <i type="int" name="NGZ">    24</i>
   <i type="int" name="NGXF">    48</i>
   <i type="int" name="NGYF">    48</i>
   <i type="int" name="NGZF">    48</i>
   <i type="logical" name="ADDGRID"> F  </i>
  </separator>
  <separator name="ionic" >
   <i type="int" name="NSW">     0</i>
   <i type="int" name="IBRION">    -1</i>
   <i type="int" name="ISIF">     2</i>
   <i name="PSTRESS">      0.00000000</i>
   <i name="EDIFFG">      0.00100000</i>
   <i type="int" name="NFREE">     0</i>
   <i name="POTIM">      0.50000000</i>
   <i name="SMASS">     -3.00000000</i>
  </separator>
  <separator name="ionic md" >
   <i name="TEBEG">      0.00010000</i>
   <i name="TEEND">      0.00010000</i>
   <i type="int" name="NBLOCK">     1</i>
   <i type="int" name="KBLOCK">     1</i>
   <i type="int" name="NPACO">   256</i>
   <i name="APACO">     16.00000000</i>
  </separator>
  <separator name="symmetry" >
   <i type="int" name="ISYM">     2</i>
   <i name="SYMPREC">      0.00001000</i>
  </separator>
  <separator name="dos" >
   <i type="logical" name="LORBIT"> F  </i>
   <v name="RWIGS">     -1.00000000</v>
   <i type="int" name="NEDOS">   301</i>
   <i name="EMIN">     10.00000000</i>
   <i name="EMAX">    -10.00000000</i>
   <i name="EFERMI">      0.00000000</i>
  </separator>
  <separator name="writing" >
   <i type="int" name="NWRITE">     2</i>
   <i type="logical" name="LWAVE"> T  </i>
   <i type="logical" name="LCHARG"> F  </i>
   <i type="logical" name="LPARD"> F  </i>
   <i type="logical" name="LVTOT"> F  </i>
   <i type="logical" name="LELF"> F  </i>
   <i type="logical" name="LOPTICS"> F  </i>
   <v name="STM">      0.00000000      0.00000000      0.00000000      0.00000000      0.00000000</v>
  </separator>
  <separator name="performance" >
   <i type="int" name="NPAR">     1</i>
   <i type="int" name="NSIM">     4</i>
   <i type="int" name="NBLK">    32</i>
   <i type="logical" name="LPLANE"> T  </i>
   <i type="logical" name="LSCALAPACK"> F  </i>
   <i type="logical" name="LSCAAWARE"> F  </i>
   <i type="logical" name="LSCALU"> F  </i>
   <i type="logical" name="LASYNC"> F  </i>
  </separator>
  <separator name="miscellaneous" >
   <i type="int" name="IDIOT">     3</i>
   <i type="logical" name="LMUSIC"> F  </i>
   <v name="POMASS">     26.98200000</v>
   <i type="logical" name="LCORR"> T  </i>
  </separator>
  <i type="logical" name="LREAL_COMPAT"> F  </i>
  <i type="logical" name="GGA_COMPAT"> T  </i>
  <i type="logical" name="LBERRY"> F  </i>
  <i type="int" name="ICORELEVEL">     0</i>
  <i type="logical" name="LDAU"> F  </i>
  <i type="int" name="I_CONSTRAINED_M">     0</i>
  <separator name="electronic exchange-correlation" >
   <i type="string" name="GGA">--</i>
   <i type="int" name="VOSKOWN">     0</i>
   <i type="logical" name="LHFCALC"> F  </i>
   <i type="logical" name="LHFONE"> F  </i>
   <i type="logical" name="LRHFCALC"> F  </i>
   <i type="logical" name="LTHOMAS"> F  </i>
   <i type="logical" name="LMODELHF"> F  </i>
   <i name="ENCUTFOCK">      0.00000000</i>
   <i name="ENCUT4O">     -1.00000000</i>
   <i type="int" name="EXXOEP">     0</i>
   <i type="int" name="FOURORBIT">     0</i>
   <i name="AEXX">      0.00000000</i>
   <i name="HFALPHA">      0.00000000</i>
   <i name="ALDAX">      1.00000000</i>
   <i name="AGGAX">      1.00000000</i>
   <i name="ALDAC">      1.00000000</i>
   <i name="AGGAC">      1.00000000</i>
   <i type="int" name="NKREDX">     1</i>
   <i type="int" name="NKREDY">     1</i>
   <i type="int" name="NKREDZ">     1</i>
   <i type="logical" name="SHIFTRED"> F  </i>
   <i type="logical" name="ODDONLY"> F  </i>
   <i type="logical" name="EVENONLY"> F  </i>
   <i type="int" name="LMAXFOCK">     0</i>
   <i type="int" name="NMAXFOCKAE">     0</i>
   <i name="HFSCREEN">      0.00000000</i>
   <i name="HFSCREENC">      0.00000000</i>
  </separator>
  <separator name="model GW" >
   <i type="int" name="MODEL_GW">     0</i>
   <i name="MODEL_EPS0">      8.57500000</i>
   <i name="MODEL_ALPHA">      1.00000000</i>
  </separator>
  <separator name="linear response parameters" >
   <i type="logical" name="LEPSILON"> F  </i>
   <i type="logical" name="LRPA"> F  </i>
   <i type="logical" name="LNABLA"> F  </i>
   <i type="logical" name="LVEL"> F  </i>
   <i type="int" name="KINTER">     0</i>
   <i name="CSHIFT">      0.10000000</i>
   <i name="OMEGAMAX">     -1.00000000</i>
  </separator>
  <separator name="orbital magnetization" >
   <i type="logical" name="ORBITALMAG"> F  </i>
   <i type="logical" name="LMAGBLOCH"> F  </i>
   <i type="logical" name="LCHIMAG"> F  </i>
   <i type="logical" name="LGAUGE"> T  </i>
   <i type="int" name="MAGATOM">     0</i>
   <v name="MAGDIPOL">      0.00000000      0.00000000      0.00000000</v>
   <v name="AVECCONST">      0.00000000      0.00000000      0.00000000</v>
  </separator>
  <separator name="response functions" >
   <i type="logical" name="LRPA"> T  </i>
   <i type="logical" name="LTCTE"> F  </i>
   <i type="logical" name="LTETE"> F  </i>
   <i type="logical" name="L2ORDER"> F  </i>
   <i type="logical" name="LGWLF"> F  </i>
   <i name="ENCUTGW">    240.43700000</i>
   <i name="ENCUTGWSOFT">     -2.00000000</i>
   <i name="ENCUTLF">     -1.00000000</i>
   <i type="int" name="LMAXMP2">    -1</i>
   <i name="SCISSOR">      0.00000000</i>
   <i type="int" name="NOMEGA">     0</i>
   <i type="int" name="NOMEGAR">     0</i>
   <i type="int" name="NBANDSGW">    -1</i>
   <i type="int" name="NBANDSLF">    -1</i>
   <i type="int" name="NELM">     1</i>
   <i type="int" name="DIM">     3</i>
   <i type="int" name="ANTIRES">     0</i>
   <i type="logical" name="LUSEW"> F  </i>
   <i name="OMEGAMAX">    -30.00000000</i>
   <i name="OMEGATL">   -200.00000000</i>
   <i type="int" name="OMEGAGRID">     0</i>
   <i name="CSHIFT">     -0.10000000</i>
   <i type="logical" name="SELFENERGY"> F  </i>
   <i type="logical" name="LSPECTRAL"> F  </i>
   <i type="logical" name="ODDONLYGW"> F  </i>
   <i type="logical" name="EVENONLYGW"> F  </i>
   <i type="int" name="NKREDLFX">     1</i>
   <i type="int" name="NKREDLFY">     1</i>
   <i type="int" name="NKREDLFZ">     1</i>
   <i type="int" name="MAXMEM">  1024</i>
   <i type="int" name="TELESCOPE">     0</i>
  </separator>
 </parameters>
 <atominfo>
  <atoms>       3 </atoms>
  <types>       1 </types>
  <array name="atoms" >
   <dimension dim="1">ion</dimension>
   <field type="string">element</field>
   <field type="int">atomtype</field>
   <set>
    <rc><c>Al</c><c>   1</c></rc>
    <rc><c>Al</c><c>   1</c></rc>
    <rc><c>Al</c><c>   1</c></rc>
   </set>
  </array>
  <array name="atomtypes" >
   <dimension dim="1">type</dimension>
   <field type="int">atomspertype</field>
   <field type="string">element</field>
   <field>mass</field>
   <field>valence</field>
   <field type="string">pseudopotential</field>
   <set>
    <rc><c>   3</c><c>Al</c><c>     26.98200000</c><c>      3.00000000</c><c> PAW_GGA Al 05Jan2001                   </c></rc>
   </set>
  </array>
 </atominfo>
 <structure name="initialpos" >
  <crystal>
   <varray name="basis" >
    <v>       3.50000000       0.00000000       0.00000000 </v>
    <v>       0.00000000       3.50000000       0.00000000 </v>
    <v>       0.00000000       0.00000000       3.50000000 </v>
   </varray>
   <i name="volume">     42.87500000 </i>
   <varray name="rec_basis" >
    <v>       0.28571429       0.00000000       0.00000000 </v>
    <v>       0.00000000       0.28571429       0.00000000 </v>
    <v>       0.00000000       0.00000000       0.28571429 </v>
   </varray>
  </crystal>
  <varray name="positions" >
   <v>       0.00000000       0.00000000       0.00000000 </v>
   <v>       0.00000000       0.50000000       0.50000000 </v>
   <v>       0.50000000       0.00000000       0.50000000 </v>
  </varray>
 </structure>
 <calculation>
  <scstep>
   <time name="dav">    0.18    0.06</time>
   <time name="total">    0.55    0.33</time>
   <energy>
    <i name="alphaZ">     -0.53451638 </i>
    <i name="ewald">   -222.29814539 </i>
    <i name="hartreedc">     -2.67604008 </i>
    <i name="XCdc">    -78.29240780 </i>
    <i name="pawpsdc">    106.97730018 </i>
    <i name="pawaedc">    -10.81747568 </i>
    <i name="eentropy">     -0.05641896 </i>
    <i name="bandstr">     50.77783406 </i>
    <i name="atom">    161.07115403 </i>
    <i name="e_fr_energy">      4.15128399 </i>
    <i name="e_wo_entrp">      4.20770294 </i>
    <i name="e_0_energy">      4.17009030 </i>
   </energy>
  </scstep>
  <scstep>
   <time name="dav">    0.29    0.07</time>
   <time name="total">    0.30    0.08</time>
   <energy>
    <i name="e_fr_energy">     -8.83684813 </i>
    <i name="e_wo_entrp">     -8.78995393 </i>
    <i name="e_0_energy">     -8.82121673 </i>
   </energy>
  </scstep>
  <scstep>
   <time name="dav">    0.21    0.05</time>
   <time name="total">    0.23    0.06</time>
   <energy>
    <i name="e_fr_energy">     -8.92511191 </i>
    <i name="e_wo_entrp">     -8.84259762 </i>
    <i name="e_0_energy">     -8.89760715 </i>
   </energy>
  </scstep>
  <scstep>
   <time name="dav">    0.37    0.09</time>
   <time name="total">    0.37    0.09</time>
   <energy>
    <i name="e_fr_energy">     -8.92656564 </i>
    <i name="e_wo_entrp">     -8.84404278 </i>
    <i name="e_0_energy">     -8.89905802 </i>
   </energy>
  </scstep>
  <scstep>
   <time name="dav">    0.29    0.07</time>
   <time name="total">    0.44    0.12</time>
   <energy>
    <i name="e_fr_energy">     -8.92656575 </i>
    <i name="e_wo_entrp">     -8.84404289 </i>
    <i name="e_0_energy">     -8.89905813 </i>
   </energy>
  </scstep>
  <scstep>
   <time name="dav">    0.24    0.07</time>
   <time name="total">    0.65    0.38</time>
   <energy>
    <i name="e_fr_energy">     -8.75558166 </i>
    <i name="e_wo_entrp">     -8.67305880 </i>
    <i name="e_0_energy">     -8.72807404 </i>
   </energy>
  </scstep>
  <scstep>
   <time name="dav">    0.23    0.07</time>
   <time name="total">    0.64    0.38</time>
   <energy>
    <i name="e_fr_energy">     -8.70560024 </i>
    <i name="e_wo_entrp">     -8.62307738 </i>
    <i name="e_0_energy">     -8.67809262 </i>
   </energy>
  </scstep>
  <scstep>
   <time name="dav">    0.23    0.07</time>
   <time name="total">    0.67    0.38</time>
   <energy>
    <i name="e_fr_energy">     -8.70559338 </i>
    <i name="e_wo_entrp">     -8.62307052 </i>
    <i name="e_0_energy">     -8.67808576 </i>
   </energy>
  </scstep>
  <scstep>
   <time name="dav">    0.39    0.11</time>
   <time name="total">    0.72    0.37</time>
   <energy>
    <i name="alphaZ">     -0.53451638 </i>
    <i name="ewald">   -222.29814539 </i>
    <i name="hartreedc">     -4.23492648 </i>
    <i name="XCdc">    -77.71349132 </i>
    <i name="pawpsdc">    113.61911985 </i>
    <i name="pawaedc">    -17.80281451 </i>
    <i name="eentropy">     -0.08252286 </i>
    <i name="bandstr">     39.27055223 </i>
    <i name="atom">    161.07115403 </i>
    <i name="e_fr_energy">     -8.70559083 </i>
    <i name="e_wo_entrp">     -8.62306797 </i>
    <i name="e_0_energy">     -8.67808321 </i>
   </energy>
  </scstep>
  <structure>
   <crystal>
    <varray name="basis" >
     <v>       3.50000000       0.00000000       0.00000000 </v>
     <v>       0.00000000       3.50000000       0.00000000 </v>
     <v>       0.00000000       0.00000000       3.50000000 </v>
    </varray>
    <i name="volume">     42.87500000 </i>
    <varray name="rec_basis" >
     <v>       0.28571429       0.00000000       0.00000000 </v>
     <v>       0.00000000       0.28571429       0.00000000 </v>
     <v>       0.00000000       0.00000000       0.28571429 </v>
    </varray>
   </crystal>
   <varray name="positions" >
    <v>       0.00000000       0.00000000       0.00000000 </v>
    <v>       0.00000000       0.50000000       0.50000000 </v>
    <v>       0.50000000       0.00000000       0.50000000 </v>
   </varray>
  </structure>
  <varray name="forces" >
   <v>       0.00000000       0.00000000       0.00000000 </v>
   <v>       0.00000000       0.00000000       0.00000000 </v>
   <v>       0.00000000       0.00000000       0.00000000 </v>
  </varray>
  <varray name="stress" >
   <v>     445.96589942       0.00000000       0.00000000 </v>
   <v>       0.00000000     445.96589942       0.00000000 </v>
   <v>       0.00000000       0.00000000     445.96589942 </v>
  </varray>
  <energy>
   <i name="e_fr_energy">     -8.70559083 </i>
   <i name="e_wo_entrp">     -8.67808321 </i>
   <i name="e_0_energy">     -0.08252286 </i>
  </energy>
  <time name="totalsc">    5.78    3.08</time>
  <eigenvalues>
   <array>
    <dimension dim="1">band</dimension>
    <dimension dim="2">kpoint</dimension>
    <dimension dim="3">spin</dimension>
    <field>eigene</field>
    <field>occ</field>
    <set>
     <set comment="spin 1">
      <set comment="kpoint 1">
       <r>   -0.8424    1.0000 </r>
       <r>    4.9146    1.0000 </r>
       <r>    5.1510    1.0000 </r>
       <r>    5.1510    1.0000 </r>
       <r>   10.5221    0.2500 </r>
       <r>   10.5221    0.2500 </r>
       <r>   11.4213    0.0000 </r>
       <r>   16.2854    0.0000 </r>
      </set>
     </set>
    </set>
   </array>
  </eigenvalues>
  <separator name="orbital magnetization" >
   <v name="MAGDIPOLOUT">      0.00000000      0.00000000      0.00000000</v>
  </separator>
  <dos>
   <i name="efermi">     10.45980125 </i>
   <total>
    <array>
     <dimension dim="1">gridpoints</dimension>
     <dimension dim="2">spin</dimension>
     <field>energy</field>
     <field>total</field>
     <field>integrated</field>
     <set>
      <set comment="spin 1">
       <r>  -2.8424   0.0000   0.0000 </r>
       <r>  -2.7720   0.0000   0.0000 </r>
       <r>  -2.7015   0.0000   0.0000 </r>
       <r>  -2.6311   0.0000   0.0000 </r>
       <r>  -2.5607   0.0000   0.0000 </r>
       <r>  -2.4903   0.0000   0.0000 </r>
       <r>  -2.4198   0.0000   0.0000 </r>
       <r>  -2.3494   0.0000   0.0000 </r>
       <r>  -2.2790   0.0000   0.0000 </r>
       <r>  -2.2085   0.0000   0.0000 </r>
       <r>  -2.1381   0.0000   0.0000 </r>
       <r>  -2.0677   0.0000   0.0000 </r>
       <r>  -1.9973   0.0000   0.0000 </r>
       <r>  -1.9268   0.0000   0.0000 </r>
       <r>  -1.8564   0.0000   0.0000 </r>
       <r>  -1.7860   0.0000   0.0000 </r>
       <r>  -1.7156   0.0000   0.0000 </r>
       <r>  -1.6451   0.0000   0.0000 </r>
       <r>  -1.5747   0.0000   0.0000 </r>
       <r>  -1.5043  -0.0004   0.0000 </r>
       <r>  -1.4339  -0.0029  -0.0002 </r>
       <r>  -1.3634  -0.0169  -0.0014 </r>
       <r>  -1.2930  -0.0719  -0.0065 </r>
       <r>  -1.2226  -0.2163  -0.0217 </r>
       <r>  -1.1522  -0.4137  -0.0509 </r>
       <r>  -1.0817  -0.2812  -0.0707 </r>
       <r>  -1.0113   0.9863  -0.0012 </r>
       <r>  -0.9409   3.8238   0.2681 </r>
       <r>  -0.8705   7.0555   0.7650 </r>
       <r>  -0.8000   8.3018   1.3496 </r>
       <r>  -0.7296   6.4842   1.8063 </r>
       <r>  -0.6592   3.1502   2.0281 </r>
       <r>  -0.5888   0.5996   2.0704 </r>
       <r>  -0.5183  -0.3707   2.0443 </r>
       <r>  -0.4479  -0.3805   2.0175 </r>
       <r>  -0.3775  -0.1785   2.0049 </r>
       <r>  -0.3071  -0.0551   2.0010 </r>
       <r>  -0.2366  -0.0122   2.0002 </r>
       <r>  -0.1662  -0.0020   2.0000 </r>
       <r>  -0.0958  -0.0002   2.0000 </r>
       <r>  -0.0253   0.0000   2.0000 </r>
       <r>   0.0451   0.0000   2.0000 </r>
       <r>   0.1155   0.0000   2.0000 </r>
       <r>   0.1859   0.0000   2.0000 </r>
       <r>   0.2564   0.0000   2.0000 </r>
       <r>   0.3268   0.0000   2.0000 </r>
       <r>   0.3972   0.0000   2.0000 </r>
       <r>   0.4676   0.0000   2.0000 </r>
       <r>   0.5381   0.0000   2.0000 </r>
       <r>   0.6085   0.0000   2.0000 </r>
       <r>   0.6789   0.0000   2.0000 </r>
       <r>   0.7493   0.0000   2.0000 </r>
       <r>   0.8198   0.0000   2.0000 </r>
       <r>   0.8902   0.0000   2.0000 </r>
       <r>   0.9606   0.0000   2.0000 </r>
       <r>   1.0310   0.0000   2.0000 </r>
       <r>   1.1015   0.0000   2.0000 </r>
       <r>   1.1719   0.0000   2.0000 </r>
       <r>   1.2423   0.0000   2.0000 </r>
       <r>   1.3127   0.0000   2.0000 </r>
       <r>   1.3832   0.0000   2.0000 </r>
       <r>   1.4536   0.0000   2.0000 </r>
       <r>   1.5240   0.0000   2.0000 </r>
       <r>   1.5944   0.0000   2.0000 </r>
       <r>   1.6649   0.0000   2.0000 </r>
       <r>   1.7353   0.0000   2.0000 </r>
       <r>   1.8057   0.0000   2.0000 </r>
       <r>   1.8762   0.0000   2.0000 </r>
       <r>   1.9466   0.0000   2.0000 </r>
       <r>   2.0170   0.0000   2.0000 </r>
       <r>   2.0874   0.0000   2.0000 </r>
       <r>   2.1579   0.0000   2.0000 </r>
       <r>   2.2283   0.0000   2.0000 </r>
       <r>   2.2987   0.0000   2.0000 </r>
       <r>   2.3691   0.0000   2.0000 </r>
       <r>   2.4396   0.0000   2.0000 </r>
       <r>   2.5100   0.0000   2.0000 </r>
       <r>   2.5804   0.0000   2.0000 </r>
       <r>   2.6508   0.0000   2.0000 </r>
       <r>   2.7213   0.0000   2.0000 </r>
       <r>   2.7917   0.0000   2.0000 </r>
       <r>   2.8621   0.0000   2.0000 </r>
       <r>   2.9325   0.0000   2.0000 </r>
       <r>   3.0030   0.0000   2.0000 </r>
       <r>   3.0734   0.0000   2.0000 </r>
       <r>   3.1438   0.0000   2.0000 </r>
       <r>   3.2142   0.0000   2.0000 </r>
       <r>   3.2847   0.0000   2.0000 </r>
       <r>   3.3551   0.0000   2.0000 </r>
       <r>   3.4255   0.0000   2.0000 </r>
       <r>   3.4959   0.0000   2.0000 </r>
       <r>   3.5664   0.0000   2.0000 </r>
       <r>   3.6368   0.0000   2.0000 </r>
       <r>   3.7072   0.0000   2.0000 </r>
       <r>   3.7776   0.0000   2.0000 </r>
       <r>   3.8481   0.0000   2.0000 </r>
       <r>   3.9185   0.0000   2.0000 </r>
       <r>   3.9889   0.0000   2.0000 </r>
       <r>   4.0594   0.0000   2.0000 </r>
       <r>   4.1298   0.0000   2.0000 </r>
       <r>   4.2002  -0.0001   2.0000 </r>
       <r>   4.2706  -0.0007   1.9999 </r>
       <r>   4.3411  -0.0047   1.9996 </r>
       <r>   4.4115  -0.0253   1.9978 </r>
       <r>   4.4819  -0.0993   1.9908 </r>
       <r>   4.5523  -0.2732   1.9716 </r>
       <r>   4.6228  -0.4668   1.9387 </r>
       <r>   4.6932  -0.2261   1.9228 </r>
       <r>   4.7636   1.1798   2.0059 </r>
       <r>   4.8340   3.9036   2.2808 </r>
       <r>   4.9045   6.9858   2.7728 </r>
       <r>   4.9749   9.6731   3.4540 </r>
       <r>   5.0453  12.6358   4.3439 </r>
       <r>   5.1157  15.9123   5.4645 </r>
       <r>   5.1862  16.8500   6.6512 </r>
       <r>   5.2566  13.1355   7.5763 </r>
       <r>   5.3270   6.6428   8.0441 </r>
       <r>   5.3974   1.4347   8.1452 </r>
       <r>   5.4679  -0.7006   8.0958 </r>
       <r>   5.5383  -0.8047   8.0392 </r>
       <r>   5.6087  -0.3953   8.0113 </r>
       <r>   5.6791  -0.1263   8.0024 </r>
       <r>   5.7496  -0.0288   8.0004 </r>
       <r>   5.8200  -0.0048   8.0000 </r>
       <r>   5.8904  -0.0006   8.0000 </r>
       <r>   5.9608  -0.0001   8.0000 </r>
       <r>   6.0313   0.0000   8.0000 </r>
       <r>   6.1017   0.0000   8.0000 </r>
       <r>   6.1721   0.0000   8.0000 </r>
       <r>   6.2426   0.0000   8.0000 </r>
       <r>   6.3130   0.0000   8.0000 </r>
       <r>   6.3834   0.0000   8.0000 </r>
       <r>   6.4538   0.0000   8.0000 </r>
       <r>   6.5243   0.0000   8.0000 </r>
       <r>   6.5947   0.0000   8.0000 </r>
       <r>   6.6651   0.0000   8.0000 </r>
       <r>   6.7355   0.0000   8.0000 </r>
       <r>   6.8060   0.0000   8.0000 </r>
       <r>   6.8764   0.0000   8.0000 </r>
       <r>   6.9468   0.0000   8.0000 </r>
       <r>   7.0172   0.0000   8.0000 </r>
       <r>   7.0877   0.0000   8.0000 </r>
       <r>   7.1581   0.0000   8.0000 </r>
       <r>   7.2285   0.0000   8.0000 </r>
       <r>   7.2989   0.0000   8.0000 </r>
       <r>   7.3694   0.0000   8.0000 </r>
       <r>   7.4398   0.0000   8.0000 </r>
       <r>   7.5102   0.0000   8.0000 </r>
       <r>   7.5806   0.0000   8.0000 </r>
       <r>   7.6511   0.0000   8.0000 </r>
       <r>   7.7215   0.0000   8.0000 </r>
       <r>   7.7919   0.0000   8.0000 </r>
       <r>   7.8623   0.0000   8.0000 </r>
       <r>   7.9328   0.0000   8.0000 </r>
       <r>   8.0032   0.0000   8.0000 </r>
       <r>   8.0736   0.0000   8.0000 </r>
       <r>   8.1441   0.0000   8.0000 </r>
       <r>   8.2145   0.0000   8.0000 </r>
       <r>   8.2849   0.0000   8.0000 </r>
       <r>   8.3553   0.0000   8.0000 </r>
       <r>   8.4258   0.0000   8.0000 </r>
       <r>   8.4962   0.0000   8.0000 </r>
       <r>   8.5666   0.0000   8.0000 </r>
       <r>   8.6370   0.0000   8.0000 </r>
       <r>   8.7075   0.0000   8.0000 </r>
       <r>   8.7779   0.0000   8.0000 </r>
       <r>   8.8483   0.0000   8.0000 </r>
       <r>   8.9187   0.0000   8.0000 </r>
       <r>   8.9892   0.0000   8.0000 </r>
       <r>   9.0596   0.0000   8.0000 </r>
       <r>   9.1300   0.0000   8.0000 </r>
       <r>   9.2004   0.0000   8.0000 </r>
       <r>   9.2709   0.0000   8.0000 </r>
       <r>   9.3413   0.0000   8.0000 </r>
       <r>   9.4117   0.0000   8.0000 </r>
       <r>   9.4821   0.0000   8.0000 </r>
       <r>   9.5526   0.0000   8.0000 </r>
       <r>   9.6230   0.0000   8.0000 </r>
       <r>   9.6934   0.0000   8.0000 </r>
       <r>   9.7638   0.0000   8.0000 </r>
       <r>   9.8343  -0.0003   8.0000 </r>
       <r>   9.9047  -0.0029   7.9998 </r>
       <r>   9.9751  -0.0184   7.9985 </r>
       <r>  10.0455  -0.0876   7.9923 </r>
       <r>  10.1160  -0.3015   7.9711 </r>
       <r>  10.1864  -0.6964   7.9220 </r>
       <r>  10.2568  -0.8283   7.8637 </r>
       <r>  10.3273   0.6717   7.9110 </r>
       <r>  10.3977   5.2560   8.2812 </r>
       <r>  10.4681  11.9370   9.1218 </r>
       <r>  10.5385  16.4009  10.2769 </r>
       <r>  10.6090  14.9176  11.3275 </r>
       <r>  10.6794   8.7813  11.9459 </r>
       <r>  10.7498   2.7088  12.1367 </r>
       <r>  10.8202  -0.3490  12.1121 </r>
       <r>  10.8907  -0.8783  12.0502 </r>
       <r>  10.9611  -0.5594  12.0108 </r>
       <r>  11.0315  -0.3674  11.9850 </r>
       <r>  11.1019  -0.4363  11.9542 </r>
       <r>  11.1724  -0.3542  11.9293 </r>
       <r>  11.2428   0.7170  11.9798 </r>
       <r>  11.3132   3.3667  12.2169 </r>
       <r>  11.3836   6.6791  12.6873 </r>
       <r>  11.4541   8.3169  13.2730 </r>
       <r>  11.5245   6.8773  13.7573 </r>
       <r>  11.5949   3.6004  14.0109 </r>
       <r>  11.6653   0.8521  14.0709 </r>
       <r>  11.7358  -0.3153  14.0487 </r>
       <r>  11.8062  -0.4039  14.0203 </r>
       <r>  11.8766  -0.2035  14.0059 </r>
       <r>  11.9470  -0.0660  14.0013 </r>
       <r>  12.0175  -0.0152  14.0002 </r>
       <r>  12.0879  -0.0026  14.0000 </r>
       <r>  12.1583  -0.0003  14.0000 </r>
       <r>  12.2288   0.0000  14.0000 </r>
       <r>  12.2992   0.0000  14.0000 </r>
       <r>  12.3696   0.0000  14.0000 </r>
       <r>  12.4400   0.0000  14.0000 </r>
       <r>  12.5105   0.0000  14.0000 </r>
       <r>  12.5809   0.0000  14.0000 </r>
       <r>  12.6513   0.0000  14.0000 </r>
       <r>  12.7217   0.0000  14.0000 </r>
       <r>  12.7922   0.0000  14.0000 </r>
       <r>  12.8626   0.0000  14.0000 </r>
       <r>  12.9330   0.0000  14.0000 </r>
       <r>  13.0034   0.0000  14.0000 </r>
       <r>  13.0739   0.0000  14.0000 </r>
       <r>  13.1443   0.0000  14.0000 </r>
       <r>  13.2147   0.0000  14.0000 </r>
       <r>  13.2851   0.0000  14.0000 </r>
       <r>  13.3556   0.0000  14.0000 </r>
       <r>  13.4260   0.0000  14.0000 </r>
       <r>  13.4964   0.0000  14.0000 </r>
       <r>  13.5668   0.0000  14.0000 </r>
       <r>  13.6373   0.0000  14.0000 </r>
       <r>  13.7077   0.0000  14.0000 </r>
       <r>  13.7781   0.0000  14.0000 </r>
       <r>  13.8485   0.0000  14.0000 </r>
       <r>  13.9190   0.0000  14.0000 </r>
       <r>  13.9894   0.0000  14.0000 </r>
       <r>  14.0598   0.0000  14.0000 </r>
       <r>  14.1302   0.0000  14.0000 </r>
       <r>  14.2007   0.0000  14.0000 </r>
       <r>  14.2711   0.0000  14.0000 </r>
       <r>  14.3415   0.0000  14.0000 </r>
       <r>  14.4120   0.0000  14.0000 </r>
       <r>  14.4824   0.0000  14.0000 </r>
       <r>  14.5528   0.0000  14.0000 </r>
       <r>  14.6232   0.0000  14.0000 </r>
       <r>  14.6937   0.0000  14.0000 </r>
       <r>  14.7641   0.0000  14.0000 </r>
       <r>  14.8345   0.0000  14.0000 </r>
       <r>  14.9049   0.0000  14.0000 </r>
       <r>  14.9754   0.0000  14.0000 </r>
       <r>  15.0458   0.0000  14.0000 </r>
       <r>  15.1162   0.0000  14.0000 </r>
       <r>  15.1866   0.0000  14.0000 </r>
       <r>  15.2571   0.0000  14.0000 </r>
       <r>  15.3275   0.0000  14.0000 </r>
       <r>  15.3979   0.0000  14.0000 </r>
       <r>  15.4683   0.0000  14.0000 </r>
       <r>  15.5388   0.0000  14.0000 </r>
       <r>  15.6092  -0.0002  14.0000 </r>
       <r>  15.6796  -0.0020  13.9998 </r>
       <r>  15.7500  -0.0122  13.9990 </r>
       <r>  15.8205  -0.0551  13.9951 </r>
       <r>  15.8909  -0.1785  13.9825 </r>
       <r>  15.9613  -0.3805  13.9557 </r>
       <r>  16.0317  -0.3707  13.9296 </r>
       <r>  16.1022   0.5996  13.9719 </r>
       <r>  16.1726   3.1502  14.1937 </r>
       <r>  16.2430   6.4842  14.6504 </r>
       <r>  16.3134   8.3018  15.2350 </r>
       <r>  16.3839   7.0555  15.7319 </r>
       <r>  16.4543   3.8238  16.0012 </r>
       <r>  16.5247   0.9863  16.0707 </r>
       <r>  16.5952  -0.2812  16.0509 </r>
       <r>  16.6656  -0.4137  16.0217 </r>
       <r>  16.7360  -0.2163  16.0065 </r>
       <r>  16.8064  -0.0719  16.0014 </r>
       <r>  16.8769  -0.0169  16.0002 </r>
       <r>  16.9473  -0.0029  16.0000 </r>
       <r>  17.0177  -0.0004  16.0000 </r>
       <r>  17.0881   0.0000  16.0000 </r>
       <r>  17.1586   0.0000  16.0000 </r>
       <r>  17.2290   0.0000  16.0000 </r>
       <r>  17.2994   0.0000  16.0000 </r>
       <r>  17.3698   0.0000  16.0000 </r>
       <r>  17.4403   0.0000  16.0000 </r>
       <r>  17.5107   0.0000  16.0000 </r>
       <r>  17.5811   0.0000  16.0000 </r>
       <r>  17.6515   0.0000  16.0000 </r>
       <r>  17.7220   0.0000  16.0000 </r>
       <r>  17.7924   0.0000  16.0000 </r>
       <r>  17.8628   0.0000  16.0000 </r>
       <r>  17.9332   0.0000  16.0000 </r>
       <r>  18.0037   0.0000  16.0000 </r>
       <r>  18.0741   0.0000  16.0000 </r>
       <r>  18.1445   0.0000  16.0000 </r>
       <r>  18.2149   0.0000  16.0000 </r>
       <r>  18.2854   0.0000  16.0000 </r>
      </set>
     </set>
    </array>
   </total>
  </dos>
 </calculation>
 <structure name="finalpos" >
  <crystal>
   <varray name="basis" >
    <v>       3.50000000       0.00000000       0.00000000 </v>
    <v>       0.00000000       3.50000000       0.00000000 </v>
    <v>       0.00000000       0.00000000       3.50000000 </v>
   </varray>
   <i name="volume">     42.87500000 </i>
   <varray name="rec_basis" >
    <v>       0.28571429       0.00000000       0.00000000 </v>
    <v>       0.00000000       0.28571429       0.00000000 </v>
    <v>       0.00000000       0.00000000       0.28571429 </v>
   </varray>
  </crystal>
  <varray name="positions" >
   <v>       0.00000000       0.00000000       0.00000000 </v>
   <v>       0.00000000       0.50000000       0.50000000 </v>
   <v>       0.50000000       0.00000000       0.50000000 </v>
  </varray>
 </structure>
</modeling>
