Processors received = 12
script running on host compute-1-32.local
PBS_NODEFILE
compute-1-32
compute-1-32
compute-1-32
compute-1-32
compute-1-32
compute-1-32
compute-1-32
compute-1-32
compute-1-32
compute-1-32
compute-1-32
compute-1-32
 running on   12 nodes
 distr:  one band on    1 nodes,   12 groups
 vasp.5.2.2 15Apr09 complex 
 POSCAR found type information on POSCAR  Al
 POSCAR found :  1 types and   31 ions

 ----------------------------------------------------------------------------- 
|                                                                             |
|  ADVICE TO THIS USER RUNNING 'VASP/VAMP'   (HEAR YOUR MASTER'S VOICE ...):  |
|                                                                             |
|      You have a (more or less) 'large supercell' and for larger cells       |
|      it might be more efficient to use real space projection operators      |
|      So try LREAL= Auto  in the INCAR   file.                               |
|      Mind: If you want to do a very accurate calculations keep the          |
|      reciprocal projection scheme          (i.e. LREAL=.FALSE.)             |
|                                                                             |
 ----------------------------------------------------------------------------- 

 LDA part: xc-table for Pade appr. of Perdew
 POSCAR, INCAR and KPOINTS ok, starting setup
 FFT: planning ...(           1 )
 reading WAVECAR
 entering main loop
       N       E                     dE             d eps       ncg     rms          rms(c)
RMM:   1     0.235853214158E+03    0.23585E+03   -0.15700E+04    72   0.537E+02
RMM:   2    -0.370516211124E+02   -0.27290E+03   -0.26414E+03    72   0.112E+02
RMM:   3    -0.951417715786E+02   -0.58090E+02   -0.56777E+02    72   0.368E+01
RMM:   4    -0.107980325049E+03   -0.12839E+02   -0.11529E+02    72   0.207E+01
RMM:   5    -0.112774160232E+03   -0.47938E+01   -0.36207E+01    72   0.107E+01
RMM:   6    -0.114459739375E+03   -0.16856E+01   -0.12713E+01    72   0.622E+00
RMM:   7    -0.115003517783E+03   -0.54378E+00   -0.45281E+00    72   0.355E+00
RMM:   8    -0.115199809640E+03   -0.19629E+00   -0.17164E+00    72   0.211E+00
RMM:   9    -0.115305651731E+03   -0.10584E+00   -0.97810E-01   165   0.127E+00
RMM:  10    -0.115324390237E+03   -0.18739E-01   -0.14511E-01   148   0.366E-01
RMM:  11    -0.115325808242E+03   -0.14180E-02   -0.86591E-03   130   0.965E-02
RMM:  12    -0.115325850704E+03   -0.42462E-04   -0.36667E-04    97   0.280E-02    0.557E+00
RMM:  13    -0.114455432074E+03    0.87042E+00   -0.11094E+00   144   0.140E+00    0.332E+00
RMM:  14    -0.114204633674E+03    0.25080E+00   -0.21380E-01   144   0.820E-01    0.141E+00
RMM:  15    -0.114149181832E+03    0.55452E-01   -0.43818E-02   145   0.463E-01    0.163E-01
RMM:  16    -0.114147911163E+03    0.12707E-02   -0.35161E-03   144   0.120E-01    0.474E-02
RMM:  17    -0.114147961940E+03   -0.50777E-04   -0.48167E-04   121   0.484E-02
   1 F= -.11414796E+03 E0= -.11413716E+03  d E =-.114148E+03
 curvature:   0.00 expect dE= 0.000E+00 dE for cont linesearch  0.000E+00
 trial: gam= 0.00000 g(F)=  0.250E+00 g(S)=  0.000E+00 ort = 0.000E+00 (trialstep = 0.100E+01)
 search vector abs. value=  0.250E+00
 bond charge predicted
       N       E                     dE             d eps       ncg     rms          rms(c)
RMM:   1    -0.114369248921E+03   -0.22134E+00   -0.16786E+00   144   0.324E+00    0.271E-01
RMM:   2    -0.114362519265E+03    0.67297E-02   -0.21191E-02   146   0.403E-01    0.118E-01
RMM:   3    -0.114361835424E+03    0.68384E-03   -0.34390E-03   144   0.126E-01    0.459E-02
RMM:   4    -0.114361844436E+03   -0.90122E-05   -0.13092E-04    93   0.342E-02
   2 F= -.11436184E+03 E0= -.11434698E+03  d E =-.213882E+00
 trial-energy change:   -0.213882  1 .order   -0.213476   -0.249733   -0.177218
 step:   3.4439(harm=  3.4439)  dis= 0.07276  next Energy=  -114.577989 (dE=-0.430E+00)
 bond charge predicted
       N       E                     dE             d eps       ncg     rms          rms(c)
RMM:   1    -0.114611681927E+03   -0.24985E+00   -0.10215E+01   144   0.794E+00    0.652E-01
RMM:   2    -0.114572430557E+03    0.39251E-01   -0.11938E-01   145   0.971E-01    0.299E-01
RMM:   3    -0.114568331378E+03    0.40992E-02   -0.23091E-02   144   0.304E-01    0.110E-01
RMM:   4    -0.114568338529E+03   -0.71510E-05   -0.88131E-04   143   0.775E-02
   3 F= -.11456834E+03 E0= -.11455133E+03  d E =-.420377E+00
 curvature:  -1.72 expect dE=-0.403E-01 dE for cont linesearch -0.663E-03
 trial: gam= 0.13311 g(F)=  0.234E-01 g(S)=  0.000E+00 ort =-0.981E-02 (trialstep = 0.149E+01)
 search vector abs. value=  0.252E-01
 bond charge predicted
       N       E                     dE             d eps       ncg     rms          rms(c)
RMM:   1    -0.114594901297E+03   -0.26570E-01   -0.29743E-01   144   0.149E+00    0.118E-01
RMM:   2    -0.114593290688E+03    0.16106E-02   -0.47331E-03   144   0.180E-01    0.400E-02
RMM:   3    -0.114593303261E+03   -0.12573E-04   -0.16396E-04   100   0.442E-02
   4 F= -.11459330E+03 E0= -.11457670E+03  d E =-.249647E-01
 trial-energy change:   -0.024965  1 .order   -0.024982   -0.032941   -0.017023
 step:   3.0808(harm=  3.0808)  dis= 0.01762  next Energy=  -114.602422 (dE=-0.341E-01)
 bond charge predicted
       N       E                     dE             d eps       ncg     rms          rms(c)
RMM:   1    -0.114605001402E+03   -0.11711E-01   -0.34153E-01   144   0.159E+00    0.133E-01
RMM:   2    -0.114602876913E+03    0.21245E-02   -0.59788E-03   145   0.198E-01    0.439E-02
RMM:   3    -0.114602897117E+03   -0.20204E-04   -0.15689E-04   100   0.452E-02
   5 F= -.11460290E+03 E0= -.11458613E+03  d E =-.345586E-01
 curvature:  -1.76 expect dE=-0.245E-02 dE for cont linesearch -0.210E-04
 trial: gam=-0.06188 g(F)=  0.139E-02 g(S)=  0.000E+00 ort = 0.549E-03 (trialstep = 0.181E+01)
 search vector abs. value=  0.142E-02
 reached required accuracy - stopping structural energy minimisation
