  31  31   0   0
  0.1706118E+02  0.8087052E-09  0.8087052E-09  0.8087052E-09  0.5000000E-15
  1.000000000000000E-004
  CAR 
 unknown system                          
     13.31245956     -4.93379176  301      7.87835571      1.00000000
     -4.934  0.0000E+00  0.0000E+00
     -4.873  0.0000E+00  0.0000E+00
     -4.812  0.0000E+00  0.0000E+00
     -4.751  0.0000E+00  0.0000E+00
     -4.691  0.0000E+00  0.0000E+00
     -4.630  0.0000E+00  0.0000E+00
     -4.569 -0.3733E-29 -0.2270E-30
     -4.508 -0.4692E-27 -0.2877E-28
     -4.447 -0.4927E-25 -0.3025E-26
     -4.386 -0.4291E-23 -0.2640E-24
     -4.326 -0.3099E-21 -0.1911E-22
     -4.265 -0.1856E-19 -0.1148E-20
     -4.204 -0.9213E-18 -0.5718E-19
     -4.143 -0.3789E-16 -0.2362E-17
     -4.082 -0.1253E-14 -0.7856E-16
     -4.021 -0.3520E-13 -0.2220E-14
     -3.961 -0.8181E-12 -0.5197E-13
     -3.900 -0.1571E-10 -0.1007E-11
     -3.839 -0.2489E-09 -0.1614E-10
     -3.778 -0.3250E-08 -0.2138E-09
     -3.717 -0.3491E-07 -0.2337E-08
     -3.657 -0.3077E-06 -0.2105E-07
     -3.596 -0.2218E-05 -0.1560E-06
     -3.535 -0.1302E-04 -0.9478E-06
     -3.474 -0.6175E-04 -0.4704E-05
     -3.413 -0.2341E-03 -0.1894E-04
     -3.352 -0.6951E-03 -0.6122E-04
     -3.292 -0.1550E-02 -0.1555E-03
     -3.231 -0.2317E-02 -0.2965E-03
     -3.170 -0.1176E-02 -0.3680E-03
     -3.109  0.4814E-02 -0.7524E-04
     -3.048  0.1718E-01  0.9694E-03
     -2.988  0.3252E-01  0.2947E-02
     -2.927  0.4278E-01  0.5549E-02
     -2.866  0.4129E-01  0.8061E-02
     -2.805  0.2907E-01  0.9829E-02
     -2.744  0.1380E-01  0.1067E-01
     -2.683  0.2846E-02  0.1084E-01
     -2.623 -0.1764E-02  0.1073E-01
     -2.562 -0.2217E-02  0.1060E-01
     -2.501 -0.1332E-02  0.1052E-01
     -2.440 -0.5958E-03  0.1048E-01
     -2.379 -0.3687E-03  0.1046E-01
     -2.318 -0.7273E-03  0.1042E-01
     -2.258 -0.1889E-02  0.1030E-01
     -2.197 -0.3835E-02  0.1007E-01
     -2.136 -0.5003E-02  0.9763E-02
     -2.075 -0.9780E-03  0.9703E-02
     -2.014  0.1409E-01  0.1056E-01
     -1.954  0.4186E-01  0.1311E-01
     -1.893  0.7446E-01  0.1764E-01
     -1.832  0.9767E-01  0.2358E-01
     -1.771  0.1015E+00  0.2975E-01
     -1.710  0.8714E-01  0.3505E-01
     -1.649  0.6301E-01  0.3888E-01
     -1.589  0.3768E-01  0.4117E-01
     -1.528  0.1688E-01  0.4220E-01
     -1.467  0.3584E-02  0.4242E-01
     -1.406 -0.2245E-02  0.4228E-01
     -1.345 -0.3127E-02  0.4209E-01
     -1.285 -0.2164E-02  0.4196E-01
     -1.224 -0.1401E-02  0.4188E-01
     -1.163 -0.1699E-02  0.4177E-01
     -1.102 -0.3168E-02  0.4158E-01
     -1.041 -0.4703E-02  0.4129E-01
     -0.980 -0.2689E-02  0.4113E-01
     -0.920  0.8622E-02  0.4165E-01
     -0.859  0.3230E-01  0.4362E-01
     -0.798  0.6221E-01  0.4740E-01
     -0.737  0.8405E-01  0.5251E-01
     -0.676  0.8722E-01  0.5782E-01
     -0.616  0.7512E-01  0.6239E-01
     -0.555  0.5991E-01  0.6603E-01
     -0.494  0.4849E-01  0.6898E-01
     -0.433  0.3822E-01  0.7130E-01
     -0.372  0.2539E-01  0.7285E-01
     -0.311  0.1184E-01  0.7357E-01
     -0.251  0.2100E-02  0.7370E-01
     -0.190 -0.2120E-02  0.7357E-01
     -0.129 -0.2762E-02  0.7340E-01
     -0.068 -0.2752E-02  0.7323E-01
     -0.007 -0.3923E-02  0.7299E-01
      0.054 -0.6057E-02  0.7263E-01
      0.114 -0.5664E-02  0.7228E-01
      0.175  0.4430E-02  0.7255E-01
      0.236  0.3098E-01  0.7443E-01
      0.297  0.7166E-01  0.7879E-01
      0.358  0.1108E+00  0.8553E-01
      0.418  0.1292E+00  0.9339E-01
      0.479  0.1204E+00  0.1007E+00
      0.540  0.9483E-01  0.1065E+00
      0.601  0.6741E-01  0.1106E+00
      0.662  0.4468E-01  0.1133E+00
      0.723  0.2604E-01  0.1149E+00
      0.783  0.1111E-01  0.1156E+00
      0.844  0.1426E-02  0.1156E+00
      0.905 -0.2697E-02  0.1155E+00
      0.966 -0.3510E-02  0.1153E+00
      1.027 -0.4077E-02  0.1150E+00
      1.087 -0.6171E-02  0.1146E+00
      1.148 -0.8553E-02  0.1141E+00
      1.209 -0.5266E-02  0.1138E+00
      1.270  0.1360E-01  0.1146E+00
      1.331  0.5501E-01  0.1180E+00
      1.392  0.1127E+00  0.1248E+00
      1.452  0.1648E+00  0.1349E+00
      1.513  0.1861E+00  0.1462E+00
      1.574  0.1659E+00  0.1563E+00
      1.635  0.1164E+00  0.1633E+00
      1.696  0.6312E-01  0.1672E+00
      1.757  0.2923E-01  0.1690E+00
      1.817  0.2171E-01  0.1703E+00
      1.878  0.3028E-01  0.1721E+00
      1.939  0.3789E-01  0.1744E+00
      2.000  0.3434E-01  0.1765E+00
      2.061  0.2162E-01  0.1778E+00
      2.121  0.8073E-02  0.1783E+00
      2.182 -0.5955E-03  0.1783E+00
      2.243 -0.4484E-02  0.1780E+00
      2.304 -0.6286E-02  0.1776E+00
      2.365 -0.6475E-02  0.1772E+00
      2.426 -0.8887E-03  0.1772E+00
      2.486  0.1706E-01  0.1782E+00
      2.547  0.4939E-01  0.1812E+00
      2.608  0.8706E-01  0.1865E+00
      2.669  0.1126E+00  0.1934E+00
      2.730  0.1125E+00  0.2002E+00
      2.790  0.8770E-01  0.2055E+00
      2.851  0.5207E-01  0.2087E+00
      2.912  0.2112E-01  0.2100E+00
      2.973  0.2739E-02  0.2102E+00
      3.034 -0.4039E-02  0.2099E+00
      3.095 -0.4510E-02  0.2096E+00
      3.155 -0.3631E-02  0.2094E+00
      3.216 -0.4180E-02  0.2092E+00
      3.277 -0.6676E-02  0.2088E+00
      3.338 -0.8626E-02  0.2082E+00
      3.399 -0.2988E-02  0.2081E+00
      3.459  0.2058E-01  0.2093E+00
      3.520  0.6804E-01  0.2134E+00
      3.581  0.1303E+00  0.2214E+00
      3.642  0.1814E+00  0.2324E+00
      3.703  0.1940E+00  0.2442E+00
      3.764  0.1618E+00  0.2540E+00
      3.824  0.1067E+00  0.2605E+00
      3.885  0.6075E-01  0.2642E+00
      3.946  0.3942E-01  0.2666E+00
      4.007  0.3497E-01  0.2688E+00
      4.068  0.3134E-01  0.2707E+00
      4.129  0.2120E-01  0.2719E+00
      4.189  0.7936E-02  0.2724E+00
      4.250 -0.3107E-02  0.2722E+00
      4.311 -0.1012E-01  0.2716E+00
      4.372 -0.1170E-01  0.2709E+00
      4.433 -0.1318E-02  0.2708E+00
      4.493  0.3104E-01  0.2727E+00
      4.554  0.8747E-01  0.2780E+00
      4.615  0.1518E+00  0.2873E+00
      4.676  0.1964E+00  0.2992E+00
      4.737  0.2057E+00  0.3117E+00
      4.798  0.1895E+00  0.3233E+00
      4.858  0.1678E+00  0.3335E+00
      4.919  0.1475E+00  0.3424E+00
      4.980  0.1221E+00  0.3498E+00
      5.041  0.9048E-01  0.3554E+00
      5.102  0.6258E-01  0.3592E+00
      5.162  0.4598E-01  0.3620E+00
      5.223  0.3653E-01  0.3642E+00
      5.284  0.2609E-01  0.3658E+00
      5.345  0.1282E-01  0.3665E+00
      5.406  0.7279E-03  0.3666E+00
      5.467 -0.6105E-02  0.3662E+00
      5.527 -0.4839E-02  0.3659E+00
      5.588  0.7904E-02  0.3664E+00
      5.649  0.3346E-01  0.3684E+00
      5.710  0.6456E-01  0.3724E+00
      5.771  0.8505E-01  0.3775E+00
      5.831  0.8158E-01  0.3825E+00
      5.892  0.5626E-01  0.3859E+00
      5.953  0.2553E-01  0.3875E+00
      6.014  0.6597E-02  0.3879E+00
      6.075  0.6344E-02  0.3883E+00
      6.136  0.1995E-01  0.3895E+00
      6.196  0.3577E-01  0.3916E+00
      6.257  0.4236E-01  0.3942E+00
      6.318  0.3533E-01  0.3964E+00
      6.379  0.1925E-01  0.3975E+00
      6.440  0.2651E-02  0.3977E+00
      6.501 -0.7501E-02  0.3973E+00
      6.561 -0.5850E-02  0.3969E+00
      6.622  0.1292E-01  0.3977E+00
      6.683  0.4990E-01  0.4007E+00
      6.744  0.9571E-01  0.4065E+00
      6.805  0.1349E+00  0.4147E+00
      6.865  0.1600E+00  0.4245E+00
      6.926  0.1760E+00  0.4352E+00
      6.987  0.1850E+00  0.4464E+00
      7.048  0.1760E+00  0.4571E+00
      7.109  0.1389E+00  0.4656E+00
      7.170  0.8278E-01  0.4706E+00
      7.230  0.3112E-01  0.4725E+00
      7.291  0.6284E-03  0.4725E+00
      7.352 -0.9200E-02  0.4720E+00
      7.413 -0.8713E-02  0.4715E+00
      7.474 -0.7016E-02  0.4710E+00
      7.534 -0.7302E-02  0.4706E+00
      7.595 -0.6844E-02  0.4702E+00
      7.656  0.1702E-02  0.4703E+00
      7.717  0.2578E-01  0.4718E+00
      7.778  0.6420E-01  0.4757E+00
      7.839  0.1028E+00  0.4820E+00
      7.899  0.1254E+00  0.4896E+00
      7.960  0.1324E+00  0.4977E+00
      8.021  0.1422E+00  0.5063E+00
      8.082  0.1682E+00  0.5166E+00
      8.143  0.1989E+00  0.5287E+00
      8.204  0.2078E+00  0.5413E+00
      8.264  0.1807E+00  0.5523E+00
      8.325  0.1279E+00  0.5601E+00
      8.386  0.7158E-01  0.5644E+00
      8.447  0.2887E-01  0.5662E+00
      8.508  0.4661E-02  0.5665E+00
      8.568 -0.4726E-02  0.5662E+00
      8.629 -0.5900E-02  0.5658E+00
      8.690 -0.4593E-02  0.5655E+00
      8.751 -0.4234E-02  0.5653E+00
      8.812 -0.5796E-02  0.5649E+00
      8.873 -0.7180E-02  0.5645E+00
      8.933 -0.2159E-02  0.5644E+00
      8.994  0.1758E-01  0.5654E+00
      9.055  0.5431E-01  0.5687E+00
      9.116  0.9658E-01  0.5746E+00
      9.177  0.1251E+00  0.5822E+00
      9.237  0.1317E+00  0.5902E+00
      9.298  0.1283E+00  0.5980E+00
      9.359  0.1296E+00  0.6059E+00
      9.420  0.1322E+00  0.6139E+00
      9.481  0.1188E+00  0.6212E+00
      9.542  0.8297E-01  0.6262E+00
      9.602  0.3786E-01  0.6285E+00
      9.663  0.1942E-02  0.6286E+00
      9.724 -0.1540E-01  0.6277E+00
      9.785 -0.1138E-01  0.6270E+00
      9.846  0.1833E-01  0.6281E+00
      9.906  0.7619E-01  0.6328E+00
      9.967  0.1501E+00  0.6419E+00
     10.028  0.2103E+00  0.6547E+00
     10.089  0.2266E+00  0.6685E+00
     10.150  0.1905E+00  0.6801E+00
     10.211  0.1217E+00  0.6875E+00
     10.271  0.5402E-01  0.6907E+00
     10.332  0.1616E-01  0.6917E+00
     10.393  0.1998E-01  0.6929E+00
     10.454  0.5702E-01  0.6964E+00
     10.515  0.1016E+00  0.7026E+00
     10.576  0.1235E+00  0.7101E+00
     10.636  0.1082E+00  0.7167E+00
     10.697  0.6754E-01  0.7208E+00
     10.758  0.2988E-01  0.7226E+00
     10.819  0.1823E-01  0.7237E+00
     10.880  0.3548E-01  0.7259E+00
     10.940  0.6458E-01  0.7298E+00
     11.001  0.8179E-01  0.7348E+00
     11.062  0.7507E-01  0.7393E+00
     11.123  0.5299E-01  0.7426E+00
     11.184  0.3481E-01  0.7447E+00
     11.245  0.3140E-01  0.7466E+00
     11.305  0.3702E-01  0.7488E+00
     11.366  0.3870E-01  0.7512E+00
     11.427  0.3032E-01  0.7530E+00
     11.488  0.1632E-01  0.7540E+00
     11.549  0.4558E-02  0.7543E+00
     11.609 -0.1237E-02  0.7542E+00
     11.670 -0.2329E-02  0.7541E+00
     11.731 -0.1552E-02  0.7540E+00
     11.792 -0.6953E-03  0.7539E+00
     11.853 -0.2341E-03  0.7539E+00
     11.914 -0.6176E-04  0.7539E+00
     11.974 -0.1302E-04  0.7539E+00
     12.035 -0.2218E-05  0.7539E+00
     12.096 -0.3077E-06  0.7539E+00
     12.157 -0.3491E-07  0.7539E+00
     12.218 -0.3250E-08  0.7539E+00
     12.279 -0.2489E-09  0.7539E+00
     12.339 -0.1571E-10  0.7539E+00
     12.400 -0.8181E-12  0.7539E+00
     12.461 -0.3517E-13  0.7539E+00
     12.522 -0.1262E-14  0.7539E+00
     12.583 -0.3823E-16  0.7539E+00
     12.643  0.0000E+00  0.7539E+00
     12.704  0.0000E+00  0.7539E+00
     12.765  0.0000E+00  0.7539E+00
     12.826  0.0000E+00  0.7539E+00
     12.887  0.0000E+00  0.7539E+00
     12.948  0.0000E+00  0.7539E+00
     13.008  0.0000E+00  0.7539E+00
     13.069  0.0000E+00  0.7539E+00
     13.130  0.0000E+00  0.7539E+00
     13.191  0.0000E+00  0.7539E+00
     13.252  0.0000E+00  0.7539E+00
     13.312  0.0000E+00  0.7539E+00
