   31   31  191    1
  0.1706118E+02  0.8087052E-09  0.8087052E-09  0.8087052E-09  0.5000000E-15
  1.000000000000000E-004
  CAR 
 unknown system                          
   93    1   72
 
  0.2500000E+00  0.2500000E+00  0.2500000E+00  0.1000000E+01
   1       -2.933792
   2       -1.858162
   3       -1.858162
   4       -1.686837
   5       -0.743106
   6       -0.743105
   7       -0.497840
   8        0.360391
   9        0.360391
  10        0.426345
  11        0.604797
  12        1.428559
  13        1.428559
  14        1.457871
  15        1.562899
  16        1.562899
  17        1.907537
  18        2.634335
  19        2.634335
  20        2.751950
  21        3.595365
  22        3.595365
  23        3.695946
  24        3.697599
  25        3.697599
  26        3.988691
  27        4.622716
  28        4.622716
  29        4.655098
  30        4.716864
  31        4.716864
  32        4.910467
  33        4.910467
  34        4.914664
  35        5.173864
  36        5.763826
  37        5.763826
  38        6.221754
  39        6.777576
  40        6.793816
  41        6.793816
  42        6.970762
  43        7.022235
  44        7.030819
  45        7.030819
  46        7.835747
  47        7.881647
  48        7.881647
  49        8.096341
  50        8.096341
  51        8.153856
  52        8.195953
  53        8.195953
  54        8.318806
  55        9.149558
  56        9.149558
  57        9.181625
  58        9.408940
  59        9.408940
  60        9.434734
  61        9.987308
  62       10.004010
  63       10.004011
  64       10.052769
  65       10.128823
  66       10.128826
  67       10.532469
  68       10.532618
  69       10.583590
  70       10.976822
  71       10.981800
  72       11.312460
