 vasp.5.2.2 15Apr09 complex 
 executed on             LinuxIFC date 2016.12.16  15:54:55
 running on   32 nodes
 distr:  one band on    1 nodes,   32 groups


--------------------------------------------------------------------------------------------------------


 INCAR:
 POTCAR:   PAW_PBE Al 04Jan2001                   
 POTCAR:   PAW_PBE Al 04Jan2001                   
   VRHFIN =Al: s2p1                                                             
   LEXCH  = PE                                                                  
   EATOM  =    53.5387 eV,    3.9350 Ry                                         
                                                                                
   TITEL  = PAW_PBE Al 04Jan2001                                                
   LULTRA =        F    use ultrasoft PP ?                                      
   IUNSCR =        1    unscreen: 0-lin 1-nonlin 2-no                           
   RPACOR =    1.500    partial core radius                                     
   POMASS =   26.982; ZVAL   =    3.000    mass and valenz                      
   RCORE  =    1.900    outmost cutoff radius                                   
   RWIGS  =    2.650; RWIGS  =    1.402    wigner-seitz radius (au A)           
   ENMAX  =  240.300; ENMIN  =  180.225 eV                                      
   ICORE  =        2    local potential                                         
   LCOR   =        T    correct aug charges                                     
   LPAW   =        T    paw PP                                                  
   EAUG   =  291.052                                                            
   DEXC   =    -.041                                                            
   RMAX   =    2.974    core radius for proj-oper                               
   RAUG   =    1.300    factor for augmentation sphere                          
   RDEP   =    1.966    radius for radial grids                                 
   QCUT   =   -4.203; QGAM   =    8.405    optimization parameters              
                                                                                
   Description                                                                  
     l     E      TYP  RCUT    TYP  RCUT                                        
     0   .000     23  1.900                                                     
     0   .000     23  1.900                                                     
     1   .000     23  1.900                                                     
     1  1.000     23  1.900                                                     
     2   .000      7  1.900                                                     
  local pseudopotential read in
  partial core-charges read in
  atomic valenz-charges read in
  non local Contribution for L=           0  read in
    real space projection operators read in
  non local Contribution for L=           0  read in
    real space projection operators read in
  non local Contribution for L=           1  read in
    real space projection operators read in
  non local Contribution for L=           1  read in
    real space projection operators read in
    PAW grid and wavefunctions read in
 
   number of l-projection  operators is LMAX  =           4
   number of lm-projection operators is LMMAX =           8
 

 ----------------------------------------------------------------------------- 
|                                                                             |
|  ADVICE TO THIS USER RUNNING 'VASP/VAMP'   (HEAR YOUR MASTER'S VOICE ...):  |
|                                                                             |
|      You have a (more or less) 'large supercell' and for larger cells       |
|      it might be more efficient to use real space projection operators      |
|      So try LREAL= Auto  in the INCAR   file.                               |
|      Mind: If you want to do a very accurate calculations keep the          |
|      reciprocal projection scheme          (i.e. LREAL=.FALSE.)             |
|                                                                             |
 ----------------------------------------------------------------------------- 

 PAW_PBE Al 04Jan2001                   :
 energy of atom  1       EATOM=  -53.5387
 kinetic energy error for atom=    0.0011 (will be added to EATOM!!)
 
 
 POSCAR: Al32                                    
  positions in direct lattice
  velocities in cartesian coordinates
 exchange correlation table for  LEXCH =        8
   RHO(1)=    0.500       N(1)  =     2000
   RHO(2)=  100.500       N(2)  =     4000

 VTST: version 2.03d, (02/18/09)

 CHAIN: initializing optimizer
 
 OPT: Using VASP Dynamics algorithm
 CHAIN: Read ICHAIN            0
 


--------------------------------------------------------------------------------------------------------


 ion  position               nearest neighbor table
   1  0.000  0.000  0.000-   2 2.86   3 2.86   4 2.86   6 2.86   7 2.86  11 2.86  12 2.86  15 2.86
                            18 2.86  20 2.86  22 2.86  28 2.86
   2  0.250  0.000  0.250-   1 2.86   3 2.86   4 2.86   5 2.86   8 2.86  11 2.86  12 2.86  16 2.86
                            17 2.86  19 2.86  21 2.86  27 2.86
   3  0.250  0.250  0.000-   1 2.86   2 2.86   4 2.86   5 2.86   8 2.86   9 2.86  10 2.86  13 2.86
                            18 2.86  20 2.86  24 2.86  26 2.86
   4  0.000  0.250  0.250-   1 2.86   2 2.86   3 2.86   6 2.86   7 2.86   9 2.86  10 2.86  14 2.86
                            17 2.86  19 2.86  23 2.86  25 2.86
   5  0.500  0.000  0.000-   2 2.86   3 2.86   6 2.86   7 2.86   8 2.86  11 2.86  15 2.86  16 2.86
                            18 2.86  22 2.86  24 2.86  32 2.86
   6  0.750  0.000  0.250-   1 2.86   4 2.86   5 2.86   7 2.86   8 2.86  12 2.86  15 2.86  16 2.86
                            17 2.86  21 2.86  23 2.86  31 2.86
   7  0.750  0.250  0.000-   1 2.86   4 2.86   5 2.86   6 2.86   8 2.86   9 2.86  13 2.86  14 2.86
                            20 2.86  22 2.86  24 2.86  30 2.86
   8  0.500  0.250  0.250-   2 2.86   3 2.86   5 2.86   6 2.86   7 2.86  10 2.86  13 2.86  14 2.86
                            19 2.86  21 2.86  23 2.86  29 2.86
   9  0.000  0.500  0.000-   3 2.86   4 2.86   7 2.86  10 2.86  11 2.86  12 2.86  14 2.86  15 2.86
                            20 2.86  26 2.86  28 2.86  30 2.86
  10  0.250  0.500  0.250-   3 2.86   4 2.86   8 2.86   9 2.86  11 2.86  12 2.86  13 2.86  16 2.86
                            19 2.86  25 2.86  27 2.86  29 2.86
  11  0.250  0.750  0.000-   1 2.86   2 2.86   5 2.86   9 2.86  10 2.86  12 2.86  13 2.86  16 2.86
                            18 2.86  26 2.86  28 2.86  32 2.86
  12  0.000  0.750  0.250-   1 2.86   2 2.86   6 2.86   9 2.86  10 2.86  11 2.86  14 2.86  15 2.86
                            17 2.86  25 2.86  27 2.86  31 2.86
  13  0.500  0.500  0.000-   3 2.86   7 2.86   8 2.86  10 2.86  11 2.86  14 2.86  15 2.86  16 2.86
                            24 2.86  26 2.86  30 2.86  32 2.86
  14  0.750  0.500  0.250-   4 2.86   7 2.86   8 2.86   9 2.86  12 2.86  13 2.86  15 2.86  16 2.86
                            23 2.86  25 2.86  29 2.86  31 2.86
  15  0.750  0.750  0.000-   1 2.86   5 2.86   6 2.86   9 2.86  12 2.86  13 2.86  14 2.86  16 2.86
                            22 2.86  28 2.86  30 2.86  32 2.86
  16  0.500  0.750  0.250-   2 2.86   5 2.86   6 2.86  10 2.86  11 2.86  13 2.86  14 2.86  15 2.86
                            21 2.86  27 2.86  29 2.86  31 2.86
  17  0.000  0.000  0.500-   2 2.86   4 2.86   6 2.86  12 2.86  18 2.86  19 2.86  20 2.86  22 2.86
                            23 2.86  27 2.86  28 2.86  31 2.86
  18  0.250  0.000  0.750-   1 2.86   3 2.86   5 2.86  11 2.86  17 2.86  19 2.86  20 2.86  21 2.86
                            24 2.86  27 2.86  28 2.86  32 2.86
  19  0.250  0.250  0.500-   2 2.86   4 2.86   8 2.86  10 2.86  17 2.86  18 2.86  20 2.86  21 2.86
                            24 2.86  25 2.86  26 2.86  29 2.86
  20  0.000  0.250  0.750-   1 2.86   3 2.86   7 2.86   9 2.86  17 2.86  18 2.86  19 2.86  22 2.86
                            23 2.86  25 2.86  26 2.86  30 2.86
  21  0.500  0.000  0.500-   2 2.86   6 2.86   8 2.86  16 2.86  18 2.86  19 2.86  22 2.86  23 2.86
                            24 2.86  27 2.86  31 2.86  32 2.86
  22  0.750  0.000  0.750-   1 2.86   5 2.86   7 2.86  15 2.86  17 2.86  20 2.86  21 2.86  23 2.86
                            24 2.86  28 2.86  31 2.86  32 2.86
  23  0.750  0.250  0.500-   4 2.86   6 2.86   8 2.86  14 2.86  17 2.86  20 2.86  21 2.86  22 2.86
                            24 2.86  25 2.86  29 2.86  30 2.86
  24  0.500  0.250  0.750-   3 2.86   5 2.86   7 2.86  13 2.86  18 2.86  19 2.86  21 2.86  22 2.86
                            23 2.86  26 2.86  29 2.86  30 2.86
  25  0.000  0.500  0.500-   4 2.86  10 2.86  12 2.86  14 2.86  19 2.86  20 2.86  23 2.86  26 2.86
                            27 2.86  28 2.86  30 2.86  31 2.86
  26  0.250  0.500  0.750-   3 2.86   9 2.86  11 2.86  13 2.86  19 2.86  20 2.86  24 2.86  25 2.86
                            27 2.86  28 2.86  29 2.86  32 2.86
  27  0.250  0.750  0.500-   2 2.86  10 2.86  12 2.86  16 2.86  17 2.86  18 2.86  21 2.86  25 2.86
                            26 2.86  28 2.86  29 2.86  32 2.86
  28  0.000  0.750  0.750-   1 2.86   9 2.86  11 2.86  15 2.86  17 2.86  18 2.86  22 2.86  25 2.86
                            26 2.86  27 2.86  30 2.86  31 2.86
  29  0.500  0.500  0.500-   8 2.86  10 2.86  14 2.86  16 2.86  19 2.86  23 2.86  24 2.86  26 2.86
                            27 2.86  30 2.86  31 2.86  32 2.86
  30  0.750  0.500  0.750-   7 2.86   9 2.86  13 2.86  15 2.86  20 2.86  23 2.86  24 2.86  25 2.86
                            28 2.86  29 2.86  31 2.86  32 2.86
  31  0.750  0.750  0.500-   6 2.86  12 2.86  14 2.86  16 2.86  17 2.86  21 2.86  22 2.86  25 2.86
                            28 2.86  29 2.86  30 2.86  32 2.86
  32  0.500  0.750  0.750-   5 2.86  11 2.86  13 2.86  15 2.86  18 2.86  21 2.86  22 2.86  26 2.86
                            27 2.86  29 2.86  30 2.86  31 2.86
 
  LATTYP: Found a simple cubic cell.
 ALAT       =     8.0870400000
  
  Lattice vectors:
  
 A1 = (   8.0870400000,   0.0000000000,   0.0000000000)
 A2 = (   0.0000000000,   8.0870400000,   0.0000000000)
 A3 = (   0.0000000000,   0.0000000000,   8.0870400000)
 Subroutine PRICEL returns following result:
 
  LATTYP: Found a face centered cubic cell.
 ALAT       =     4.0435200000
  
  Lattice vectors:
  
 A1 = (   2.0217600000,   2.0217600000,   0.0000000000)
 A2 = (   2.0217600000,   0.0000000000,  -2.0217600000)
 A3 = (   0.0000000000,   2.0217600000,  -2.0217600000)
 
  32 primitive cells build up your supercell.
 

Analysis of symmetry for initial positions (statically):

 Routine SETGRP: Setting up the symmetry group for a 
 simple cubic supercell.


 Subroutine GETGRP returns: Found 48 space group operations
 (whereof 48 operations were pure point group operations)
 out of a pool of 48 trial point group operations.


The static configuration has the point symmetry O_h .

Analysis of symmetry for dynamics (positions and initial velocities):

 Subroutine DYNSYM returns: Found 48 space group operations
 (whereof 48 operations were pure point group operations)
 out of a pool of 48 trial space group operations
 (whereof 48 operations were pure point group operations)
 and found also    32 'primitive' translations


The dynamic configuration has the point symmetry O_h .
 
 
 KPOINTS: Automatic kpoint scheme                 

Automatic generation of k-mesh.
 
 Subroutine IBZKPT returns following result:
 ===========================================
 
 Found      1 irreducible k-points:
 
 Following reciprocal coordinates:
            Coordinates               Weight
  0.250000  0.250000  0.250000      8.000000
 
 Following cartesian coordinates:
            Coordinates               Weight
  0.030914  0.030914  0.030914      8.000000
 


--------------------------------------------------------------------------------------------------------




 Dimension of arrays:
   k-points           NKPTS =      1   k-points in BZ     NKDIM =      1   number of bands    NBANDS=     96
   number of dos      NEDOS =    301   number of ions     NIONS =     32
   non local maximal  LDIM  =      4   non local SUM 2l+1 LMDIM =      8
   total plane-waves  NPLWV = 110592
   max r-space proj   IRMAX =      1   max aug-charges    IRDMAX=   8337
   dimension x,y,z NGX =    48 NGY =   48 NGZ =   48
   dimension x,y,z NGXF=    96 NGYF=   96 NGZF=   96
   support grid    NGXF=    96 NGYF=   96 NGZF=   96
   ions per type =              32
 NGX,Y,Z   is equivalent  to a cutoff of   9.87,  9.87,  9.87 a.u.
 NGXF,Y,Z  is equivalent  to a cutoff of  19.73, 19.73, 19.73 a.u.


 I would recommend the setting:
   dimension x,y,z NGX =    46 NGY =   46 NGZ =   46
 SYSTEM =  unknown system                          
 POSCAR =  Al32                                    

 Startparameter for this run:
   NWRITE =      2    write-flag & timer
   PREC   = accura    medium, high low
   ISTART =      0    job   : 0-new  1-cont  2-samecut
   ICHARG =      2    charge: 1-file 2-atom 10-const
   ISPIN  =      1    spin polarized calculation?
   LNONCOLLINEAR =      F non collinear calculations
   LSORBIT =      F    spin-orbit coupling
   INIWAV =      1    electr: 0-lowe 1-rand  2-diag
   LASPH  =      F    aspherical Exc in radial PAW
   METAGGA=      F    non-selfconsistent MetaGGA calc.

 Electronic Relaxation 1
   ENCUT  =  300.0 eV  22.05 Ry    4.70 a.u.  11.42 11.42 11.42*2*pi/ulx,y,z
   ENINI  =  300.0     initial cutoff
   ENAUG  =  291.1 eV  augmentation charge cutoff
   NELM   =     60;   NELMIN=  2; NELMDL=-12     # of ELM steps 
   EDIFF  = 0.1E-03   stopping-criterion for ELM
   LREAL  =      F    real-space projection
   LCOMPAT=      F    compatible to vasp.4.4
   LREAL_COMPAT= F    compatible to vasp.4.5.1-3
   GGA_COMPAT  = T    GGA compatible to vasp.4.4-vasp.4.6
   LMAXPAW     = -100 max onsite density
   LMAXMIX     =    2 max onsite mixed and CHGCAR
   VOSKOWN=      0    Vosko Wilk Nusair interpolation
   ROPT   =    0.00000
 Ionic relaxation
   EDIFFG = 0.5E-01   stopping-criterion for IOM
   NSW    =      0    number of steps for IOM
   NBLOCK =      1;   KBLOCK =      1    inner block; outer block 
   IBRION =     -1    ionic relax: 0-MD 1-quasi-New 2-CG
   NFREE  =      0    steps in history (QN), initial steepest desc. (CG)
   ISIF   =      2    stress and relaxation
   IWAVPR =     10    prediction:  0-non 1-charg 2-wave 3-comb
   ISYM   =      2    0-nonsym 1-usesym 2-fastsym
   LCORR  =      T    Harris-Foulkes like correction to forces

   POTIM  = 0.5000    time-step for ionic-motion
   TEIN   =    0.0    initial temperature
   TEBEG  =    0.0;   TEEND  =   0.0 temperature during run
   SMASS  =  -3.00    Nose mass-parameter (am)
   estimated Nose-frequenzy (Omega)   =  0.10E-29 period in steps =****** mass=  -0.149E-26a.u.
   NPACO  =    256;   APACO  = 16.0  distance and # of slots for P.C.
   PSTRESS=    0.0 pullay stress

  Mass of Ions in am
   POMASS =  26.98
  Ionic Valenz
   ZVAL   =   3.00
  Atomic Wigner-Seitz radii
   RWIGS  =  -1.00
   NELECT =      96.0000    total number of electrons
   NUPDOWN=      -1.0000    fix difference up-down

 DOS related values:
   EMIN   =  10.00;   EMAX   =-10.00  energy-range for DOS
   EFERMI =   0.00
   ISMEAR =     1;   SIGMA  =   0.20  broadening in eV -4-tet -1-fermi 0-gaus

 Electronic relaxation 2 (details)
   IALGO  =     48    algorithm
   LDIAG  =      T    sub-space diagonalisation
   IMIX   =      4    mixing-type and parameters
     AMIX     =   0.40;   BMIX     =  1.00
     AMIX_MAG =   1.60;   BMIX_MAG =  1.00
     AMIN     =   0.10
     WC   =   100.;   INIMIX=   1;  MIXPRE=   1

 Intra band minimization:
   WEIMIN = 0.0000     energy-eigenvalue tresh-hold
   EBREAK =  0.38E-06  absolut break condition
   DEPER  =   0.30     relativ break condition  

   TIME   =   0.40     timestep for ELM

  volume/ion in A,a.u.               =      16.53       111.54
  Fermi-wavevector in a.u.,A,eV,Ry     =   0.926920  1.751625 11.689866  0.859181
  Thomas-Fermi vector in A             =   2.052934
 
 Write flags
   LWAVE  =      F    write WAVECAR
   LCHARG =      T    write CHGCAR
   LVTOT  =      F    write LOCPOT, local potential
   LELF   =      F    write electronic localiz. function (ELF)
   LORBIT =      0    0 simple, 1 ext, 2 COOP (PROOUT)


 Dipole corrections
   LMONO  =      F    monopole corrections only (constant potential shift)
   LDIPOL =      F    correct potential (dipole corrections)
   IDIPOL =      0    1-x, 2-y, 3-z, 4-all directions 
   EPSILON=  1.0000000 bulk dielectric constant

 Exchange correlation treatment:
   GGA     =    --    GGA type
   LEXCH   =     8    internal setting for exchange type
   VOSKOWN=      0    Vosko Wilk Nusair interpolation
   LHFCALC =     F    Hartree Fock is set to
   LHFONE  =     F    Hartree Fock one center treatment
   AEXX    =    0.0000 exact exchange contribution

 Linear response parameters
   LEPSILON=     F    determine dielectric tensor
   LRPA    =     F    only Hartree local field effects (RPA)
   LNABLA  =     F    use nabla operator in PAW spheres
   LVEL    =     F    velocity operator in full k-point grid
   LINTERFAST=   F  fast interpolation
   KINTER  =     0    interpolate to denser k-point grid
   CSHIFT  =0.1000    complex shift for real part using Kramers Kronig
   OMEGAMAX=  -1.0    maximum frequency

 Orbital magnetization related:
   ORBITALMAG=     F  switch on orbital magnetization
   LCHIMAG   =     F  perturbation theory with respect to B field



--------------------------------------------------------------------------------------------------------


 Static calculation
 charge density and potential will be updated during run
 non-spin polarized calculation
 RMM-DIIS sequential band-by-band
 perform sub-space diagonalisation
    before iterative eigenvector-optimisation
 modified Broyden-mixing scheme, WC =      100.0
 initial mixing is a Kerker type mixing with AMIX =  0.4000 and BMIX =      1.0000
 Hartree-type preconditioning will be used
 using additional bands           48
 reciprocal scheme for non local part
 use partial core corrections
 calculate Harris-corrections to forces 
   (improved forces if not selfconsistent)
 use gradient corrections 
 use of overlap-Matrix (Vanderbilt PP)
 Methfessel and Paxton  Order N= 1 SIGMA  =   0.20


--------------------------------------------------------------------------------------------------------


  energy-cutoff  :      300.00
  volume of cell :      528.89
      direct lattice vectors                 reciprocal lattice vectors
     8.087040000  0.000000000  0.000000000     0.123654638  0.000000000  0.000000000
     0.000000000  8.087040000  0.000000000     0.000000000  0.123654638  0.000000000
     0.000000000  0.000000000  8.087040000     0.000000000  0.000000000  0.123654638

  length of vectors
     8.087040000  8.087040000  8.087040000     0.123654638  0.123654638  0.123654638


 
 k-points in units of 2pi/SCALE and weight: Automatic kpoint scheme                 
   0.03091366  0.03091366  0.03091366       1.000
 
 k-points in reciprocal lattice and weights: Automatic kpoint scheme                 
   0.25000000  0.25000000  0.25000000       1.000
 
 position of ions in fractional coordinates (direct lattice) 
   0.00000000  0.00000000  0.00000000
   0.25000000  0.00000000  0.25000000
   0.25000000  0.25000000  0.00000000
   0.00000000  0.25000000  0.25000000
   0.50000000  0.00000000  0.00000000
   0.75000000  0.00000000  0.25000000
   0.75000000  0.25000000  0.00000000
   0.50000000  0.25000000  0.25000000
   0.00000000  0.50000000  0.00000000
   0.25000000  0.50000000  0.25000000
   0.25000000  0.75000000  0.00000000
   0.00000000  0.75000000  0.25000000
   0.50000000  0.50000000  0.00000000
   0.75000000  0.50000000  0.25000000
   0.75000000  0.75000000  0.00000000
   0.50000000  0.75000000  0.25000000
   0.00000000  0.00000000  0.50000000
   0.25000000  0.00000000  0.75000000
   0.25000000  0.25000000  0.50000000
   0.00000000  0.25000000  0.75000000
   0.50000000  0.00000000  0.50000000
   0.75000000  0.00000000  0.75000000
   0.75000000  0.25000000  0.50000000
   0.50000000  0.25000000  0.75000000
   0.00000000  0.50000000  0.50000000
   0.25000000  0.50000000  0.75000000
   0.25000000  0.75000000  0.50000000
   0.00000000  0.75000000  0.75000000
   0.50000000  0.50000000  0.50000000
   0.75000000  0.50000000  0.75000000
   0.75000000  0.75000000  0.50000000
   0.50000000  0.75000000  0.75000000
 
 position of ions in cartesian coordinates  (Angst):
   0.00000000  0.00000000  0.00000000
   2.02176000  0.00000000  2.02176000
   2.02176000  2.02176000  0.00000000
   0.00000000  2.02176000  2.02176000
   4.04352000  0.00000000  0.00000000
   6.06528000  0.00000000  2.02176000
   6.06528000  2.02176000  0.00000000
   4.04352000  2.02176000  2.02176000
   0.00000000  4.04352000  0.00000000
   2.02176000  4.04352000  2.02176000
   2.02176000  6.06528000  0.00000000
   0.00000000  6.06528000  2.02176000
   4.04352000  4.04352000  0.00000000
   6.06528000  4.04352000  2.02176000
   6.06528000  6.06528000  0.00000000
   4.04352000  6.06528000  2.02176000
   0.00000000  0.00000000  4.04352000
   2.02176000  0.00000000  6.06528000
   2.02176000  2.02176000  4.04352000
   0.00000000  2.02176000  6.06528000
   4.04352000  0.00000000  4.04352000
   6.06528000  0.00000000  6.06528000
   6.06528000  2.02176000  4.04352000
   4.04352000  2.02176000  6.06528000
   0.00000000  4.04352000  4.04352000
   2.02176000  4.04352000  6.06528000
   2.02176000  6.06528000  4.04352000
   0.00000000  6.06528000  6.06528000
   4.04352000  4.04352000  4.04352000
   6.06528000  4.04352000  6.06528000
   6.06528000  6.06528000  4.04352000
   4.04352000  6.06528000  6.06528000
 


--------------------------------------------------------------------------------------------------------


 k-point  1 :  0.25000.25000.2500  plane waves:    6238

 maximum and minimum number of plane-waves per node :    6238   6238

 maximum number of plane-waves:    6238
 maximal index in each direction: 
   IXMAX= 11   IYMAX= 11   IZMAX= 11
   IXMIN=-11   IYMIN=-11   IZMIN=-11

 NGX is ok and might be reduce to  46
 NGY is ok and might be reduce to  46
 NGZ is ok and might be reduce to  46

 serial   3D FFT for wavefunctions
 parallel 3D FFT for charge:
    minimum data exchange during FFTs selected (reduces bandwidth)


 total amount of memory used by VASP on root node  54935. kBytes
========================================================================

   base      :    30000. kBytes
   nonl-proj :     3594. kBytes
   fftplans  :     1413. kBytes
   grid      :    19519. kBytes
   one-center:       98. kBytes
   wavefun   :      311. kBytes
 
 Broyden mixing: mesh for mixing (old mesh)
   NGX = 23   NGY = 23   NGZ = 23
  (NGX  = 96   NGY  = 96   NGZ  = 96)
  gives a total of  12167 points

 initial charge density was supplied:
 charge density of overlapping atoms calculated
 number of electron   96.0000000 magnetization 
 keeping initial charge density in first step


--------------------------------------------------------------------------------------------------------


 Maximum index for augmentation-charges          481 (set IRDMAX)


--------------------------------------------------------------------------------------------------------


 First call to EWALD:  gamma=   0.219
 Maximum number of real-space cells 3x 3x 3
 Maximum number of reciprocal cells 3x 3x 3

    FEWALD:  cpu time    0.02: real time    0.02
   RESPFUN:  cpu time    0.00: real time    0.00


----------------------------------------- Iteration    1(   1)  ---------------------------------------


    POTLOK:  cpu time    0.09: real time    0.09
    SETDIJ:  cpu time    0.01: real time    0.01
    EDDIAG:  cpu time    0.09: real time    0.09
  RMM-DIIS:  cpu time    0.18: real time    0.18
    ORTHCH:  cpu time    0.01: real time    0.01
       DOS:  cpu time    0.00: real time    0.00
    --------------------------------------------
      LOOP:  cpu time    0.37: real time    0.39

 eigenvalue-minimisations  :    96
 total energy-change (2. order) : 0.1468482E+03  (-0.1406094E+04)
 number of electron   96.0000000 magnetization 
 augmentation part    96.0000000 magnetization 

 Free energy of the ion-electron system (eV)
  ---------------------------------------------------
  alpha Z        PSCENC =        -6.50304679
  Ewald energy   TEWEN  =     -2351.17684649
  -1/2 Hartree   DENC   =        -3.26507701
  -exchange  EXHF       =         0.00000000
  -V(xc)+E(xc)   XCENC  =      -839.76929229
  PAW double counting   =      1137.73615723     -115.16745734
  entropy T*S    EENTRO =         0.01114907
  eigenvalues    EBANDS =       611.77862261
  atomic energy  EATOM  =      1713.20396807
  ---------------------------------------------------
  free energy    TOTEN  =       146.84817705 eV

  energy without entropy =      146.83702798  energy(sigma->0) =      146.84446069


--------------------------------------------------------------------------------------------------------




----------------------------------------- Iteration    1(   2)  ---------------------------------------


    EDDIAG:  cpu time    0.09: real time    0.09
  RMM-DIIS:  cpu time    0.17: real time    0.17
    ORTHCH:  cpu time    0.01: real time    0.01
       DOS:  cpu time    0.00: real time    0.00
    --------------------------------------------
      LOOP:  cpu time    0.27: real time    0.27

 eigenvalue-minimisations  :    96
 total energy-change (2. order) :-0.2178302E+03  (-0.1993837E+03)
 number of electron   96.0000000 magnetization 
 augmentation part    96.0000000 magnetization 

 Free energy of the ion-electron system (eV)
  ---------------------------------------------------
  alpha Z        PSCENC =        -6.50304679
  Ewald energy   TEWEN  =     -2351.17684649
  -1/2 Hartree   DENC   =        -3.26507701
  -exchange  EXHF       =         0.00000000
  -V(xc)+E(xc)   XCENC  =      -839.76929229
  PAW double counting   =      1137.73615723     -115.16745734
  entropy T*S    EENTRO =         0.02847413
  eigenvalues    EBANDS =       393.93111203
  atomic energy  EATOM  =      1713.20396807
  ---------------------------------------------------
  free energy    TOTEN  =       -70.98200847 eV

  energy without entropy =      -71.01048260  energy(sigma->0) =      -70.99149985


--------------------------------------------------------------------------------------------------------




----------------------------------------- Iteration    1(   3)  ---------------------------------------


    EDDIAG:  cpu time    0.09: real time    0.09
  RMM-DIIS:  cpu time    0.17: real time    0.17
    ORTHCH:  cpu time    0.01: real time    0.01
       DOS:  cpu time    0.00: real time    0.00
    --------------------------------------------
      LOOP:  cpu time    0.27: real time    0.27

 eigenvalue-minimisations  :    96
 total energy-change (2. order) :-0.3754969E+02  (-0.3149417E+02)
 number of electron   96.0000000 magnetization 
 augmentation part    96.0000000 magnetization 

 Free energy of the ion-electron system (eV)
  ---------------------------------------------------
  alpha Z        PSCENC =        -6.50304679
  Ewald energy   TEWEN  =     -2351.17684649
  -1/2 Hartree   DENC   =        -3.26507701
  -exchange  EXHF       =         0.00000000
  -V(xc)+E(xc)   XCENC  =      -839.76929229
  PAW double counting   =      1137.73615723     -115.16745734
  entropy T*S    EENTRO =        -0.07980445
  eigenvalues    EBANDS =       356.48970022
  atomic energy  EATOM  =      1713.20396807
  ---------------------------------------------------
  free energy    TOTEN  =      -108.53169885 eV

  energy without entropy =     -108.45189441  energy(sigma->0) =     -108.50509737


--------------------------------------------------------------------------------------------------------




----------------------------------------- Iteration    1(   4)  ---------------------------------------


    EDDIAG:  cpu time    0.09: real time    0.09
  RMM-DIIS:  cpu time    0.17: real time    0.17
    ORTHCH:  cpu time    0.01: real time    0.01
       DOS:  cpu time    0.00: real time    0.00
    --------------------------------------------
      LOOP:  cpu time    0.27: real time    0.27

 eigenvalue-minimisations  :    96
 total energy-change (2. order) :-0.8169312E+01  (-0.5443479E+01)
 number of electron   96.0000000 magnetization 
 augmentation part    96.0000000 magnetization 

 Free energy of the ion-electron system (eV)
  ---------------------------------------------------
  alpha Z        PSCENC =        -6.50304679
  Ewald energy   TEWEN  =     -2351.17684649
  -1/2 Hartree   DENC   =        -3.26507701
  -exchange  EXHF       =         0.00000000
  -V(xc)+E(xc)   XCENC  =      -839.76929229
  PAW double counting   =      1137.73615723     -115.16745734
  entropy T*S    EENTRO =        -0.16984679
  eigenvalues    EBANDS =       348.41043081
  atomic energy  EATOM  =      1713.20396807
  ---------------------------------------------------
  free energy    TOTEN  =      -116.70101061 eV

  energy without entropy =     -116.53116382  energy(sigma->0) =     -116.64439501


--------------------------------------------------------------------------------------------------------




----------------------------------------- Iteration    1(   5)  ---------------------------------------


    EDDIAG:  cpu time    0.09: real time    0.09
  RMM-DIIS:  cpu time    0.17: real time    0.17
    ORTHCH:  cpu time    0.01: real time    0.01
       DOS:  cpu time    0.00: real time    0.00
    --------------------------------------------
      LOOP:  cpu time    0.27: real time    0.27

 eigenvalue-minimisations  :    96
 total energy-change (2. order) :-0.1750262E+01  (-0.1023816E+01)
 number of electron   96.0000000 magnetization 
 augmentation part    96.0000000 magnetization 

 Free energy of the ion-electron system (eV)
  ---------------------------------------------------
  alpha Z        PSCENC =        -6.50304679
  Ewald energy   TEWEN  =     -2351.17684649
  -1/2 Hartree   DENC   =        -3.26507701
  -exchange  EXHF       =         0.00000000
  -V(xc)+E(xc)   XCENC  =      -839.76929229
  PAW double counting   =      1137.73615723     -115.16745734
  entropy T*S    EENTRO =        -0.25376408
  eigenvalues    EBANDS =       346.74408562
  atomic energy  EATOM  =      1713.20396807
  ---------------------------------------------------
  free energy    TOTEN  =      -118.45127309 eV

  energy without entropy =     -118.19750901  energy(sigma->0) =     -118.36668506


--------------------------------------------------------------------------------------------------------




----------------------------------------- Iteration    1(   6)  ---------------------------------------


    EDDIAG:  cpu time    0.09: real time    0.09
  RMM-DIIS:  cpu time    0.17: real time    0.17
    ORTHCH:  cpu time    0.01: real time    0.01
       DOS:  cpu time    0.00: real time    0.00
    --------------------------------------------
      LOOP:  cpu time    0.27: real time    0.27

 eigenvalue-minimisations  :    96
 total energy-change (2. order) :-0.3242752E+00  (-0.2145674E+00)
 number of electron   96.0000000 magnetization 
 augmentation part    96.0000000 magnetization 

 Free energy of the ion-electron system (eV)
  ---------------------------------------------------
  alpha Z        PSCENC =        -6.50304679
  Ewald energy   TEWEN  =     -2351.17684649
  -1/2 Hartree   DENC   =        -3.26507701
  -exchange  EXHF       =         0.00000000
  -V(xc)+E(xc)   XCENC  =      -839.76929229
  PAW double counting   =      1137.73615723     -115.16745734
  entropy T*S    EENTRO =        -0.26378779
  eigenvalues    EBANDS =       346.42983412
  atomic energy  EATOM  =      1713.20396807
  ---------------------------------------------------
  free energy    TOTEN  =      -118.77554830 eV

  energy without entropy =     -118.51176051  energy(sigma->0) =     -118.68761904


--------------------------------------------------------------------------------------------------------




----------------------------------------- Iteration    1(   7)  ---------------------------------------


    EDDIAG:  cpu time    0.09: real time    0.09
  RMM-DIIS:  cpu time    0.17: real time    0.17
    ORTHCH:  cpu time    0.01: real time    0.01
       DOS:  cpu time    0.00: real time    0.00
    --------------------------------------------
      LOOP:  cpu time    0.27: real time    0.27

 eigenvalue-minimisations  :    96
 total energy-change (2. order) :-0.5624539E-01  (-0.4399444E-01)
 number of electron   96.0000000 magnetization 
 augmentation part    96.0000000 magnetization 

 Free energy of the ion-electron system (eV)
  ---------------------------------------------------
  alpha Z        PSCENC =        -6.50304679
  Ewald energy   TEWEN  =     -2351.17684649
  -1/2 Hartree   DENC   =        -3.26507701
  -exchange  EXHF       =         0.00000000
  -V(xc)+E(xc)   XCENC  =      -839.76929229
  PAW double counting   =      1137.73615723     -115.16745734
  entropy T*S    EENTRO =        -0.26436249
  eigenvalues    EBANDS =       346.37416342
  atomic energy  EATOM  =      1713.20396807
  ---------------------------------------------------
  free energy    TOTEN  =      -118.83179370 eV

  energy without entropy =     -118.56743121  energy(sigma->0) =     -118.74367287


--------------------------------------------------------------------------------------------------------




----------------------------------------- Iteration    1(   8)  ---------------------------------------


    EDDIAG:  cpu time    0.09: real time    0.09
  RMM-DIIS:  cpu time    0.17: real time    0.17
    ORTHCH:  cpu time    0.01: real time    0.01
       DOS:  cpu time    0.00: real time    0.00
    --------------------------------------------
      LOOP:  cpu time    0.27: real time    0.27

 eigenvalue-minimisations  :    96
 total energy-change (2. order) :-0.1049205E-01  (-0.8882162E-02)
 number of electron   96.0000000 magnetization 
 augmentation part    96.0000000 magnetization 

 Free energy of the ion-electron system (eV)
  ---------------------------------------------------
  alpha Z        PSCENC =        -6.50304679
  Ewald energy   TEWEN  =     -2351.17684649
  -1/2 Hartree   DENC   =        -3.26507701
  -exchange  EXHF       =         0.00000000
  -V(xc)+E(xc)   XCENC  =      -839.76929229
  PAW double counting   =      1137.73615723     -115.16745734
  entropy T*S    EENTRO =        -0.26442083
  eigenvalues    EBANDS =       346.36372971
  atomic energy  EATOM  =      1713.20396807
  ---------------------------------------------------
  free energy    TOTEN  =      -118.84228575 eV

  energy without entropy =     -118.57786492  energy(sigma->0) =     -118.75414547


--------------------------------------------------------------------------------------------------------




----------------------------------------- Iteration    1(   9)  ---------------------------------------


    EDDIAG:  cpu time    0.09: real time    0.09
  RMM-DIIS:  cpu time    0.45: real time    0.45
    ORTHCH:  cpu time    0.01: real time    0.01
       DOS:  cpu time    0.00: real time    0.00
    --------------------------------------------
      LOOP:  cpu time    0.54: real time    0.55

 eigenvalue-minimisations  :   222
 total energy-change (2. order) :-0.2334102E-02  (-0.2129485E-02)
 number of electron   96.0000000 magnetization 
 augmentation part    96.0000000 magnetization 

 Free energy of the ion-electron system (eV)
  ---------------------------------------------------
  alpha Z        PSCENC =        -6.50304679
  Ewald energy   TEWEN  =     -2351.17684649
  -1/2 Hartree   DENC   =        -3.26507701
  -exchange  EXHF       =         0.00000000
  -V(xc)+E(xc)   XCENC  =      -839.76929229
  PAW double counting   =      1137.73615723     -115.16745734
  entropy T*S    EENTRO =        -0.26443023
  eigenvalues    EBANDS =       346.36140500
  atomic energy  EATOM  =      1713.20396807
  ---------------------------------------------------
  free energy    TOTEN  =      -118.84461985 eV

  energy without entropy =     -118.58018963  energy(sigma->0) =     -118.75647645


--------------------------------------------------------------------------------------------------------




----------------------------------------- Iteration    1(  10)  ---------------------------------------


    EDDIAG:  cpu time    0.08: real time    0.09
  RMM-DIIS:  cpu time    0.41: real time    0.41
    ORTHCH:  cpu time    0.01: real time    0.01
       DOS:  cpu time    0.00: real time    0.00
    --------------------------------------------
      LOOP:  cpu time    0.50: real time    0.51

 eigenvalue-minimisations  :   192
 total energy-change (2. order) :-0.1747292E-03  (-0.1327155E-03)
 number of electron   96.0000000 magnetization 
 augmentation part    96.0000000 magnetization 

 Free energy of the ion-electron system (eV)
  ---------------------------------------------------
  alpha Z        PSCENC =        -6.50304679
  Ewald energy   TEWEN  =     -2351.17684649
  -1/2 Hartree   DENC   =        -3.26507701
  -exchange  EXHF       =         0.00000000
  -V(xc)+E(xc)   XCENC  =      -839.76929229
  PAW double counting   =      1137.73615723     -115.16745734
  entropy T*S    EENTRO =        -0.26443074
  eigenvalues    EBANDS =       346.36123079
  atomic energy  EATOM  =      1713.20396807
  ---------------------------------------------------
  free energy    TOTEN  =      -118.84479458 eV

  energy without entropy =     -118.58036384  energy(sigma->0) =     -118.75665100


--------------------------------------------------------------------------------------------------------




----------------------------------------- Iteration    1(  11)  ---------------------------------------


    EDDIAG:  cpu time    0.09: real time    0.09
  RMM-DIIS:  cpu time    0.43: real time    0.43
    ORTHCH:  cpu time    0.01: real time    0.01
       DOS:  cpu time    0.00: real time    0.00
    --------------------------------------------
      LOOP:  cpu time    0.52: real time    0.53

 eigenvalue-minimisations  :   170
 total energy-change (2. order) :-0.4200154E-05  (-0.3529985E-05)
 number of electron   96.0000000 magnetization 
 augmentation part    96.0000000 magnetization 

 Free energy of the ion-electron system (eV)
  ---------------------------------------------------
  alpha Z        PSCENC =        -6.50304679
  Ewald energy   TEWEN  =     -2351.17684649
  -1/2 Hartree   DENC   =        -3.26507701
  -exchange  EXHF       =         0.00000000
  -V(xc)+E(xc)   XCENC  =      -839.76929229
  PAW double counting   =      1137.73615723     -115.16745734
  entropy T*S    EENTRO =        -0.26443073
  eigenvalues    EBANDS =       346.36122658
  atomic energy  EATOM  =      1713.20396807
  ---------------------------------------------------
  free energy    TOTEN  =      -118.84479878 eV

  energy without entropy =     -118.58036805  energy(sigma->0) =     -118.75665521


--------------------------------------------------------------------------------------------------------




----------------------------------------- Iteration    1(  12)  ---------------------------------------


    EDDIAG:  cpu time    0.09: real time    0.09
  RMM-DIIS:  cpu time    0.36: real time    0.36
    ORTHCH:  cpu time    0.01: real time    0.01
       DOS:  cpu time    0.00: real time    0.00
    CHARGE:  cpu time    0.31: real time    0.31
    MIXING:  cpu time    0.00: real time    0.00
    --------------------------------------------
      LOOP:  cpu time    0.78: real time    0.78

 eigenvalue-minimisations  :   140
 total energy-change (2. order) :-0.1018904E-05  (-0.9988032E-06)
 number of electron   95.9999991 magnetization 
 augmentation part    -1.1527543 magnetization 

 Broyden mixing:
  rms(total) = 0.53893E+00    rms(broyden)= 0.53890E+00
  rms(prec ) = 0.77608E+00
  weight for this iteration     100.00

 Free energy of the ion-electron system (eV)
  ---------------------------------------------------
  alpha Z        PSCENC =        -6.50304679
  Ewald energy   TEWEN  =     -2351.17684649
  -1/2 Hartree   DENC   =        -3.26507701
  -exchange  EXHF       =         0.00000000
  -V(xc)+E(xc)   XCENC  =      -839.76929229
  PAW double counting   =      1137.73615723     -115.16745734
  entropy T*S    EENTRO =        -0.26443073
  eigenvalues    EBANDS =       346.36122556
  atomic energy  EATOM  =      1713.20396807
  ---------------------------------------------------
  free energy    TOTEN  =      -118.84479980 eV

  energy without entropy =     -118.58036907  energy(sigma->0) =     -118.75665622


--------------------------------------------------------------------------------------------------------




----------------------------------------- Iteration    1(  13)  ---------------------------------------


    POTLOK:  cpu time    0.06: real time    0.06
    SETDIJ:  cpu time    0.01: real time    0.01
    EDDIAG:  cpu time    0.09: real time    0.09
  RMM-DIIS:  cpu time    0.43: real time    0.44
    ORTHCH:  cpu time    0.01: real time    0.01
       DOS:  cpu time    0.00: real time    0.00
    CHARGE:  cpu time    0.30: real time    0.30
    MIXING:  cpu time    0.00: real time    0.00
    --------------------------------------------
      LOOP:  cpu time    0.90: real time    0.90

 eigenvalue-minimisations  :   213
 total energy-change (2. order) : 0.3970768E+00  (-0.3971732E-02)
 number of electron   95.9999991 magnetization 
 augmentation part    -1.1681132 magnetization 

 Broyden mixing:
  rms(total) = 0.33556E+00    rms(broyden)= 0.33556E+00
  rms(prec ) = 0.48516E+00
  weight for this iteration     100.00

 eigenvalues of (default mixing * dielectric matrix)
  average eigenvalue GAMMA=   2.6412
  2.6412

 Free energy of the ion-electron system (eV)
  ---------------------------------------------------
  alpha Z        PSCENC =        -6.50304679
  Ewald energy   TEWEN  =     -2351.17684649
  -1/2 Hartree   DENC   =        -2.81448449
  -exchange  EXHF       =         0.00000000
  -V(xc)+E(xc)   XCENC  =      -838.64955219
  PAW double counting   =      1139.57918769     -117.13421812
  entropy T*S    EENTRO =        -0.26386843
  eigenvalues    EBANDS =       345.31113777
  atomic energy  EATOM  =      1713.20396807
  ---------------------------------------------------
  free energy    TOTEN  =      -118.44772298 eV

  energy without entropy =     -118.18385455  energy(sigma->0) =     -118.35976684


--------------------------------------------------------------------------------------------------------




----------------------------------------- Iteration    1(  14)  ---------------------------------------


    POTLOK:  cpu time    0.06: real time    0.06
    SETDIJ:  cpu time    0.01: real time    0.01
    EDDIAG:  cpu time    0.09: real time    0.09
  RMM-DIIS:  cpu time    0.43: real time    0.43
    ORTHCH:  cpu time    0.01: real time    0.01
       DOS:  cpu time    0.00: real time    0.00
    CHARGE:  cpu time    0.28: real time    0.28
    MIXING:  cpu time    0.00: real time    0.00
    --------------------------------------------
      LOOP:  cpu time    0.87: real time    0.88

 eigenvalue-minimisations  :   207
 total energy-change (2. order) : 0.2991351E+00  (-0.1350768E-01)
 number of electron   95.9999991 magnetization 
 augmentation part    -1.1992336 magnetization 

 Broyden mixing:
  rms(total) = 0.13591E-01    rms(broyden)= 0.13588E-01
  rms(prec ) = 0.15870E-01
  weight for this iteration     100.00

 eigenvalues of (default mixing * dielectric matrix)
  average eigenvalue GAMMA=   2.4975
  2.4975  2.4975

 Free energy of the ion-electron system (eV)
  ---------------------------------------------------
  alpha Z        PSCENC =        -6.50304679
  Ewald energy   TEWEN  =     -2351.17684649
  -1/2 Hartree   DENC   =        -3.52266929
  -exchange  EXHF       =         0.00000000
  -V(xc)+E(xc)   XCENC  =      -836.31513507
  PAW double counting   =      1141.94168615     -119.75120794
  entropy T*S    EENTRO =        -0.26340438
  eigenvalues    EBANDS =       344.23806782
  atomic energy  EATOM  =      1713.20396807
  ---------------------------------------------------
  free energy    TOTEN  =      -118.14858792 eV

  energy without entropy =     -117.88518355  energy(sigma->0) =     -118.06078647


--------------------------------------------------------------------------------------------------------




----------------------------------------- Iteration    1(  15)  ---------------------------------------


    POTLOK:  cpu time    0.06: real time    0.06
    SETDIJ:  cpu time    0.01: real time    0.01
    EDDIAG:  cpu time    0.09: real time    0.09
  RMM-DIIS:  cpu time    0.43: real time    0.43
    ORTHCH:  cpu time    0.01: real time    0.01
       DOS:  cpu time    0.00: real time    0.00
    CHARGE:  cpu time    0.28: real time    0.28
    MIXING:  cpu time    0.00: real time    0.00
    --------------------------------------------
      LOOP:  cpu time    0.88: real time    0.88

 eigenvalue-minimisations  :   216
 total energy-change (2. order) :-0.2987642E-03  (-0.1692364E-03)
 number of electron   95.9999991 magnetization 
 augmentation part    -1.2039052 magnetization 

 Broyden mixing:
  rms(total) = 0.36348E-02    rms(broyden)= 0.36341E-02
  rms(prec ) = 0.49472E-02
  weight for this iteration     100.00

 eigenvalues of (default mixing * dielectric matrix)
  average eigenvalue GAMMA=   2.0811
  1.0210  2.5412  2.6811

 Free energy of the ion-electron system (eV)
  ---------------------------------------------------
  alpha Z        PSCENC =        -6.50304679
  Ewald energy   TEWEN  =     -2351.17684649
  -1/2 Hartree   DENC   =        -3.56499579
  -exchange  EXHF       =         0.00000000
  -V(xc)+E(xc)   XCENC  =      -836.27440337
  PAW double counting   =      1142.73807883     -120.60039066
  entropy T*S    EENTRO =        -0.26342973
  eigenvalues    EBANDS =       344.29217924
  atomic energy  EATOM  =      1713.20396807
  ---------------------------------------------------
  free energy    TOTEN  =      -118.14888669 eV

  energy without entropy =     -117.88545696  energy(sigma->0) =     -118.06107678


--------------------------------------------------------------------------------------------------------




----------------------------------------- Iteration    1(  16)  ---------------------------------------


    POTLOK:  cpu time    0.07: real time    0.07
    SETDIJ:  cpu time    0.01: real time    0.01
    EDDIAG:  cpu time    0.09: real time    0.09
  RMM-DIIS:  cpu time    0.35: real time    0.35
    ORTHCH:  cpu time    0.01: real time    0.01
       DOS:  cpu time    0.00: real time    0.00
    --------------------------------------------
      LOOP:  cpu time    0.52: real time    0.86

 eigenvalue-minimisations  :   141
 total energy-change (2. order) :-0.1300456E-04  (-0.3431954E-05)
 number of electron   95.9999991 magnetization 
 augmentation part    -1.2039052 magnetization 

 Free energy of the ion-electron system (eV)
  ---------------------------------------------------
  alpha Z        PSCENC =        -6.50304679
  Ewald energy   TEWEN  =     -2351.17684649
  -1/2 Hartree   DENC   =        -3.59427340
  -exchange  EXHF       =         0.00000000
  -V(xc)+E(xc)   XCENC  =      -836.23746650
  PAW double counting   =      1142.86802501     -120.74750897
  entropy T*S    EENTRO =        -0.26343483
  eigenvalues    EBANDS =       344.30168421
  atomic energy  EATOM  =      1713.20396807
  ---------------------------------------------------
  free energy    TOTEN  =      -118.14889969 eV

  energy without entropy =     -117.88546486  energy(sigma->0) =     -118.06108808


--------------------------------------------------------------------------------------------------------




 average (electrostatic) potential at core
  the test charge radii are     1.0406
  (the norm of the test charge is              1.0000)
       1 -72.6373       2 -72.6373       3 -72.6373       4 -72.6373       5 -72.6373
       6 -72.6373       7 -72.6373       8 -72.6373       9 -72.6373      10 -72.6373
      11 -72.6373      12 -72.6373      13 -72.6373      14 -72.6373      15 -72.6373
      16 -72.6373      17 -72.6373      18 -72.6373      19 -72.6373      20 -72.6373
      21 -72.6373      22 -72.6373      23 -72.6373      24 -72.6373      25 -72.6373
      26 -72.6373      27 -72.6373      28 -72.6373      29 -72.6373      30 -72.6373
      31 -72.6373      32 -72.6373
 
 
 
 E-fermi :   8.1278     XC(G=0): -10.1886     alpha+bet :-14.8512
   add alpha+bet to get absolut eigen values

 k-point   1 :       0.2500    0.2500    0.2500
  band No.  band energies     occupation 
      1      -2.7133      2.00000
      2      -1.5892      2.00000
      3      -1.5892      2.00000
      4      -1.5892      2.00000
      5      -0.4740      2.00000
      6      -0.4740      2.00000
      7      -0.4740      2.00000
      8       0.6318      2.00000
      9       0.6318      2.00000
     10       0.6318      2.00000
     11       0.6332      2.00000
     12       1.7299      2.00000
     13       1.7299      2.00000
     14       1.7299      2.00000
     15       1.7299      2.00000
     16       1.7299      2.00000
     17       1.7299      2.00000
     18       2.8185      2.00000
     19       2.8185      2.00000
     20       2.8185      2.00000
     21       3.8623      2.00000
     22       3.8623      2.00000
     23       3.8623      2.00000
     24       3.8970      2.00000
     25       3.8970      2.00000
     26       3.8970      2.00000
     27       4.9284      2.00000
     28       4.9284      2.00000
     29       4.9284      2.00000
     30       4.9284      2.00000
     31       4.9284      2.00000
     32       4.9284      2.00000
     33       4.9913      2.00000
     34       4.9913      2.00000
     35       4.9913      2.00000
     36       6.0130      2.00000
     37       6.0130      2.00000
     38       6.0130      2.00000
     39       7.0600      2.00000
     40       7.0600      2.00000
     41       7.0600      2.00000
     42       7.0600      2.00000
     43       7.0600      2.00000
     44       7.0600      2.00000
     45       7.1223      2.00000
     46       8.1237      1.03484
     47       8.1237      1.03484
     48       8.1237      1.03484
     49       8.1237      1.03484
     50       8.1237      1.03484
     51       8.1237      1.03484
     52       8.3605     -0.06967
     53       8.3605     -0.06967
     54       8.3605     -0.06967
     55       9.4443      0.00000
     56       9.4443      0.00000
     57       9.4443      0.00000
     58       9.4443      0.00000
     59       9.4443      0.00000
     60       9.4443      0.00000
     61      10.1996      0.00000
     62      10.1996      0.00000
     63      10.1996      0.00000
     64      10.2231      0.00000
     65      10.2231      0.00000
     66      10.2231      0.00000
     67      10.5194      0.00000
     68      10.5194      0.00000
     69      10.5194      0.00000
     70      11.2104      0.00000
     71      11.2104      0.00000
     72      11.2104      0.00000
     73      11.6088      0.00000
     74      11.6088      0.00000
     75      11.6088      0.00000
     76      11.6088      0.00000
     77      11.6088      0.00000
     78      11.6088      0.00000
     79      12.5643      0.00000
     80      12.5643      0.00000
     81      12.5643      0.00000
     82      12.5643      0.00000
     83      12.5643      0.00000
     84      12.5643      0.00000
     85      13.2892      0.00000
     86      13.2892      0.00000
     87      13.2892      0.00000
     88      13.5716      0.00000
     89      13.5716      0.00000
     90      13.5716      0.00000
     91      13.9364      0.00000
     92      13.9370      0.00000
     93      13.9406      0.00000
     94      14.6102      0.00000
     95      14.6178      0.00000
     96      14.6428      0.00000


--------------------------------------------------------------------------------------------------------


 soft charge-density along one line, spin component           1
         0         1         2         3         4         5         6         7         8         9
 total charge-density along one line
 
 pseudopotential strength for first ion, spin component:           1
  8.445  -0.006   0.000   0.000   0.000   0.000   0.000   0.000
 -0.006   0.000   0.000   0.000   0.000   0.000   0.000   0.000
  0.000   0.000   1.988   0.000   0.000  -0.027   0.000   0.000
  0.000   0.000   0.000   1.988   0.000   0.000  -0.027   0.000
  0.000   0.000   0.000   0.000   1.988   0.000   0.000  -0.027
  0.000   0.000  -0.027   0.000   0.000  -0.012   0.000   0.000
  0.000   0.000   0.000  -0.027   0.000   0.000  -0.012   0.000
  0.000   0.000   0.000   0.000  -0.027   0.000   0.000  -0.012
 total augmentation occupancy for first ion, spin component:           1
  1.315  -0.509   0.000   0.000   0.000   0.000   0.000   0.000
 -0.509   0.491   0.000   0.000   0.000   0.000   0.000   0.000
  0.000   0.000   0.737   0.000   0.000  -0.181   0.000   0.000
  0.000   0.000   0.000   0.737   0.000   0.000  -0.181   0.000
  0.000   0.000   0.000   0.000   0.737   0.000   0.000  -0.181
  0.000   0.000  -0.181   0.000   0.000   0.050   0.000   0.000
  0.000   0.000   0.000  -0.181   0.000   0.000   0.050   0.000
  0.000   0.000   0.000   0.000  -0.181   0.000   0.000   0.050


------------------------ aborting loop because EDIFF is reached ----------------------------------------




--------------------------------------------------------------------------------------------------------



  FREE ENERGIE OF THE ION-ELECTRON SYSTEM (eV)
  ---------------------------------------------------
  free  energy   TOTEN  =      -118.148900 eV

  energy  without entropy=     -117.885465  energy(sigma->0) =     -118.061088
 
    CHARGE:  cpu time    0.28: real time    0.28
    FORLOC:  cpu time    0.01: real time    0.01
    FORNL :  cpu time    0.14: real time    0.14
    STRESS:  cpu time    0.23: real time    0.23
    FORCOR:  cpu time    0.06: real time    0.06
    FORHAR:  cpu time    0.03: real time    0.03
    MIXING:  cpu time    0.00: real time    0.00

  FORCE on cell =-STRESS in cart. coord.  units (eV):
  Direction    XX          YY          ZZ          XY          YZ          ZX
  --------------------------------------------------------------------------------------
  Alpha Z    -6.50305    -6.50305    -6.50305
  Ewald    -783.72888  -783.72888  -783.72888     0.00000     0.00000     0.00000
  Hartree     1.19849     1.19849     1.19849     0.00000     0.00000     0.00000
  E(xc)    -274.05986  -274.05986  -274.05986     0.00000     0.00000     0.00000
  Local      10.53322    10.53322    10.53322     0.00000     0.00000     0.00000
  n-local   603.28819   603.28823   603.28817    -0.63190    -0.63192    -0.63185
  augment   -32.12736   -32.12736   -32.12736     0.00000     0.00000     0.00000
  Kinetic   481.42161   481.42163   481.42160    -8.56150    -8.56151    -8.56149
  Fock        0.00000     0.00000     0.00000     0.00000     0.00000     0.00000
  -------------------------------------------------------------------------------------
  Total       0.02238     0.02238     0.02238     0.00000     0.00000     0.00000
  in kB       0.06780     0.06780     0.06780     0.00000     0.00000     0.00000
  external pressure =        0.07 kB  Pullay stress =        0.00 kB


 VOLUME and BASIS-vectors are now :
 -----------------------------------------------------------------------------
  energy-cutoff  :      300.00
  volume of cell :      528.89
      direct lattice vectors                 reciprocal lattice vectors
     8.087040000  0.000000000  0.000000000     0.123654638  0.000000000  0.000000000
     0.000000000  8.087040000  0.000000000     0.000000000  0.123654638  0.000000000
     0.000000000  0.000000000  8.087040000     0.000000000  0.000000000  0.123654638

  length of vectors
     8.087040000  8.087040000  8.087040000     0.123654638  0.123654638  0.123654638


 FORCES acting on ions
    electron-ion (+dipol)            ewald-force                    non-local-force                 convergence-correction
 -----------------------------------------------------------------------------------------------
   -.277E-14 0.208E-14 0.542E-14   -.528E-14 0.161E-14 0.511E-14   -.496E-23 0.261E-22 -.165E-23   0.159E-13 -.579E-14 -.262E-13
   -.842E-14 -.646E-13 0.876E-13   -.538E-14 0.244E-14 -.469E-14   0.207E-23 0.910E-23 -.982E-23   -.259E-13 -.141E-13 0.358E-13
   -.865E-14 0.471E-13 -.462E-13   -.361E-14 0.214E-14 0.933E-14   0.744E-23 -.703E-23 -.124E-23   -.114E-13 0.341E-13 -.447E-13
   -.133E-14 -.430E-14 -.240E-14   -.527E-14 0.433E-14 -.579E-14   -.662E-23 -.310E-23 -.331E-23   -.768E-14 0.471E-13 0.378E-13
   -.108E-13 -.134E-12 -.427E-12   -.543E-14 0.344E-14 0.161E-14   -.662E-23 -.248E-22 -.869E-23   -.160E-13 -.114E-13 -.602E-13
   -.137E-13 -.809E-13 0.102E-12   -.194E-14 0.600E-14 -.875E-14   -.112E-22 -.248E-23 0.108E-22   0.260E-13 -.266E-13 0.612E-13
   -.144E-13 0.203E-12 -.251E-13   -.194E-14 -.318E-14 0.244E-14   0.165E-22 -.781E-23 0.145E-22   0.115E-13 0.623E-13 -.323E-13
   -.649E-14 0.242E-12 0.248E-12   -.184E-14 -.763E-16 -.374E-14   -.227E-23 -.108E-22 0.108E-22   0.760E-14 0.738E-13 0.509E-13
   -.345E-14 -.110E-13 -.170E-14   -.363E-15 0.483E-14 0.466E-14   -.207E-24 0.538E-23 -.517E-23   -.116E-13 0.351E-14 -.649E-14
   -.738E-14 0.356E-13 -.536E-13   -.555E-16 -.244E-14 0.752E-14   -.460E-23 -.827E-24 -.972E-23   -.120E-15 0.116E-13 0.366E-13
   -.862E-14 -.586E-13 -.924E-14   0.189E-14 -.637E-14 0.339E-14   -.124E-23 0.910E-23 -.130E-22   -.665E-14 -.318E-13 -.236E-13
   -.219E-14 -.174E-13 -.470E-14   -.562E-14 -.730E-14 0.198E-14   -.962E-23 0.182E-22 -.150E-23   -.196E-13 -.449E-13 0.376E-13
   -.836E-14 0.125E-12 -.720E-14   -.317E-14 -.344E-14 -.144E-13   -.163E-22 -.120E-22 0.207E-24   0.112E-13 0.729E-14 -.147E-13
   -.142E-13 -.825E-13 -.482E-13   0.316E-14 -.844E-14 0.108E-13   -.108E-22 0.314E-22 0.290E-23   0.521E-15 0.227E-13 0.429E-13
   -.163E-13 -.128E-12 0.992E-13   0.167E-14 -.720E-14 -.550E-14   0.217E-22 0.367E-23 0.827E-23   0.695E-14 -.582E-13 -.463E-14
   -.883E-14 0.666E-13 -.369E-14   0.545E-14 -.109E-13 0.723E-14   0.827E-24 0.703E-23 -.145E-22   0.193E-13 -.695E-13 0.504E-13
   -.104E-14 -.329E-14 -.668E-14   -.181E-14 0.114E-13 -.377E-14   -.160E-22 0.145E-22 -.141E-22   -.933E-14 -.539E-14 0.242E-13
   -.933E-14 0.214E-13 -.146E-13   -.344E-14 0.522E-14 0.333E-14   -.827E-24 -.129E-22 0.141E-22   0.650E-14 0.721E-14 -.325E-13
   -.683E-14 -.152E-13 0.214E-13   -.555E-16 0.559E-14 -.555E-14   0.786E-23 0.194E-22 0.331E-23   0.353E-15 0.352E-13 0.417E-13
   -.199E-14 -.692E-14 -.122E-13   -.400E-14 0.721E-14 0.599E-14   0.476E-23 0.269E-22 0.157E-22   0.491E-14 0.275E-13 -.360E-13
   -.828E-14 -.379E-13 0.153E-12   -.524E-14 0.522E-14 -.872E-14   0.186E-22 0.724E-23 0.124E-23   0.934E-14 -.107E-13 0.552E-13
   -.124E-13 0.548E-13 -.177E-12   0.344E-14 0.877E-14 0.161E-14   -.496E-23 0.182E-22 -.703E-23   -.647E-14 0.121E-14 -.577E-13
   -.109E-13 -.703E-13 -.651E-13   -.389E-15 0.541E-14 -.311E-14   0.132E-22 -.827E-23 -.290E-23   -.262E-15 0.439E-13 0.290E-13
   -.708E-14 -.395E-13 0.264E-13   0.402E-15 0.195E-14 0.133E-14   -.496E-23 0.496E-23 -.124E-23   -.496E-14 0.284E-13 -.465E-13
   -.130E-14 -.654E-14 -.431E-14   -.501E-15 0.572E-14 0.444E-15   0.409E-22 -.248E-23 0.122E-22   -.180E-13 0.409E-14 0.539E-14
   -.808E-14 -.592E-13 0.567E-13   0.189E-14 0.111E-15 -.422E-14   -.120E-22 0.331E-23 0.244E-22   0.718E-14 -.863E-14 -.346E-13
   -.520E-14 0.514E-13 -.368E-13   0.544E-14 -.281E-14 -.161E-14   0.281E-22 -.775E-24 -.827E-24   0.518E-14 -.335E-13 0.213E-13
   -.165E-14 -.200E-13 -.168E-13   -.192E-14 -.543E-14 -.194E-14   -.827E-24 0.108E-22 -.496E-23   -.800E-15 -.261E-13 -.364E-13
   -.716E-14 -.764E-13 -.484E-13   0.371E-14 -.167E-14 0.372E-14   0.786E-23 0.153E-22 0.116E-22   0.177E-13 0.819E-14 0.118E-13
   -.138E-13 0.381E-13 0.953E-13   0.877E-14 0.189E-14 -.905E-14   0.108E-22 -.149E-22 0.827E-23   -.680E-14 -.345E-14 -.412E-13
   -.129E-13 0.163E-13 0.470E-13   0.877E-14 -.542E-14 0.550E-14   -.244E-22 -.165E-23 0.496E-23   -.488E-14 -.418E-13 0.261E-14
   -.937E-14 -.127E-12 0.465E-13   0.721E-14 -.902E-14 -.727E-14   0.174E-22 -.112E-22 0.496E-23   0.518E-15 -.260E-13 -.472E-13
 -----------------------------------------------------------------------------------------------
   -.253E-12 -.140E-12 -.228E-13   -.546E-14 0.961E-14 -.121E-13   0.598E-22 0.109E-21 0.484E-22   0.251E-15 0.178E-15 -.308E-15
 
 
 POSITION                                       TOTAL-FORCE (eV/Angst)
 -----------------------------------------------------------------------------------
      0.00000      0.00000      0.00000         0.000000      0.000000      0.000000
      2.02176      0.00000      2.02176         0.000000      0.000000      0.000000
      2.02176      2.02176      0.00000         0.000000      0.000000      0.000000
      0.00000      2.02176      2.02176         0.000000      0.000000      0.000000
      4.04352      0.00000      0.00000         0.000000      0.000000      0.000000
      6.06528      0.00000      2.02176         0.000000      0.000000      0.000000
      6.06528      2.02176      0.00000         0.000000      0.000000      0.000000
      4.04352      2.02176      2.02176         0.000000      0.000000      0.000000
      0.00000      4.04352      0.00000         0.000000      0.000000      0.000000
      2.02176      4.04352      2.02176         0.000000      0.000000      0.000000
      2.02176      6.06528      0.00000         0.000000      0.000000      0.000000
      0.00000      6.06528      2.02176         0.000000      0.000000      0.000000
      4.04352      4.04352      0.00000         0.000000      0.000000      0.000000
      6.06528      4.04352      2.02176         0.000000      0.000000      0.000000
      6.06528      6.06528      0.00000         0.000000      0.000000      0.000000
      4.04352      6.06528      2.02176         0.000000      0.000000      0.000000
      0.00000      0.00000      4.04352         0.000000      0.000000      0.000000
      2.02176      0.00000      6.06528         0.000000      0.000000      0.000000
      2.02176      2.02176      4.04352         0.000000      0.000000      0.000000
      0.00000      2.02176      6.06528         0.000000      0.000000      0.000000
      4.04352      0.00000      4.04352         0.000000      0.000000      0.000000
      6.06528      0.00000      6.06528         0.000000      0.000000      0.000000
      6.06528      2.02176      4.04352         0.000000      0.000000      0.000000
      4.04352      2.02176      6.06528         0.000000      0.000000      0.000000
      0.00000      4.04352      4.04352         0.000000      0.000000      0.000000
      2.02176      4.04352      6.06528         0.000000      0.000000      0.000000
      2.02176      6.06528      4.04352         0.000000      0.000000      0.000000
      0.00000      6.06528      6.06528         0.000000      0.000000      0.000000
      4.04352      4.04352      4.04352         0.000000      0.000000      0.000000
      6.06528      4.04352      6.06528         0.000000      0.000000      0.000000
      6.06528      6.06528      4.04352         0.000000      0.000000      0.000000
      4.04352      6.06528      6.06528         0.000000      0.000000      0.000000
 -----------------------------------------------------------------------------------
    total drift:                                0.000000      0.000000      0.000000


--------------------------------------------------------------------------------------------------------


    POTLOK:  cpu time    0.06: real time    0.07


--------------------------------------------------------------------------------------------------------


  FORCES: max atom, RMS     0.000000    0.000000
  FORCE total and by dimension    0.000000    0.000000
     LOOP+:  cpu time   10.12: real time   10.74
    4ORBIT:  cpu time    0.00: real time    0.00

 total amount of memory used by VASP on root node  54935. kBytes
========================================================================

   base      :    30000. kBytes
   nonl-proj :     3594. kBytes
   fftplans  :     1413. kBytes
   grid      :    19519. kBytes
   one-center:       98. kBytes
   wavefun   :      311. kBytes
 
  
  
 General timing and accounting informations for this job:
 ========================================================
  
                  Total CPU time used (sec):       13.179
                            User time (sec):       12.541
                          System time (sec):        0.638
                         Elapsed time (sec):       16.231
  
                   Maximum memory used (kb):           0.
                   Average memory used (kb):           0.
  
                          Minor page faults:        26611
                          Major page faults:            0
                 Voluntary context switches:         4938
