<?xml version="1.0" encoding="ISO-8859-1"?>
<modeling>
 <generator>
  <i name="program" type="string">vasp </i>
  <i name="version" type="string">5.2.2  </i>
  <i name="subversion" type="string">15Apr09 complex  parallel </i>
  <i name="platform" type="string">LinuxIFC </i>
  <i name="date" type="string">2016 12 16 </i>
  <i name="time" type="string">15:54:55 </i>
 </generator>
 <incar>
  <i type="string" name="PREC">accurate</i>
  <i type="int" name="IALGO">    48</i>
  <i type="int" name="IBRION">    -1</i>
  <i name="EDIFFG">      0.05000000</i>
  <i type="int" name="NSW">     0</i>
  <i type="int" name="ISIF">     2</i>
  <i name="ENCUT">    300.00000000</i>
  <i type="int" name="ISMEAR">     1</i>
  <i name="SIGMA">      0.20000000</i>
  <i type="logical" name="LWAVE"> F  </i>
  <i type="logical" name="LCHARG"> T  </i>
  <i type="logical" name="LPEAD"> F  </i>
  <i type="logical" name="LCALCPOL"> F  </i>
  <i type="logical" name="LCALCEPS"> F  </i>
  <v name="EFIELD_PEAD">      0.00000000      0.00000000      0.00000000</v>
  <i type="logical" name="LEFG"> F  </i>
 </incar>
 <kpoints>
  <generation param="Monkhorst-Pack">
   <v type="int" name="divisions">       2        2        2 </v>
   <v name="usershift">      0.00000000       0.00000000       0.00000000 </v>
   <v name="genvec1">      0.50000000       0.00000000       0.00000000 </v>
   <v name="genvec2">      0.00000000       0.50000000       0.00000000 </v>
   <v name="genvec3">      0.00000000       0.00000000       0.50000000 </v>
   <v name="shift">      0.50000000       0.50000000       0.50000000 </v>
  </generation>
  <varray name="kpointlist" >
   <v>       0.25000000       0.25000000       0.25000000 </v>
  </varray>
  <varray name="weights" >
   <v>       1.00000000 </v>
  </varray>
 </kpoints>
 <parameters>
  <separator name="general" >
   <i type="string" name="SYSTEM">unknown system</i>
   <i type="logical" name="LCOMPAT"> F  </i>
  </separator>
  <separator name="electronic" >
   <i type="string" name="PREC">accura</i>
   <i name="ENMAX">    300.00000000</i>
   <i name="ENAUG">    291.05200000</i>
   <i name="EDIFF">      0.00010000</i>
   <i type="int" name="IALGO">    48</i>
   <i type="int" name="IWAVPR">    10</i>
   <i type="int" name="NBANDS">    96</i>
   <i name="NELECT">     96.00000000</i>
   <separator name="electronic smearing" >
    <i type="int" name="ISMEAR">     1</i>
    <i name="SIGMA">      0.20000000</i>
   </separator>
   <separator name="electronic projectors" >
    <i type="logical" name="LREAL"> F  </i>
    <v name="ROPT">      0.00000000</v>
    <i type="int" name="LMAXPAW">  -100</i>
    <i type="int" name="LMAXMIX">     2</i>
   </separator>
   <separator name="electronic startup" >
    <i type="int" name="ISTART">     0</i>
    <i type="int" name="ICHARG">     2</i>
    <i type="int" name="INIWAV">     1</i>
   </separator>
   <separator name="electronic spin" >
    <i type="int" name="ISPIN">     1</i>
    <i type="logical" name="LNONCOLLINEAR"> F  </i>
    <v name="MAGMOM">      1.00000000      1.00000000      1.00000000      1.00000000      1.00000000      1.00000000      1.00000000      1.00000000      1.00000000      1.00000000      1.00000000      1.00000000      1.00000000      1.00000000      1.00000000      1.00000000      1.00000000      1.00000000      1.00000000      1.00000000
      1.00000000      1.00000000      1.00000000      1.00000000      1.00000000      1.00000000      1.00000000      1.00000000      1.00000000      1.00000000      1.00000000      1.00000000</v>
    <i name="NUPDOWN">     -1.00000000</i>
    <i type="logical" name="LSORBIT"> F  </i>
    <v name="SAXIS">      0.00000000      0.00000000      1.00000000</v>
    <i type="logical" name="LSPIRAL"> F  </i>
    <v name="QSPIRAL">      0.00000000      0.00000000      0.00000000</v>
    <i type="logical" name="LZEROZ"> F  </i>
   </separator>
   <separator name="electronic exchange-correlation" >
    <i type="logical" name="LASPH"> F  </i>
    <i type="logical" name="LMETAGGA"> F  </i>
   </separator>
   <separator name="electronic convergence" >
    <i type="int" name="NELM">    60</i>
    <i type="int" name="NELMDL">   -12</i>
    <i type="int" name="NELMIN">     2</i>
    <i name="ENINI">    300.00000000</i>
    <separator name="electronic convergence detail" >
     <i type="logical" name="LDIAG"> T  </i>
     <i name="WEIMIN">      0.00000000</i>
     <i name="EBREAK">      0.00000038</i>
     <i name="DEPER">      0.30000000</i>
     <i type="int" name="NRMM">     4</i>
     <i name="TIME">      0.40000000</i>
    </separator>
   </separator>
   <separator name="electronic mixer" >
    <i name="AMIX">      0.40000000</i>
    <i name="BMIX">      1.00000000</i>
    <i name="AMIN">      0.10000000</i>
    <i name="AMIX_MAG">      1.60000000</i>
    <i name="BMIX_MAG">      1.00000000</i>
    <separator name="electronic mixer details" >
     <i type="int" name="IMIX">     4</i>
     <i type="int" name="MAXMIX">   -45</i>
     <i name="WC">    100.00000000</i>
     <i type="int" name="INIMIX">     1</i>
     <i type="int" name="MIXPRE">     1</i>
     <i type="int" name="MREMOVE">     5</i>
    </separator>
   </separator>
   <separator name="electronic dipolcorrection" >
    <i type="logical" name="LDIPOL"> F  </i>
    <i type="logical" name="LMONO"> F  </i>
    <i type="int" name="IDIPOL">     0</i>
    <i name="EPSILON">      1.00000000</i>
    <v name="DIPOL">   -100.00000000   -100.00000000   -100.00000000</v>
    <i name="EFIELD">      0.00000000</i>
   </separator>
  </separator>
  <separator name="grids" >
   <i type="int" name="NGX">    48</i>
   <i type="int" name="NGY">    48</i>
   <i type="int" name="NGZ">    48</i>
   <i type="int" name="NGXF">    96</i>
   <i type="int" name="NGYF">    96</i>
   <i type="int" name="NGZF">    96</i>
   <i type="logical" name="ADDGRID"> F  </i>
  </separator>
  <separator name="ionic" >
   <i type="int" name="NSW">     0</i>
   <i type="int" name="IBRION">    -1</i>
   <i type="int" name="ISIF">     2</i>
   <i name="PSTRESS">      0.00000000</i>
   <i name="EDIFFG">      0.05000000</i>
   <i type="int" name="NFREE">     0</i>
   <i name="POTIM">      0.50000000</i>
   <i name="SMASS">     -3.00000000</i>
  </separator>
  <separator name="ionic md" >
   <i name="TEBEG">      0.00010000</i>
   <i name="TEEND">      0.00010000</i>
   <i type="int" name="NBLOCK">     1</i>
   <i type="int" name="KBLOCK">     1</i>
   <i type="int" name="NPACO">   256</i>
   <i name="APACO">     16.00000000</i>
  </separator>
  <separator name="symmetry" >
   <i type="int" name="ISYM">     2</i>
   <i name="SYMPREC">      0.00001000</i>
  </separator>
  <separator name="dos" >
   <i type="logical" name="LORBIT"> F  </i>
   <v name="RWIGS">     -1.00000000</v>
   <i type="int" name="NEDOS">   301</i>
   <i name="EMIN">     10.00000000</i>
   <i name="EMAX">    -10.00000000</i>
   <i name="EFERMI">      0.00000000</i>
  </separator>
  <separator name="writing" >
   <i type="int" name="NWRITE">     2</i>
   <i type="logical" name="LWAVE"> F  </i>
   <i type="logical" name="LCHARG"> T  </i>
   <i type="logical" name="LPARD"> F  </i>
   <i type="logical" name="LVTOT"> F  </i>
   <i type="logical" name="LELF"> F  </i>
   <i type="logical" name="LOPTICS"> F  </i>
   <v name="STM">      0.00000000      0.00000000      0.00000000      0.00000000      0.00000000</v>
  </separator>
  <separator name="performance" >
   <i type="int" name="NPAR">    32</i>
   <i type="int" name="NSIM">     4</i>
   <i type="int" name="NBLK">    32</i>
   <i type="logical" name="LPLANE"> T  </i>
   <i type="logical" name="LSCALAPACK"> F  </i>
   <i type="logical" name="LSCAAWARE"> F  </i>
   <i type="logical" name="LSCALU"> F  </i>
   <i type="logical" name="LASYNC"> F  </i>
  </separator>
  <separator name="miscellaneous" >
   <i type="int" name="IDIOT">     3</i>
   <i type="logical" name="LMUSIC"> F  </i>
   <v name="POMASS">     26.98200000</v>
   <i type="logical" name="LCORR"> T  </i>
  </separator>
  <i type="logical" name="LREAL_COMPAT"> F  </i>
  <i type="logical" name="GGA_COMPAT"> T  </i>
  <i type="logical" name="LBERRY"> F  </i>
  <i type="int" name="ICORELEVEL">     0</i>
  <i type="logical" name="LDAU"> F  </i>
  <i type="int" name="I_CONSTRAINED_M">     0</i>
  <separator name="electronic exchange-correlation" >
   <i type="string" name="GGA">--</i>
   <i type="int" name="VOSKOWN">     0</i>
   <i type="logical" name="LHFCALC"> F  </i>
   <i type="logical" name="LHFONE"> F  </i>
   <i type="logical" name="LRHFCALC"> F  </i>
   <i type="logical" name="LTHOMAS"> F  </i>
   <i type="logical" name="LMODELHF"> F  </i>
   <i name="ENCUTFOCK">      0.00000000</i>
   <i name="ENCUT4O">     -1.00000000</i>
   <i type="int" name="EXXOEP">     0</i>
   <i type="int" name="FOURORBIT">     0</i>
   <i name="AEXX">      0.00000000</i>
   <i name="HFALPHA">      0.00000000</i>
   <i name="ALDAX">      1.00000000</i>
   <i name="AGGAX">      1.00000000</i>
   <i name="ALDAC">      1.00000000</i>
   <i name="AGGAC">      1.00000000</i>
   <i type="int" name="NKREDX">     1</i>
   <i type="int" name="NKREDY">     1</i>
   <i type="int" name="NKREDZ">     1</i>
   <i type="logical" name="SHIFTRED"> F  </i>
   <i type="logical" name="ODDONLY"> F  </i>
   <i type="logical" name="EVENONLY"> F  </i>
   <i type="int" name="LMAXFOCK">     0</i>
   <i type="int" name="NMAXFOCKAE">     0</i>
   <i name="HFSCREEN">      0.00000000</i>
   <i name="HFSCREENC">      0.00000000</i>
  </separator>
  <separator name="model GW" >
   <i type="int" name="MODEL_GW">     0</i>
   <i name="MODEL_EPS0">      9.91676555</i>
   <i name="MODEL_ALPHA">      1.00000000</i>
  </separator>
  <separator name="linear response parameters" >
   <i type="logical" name="LEPSILON"> F  </i>
   <i type="logical" name="LRPA"> F  </i>
   <i type="logical" name="LNABLA"> F  </i>
   <i type="logical" name="LVEL"> F  </i>
   <i type="int" name="KINTER">     0</i>
   <i name="CSHIFT">      0.10000000</i>
   <i name="OMEGAMAX">     -1.00000000</i>
  </separator>
  <separator name="orbital magnetization" >
   <i type="logical" name="ORBITALMAG"> F  </i>
   <i type="logical" name="LMAGBLOCH"> F  </i>
   <i type="logical" name="LCHIMAG"> F  </i>
   <i type="logical" name="LGAUGE"> T  </i>
   <i type="int" name="MAGATOM">     0</i>
   <v name="MAGDIPOL">      0.00000000      0.00000000      0.00000000</v>
   <v name="AVECCONST">      0.00000000      0.00000000      0.00000000</v>
  </separator>
  <separator name="response functions" >
   <i type="logical" name="LRPA"> T  </i>
   <i type="logical" name="LTCTE"> F  </i>
   <i type="logical" name="LTETE"> F  </i>
   <i type="logical" name="L2ORDER"> F  </i>
   <i type="logical" name="LGWLF"> F  </i>
   <i name="ENCUTGW">    200.00000000</i>
   <i name="ENCUTGWSOFT">     -2.00000000</i>
   <i name="ENCUTLF">     -1.00000000</i>
   <i type="int" name="LMAXMP2">    -1</i>
   <i name="SCISSOR">      0.00000000</i>
   <i type="int" name="NOMEGA">     0</i>
   <i type="int" name="NOMEGAR">     0</i>
   <i type="int" name="NBANDSGW">    -1</i>
   <i type="int" name="NBANDSLF">    -1</i>
   <i type="int" name="NELM">     1</i>
   <i type="int" name="DIM">     3</i>
   <i type="int" name="ANTIRES">     0</i>
   <i type="logical" name="LUSEW"> F  </i>
   <i name="OMEGAMAX">    -30.00000000</i>
   <i name="OMEGATL">   -200.00000000</i>
   <i type="int" name="OMEGAGRID">     0</i>
   <i name="CSHIFT">     -0.10000000</i>
   <i type="logical" name="SELFENERGY"> F  </i>
   <i type="logical" name="LSPECTRAL"> F  </i>
   <i type="logical" name="ODDONLYGW"> F  </i>
   <i type="logical" name="EVENONLYGW"> F  </i>
   <i type="int" name="NKREDLFX">     1</i>
   <i type="int" name="NKREDLFY">     1</i>
   <i type="int" name="NKREDLFZ">     1</i>
   <i type="int" name="MAXMEM">  1024</i>
   <i type="int" name="TELESCOPE">     0</i>
  </separator>
 </parameters>
 <atominfo>
  <atoms>      32 </atoms>
  <types>       1 </types>
  <array name="atoms" >
   <dimension dim="1">ion</dimension>
   <field type="string">element</field>
   <field type="int">atomtype</field>
   <set>
    <rc><c>Al</c><c>   1</c></rc>
    <rc><c>Al</c><c>   1</c></rc>
    <rc><c>Al</c><c>   1</c></rc>
    <rc><c>Al</c><c>   1</c></rc>
    <rc><c>Al</c><c>   1</c></rc>
    <rc><c>Al</c><c>   1</c></rc>
    <rc><c>Al</c><c>   1</c></rc>
    <rc><c>Al</c><c>   1</c></rc>
    <rc><c>Al</c><c>   1</c></rc>
    <rc><c>Al</c><c>   1</c></rc>
    <rc><c>Al</c><c>   1</c></rc>
    <rc><c>Al</c><c>   1</c></rc>
    <rc><c>Al</c><c>   1</c></rc>
    <rc><c>Al</c><c>   1</c></rc>
    <rc><c>Al</c><c>   1</c></rc>
    <rc><c>Al</c><c>   1</c></rc>
    <rc><c>Al</c><c>   1</c></rc>
    <rc><c>Al</c><c>   1</c></rc>
    <rc><c>Al</c><c>   1</c></rc>
    <rc><c>Al</c><c>   1</c></rc>
    <rc><c>Al</c><c>   1</c></rc>
    <rc><c>Al</c><c>   1</c></rc>
    <rc><c>Al</c><c>   1</c></rc>
    <rc><c>Al</c><c>   1</c></rc>
    <rc><c>Al</c><c>   1</c></rc>
    <rc><c>Al</c><c>   1</c></rc>
    <rc><c>Al</c><c>   1</c></rc>
    <rc><c>Al</c><c>   1</c></rc>
    <rc><c>Al</c><c>   1</c></rc>
    <rc><c>Al</c><c>   1</c></rc>
    <rc><c>Al</c><c>   1</c></rc>
    <rc><c>Al</c><c>   1</c></rc>
   </set>
  </array>
  <array name="atomtypes" >
   <dimension dim="1">type</dimension>
   <field type="int">atomspertype</field>
   <field type="string">element</field>
   <field>mass</field>
   <field>valence</field>
   <field type="string">pseudopotential</field>
   <set>
    <rc><c>  32</c><c>Al</c><c>     26.98200000</c><c>      3.00000000</c><c> PAW_PBE Al 04Jan2001                   </c></rc>
   </set>
  </array>
 </atominfo>
 <structure name="initialpos" >
  <crystal>
   <varray name="basis" >
    <v>       8.08704000       0.00000000       0.00000000 </v>
    <v>       0.00000000       8.08704000       0.00000000 </v>
    <v>       0.00000000       0.00000000       8.08704000 </v>
   </varray>
   <i name="volume">    528.89416249 </i>
   <varray name="rec_basis" >
    <v>       0.12365464       0.00000000       0.00000000 </v>
    <v>       0.00000000       0.12365464       0.00000000 </v>
    <v>       0.00000000       0.00000000       0.12365464 </v>
   </varray>
  </crystal>
  <varray name="positions" >
   <v>       0.00000000       0.00000000       0.00000000 </v>
   <v>       0.25000000       0.00000000       0.25000000 </v>
   <v>       0.25000000       0.25000000       0.00000000 </v>
   <v>       0.00000000       0.25000000       0.25000000 </v>
   <v>       0.50000000       0.00000000       0.00000000 </v>
   <v>       0.75000000       0.00000000       0.25000000 </v>
   <v>       0.75000000       0.25000000       0.00000000 </v>
   <v>       0.50000000       0.25000000       0.25000000 </v>
   <v>       0.00000000       0.50000000       0.00000000 </v>
   <v>       0.25000000       0.50000000       0.25000000 </v>
   <v>       0.25000000       0.75000000       0.00000000 </v>
   <v>       0.00000000       0.75000000       0.25000000 </v>
   <v>       0.50000000       0.50000000       0.00000000 </v>
   <v>       0.75000000       0.50000000       0.25000000 </v>
   <v>       0.75000000       0.75000000       0.00000000 </v>
   <v>       0.50000000       0.75000000       0.25000000 </v>
   <v>       0.00000000       0.00000000       0.50000000 </v>
   <v>       0.25000000       0.00000000       0.75000000 </v>
   <v>       0.25000000       0.25000000       0.50000000 </v>
   <v>       0.00000000       0.25000000       0.75000000 </v>
   <v>       0.50000000       0.00000000       0.50000000 </v>
   <v>       0.75000000       0.00000000       0.75000000 </v>
   <v>       0.75000000       0.25000000       0.50000000 </v>
   <v>       0.50000000       0.25000000       0.75000000 </v>
   <v>       0.00000000       0.50000000       0.50000000 </v>
   <v>       0.25000000       0.50000000       0.75000000 </v>
   <v>       0.25000000       0.75000000       0.50000000 </v>
   <v>       0.00000000       0.75000000       0.75000000 </v>
   <v>       0.50000000       0.50000000       0.50000000 </v>
   <v>       0.75000000       0.50000000       0.75000000 </v>
   <v>       0.75000000       0.75000000       0.50000000 </v>
   <v>       0.50000000       0.75000000       0.75000000 </v>
  </varray>
 </structure>
 <calculation>
  <scstep>
   <time name="diag">    0.09    0.09</time>
   <time name="diis">    0.18    0.18</time>
   <time name="orth">    0.01    0.01</time>
   <time name="total">    0.37    0.39</time>
   <energy>
    <i name="alphaZ">     -6.50304679 </i>
    <i name="ewald">  -2351.17684649 </i>
    <i name="hartreedc">     -3.26507701 </i>
    <i name="XCdc">   -839.76929229 </i>
    <i name="pawpsdc">   1137.73615723 </i>
    <i name="pawaedc">   -115.16745734 </i>
    <i name="eentropy">      0.01114907 </i>
    <i name="bandstr">    611.77862261 </i>
    <i name="atom">   1713.20396807 </i>
    <i name="e_fr_energy">    146.84817705 </i>
    <i name="e_wo_entrp">    146.83702798 </i>
    <i name="e_0_energy">    146.84446069 </i>
   </energy>
  </scstep>
  <scstep>
   <time name="diag">    0.09    0.09</time>
   <time name="diis">    0.17    0.17</time>
   <time name="orth">    0.01    0.01</time>
   <time name="total">    0.27    0.27</time>
   <energy>
    <i name="e_fr_energy">    -70.98200847 </i>
    <i name="e_wo_entrp">    -71.01048260 </i>
    <i name="e_0_energy">    -70.99149985 </i>
   </energy>
  </scstep>
  <scstep>
   <time name="diag">    0.09    0.09</time>
   <time name="diis">    0.17    0.17</time>
   <time name="orth">    0.01    0.01</time>
   <time name="total">    0.27    0.27</time>
   <energy>
    <i name="e_fr_energy">   -108.53169885 </i>
    <i name="e_wo_entrp">   -108.45189441 </i>
    <i name="e_0_energy">   -108.50509737 </i>
   </energy>
  </scstep>
  <scstep>
   <time name="diag">    0.09    0.09</time>
   <time name="diis">    0.17    0.17</time>
   <time name="orth">    0.01    0.01</time>
   <time name="total">    0.27    0.27</time>
   <energy>
    <i name="e_fr_energy">   -116.70101061 </i>
    <i name="e_wo_entrp">   -116.53116382 </i>
    <i name="e_0_energy">   -116.64439501 </i>
   </energy>
  </scstep>
  <scstep>
   <time name="diag">    0.09    0.09</time>
   <time name="diis">    0.17    0.17</time>
   <time name="orth">    0.01    0.01</time>
   <time name="total">    0.27    0.27</time>
   <energy>
    <i name="e_fr_energy">   -118.45127309 </i>
    <i name="e_wo_entrp">   -118.19750901 </i>
    <i name="e_0_energy">   -118.36668506 </i>
   </energy>
  </scstep>
  <scstep>
   <time name="diag">    0.09    0.09</time>
   <time name="diis">    0.17    0.17</time>
   <time name="orth">    0.01    0.01</time>
   <time name="total">    0.27    0.27</time>
   <energy>
    <i name="e_fr_energy">   -118.77554830 </i>
    <i name="e_wo_entrp">   -118.51176051 </i>
    <i name="e_0_energy">   -118.68761904 </i>
   </energy>
  </scstep>
  <scstep>
   <time name="diag">    0.09    0.09</time>
   <time name="diis">    0.17    0.17</time>
   <time name="orth">    0.01    0.01</time>
   <time name="total">    0.27    0.27</time>
   <energy>
    <i name="e_fr_energy">   -118.83179370 </i>
    <i name="e_wo_entrp">   -118.56743121 </i>
    <i name="e_0_energy">   -118.74367287 </i>
   </energy>
  </scstep>
  <scstep>
   <time name="diag">    0.09    0.09</time>
   <time name="diis">    0.17    0.17</time>
   <time name="orth">    0.01    0.01</time>
   <time name="total">    0.27    0.27</time>
   <energy>
    <i name="e_fr_energy">   -118.84228575 </i>
    <i name="e_wo_entrp">   -118.57786492 </i>
    <i name="e_0_energy">   -118.75414547 </i>
   </energy>
  </scstep>
  <scstep>
   <time name="diag">    0.09    0.09</time>
   <time name="diis">    0.45    0.45</time>
   <time name="orth">    0.01    0.01</time>
   <time name="total">    0.54    0.55</time>
   <energy>
    <i name="e_fr_energy">   -118.84461985 </i>
    <i name="e_wo_entrp">   -118.58018963 </i>
    <i name="e_0_energy">   -118.75647645 </i>
   </energy>
  </scstep>
  <scstep>
   <time name="diag">    0.08    0.09</time>
   <time name="diis">    0.41    0.41</time>
   <time name="orth">    0.01    0.01</time>
   <time name="total">    0.50    0.51</time>
   <energy>
    <i name="e_fr_energy">   -118.84479458 </i>
    <i name="e_wo_entrp">   -118.58036384 </i>
    <i name="e_0_energy">   -118.75665100 </i>
   </energy>
  </scstep>
  <scstep>
   <time name="diag">    0.09    0.09</time>
   <time name="diis">    0.43    0.43</time>
   <time name="orth">    0.01    0.01</time>
   <time name="total">    0.52    0.53</time>
   <energy>
    <i name="e_fr_energy">   -118.84479878 </i>
    <i name="e_wo_entrp">   -118.58036805 </i>
    <i name="e_0_energy">   -118.75665521 </i>
   </energy>
  </scstep>
  <scstep>
   <time name="diag">    0.09    0.09</time>
   <time name="diis">    0.36    0.36</time>
   <time name="orth">    0.01    0.01</time>
   <time name="total">    0.78    0.78</time>
   <energy>
    <i name="e_fr_energy">   -118.84479980 </i>
    <i name="e_wo_entrp">   -118.58036907 </i>
    <i name="e_0_energy">   -118.75665622 </i>
   </energy>
  </scstep>
  <scstep>
   <time name="diag">    0.09    0.09</time>
   <time name="diis">    0.43    0.44</time>
   <time name="orth">    0.01    0.01</time>
   <time name="total">    0.90    0.90</time>
   <energy>
    <i name="e_fr_energy">   -118.44772298 </i>
    <i name="e_wo_entrp">   -118.18385455 </i>
    <i name="e_0_energy">   -118.35976684 </i>
   </energy>
  </scstep>
  <scstep>
   <time name="diag">    0.09    0.09</time>
   <time name="diis">    0.43    0.43</time>
   <time name="orth">    0.01    0.01</time>
   <time name="total">    0.87    0.88</time>
   <energy>
    <i name="e_fr_energy">   -118.14858792 </i>
    <i name="e_wo_entrp">   -117.88518355 </i>
    <i name="e_0_energy">   -118.06078647 </i>
   </energy>
  </scstep>
  <scstep>
   <time name="diag">    0.09    0.09</time>
   <time name="diis">    0.43    0.43</time>
   <time name="orth">    0.01    0.01</time>
   <time name="total">    0.88    0.88</time>
   <energy>
    <i name="e_fr_energy">   -118.14888669 </i>
    <i name="e_wo_entrp">   -117.88545696 </i>
    <i name="e_0_energy">   -118.06107678 </i>
   </energy>
  </scstep>
  <scstep>
   <time name="diag">    0.09    0.09</time>
   <time name="diis">    0.35    0.35</time>
   <time name="orth">    0.01    0.01</time>
   <time name="total">    0.52    0.86</time>
   <energy>
    <i name="alphaZ">     -6.50304679 </i>
    <i name="ewald">  -2351.17684649 </i>
    <i name="hartreedc">     -3.59427340 </i>
    <i name="XCdc">   -836.23746650 </i>
    <i name="pawpsdc">   1142.86802501 </i>
    <i name="pawaedc">   -120.74750897 </i>
    <i name="eentropy">     -0.26343483 </i>
    <i name="bandstr">    344.30168421 </i>
    <i name="atom">   1713.20396807 </i>
    <i name="e_fr_energy">   -118.14889969 </i>
    <i name="e_wo_entrp">   -117.88546486 </i>
    <i name="e_0_energy">   -118.06108808 </i>
   </energy>
  </scstep>
  <structure>
   <crystal>
    <varray name="basis" >
     <v>       8.08704000       0.00000000       0.00000000 </v>
     <v>       0.00000000       8.08704000       0.00000000 </v>
     <v>       0.00000000       0.00000000       8.08704000 </v>
    </varray>
    <i name="volume">    528.89416249 </i>
    <varray name="rec_basis" >
     <v>       0.12365464       0.00000000       0.00000000 </v>
     <v>       0.00000000       0.12365464       0.00000000 </v>
     <v>       0.00000000       0.00000000       0.12365464 </v>
    </varray>
   </crystal>
   <varray name="positions" >
    <v>       0.00000000       0.00000000       0.00000000 </v>
    <v>       0.25000000       0.00000000       0.25000000 </v>
    <v>       0.25000000       0.25000000       0.00000000 </v>
    <v>       0.00000000       0.25000000       0.25000000 </v>
    <v>       0.50000000       0.00000000       0.00000000 </v>
    <v>       0.75000000       0.00000000       0.25000000 </v>
    <v>       0.75000000       0.25000000       0.00000000 </v>
    <v>       0.50000000       0.25000000       0.25000000 </v>
    <v>       0.00000000       0.50000000       0.00000000 </v>
    <v>       0.25000000       0.50000000       0.25000000 </v>
    <v>       0.25000000       0.75000000       0.00000000 </v>
    <v>       0.00000000       0.75000000       0.25000000 </v>
    <v>       0.50000000       0.50000000       0.00000000 </v>
    <v>       0.75000000       0.50000000       0.25000000 </v>
    <v>       0.75000000       0.75000000       0.00000000 </v>
    <v>       0.50000000       0.75000000       0.25000000 </v>
    <v>       0.00000000       0.00000000       0.50000000 </v>
    <v>       0.25000000       0.00000000       0.75000000 </v>
    <v>       0.25000000       0.25000000       0.50000000 </v>
    <v>       0.00000000       0.25000000       0.75000000 </v>
    <v>       0.50000000       0.00000000       0.50000000 </v>
    <v>       0.75000000       0.00000000       0.75000000 </v>
    <v>       0.75000000       0.25000000       0.50000000 </v>
    <v>       0.50000000       0.25000000       0.75000000 </v>
    <v>       0.00000000       0.50000000       0.50000000 </v>
    <v>       0.25000000       0.50000000       0.75000000 </v>
    <v>       0.25000000       0.75000000       0.50000000 </v>
    <v>       0.00000000       0.75000000       0.75000000 </v>
    <v>       0.50000000       0.50000000       0.50000000 </v>
    <v>       0.75000000       0.50000000       0.75000000 </v>
    <v>       0.75000000       0.75000000       0.50000000 </v>
    <v>       0.50000000       0.75000000       0.75000000 </v>
   </varray>
  </structure>
  <varray name="forces" >
   <v>       0.00000000       0.00000000       0.00000000 </v>
   <v>       0.00000000       0.00000000       0.00000000 </v>
   <v>       0.00000000       0.00000000       0.00000000 </v>
   <v>       0.00000000       0.00000000       0.00000000 </v>
   <v>       0.00000000       0.00000000       0.00000000 </v>
   <v>       0.00000000       0.00000000       0.00000000 </v>
   <v>       0.00000000       0.00000000       0.00000000 </v>
   <v>       0.00000000       0.00000000       0.00000000 </v>
   <v>       0.00000000       0.00000000       0.00000000 </v>
   <v>       0.00000000       0.00000000       0.00000000 </v>
   <v>       0.00000000       0.00000000       0.00000000 </v>
   <v>       0.00000000       0.00000000       0.00000000 </v>
   <v>       0.00000000       0.00000000       0.00000000 </v>
   <v>       0.00000000       0.00000000       0.00000000 </v>
   <v>       0.00000000       0.00000000       0.00000000 </v>
   <v>       0.00000000       0.00000000       0.00000000 </v>
   <v>       0.00000000       0.00000000       0.00000000 </v>
   <v>       0.00000000       0.00000000       0.00000000 </v>
   <v>       0.00000000       0.00000000       0.00000000 </v>
   <v>       0.00000000       0.00000000       0.00000000 </v>
   <v>       0.00000000       0.00000000       0.00000000 </v>
   <v>       0.00000000       0.00000000       0.00000000 </v>
   <v>       0.00000000       0.00000000       0.00000000 </v>
   <v>       0.00000000       0.00000000       0.00000000 </v>
   <v>       0.00000000       0.00000000       0.00000000 </v>
   <v>       0.00000000       0.00000000       0.00000000 </v>
   <v>       0.00000000       0.00000000       0.00000000 </v>
   <v>       0.00000000       0.00000000       0.00000000 </v>
   <v>       0.00000000       0.00000000       0.00000000 </v>
   <v>       0.00000000       0.00000000       0.00000000 </v>
   <v>       0.00000000       0.00000000       0.00000000 </v>
   <v>       0.00000000       0.00000000       0.00000000 </v>
  </varray>
  <varray name="stress" >
   <v>       0.06779742       0.00000000       0.00000000 </v>
   <v>       0.00000000       0.06779742       0.00000000 </v>
   <v>       0.00000000       0.00000000       0.06779742 </v>
  </varray>
  <energy>
   <i name="e_fr_energy">   -118.14889969 </i>
   <i name="e_wo_entrp">   -118.06108808 </i>
   <i name="e_0_energy">     -0.26343483 </i>
  </energy>
  <time name="totalsc">   10.12   10.74</time>
  <eigenvalues>
   <array>
    <dimension dim="1">band</dimension>
    <dimension dim="2">kpoint</dimension>
    <dimension dim="3">spin</dimension>
    <field>eigene</field>
    <field>occ</field>
    <set>
     <set comment="spin 1">
      <set comment="kpoint 1">
       <r>   -2.7133    1.0000 </r>
       <r>   -1.5892    1.0000 </r>
       <r>   -1.5892    1.0000 </r>
       <r>   -1.5892    1.0000 </r>
       <r>   -0.4740    1.0000 </r>
       <r>   -0.4740    1.0000 </r>
       <r>   -0.4740    1.0000 </r>
       <r>    0.6318    1.0000 </r>
       <r>    0.6318    1.0000 </r>
       <r>    0.6318    1.0000 </r>
       <r>    0.6332    1.0000 </r>
       <r>    1.7299    1.0000 </r>
       <r>    1.7299    1.0000 </r>
       <r>    1.7299    1.0000 </r>
       <r>    1.7299    1.0000 </r>
       <r>    1.7299    1.0000 </r>
       <r>    1.7299    1.0000 </r>
       <r>    2.8185    1.0000 </r>
       <r>    2.8185    1.0000 </r>
       <r>    2.8185    1.0000 </r>
       <r>    3.8623    1.0000 </r>
       <r>    3.8623    1.0000 </r>
       <r>    3.8623    1.0000 </r>
       <r>    3.8970    1.0000 </r>
       <r>    3.8970    1.0000 </r>
       <r>    3.8970    1.0000 </r>
       <r>    4.9284    1.0000 </r>
       <r>    4.9284    1.0000 </r>
       <r>    4.9284    1.0000 </r>
       <r>    4.9284    1.0000 </r>
       <r>    4.9284    1.0000 </r>
       <r>    4.9284    1.0000 </r>
       <r>    4.9913    1.0000 </r>
       <r>    4.9913    1.0000 </r>
       <r>    4.9913    1.0000 </r>
       <r>    6.0130    1.0000 </r>
       <r>    6.0130    1.0000 </r>
       <r>    6.0130    1.0000 </r>
       <r>    7.0600    1.0000 </r>
       <r>    7.0600    1.0000 </r>
       <r>    7.0600    1.0000 </r>
       <r>    7.0600    1.0000 </r>
       <r>    7.0600    1.0000 </r>
       <r>    7.0600    1.0000 </r>
       <r>    7.1223    1.0000 </r>
       <r>    8.1237    0.5174 </r>
       <r>    8.1237    0.5174 </r>
       <r>    8.1237    0.5174 </r>
       <r>    8.1237    0.5174 </r>
       <r>    8.1237    0.5174 </r>
       <r>    8.1237    0.5174 </r>
       <r>    8.3605   -0.0348 </r>
       <r>    8.3605   -0.0348 </r>
       <r>    8.3605   -0.0348 </r>
       <r>    9.4443    0.0000 </r>
       <r>    9.4443    0.0000 </r>
       <r>    9.4443    0.0000 </r>
       <r>    9.4443    0.0000 </r>
       <r>    9.4443    0.0000 </r>
       <r>    9.4443    0.0000 </r>
       <r>   10.1996    0.0000 </r>
       <r>   10.1996    0.0000 </r>
       <r>   10.1996    0.0000 </r>
       <r>   10.2231    0.0000 </r>
       <r>   10.2231    0.0000 </r>
       <r>   10.2231    0.0000 </r>
       <r>   10.5194    0.0000 </r>
       <r>   10.5194    0.0000 </r>
       <r>   10.5194    0.0000 </r>
       <r>   11.2104    0.0000 </r>
       <r>   11.2104    0.0000 </r>
       <r>   11.2104    0.0000 </r>
       <r>   11.6088    0.0000 </r>
       <r>   11.6088    0.0000 </r>
       <r>   11.6088    0.0000 </r>
       <r>   11.6088    0.0000 </r>
       <r>   11.6088    0.0000 </r>
       <r>   11.6088    0.0000 </r>
       <r>   12.5643    0.0000 </r>
       <r>   12.5643    0.0000 </r>
       <r>   12.5643    0.0000 </r>
       <r>   12.5643    0.0000 </r>
       <r>   12.5643    0.0000 </r>
       <r>   12.5643    0.0000 </r>
       <r>   13.2892    0.0000 </r>
       <r>   13.2892    0.0000 </r>
       <r>   13.2892    0.0000 </r>
       <r>   13.5716    0.0000 </r>
       <r>   13.5716    0.0000 </r>
       <r>   13.5716    0.0000 </r>
       <r>   13.9364    0.0000 </r>
       <r>   13.9370    0.0000 </r>
       <r>   13.9406    0.0000 </r>
       <r>   14.6102    0.0000 </r>
       <r>   14.6178    0.0000 </r>
       <r>   14.6428    0.0000 </r>
      </set>
     </set>
    </set>
   </array>
  </eigenvalues>
  <separator name="orbital magnetization" >
   <v name="MAGDIPOLOUT">      0.00000000      0.00000000      0.00000000</v>
  </separator>
  <dos>
   <i name="efermi">      8.12779049 </i>
   <total>
    <array>
     <dimension dim="1">gridpoints</dimension>
     <dimension dim="2">spin</dimension>
     <field>energy</field>
     <field>total</field>
     <field>integrated</field>
     <set>
      <set comment="spin 1">
       <r>  -4.7133   0.0000   0.0000 </r>
       <r>  -4.6421   0.0000   0.0000 </r>
       <r>  -4.5710   0.0000   0.0000 </r>
       <r>  -4.4998   0.0000   0.0000 </r>
       <r>  -4.4286   0.0000   0.0000 </r>
       <r>  -4.3574   0.0000   0.0000 </r>
       <r>  -4.2862   0.0000   0.0000 </r>
       <r>  -4.2150   0.0000   0.0000 </r>
       <r>  -4.1438   0.0000   0.0000 </r>
       <r>  -4.0726   0.0000   0.0000 </r>
       <r>  -4.0015   0.0000   0.0000 </r>
       <r>  -3.9303   0.0000   0.0000 </r>
       <r>  -3.8591   0.0000   0.0000 </r>
       <r>  -3.7879   0.0000   0.0000 </r>
       <r>  -3.7167   0.0000   0.0000 </r>
       <r>  -3.6455   0.0000   0.0000 </r>
       <r>  -3.5743   0.0000   0.0000 </r>
       <r>  -3.5031   0.0000   0.0000 </r>
       <r>  -3.4320  -0.0001   0.0000 </r>
       <r>  -3.3608  -0.0006   0.0000 </r>
       <r>  -3.2896  -0.0044  -0.0004 </r>
       <r>  -3.2184  -0.0240  -0.0021 </r>
       <r>  -3.1472  -0.0961  -0.0089 </r>
       <r>  -3.0760  -0.2659  -0.0278 </r>
       <r>  -3.0048  -0.4377  -0.0590 </r>
       <r>  -2.9336  -0.0904  -0.0654 </r>
       <r>  -2.8625   1.6266   0.0504 </r>
       <r>  -2.7913   4.8076   0.3926 </r>
       <r>  -2.7201   7.7290   0.9428 </r>
       <r>  -2.6489   8.0395   1.5151 </r>
       <r>  -2.5777   5.4623   1.9040 </r>
       <r>  -2.5065   2.1443   2.0566 </r>
       <r>  -2.4353   0.1076   2.0643 </r>
       <r>  -2.3642  -0.4366   2.0332 </r>
       <r>  -2.2930  -0.3071   2.0113 </r>
       <r>  -2.2218  -0.1230   2.0026 </r>
       <r>  -2.1506  -0.0512   1.9989 </r>
       <r>  -2.0794  -0.1051   1.9914 </r>
       <r>  -2.0082  -0.3696   1.9651 </r>
       <r>  -1.9370  -0.9330   1.8987 </r>
       <r>  -1.8658  -1.3057   1.8058 </r>
       <r>  -1.7947   0.3921   1.8337 </r>
       <r>  -1.7235   6.5994   2.3035 </r>
       <r>  -1.6523  16.5821   3.4839 </r>
       <r>  -1.5811  24.1942   5.2062 </r>
       <r>  -1.5099  23.0751   6.8489 </r>
       <r>  -1.4387  14.2221   7.8613 </r>
       <r>  -1.3675   4.7323   8.1982 </r>
       <r>  -1.2963  -0.3223   8.1752 </r>
       <r>  -1.2252  -1.3102   8.0820 </r>
       <r>  -1.1540  -0.7862   8.0260 </r>
       <r>  -1.0828  -0.2870   8.0056 </r>
       <r>  -1.0116  -0.1042   7.9982 </r>
       <r>  -0.9404  -0.1720   7.9859 </r>
       <r>  -0.8692  -0.5288   7.9483 </r>
       <r>  -0.7980  -1.1382   7.8672 </r>
       <r>  -0.7268  -1.1043   7.7886 </r>
       <r>  -0.6557   1.8868   7.9230 </r>
       <r>  -0.5845   9.7139   8.6145 </r>
       <r>  -0.5133  19.7820  10.0227 </r>
       <r>  -0.4421  24.9336  11.7976 </r>
       <r>  -0.3709  20.6849  13.2701 </r>
       <r>  -0.2997  10.7656  14.0365 </r>
       <r>  -0.2285   2.4758  14.2127 </r>
       <r>  -0.1574  -0.9783  14.1431 </r>
       <r>  -0.0862  -1.1939  14.0581 </r>
       <r>  -0.0150  -0.5867  14.0163 </r>
       <r>   0.0562  -0.2013  14.0020 </r>
       <r>   0.1274  -0.1376  13.9922 </r>
       <r>   0.1986  -0.3932  13.9642 </r>
       <r>   0.2698  -1.0684  13.8882 </r>
       <r>   0.3410  -1.7514  13.7635 </r>
       <r>   0.4121  -0.3449  13.7389 </r>
       <r>   0.4833   6.5533  14.2055 </r>
       <r>   0.5545  19.2935  15.5789 </r>
       <r>   0.6257  30.9501  17.7821 </r>
       <r>   0.6969  32.1329  20.0696 </r>
       <r>   0.7681  21.7874  21.6206 </r>
       <r>   0.8393   8.5257  22.2275 </r>
       <r>   0.9105   0.4091  22.2566 </r>
       <r>   0.9816  -1.7473  22.1322 </r>
       <r>   1.0528  -1.2248  22.0450 </r>
       <r>   1.1240  -0.4902  22.0101 </r>
       <r>   1.1952  -0.2009  21.9958 </r>
       <r>   1.2664  -0.3617  21.9701 </r>
       <r>   1.3376  -1.1019  21.8917 </r>
       <r>   1.4088  -2.3216  21.7264 </r>
       <r>   1.4800  -2.1178  21.5756 </r>
       <r>   1.5511   4.2223  21.8762 </r>
       <r>   1.6223  20.2472  23.3175 </r>
       <r>   1.6935  40.2876  26.1855 </r>
       <r>   1.7647  49.8941  29.7373 </r>
       <r>   1.8359  40.6756  32.6329 </r>
       <r>   1.9071  20.6992  34.1064 </r>
       <r>   1.9783   4.4753  34.4250 </r>
       <r>   2.0494  -2.0637  34.2781 </r>
       <r>   2.1206  -2.3456  34.1111 </r>
       <r>   2.1918  -1.1262  34.0309 </r>
       <r>   2.2630  -0.3699  34.0046 </r>
       <r>   2.3342  -0.1880  33.9912 </r>
       <r>   2.4054  -0.4165  33.9616 </r>
       <r>   2.4766  -0.9871  33.8913 </r>
       <r>   2.5478  -1.2808  33.8001 </r>
       <r>   2.6189   0.7076  33.8505 </r>
       <r>   2.6901   7.3261  34.3720 </r>
       <r>   2.7613  17.4045  35.6110 </r>
       <r>   2.8325  24.4779  37.3535 </r>
       <r>   2.9037  22.5644  38.9598 </r>
       <r>   2.9749  13.3657  39.9113 </r>
       <r>   3.0461   4.1244  40.2049 </r>
       <r>   3.1173  -0.5232  40.1676 </r>
       <r>   3.1884  -1.2936  40.0755 </r>
       <r>   3.2596  -0.7427  40.0227 </r>
       <r>   3.3308  -0.3110  40.0005 </r>
       <r>   3.4020  -0.3299  39.9770 </r>
       <r>   3.4732  -0.9255  39.9112 </r>
       <r>   3.5444  -2.0743  39.7635 </r>
       <r>   3.6156  -2.3203  39.5983 </r>
       <r>   3.6868   2.5187  39.7776 </r>
       <r>   3.7579  16.5903  40.9586 </r>
       <r>   3.8291  36.4126  43.5507 </r>
       <r>   3.9003  48.8523  47.0284 </r>
       <r>   3.9715  43.4077  50.1185 </r>
       <r>   4.0427  24.8347  51.8864 </r>
       <r>   4.1139   7.2521  52.4026 </r>
       <r>   4.1851  -1.2181  52.3159 </r>
       <r>   4.2562  -2.4681  52.1402 </r>
       <r>   4.3274  -1.3809  52.0419 </r>
       <r>   4.3986  -0.5602  52.0020 </r>
       <r>   4.4698  -0.5330  51.9641 </r>
       <r>   4.5410  -1.4101  51.8637 </r>
       <r>   4.6122  -3.0498  51.6466 </r>
       <r>   4.6834  -3.1915  51.4194 </r>
       <r>   4.7546   4.2249  51.7202 </r>
       <r>   4.8257  24.8664  53.4903 </r>
       <r>   4.8969  53.4679  57.2966 </r>
       <r>   4.9681  71.5103  62.3872 </r>
       <r>   5.0393  64.2660  66.9621 </r>
       <r>   5.1105  37.9915  69.6666 </r>
       <r>   5.1817  12.2514  70.5387 </r>
       <r>   5.2529  -0.9431  70.4716 </r>
       <r>   5.3241  -3.4808  70.2238 </r>
       <r>   5.3952  -2.1198  70.0729 </r>
       <r>   5.4664  -0.8092  70.0153 </r>
       <r>   5.5376  -0.3362  69.9914 </r>
       <r>   5.6088  -0.5016  69.9557 </r>
       <r>   5.6800  -1.0698  69.8795 </r>
       <r>   5.7512  -1.2134  69.7931 </r>
       <r>   5.8224   1.2568  69.8826 </r>
       <r>   5.8935   8.4933  70.4872 </r>
       <r>   5.9647  18.6260  71.8131 </r>
       <r>   6.0359  24.7854  73.5775 </r>
       <r>   6.1071  21.6794  75.1208 </r>
       <r>   6.1783  12.0557  75.9790 </r>
       <r>   6.2495   3.2583  76.2110 </r>
       <r>   6.3207  -0.7797  76.1555 </r>
       <r>   6.3919  -1.2523  76.0663 </r>
       <r>   6.4630  -0.6727  76.0184 </r>
       <r>   6.5342  -0.3106  75.9963 </r>
       <r>   6.6054  -0.4679  75.9630 </r>
       <r>   6.6766  -1.3265  75.8686 </r>
       <r>   6.7478  -2.6790  75.6779 </r>
       <r>   6.8190  -2.1973  75.5215 </r>
       <r>   6.8902   5.4859  75.9120 </r>
       <r>   6.9614  24.0262  77.6223 </r>
       <r>   7.0325  46.6100  80.9404 </r>
       <r>   7.1037  57.1333  85.0075 </r>
       <r>   7.1749  46.6543  88.3287 </r>
       <r>   7.2461  24.2199  90.0529 </r>
       <r>   7.3173   5.7699  90.4636 </r>
       <r>   7.3885  -1.9996  90.3212 </r>
       <r>   7.4597  -2.6233  90.1345 </r>
       <r>   7.5309  -1.3485  90.0385 </r>
       <r>   7.6020  -0.5367  90.0003 </r>
       <r>   7.6732  -0.5335  89.9623 </r>
       <r>   7.7444  -1.3298  89.8677 </r>
       <r>   7.8156  -2.5273  89.6878 </r>
       <r>   7.8868  -1.7182  89.5654 </r>
       <r>   7.9580   5.9669  89.9902 </r>
       <r>   8.0292  22.9140  91.6214 </r>
       <r>   8.1003  42.0761  94.6167 </r>
       <r>   8.1715  50.9580  98.2442 </r>
       <r>   8.2427  46.0747 101.5241 </r>
       <r>   8.3139  35.9400 104.0826 </r>
       <r>   8.3851  27.3926 106.0326 </r>
       <r>   8.4563  19.0869 107.3913 </r>
       <r>   8.5275   9.6813 108.0805 </r>
       <r>   8.5987   2.1766 108.2355 </r>
       <r>   8.6698  -1.0899 108.1579 </r>
       <r>   8.7410  -1.2974 108.0655 </r>
       <r>   8.8122  -0.6576 108.0187 </r>
       <r>   8.8834  -0.2502 108.0009 </r>
       <r>   8.9546  -0.2484 107.9832 </r>
       <r>   9.0258  -0.7513 107.9297 </r>
       <r>   9.0970  -1.8756 107.7962 </r>
       <r>   9.1682  -2.6085 107.6105 </r>
       <r>   9.2393   0.8343 107.6699 </r>
       <r>   9.3105  13.3179 108.6180 </r>
       <r>   9.3817  33.3028 110.9887 </r>
       <r>   9.4529  48.4406 114.4371 </r>
       <r>   9.5241  46.0682 117.7165 </r>
       <r>   9.5953  28.2921 119.7306 </r>
       <r>   9.6665   9.3008 120.3927 </r>
       <r>   9.7377  -0.9632 120.3241 </r>
       <r>   9.8088  -3.5769 120.0695 </r>
       <r>   9.8800  -3.7129 119.8051 </r>
       <r>   9.9512  -2.8934 119.5992 </r>
       <r>  10.0224   2.6582 119.7884 </r>
       <r>  10.0936  17.1806 121.0114 </r>
       <r>  10.1648  36.7145 123.6250 </r>
       <r>  10.2360  48.0593 127.0462 </r>
       <r>  10.3071  42.8755 130.0984 </r>
       <r>  10.3783  29.4426 132.1944 </r>
       <r>  10.4495  21.9546 133.7572 </r>
       <r>  10.5207  22.2378 135.3403 </r>
       <r>  10.5919  21.1366 136.8449 </r>
       <r>  10.6631  13.8936 137.8340 </r>
       <r>  10.7343   4.9205 138.1843 </r>
       <r>  10.8055  -0.6109 138.1408 </r>
       <r>  10.8766  -2.3939 137.9703 </r>
       <r>  10.9478  -2.0710 137.8229 </r>
       <r>  11.0190   0.8739 137.8851 </r>
       <r>  11.0902   8.2065 138.4693 </r>
       <r>  11.1614  18.0567 139.7547 </r>
       <r>  11.2326  23.4047 141.4208 </r>
       <r>  11.3038  19.2279 142.7896 </r>
       <r>  11.3750  10.7445 143.5545 </r>
       <r>  11.4461  10.3407 144.2906 </r>
       <r>  11.5173  24.1258 146.0081 </r>
       <r>  11.5885  42.6538 149.0445 </r>
       <r>  11.6597  48.7579 152.5154 </r>
       <r>  11.7309  36.3191 155.1008 </r>
       <r>  11.8021  16.2305 156.2562 </r>
       <r>  11.8733   2.1615 156.4101 </r>
       <r>  11.9445  -2.4829 156.2334 </r>
       <r>  12.0156  -2.1353 156.0814 </r>
       <r>  12.0868  -1.1466 155.9997 </r>
       <r>  12.1580  -1.1513 155.9178 </r>
       <r>  12.2292  -2.1443 155.7651 </r>
       <r>  12.3004  -2.4719 155.5892 </r>
       <r>  12.3716   2.2425 155.7488 </r>
       <r>  12.4428  16.4319 156.9185 </r>
       <r>  12.5139  36.6927 159.5306 </r>
       <r>  12.5851  49.4554 163.0512 </r>
       <r>  12.6563  43.7894 166.1684 </r>
       <r>  12.7275  24.7009 167.9268 </r>
       <r>  12.7987   6.8074 168.4114 </r>
       <r>  12.8699  -1.8176 168.2820 </r>
       <r>  12.9411  -3.4565 168.0359 </r>
       <r>  13.0123  -2.6762 167.8454 </r>
       <r>  13.0834  -0.1759 167.8329 </r>
       <r>  13.1546   6.0790 168.2656 </r>
       <r>  13.2258  15.5727 169.3742 </r>
       <r>  13.2970  22.8757 171.0027 </r>
       <r>  13.3682  23.5794 172.6812 </r>
       <r>  13.4394  21.0262 174.1780 </r>
       <r>  13.5106  21.3074 175.6948 </r>
       <r>  13.5818  23.1310 177.3415 </r>
       <r>  13.6529  20.2770 178.7849 </r>
       <r>  13.7241  13.1330 179.7198 </r>
       <r>  13.7953   9.8361 180.4200 </r>
       <r>  13.8665  14.8980 181.4806 </r>
       <r>  13.9377  22.3489 183.0715 </r>
       <r>  14.0089  22.9382 184.7044 </r>
       <r>  14.0801  15.1546 185.7832 </r>
       <r>  14.1513   5.4613 186.1720 </r>
       <r>  14.2224  -0.4812 186.1378 </r>
       <r>  14.2936  -2.4037 185.9666 </r>
       <r>  14.3648  -1.9928 185.8248 </r>
       <r>  14.4360   1.2361 185.9128 </r>
       <r>  14.5072   8.8851 186.5453 </r>
       <r>  14.5784  18.9336 187.8931 </r>
       <r>  14.6496  24.6591 189.6485 </r>
       <r>  14.7207  21.2191 191.1590 </r>
       <r>  14.7919  11.6361 191.9874 </r>
       <r>  14.8631   3.0821 192.2068 </r>
       <r>  14.9343  -0.7842 192.1510 </r>
       <r>  15.0055  -1.2150 192.0645 </r>
       <r>  15.0767  -0.6365 192.0192 </r>
       <r>  15.1479  -0.2105 192.0042 </r>
       <r>  15.2191  -0.0491 192.0007 </r>
       <r>  15.2902  -0.0084 192.0001 </r>
       <r>  15.3614  -0.0011 192.0000 </r>
       <r>  15.4326  -0.0001 192.0000 </r>
       <r>  15.5038   0.0000 192.0000 </r>
       <r>  15.5750   0.0000 192.0000 </r>
       <r>  15.6462   0.0000 192.0000 </r>
       <r>  15.7174   0.0000 192.0000 </r>
       <r>  15.7886   0.0000 192.0000 </r>
       <r>  15.8597   0.0000 192.0000 </r>
       <r>  15.9309   0.0000 192.0000 </r>
       <r>  16.0021   0.0000 192.0000 </r>
       <r>  16.0733   0.0000 192.0000 </r>
       <r>  16.1445   0.0000 192.0000 </r>
       <r>  16.2157   0.0000 192.0000 </r>
       <r>  16.2869   0.0000 192.0000 </r>
       <r>  16.3581   0.0000 192.0000 </r>
       <r>  16.4292   0.0000 192.0000 </r>
       <r>  16.5004   0.0000 192.0000 </r>
       <r>  16.5716   0.0000 192.0000 </r>
       <r>  16.6428   0.0000 192.0000 </r>
      </set>
     </set>
    </array>
   </total>
  </dos>
 </calculation>
 <structure name="finalpos" >
  <crystal>
   <varray name="basis" >
    <v>       8.08704000       0.00000000       0.00000000 </v>
    <v>       0.00000000       8.08704000       0.00000000 </v>
    <v>       0.00000000       0.00000000       8.08704000 </v>
   </varray>
   <i name="volume">    528.89416249 </i>
   <varray name="rec_basis" >
    <v>       0.12365464       0.00000000       0.00000000 </v>
    <v>       0.00000000       0.12365464       0.00000000 </v>
    <v>       0.00000000       0.00000000       0.12365464 </v>
   </varray>
  </crystal>
  <varray name="positions" >
   <v>       0.00000000       0.00000000       0.00000000 </v>
   <v>       0.25000000       0.00000000       0.25000000 </v>
   <v>       0.25000000       0.25000000       0.00000000 </v>
   <v>       0.00000000       0.25000000       0.25000000 </v>
   <v>       0.50000000       0.00000000       0.00000000 </v>
   <v>       0.75000000       0.00000000       0.25000000 </v>
   <v>       0.75000000       0.25000000       0.00000000 </v>
   <v>       0.50000000       0.25000000       0.25000000 </v>
   <v>       0.00000000       0.50000000       0.00000000 </v>
   <v>       0.25000000       0.50000000       0.25000000 </v>
   <v>       0.25000000       0.75000000       0.00000000 </v>
   <v>       0.00000000       0.75000000       0.25000000 </v>
   <v>       0.50000000       0.50000000       0.00000000 </v>
   <v>       0.75000000       0.50000000       0.25000000 </v>
   <v>       0.75000000       0.75000000       0.00000000 </v>
   <v>       0.50000000       0.75000000       0.25000000 </v>
   <v>       0.00000000       0.00000000       0.50000000 </v>
   <v>       0.25000000       0.00000000       0.75000000 </v>
   <v>       0.25000000       0.25000000       0.50000000 </v>
   <v>       0.00000000       0.25000000       0.75000000 </v>
   <v>       0.50000000       0.00000000       0.50000000 </v>
   <v>       0.75000000       0.00000000       0.75000000 </v>
   <v>       0.75000000       0.25000000       0.50000000 </v>
   <v>       0.50000000       0.25000000       0.75000000 </v>
   <v>       0.00000000       0.50000000       0.50000000 </v>
   <v>       0.25000000       0.50000000       0.75000000 </v>
   <v>       0.25000000       0.75000000       0.50000000 </v>
   <v>       0.00000000       0.75000000       0.75000000 </v>
   <v>       0.50000000       0.50000000       0.50000000 </v>
   <v>       0.75000000       0.50000000       0.75000000 </v>
   <v>       0.75000000       0.75000000       0.50000000 </v>
   <v>       0.50000000       0.75000000       0.75000000 </v>
  </varray>
 </structure>
</modeling>
