    3    3    1    1
  0.2274357E+02  0.4086266E-09  0.4086266E-09  0.4086266E-09  0.1000000E-16
  1.000000000000000E-004
  CAR 
 unknown system                          
    9    1    8
 
  0.2500000E+00  0.2500000E+00  0.2500000E+00  0.1000000E+01
   1       -2.967588
   2        1.310417
   3        1.310559
   4        1.974710
   5        5.690486
   6        5.690566
   7        6.751366
   8        9.581201
