       N       E                     dE             d eps       ncg     rms          rms(c)
DAV:   1    -0.105548752500E+02   -0.10555E+02   -0.37651E-01    16   0.557E+00    0.151E+00
DAV:   2    -0.104956021335E+02    0.59273E-01   -0.83016E-02    16   0.161E+00    0.903E-01
DAV:   3    -0.104745972334E+02    0.21005E-01   -0.10993E-01    16   0.167E+00    0.157E-01
DAV:   4    -0.104749244219E+02   -0.32719E-03   -0.68674E-03    16   0.528E-01    0.263E-02
DAV:   5    -0.104748726322E+02    0.51790E-04   -0.42613E-04    16   0.119E-01    0.135E-02
DAV:   6    -0.104748862680E+02   -0.13636E-04   -0.35075E-05    16   0.471E-02    0.209E-03
DAV:   7    -0.104748855345E+02    0.73348E-06   -0.10108E-06     8   0.725E-03
   1 F= -.10474886E+02 E0= -.10447378E+02  d E =-.825229E-01
       N       E                     dE             d eps       ncg     rms          rms(c)
DAV:   1    -0.104747289453E+02    0.15732E-03   -0.13347E-02    16   0.820E-01    0.242E-02
DAV:   2    -0.104747293101E+02   -0.36485E-06   -0.48027E-04    32   0.170E-01    0.125E-02
DAV:   3    -0.104747226798E+02    0.66303E-05   -0.69672E-05    24   0.383E-02    0.329E-03
DAV:   4    -0.104747228624E+02   -0.18257E-06   -0.53770E-06    16   0.171E-02
   2 F= -.10474723E+02 E0= -.10447215E+02  d E =-.825229E-01
       N       E                     dE             d eps       ncg     rms          rms(c)
DAV:   1    -0.104747465174E+02   -0.23838E-04   -0.53385E-02    16   0.164E+00    0.483E-02
DAV:   2    -0.104747483717E+02   -0.18542E-05   -0.19192E-03    32   0.340E-01    0.249E-02
DAV:   3    -0.104747217708E+02    0.26601E-04   -0.27835E-04    24   0.765E-02    0.656E-03
DAV:   4    -0.104747224781E+02   -0.70728E-06   -0.21511E-05    16   0.342E-02    0.429E-03
DAV:   5    -0.104747229958E+02   -0.51765E-06   -0.47390E-07     8   0.712E-03
   3 F= -.10474723E+02 E0= -.10447215E+02  d E =-.825229E-01
