Disk quotas for user tam (uid 511): none
Processors received = 1
script running on host korczak.msae.wisc.edu
PBS_NODEFILE
korczak.local
 running on    1 nodes
 distr:  one band on    1 nodes,    1 groups
 vasp.5.2.2 15Apr09 complex 
 POSCAR found type information on POSCAR  Mg Al
 POSCAR found :  2 types and   31 ions

 ----------------------------------------------------------------------------- 
|                                                                             |
|  ADVICE TO THIS USER RUNNING 'VASP/VAMP'   (HEAR YOUR MASTER'S VOICE ...):  |
|                                                                             |
|      You have a (more or less) 'large supercell' and for larger cells       |
|      it might be more efficient to use real space projection operators      |
|      So try LREAL= Auto  in the INCAR   file.                               |
|      Mind: If you want to do a very accurate calculations keep the          |
|      reciprocal projection scheme          (i.e. LREAL=.FALSE.)             |
|                                                                             |
 ----------------------------------------------------------------------------- 

 LDA part: xc-table for Pade appr. of Perdew
 POSCAR, INCAR and KPOINTS ok, starting setup
 FFT: planning ...(           1 )
 reading WAVECAR
 entering main loop
       N       E                     dE             d eps       ncg     rms          rms(c)
RMM:   1     0.294992841137E+03    0.29499E+03   -0.16915E+04   124   0.643E+02
RMM:   2    -0.152232198032E+02   -0.31022E+03   -0.30424E+03   124   0.136E+02
RMM:   3    -0.864172138517E+02   -0.71194E+02   -0.73584E+02   124   0.458E+01
RMM:   4    -0.102927404900E+03   -0.16510E+02   -0.16785E+02   124   0.264E+01
RMM:   5    -0.109235666517E+03   -0.63083E+01   -0.52884E+01   124   0.142E+01
RMM:   6    -0.111681201133E+03   -0.24455E+01   -0.19812E+01   124   0.826E+00
RMM:   7    -0.112646089790E+03   -0.96489E+00   -0.80630E+00   124   0.499E+00
RMM:   8    -0.113062298453E+03   -0.41621E+00   -0.35829E+00   124   0.310E+00
RMM:   9    -0.113414676247E+03   -0.35238E+00   -0.32472E+00   332   0.200E+00
RMM:  10    -0.113495075462E+03   -0.80399E-01   -0.28502E-01   299   0.483E-01
RMM:  11    -0.113498962568E+03   -0.38871E-02   -0.11921E-02   261   0.108E-01
RMM:  12    -0.113499014155E+03   -0.51587E-04   -0.34099E-04   203   0.303E-02    0.536E+00
RMM:  13    -0.112861230020E+03    0.63778E+00   -0.89456E-01   269   0.140E+00    0.327E+00
RMM:  14    -0.112615438865E+03    0.24579E+00   -0.23203E-01   279   0.978E-01    0.120E+00
RMM:  15    -0.112574701800E+03    0.40737E-01   -0.38883E-02   287   0.474E-01    0.140E-01
RMM:  16    -0.112573853140E+03    0.84866E-03   -0.47757E-03   295   0.134E-01    0.445E-02
RMM:  17    -0.112573854003E+03   -0.86209E-06   -0.58841E-04   252   0.521E-02
   1 F= -.11257385E+03 E0= -.11256092E+03  d E =-.387989E-01
