  31  31   0   0
  0.1706119E+02  0.8087054E-09  0.8087054E-09  0.8087054E-09  0.5000000E-15
  1.000000000000000E-004
  CAR 
 unknown system                          
     12.03126941     -4.95661203  301      7.85322160      1.00000000
     -4.957  0.0000E+00  0.0000E+00
     -4.900  0.0000E+00  0.0000E+00
     -4.843  0.0000E+00  0.0000E+00
     -4.787  0.0000E+00  0.0000E+00
     -4.730  0.0000E+00  0.0000E+00
     -4.673  0.0000E+00  0.0000E+00
     -4.617  0.0000E+00  0.0000E+00
     -4.560 -0.8609E-26 -0.4875E-27
     -4.504 -0.7124E-24 -0.4083E-25
     -4.447 -0.5065E-22 -0.2909E-23
     -4.390 -0.3062E-20 -0.1763E-21
     -4.334 -0.1574E-18 -0.9090E-20
     -4.277 -0.6877E-17 -0.3985E-18
     -4.220 -0.2553E-15 -0.1486E-16
     -4.164 -0.8053E-14 -0.4709E-15
     -4.107 -0.2088E-12 -0.1230E-13
     -4.051 -0.4743E-11 -0.2809E-12
     -3.994 -0.9117E-10 -0.5444E-11
     -3.937 -0.1485E-08 -0.8954E-10
     -3.881 -0.2048E-07 -0.1249E-08
     -3.824 -0.2389E-06 -0.1478E-07
     -3.767 -0.2355E-05 -0.1481E-06
     -3.711 -0.1956E-04 -0.1256E-05
     -3.654 -0.1368E-03 -0.9000E-05
     -3.598 -0.8017E-03 -0.5440E-04
     -3.541 -0.3924E-02 -0.2766E-03
     -3.484 -0.1593E-01 -0.1179E-02
     -3.428 -0.5310E-01 -0.4186E-02
     -3.371 -0.1427E+00 -0.1227E-01
     -3.314 -0.2981E+00 -0.2914E-01
     -3.258 -0.4409E+00 -0.5411E-01
     -3.201 -0.2963E+00 -0.7089E-01
     -3.145  0.5915E+00 -0.3739E-01
     -3.088  0.2547E+01  0.1068E+00
     -3.031  0.5257E+01  0.4045E+00
     -2.975  0.7615E+01  0.8357E+00
     -2.918  0.8342E+01  0.1308E+01
     -2.861  0.7005E+01  0.1705E+01
     -2.805  0.4389E+01  0.1953E+01
     -2.748  0.1827E+01  0.2057E+01
     -2.692  0.2086E+00  0.2069E+01
     -2.635 -0.3979E+00  0.2046E+01
     -2.578 -0.4103E+00  0.2023E+01
     -2.522 -0.2474E+00  0.2009E+01
     -2.465 -0.1206E+00  0.2002E+01
     -2.408 -0.8464E-01  0.1997E+01
     -2.352 -0.1519E+00  0.1989E+01
     -2.295 -0.3419E+00  0.1969E+01
     -2.239 -0.6263E+00  0.1934E+01
     -2.182 -0.7765E+00  0.1890E+01
     -2.125 -0.2340E+00  0.1877E+01
     -2.069  0.1738E+01  0.1975E+01
     -2.012  0.5480E+01  0.2285E+01
     -1.955  0.1031E+02  0.2869E+01
     -1.899  0.1460E+02  0.3696E+01
     -1.842  0.1682E+02  0.4648E+01
     -1.786  0.1655E+02  0.5585E+01
     -1.729  0.1452E+02  0.6407E+01
     -1.672  0.1171E+02  0.7070E+01
     -1.616  0.8631E+01  0.7559E+01
     -1.559  0.5541E+01  0.7873E+01
     -1.502  0.2794E+01  0.8031E+01
     -1.446  0.8245E+00  0.8078E+01
     -1.389 -0.1978E+00  0.8066E+01
     -1.333 -0.4856E+00  0.8039E+01
     -1.276 -0.4354E+00  0.8014E+01
     -1.219 -0.3776E+00  0.7993E+01
     -1.163 -0.4710E+00  0.7966E+01
     -1.106 -0.6718E+00  0.7928E+01
     -1.049 -0.6623E+00  0.7891E+01
     -0.993  0.1783E+00  0.7901E+01
     -0.936  0.2502E+01  0.8042E+01
     -0.880  0.6369E+01  0.8403E+01
     -0.823  0.1077E+02  0.9013E+01
     -0.766  0.1397E+02  0.9804E+01
     -0.710  0.1472E+02  0.1064E+02
     -0.653  0.1315E+02  0.1138E+02
     -0.596  0.1062E+02  0.1198E+02
     -0.540  0.8515E+01  0.1247E+02
     -0.483  0.7338E+01  0.1288E+02
     -0.427  0.6660E+01  0.1326E+02
     -0.370  0.5771E+01  0.1359E+02
     -0.313  0.4341E+01  0.1383E+02
     -0.257  0.2599E+01  0.1398E+02
     -0.200  0.1040E+01  0.1404E+02
     -0.143 -0.9678E-02  0.1404E+02
     -0.087 -0.5846E+00  0.1400E+02
     -0.030 -0.9129E+00  0.1395E+02
      0.026 -0.1050E+01  0.1389E+02
      0.083 -0.5959E+00  0.1386E+02
      0.140  0.1222E+01  0.1393E+02
      0.196  0.4982E+01  0.1421E+02
      0.253  0.1031E+02  0.1479E+02
      0.310  0.1568E+02  0.1568E+02
      0.366  0.1920E+02  0.1677E+02
      0.423  0.1984E+02  0.1789E+02
      0.480  0.1809E+02  0.1892E+02
      0.536  0.1533E+02  0.1979E+02
      0.593  0.1269E+02  0.2050E+02
      0.649  0.1039E+02  0.2109E+02
      0.706  0.8047E+01  0.2155E+02
      0.763  0.5440E+01  0.2186E+02
      0.819  0.2871E+01  0.2202E+02
      0.876  0.8736E+00  0.2207E+02
      0.933 -0.3106E+00  0.2205E+02
      0.989 -0.8935E+00  0.2200E+02
      1.046 -0.1243E+01  0.2193E+02
      1.102 -0.1409E+01  0.2185E+02
      1.159 -0.8032E+00  0.2180E+02
      1.216  0.1692E+01  0.2190E+02
      1.272  0.6979E+01  0.2230E+02
      1.329  0.1465E+02  0.2312E+02
      1.386  0.2249E+02  0.2440E+02
      1.442  0.2739E+02  0.2595E+02
      1.499  0.2742E+02  0.2750E+02
      1.555  0.2321E+02  0.2882E+02
      1.612  0.1747E+02  0.2981E+02
      1.669  0.1298E+02  0.3054E+02
      1.725  0.1079E+02  0.3115E+02
      1.782  0.1026E+02  0.3173E+02
      1.839  0.1016E+02  0.3231E+02
      1.895  0.9652E+01  0.3285E+02
      1.952  0.8400E+01  0.3333E+02
      2.008  0.6433E+01  0.3369E+02
      2.065  0.4091E+01  0.3393E+02
      2.122  0.1924E+01  0.3403E+02
      2.178  0.3846E+00  0.3406E+02
      2.235 -0.4583E+00  0.3403E+02
      2.292 -0.8663E+00  0.3398E+02
      2.348 -0.1083E+01  0.3392E+02
      2.405 -0.9585E+00  0.3387E+02
      2.461  0.1695E+00  0.3388E+02
      2.518  0.3119E+01  0.3405E+02
      2.575  0.8084E+01  0.3451E+02
      2.631  0.1399E+02  0.3530E+02
      2.688  0.1875E+02  0.3636E+02
      2.745  0.2043E+02  0.3752E+02
      2.801  0.1847E+02  0.3857E+02
      2.858  0.1387E+02  0.3935E+02
      2.914  0.8488E+01  0.3983E+02
      2.971  0.3927E+01  0.4006E+02
      3.028  0.9762E+00  0.4011E+02
      3.084 -0.4393E+00  0.4009E+02
      3.141 -0.9058E+00  0.4003E+02
      3.198 -0.1073E+01  0.3997E+02
      3.254 -0.1295E+01  0.3990E+02
      3.311 -0.1395E+01  0.3982E+02
      3.367 -0.5636E+00  0.3979E+02
      3.424  0.2427E+01  0.3993E+02
      3.481  0.8497E+01  0.4041E+02
      3.537  0.1726E+02  0.4139E+02
      3.594  0.2649E+02  0.4289E+02
      3.651  0.3281E+02  0.4474E+02
      3.707  0.3352E+02  0.4664E+02
      3.764  0.2840E+02  0.4825E+02
      3.820  0.2008E+02  0.4939E+02
      3.877  0.1242E+02  0.5009E+02
      3.934  0.8048E+01  0.5055E+02
      3.990  0.6891E+01  0.5094E+02
      4.047  0.6917E+01  0.5133E+02
      4.104  0.6137E+01  0.5168E+02
      4.160  0.4039E+01  0.5190E+02
      4.217  0.1415E+01  0.5198E+02
      4.273 -0.6709E+00  0.5195E+02
      4.330 -0.1456E+01  0.5186E+02
      4.387 -0.3106E+00  0.5185E+02
      4.443  0.3406E+01  0.5204E+02
      4.500  0.9853E+01  0.5260E+02
      4.557  0.1801E+02  0.5362E+02
      4.613  0.2573E+02  0.5507E+02
      4.670  0.3082E+02  0.5682E+02
      4.726  0.3239E+02  0.5865E+02
      4.783  0.3122E+02  0.6042E+02
      4.840  0.2889E+02  0.6206E+02
      4.896  0.2649E+02  0.6356E+02
      4.953  0.2410E+02  0.6492E+02
      5.010  0.2139E+02  0.6613E+02
      5.066  0.1837E+02  0.6717E+02
      5.123  0.1541E+02  0.6805E+02
      5.179  0.1268E+02  0.6876E+02
      5.236  0.9977E+01  0.6933E+02
      5.293  0.7009E+01  0.6973E+02
      5.349  0.3916E+01  0.6995E+02
      5.406  0.1256E+01  0.7002E+02
      5.463 -0.3496E+00  0.7000E+02
      5.519 -0.4668E+00  0.6997E+02
      5.576  0.1081E+01  0.7003E+02
      5.633  0.4077E+01  0.7026E+02
      5.689  0.7709E+01  0.7070E+02
      5.746  0.1072E+02  0.7131E+02
      5.802  0.1207E+02  0.7199E+02
      5.859  0.1150E+02  0.7264E+02
      5.916  0.9510E+01  0.7318E+02
      5.972  0.6865E+01  0.7357E+02
      6.029  0.4337E+01  0.7381E+02
      6.086  0.2711E+01  0.7397E+02
      6.142  0.2619E+01  0.7412E+02
      6.199  0.4068E+01  0.7435E+02
      6.255  0.6135E+01  0.7469E+02
      6.312  0.7367E+01  0.7511E+02
      6.369  0.6745E+01  0.7549E+02
      6.425  0.4423E+01  0.7574E+02
      6.482  0.1723E+01  0.7584E+02
      6.539  0.4901E+00  0.7587E+02
      6.595  0.2243E+01  0.7600E+02
      6.652  0.7279E+01  0.7641E+02
      6.708  0.1415E+02  0.7721E+02
      6.765  0.2029E+02  0.7836E+02
      6.822  0.2396E+02  0.7972E+02
      6.878  0.2565E+02  0.8117E+02
      6.935  0.2728E+02  0.8271E+02
      6.992  0.2958E+02  0.8439E+02
      7.048  0.3089E+02  0.8614E+02
      7.105  0.2870E+02  0.8776E+02
      7.161  0.2234E+02  0.8903E+02
      7.218  0.1378E+02  0.8981E+02
      7.275  0.6035E+01  0.9015E+02
      7.331  0.1044E+01  0.9021E+02
      7.388 -0.1135E+01  0.9014E+02
      7.445 -0.1618E+01  0.9005E+02
      7.501 -0.1557E+01  0.8996E+02
      7.558 -0.1416E+01  0.8988E+02
      7.614 -0.8181E+00  0.8984E+02
      7.671  0.1134E+01  0.8990E+02
      7.728  0.5133E+01  0.9019E+02
      7.784  0.1084E+02  0.9081E+02
      7.841  0.1676E+02  0.9176E+02
      7.898  0.2125E+02  0.9296E+02
      7.954  0.2391E+02  0.9431E+02
      8.011  0.2598E+02  0.9578E+02
      8.067  0.2895E+02  0.9742E+02
      8.124  0.3286E+02  0.9928E+02
      8.181  0.3588E+02  0.1013E+03
      8.237  0.3573E+02  0.1033E+03
      8.294  0.3145E+02  0.1051E+03
      8.351  0.2410E+02  0.1065E+03
      8.407  0.1587E+02  0.1074E+03
      8.464  0.8741E+01  0.1079E+03
      8.520  0.3706E+01  0.1081E+03
      8.577  0.7846E+00  0.1081E+03
      8.634 -0.5431E+00  0.1081E+03
      8.690 -0.9667E+00  0.1080E+03
      8.747 -0.1095E+01  0.1080E+03
      8.804 -0.1236E+01  0.1079E+03
      8.860 -0.1185E+01  0.1078E+03
      8.917 -0.1491E+00  0.1078E+03
      8.973  0.2868E+01  0.1080E+03
      9.030  0.8135E+01  0.1085E+03
      9.087  0.1440E+02  0.1093E+03
      9.143  0.1940E+02  0.1104E+03
      9.200  0.2174E+02  0.1116E+03
      9.257  0.2227E+02  0.1129E+03
      9.313  0.2305E+02  0.1142E+03
      9.370  0.2478E+02  0.1156E+03
      9.426  0.2574E+02  0.1170E+03
      9.483  0.2351E+02  0.1184E+03
      9.540  0.1759E+02  0.1194E+03
      9.596  0.9954E+01  0.1199E+03
      9.653  0.3319E+01  0.1201E+03
      9.710 -0.6667E+00  0.1201E+03
      9.766 -0.1707E+01  0.1200E+03
      9.823  0.1946E-02  0.1200E+03
      9.879  0.4173E+01  0.1202E+03
      9.936  0.9826E+01  0.1208E+03
      9.993  0.1478E+02  0.1216E+03
     10.049  0.1657E+02  0.1225E+03
     10.106  0.1422E+02  0.1234E+03
     10.163  0.9170E+01  0.1239E+03
     10.219  0.4019E+01  0.1241E+03
     10.276  0.6332E+00  0.1241E+03
     10.332 -0.7250E+00  0.1241E+03
     10.389 -0.8267E+00  0.1240E+03
     10.446 -0.5147E+00  0.1240E+03
     10.502 -0.2339E+00  0.1240E+03
     10.559 -0.8361E-01  0.1240E+03
     10.616 -0.2424E-01  0.1240E+03
     10.672 -0.5791E-02  0.1240E+03
     10.729 -0.1151E-02  0.1240E+03
     10.785 -0.1914E-03  0.1240E+03
     10.842 -0.2675E-04  0.1240E+03
     10.899 -0.3150E-05  0.1240E+03
     10.955 -0.3133E-06  0.1240E+03
     11.012 -0.2635E-07  0.1240E+03
     11.069 -0.1877E-08  0.1240E+03
     11.125 -0.1133E-09  0.1240E+03
     11.182 -0.5811E-11  0.1240E+03
     11.239 -0.2549E-12  0.1240E+03
     11.295 -0.7842E-14  0.1240E+03
     11.352  0.0000E+00  0.1240E+03
     11.408  0.0000E+00  0.1240E+03
     11.465  0.0000E+00  0.1240E+03
     11.522  0.0000E+00  0.1240E+03
     11.578  0.0000E+00  0.1240E+03
     11.635  0.0000E+00  0.1240E+03
     11.692  0.0000E+00  0.1240E+03
     11.748  0.0000E+00  0.1240E+03
     11.805  0.0000E+00  0.1240E+03
     11.861  0.0000E+00  0.1240E+03
     11.918  0.0000E+00  0.1240E+03
     11.975  0.0000E+00  0.1240E+03
     12.031  0.0000E+00  0.1240E+03
