   31   31    1    1
  0.1706119E+02  0.8087054E-09  0.8087054E-09  0.8087054E-09  0.5000000E-15
  1.000000000000000E-004
  CAR 
 unknown system                          
   92    2   62
 
  0.2500000E+00  0.2500000E+00  0.2500000E+00  0.5000000E+00
   1       -2.953734
   2       -1.923412
   3       -1.872913
   4       -1.639550
   5       -0.802334
   6       -0.748853
   7       -0.384204
   8        0.293909
   9        0.332519
  10        0.504066
  11        0.613175
  12        1.347870
  13        1.401706
  14        1.419851
  15        1.553613
  16        1.729548
  17        1.966868
  18        2.662478
  19        2.678231
  20        2.849461
  21        3.542344
  22        3.613369
  23        3.660193
  24        3.713718
  25        3.751746
  26        4.038055
  27        4.541569
  28        4.595611
  29        4.634937
  30        4.756325
  31        4.813123
  32        4.884165
  33        4.934511
  34        5.057640
  35        5.240977
  36        5.719020
  37        5.833344
  38        6.334246
  39        6.737368
  40        6.763188
  41        6.796770
  42        6.970709
  43        7.013781
  44        7.072230
  45        7.114869
  46        7.814717
  47        7.846257
  48        7.940396
  49        8.080073
  50        8.165059
  51        8.229187
  52        8.257435
  53        8.329986
  54        8.416994
  55        9.091547
  56        9.154545
  57        9.165092
  58        9.395032
  59        9.416625
  60        9.479030
  61       10.000859
  62       10.031269
 
 -0.2500000E+00  0.2500000E+00  0.2500000E+00  0.5000000E+00
   1       -2.956612
   2       -1.916487
   3       -1.816251
   4       -1.706870
   5       -0.800665
   6       -0.666517
   7       -0.520199
   8        0.299387
   9        0.399560
  10        0.433914
  11        0.685300
  12        1.376188
  13        1.460471
  14        1.473150
  15        1.506043
  16        1.726862
  17        1.871774
  18        2.630771
  19        2.735788
  20        2.773129
  21        3.552908
  22        3.625676
  23        3.653986
  24        3.688631
  25        3.764961
  26        4.006616
  27        4.571393
  28        4.653999
  29        4.676122
  30        4.724003
  31        4.743420
  32        4.915512
  33        4.934587
  34        5.055842
  35        5.180209
  36        5.732151
  37        5.952120
  38        6.261865
  39        6.756007
  40        6.776285
  41        6.881189
  42        7.005051
  43        7.022845
  44        7.058826
  45        7.135285
  46        7.846431
  47        7.912372
  48        7.979057
  49        8.068822
  50        8.128372
  51        8.137420
  52        8.181481
  53        8.227200
  54        8.276424
  55        9.134959
  56        9.158584
  57        9.303538
  58        9.396970
  59        9.402284
  60        9.481764
  61       10.004574
  62       10.028177
