 vasp.5.2.2 15Apr09 complex 
 executed on             LinuxIFC date 2014.04.24  10:20:30
 running on    1 nodes
 distr:  one band on    1 nodes,    1 groups


--------------------------------------------------------------------------------------------------------


 INCAR:
 POTCAR:   PAW_PBE Mg 05Jan2001                   
 POTCAR:   PAW_PBE Al 04Jan2001                   
 POTCAR:   PAW_PBE Mg 05Jan2001                   
   VRHFIN =Mg: s2p0                                                             
   LEXCH  = PE                                                                  
   EATOM  =    23.0029 eV,    1.6907 Ry                                         
                                                                                
   TITEL  = PAW_PBE Mg 05Jan2001                                                
   LULTRA =        F    use ultrasoft PP ?                                      
   IUNSCR =        1    unscreen: 0-lin 1-nonlin 2-no                           
   RPACOR =    2.000    partial core radius                                     
   POMASS =   24.305; ZVAL   =    2.000    mass and valenz                      
   RCORE  =    2.000    outmost cutoff radius                                   
   RWIGS  =    2.880; RWIGS  =    1.524    wigner-seitz radius (au A)           
   ENMAX  =  210.012; ENMIN  =  157.509 eV                                      
   ICORE  =        2    local potential                                         
   LCOR   =        T    correct aug charges                                     
   LPAW   =        T    paw PP                                                  
   EAUG   =  274.554                                                            
   DEXC   =    -.136                                                            
   RMAX   =    3.182    core radius for proj-oper                               
   RAUG   =    1.300    factor for augmentation sphere                          
   RDEP   =    2.025    radius for radial grids                                 
   QCUT   =   -3.929; QGAM   =    7.858    optimization parameters              
                                                                                
   Description                                                                  
     l     E      TYP  RCUT    TYP  RCUT                                        
     0   .000     23  2.000                                                     
     0  2.000     23  2.000                                                     
     1   .000     23  2.000                                                     
     1  2.000     23  2.000                                                     
     2   .000     23  2.000                                                     
  local pseudopotential read in
  partial core-charges read in
  atomic valenz-charges read in
  non local Contribution for L=           0  read in
    real space projection operators read in
  non local Contribution for L=           0  read in
    real space projection operators read in
  non local Contribution for L=           1  read in
    real space projection operators read in
  non local Contribution for L=           1  read in
    real space projection operators read in
    PAW grid and wavefunctions read in
 
   number of l-projection  operators is LMAX  =           4
   number of lm-projection operators is LMMAX =           8
 
 POTCAR:   PAW_PBE Al 04Jan2001                   
   VRHFIN =Al: s2p1                                                             
   LEXCH  = PE                                                                  
   EATOM  =    53.5387 eV,    3.9350 Ry                                         
                                                                                
   TITEL  = PAW_PBE Al 04Jan2001                                                
   LULTRA =        F    use ultrasoft PP ?                                      
   IUNSCR =        1    unscreen: 0-lin 1-nonlin 2-no                           
   RPACOR =    1.500    partial core radius                                     
   POMASS =   26.982; ZVAL   =    3.000    mass and valenz                      
   RCORE  =    1.900    outmost cutoff radius                                   
   RWIGS  =    2.650; RWIGS  =    1.402    wigner-seitz radius (au A)           
   ENMAX  =  240.300; ENMIN  =  180.225 eV                                      
   ICORE  =        2    local potential                                         
   LCOR   =        T    correct aug charges                                     
   LPAW   =        T    paw PP                                                  
   EAUG   =  291.052                                                            
   DEXC   =    -.041                                                            
   RMAX   =    2.974    core radius for proj-oper                               
   RAUG   =    1.300    factor for augmentation sphere                          
   RDEP   =    1.966    radius for radial grids                                 
   QCUT   =   -4.203; QGAM   =    8.405    optimization parameters              
                                                                                
   Description                                                                  
     l     E      TYP  RCUT    TYP  RCUT                                        
     0   .000     23  1.900                                                     
     0   .000     23  1.900                                                     
     1   .000     23  1.900                                                     
     1  1.000     23  1.900                                                     
     2   .000      7  1.900                                                     
  local pseudopotential read in
  partial core-charges read in
  atomic valenz-charges read in
  non local Contribution for L=           0  read in
    real space projection operators read in
  non local Contribution for L=           0  read in
    real space projection operators read in
  non local Contribution for L=           1  read in
    real space projection operators read in
  non local Contribution for L=           1  read in
    real space projection operators read in
    PAW grid and wavefunctions read in
 
   number of l-projection  operators is LMAX  =           4
   number of lm-projection operators is LMMAX =           8
 

 ----------------------------------------------------------------------------- 
|                                                                             |
|  ADVICE TO THIS USER RUNNING 'VASP/VAMP'   (HEAR YOUR MASTER'S VOICE ...):  |
|                                                                             |
|      You have a (more or less) 'large supercell' and for larger cells       |
|      it might be more efficient to use real space projection operators      |
|      So try LREAL= Auto  in the INCAR   file.                               |
|      Mind: If you want to do a very accurate calculations keep the          |
|      reciprocal projection scheme          (i.e. LREAL=.FALSE.)             |
|                                                                             |
 ----------------------------------------------------------------------------- 

 PAW_PBE Mg 05Jan2001                   :
 energy of atom  1       EATOM=  -23.0029
 kinetic energy error for atom=    0.0002 (will be added to EATOM!!)
 PAW_PBE Al 04Jan2001                   :
 energy of atom  2       EATOM=  -53.5387
 kinetic energy error for atom=    0.0011 (will be added to EATOM!!)
 
 
 POSCAR: Mg1 Al30                                
  positions in direct lattice
  velocities in cartesian coordinates
 exchange correlation table for  LEXCH =        8
   RHO(1)=    0.500       N(1)  =     2000
   RHO(2)=  100.500       N(2)  =     4000

 VTST: version 2.03d, (02/18/09)

 CHAIN: initializing optimizer
 
 OPT: Using VASP Dynamics algorithm
 CHAIN: Read ICHAIN            0
 


--------------------------------------------------------------------------------------------------------


 ion  position               nearest neighbor table
   1  0.489  0.500  0.489-   9 2.84  16 2.84  19 2.84  27 2.84  26 2.89  14 2.89  23 2.92  24 2.92
                            30 2.92  31 2.92  29 2.99
   2  0.999  0.000  0.999-   7 2.84  18 2.84  22 2.84   8 2.84  20 2.84  15 2.84  28 2.84   3 2.86
                             5 2.90  11 2.90  12 2.90   4 2.90
   3  0.249  0.000  0.249-   4 2.85   5 2.85  11 2.85  12 2.85   9 2.85  16 2.85  19 2.85  27 2.85
                             2 2.86   6 2.88  17 2.88  21 2.89
   4  0.252  0.254  0.005-   9 2.80   5 2.81  10 2.82  13 2.82   3 2.85  26 2.85   6 2.88  24 2.88
                            18 2.89   2 2.90  20 2.91
   5  0.005  0.254  0.252-  19 2.80   4 2.81  10 2.82  25 2.82   3 2.85  14 2.85  17 2.88  23 2.88
                             7 2.89   2 2.90   8 2.91
   6  0.500  0.000  0.997-  18 2.82  16 2.84   9 2.84  22 2.84  24 2.84  31 2.84  15 2.86   8 2.86
                             4 2.88  11 2.88   3 2.88   7 2.90
   7  0.754  0.000  0.250-  17 2.82   2 2.84  23 2.86  30 2.86  16 2.87   9 2.87   8 2.87  15 2.87
                            21 2.88   5 2.89  12 2.89   6 2.90
   8  0.751  0.249  0.998-  20 2.82  22 2.84   2 2.84  29 2.85   9 2.85  24 2.86   6 2.86  14 2.86
                             7 2.87  13 2.88  10 2.88   5 2.91
   9  0.500  0.248  0.245-   4 2.80  13 2.83   6 2.84   1 2.84   8 2.85   3 2.85   7 2.87  21 2.88
                            23 2.88  14 2.89  19 2.91
  10  0.004  0.500  0.004-   4 2.82   5 2.82  11 2.82  12 2.82  14 2.83  26 2.83  15 2.88  20 2.88
                             8 2.88  28 2.88  29 2.90
  11  0.252  0.746  0.005-  16 2.80  12 2.81  10 2.82  13 2.82   3 2.85  26 2.85   6 2.88  31 2.88
                            18 2.89   2 2.90  28 2.91
  12  0.005  0.746  0.252-  27 2.80  11 2.81  10 2.82  25 2.82   3 2.85  14 2.85  17 2.88  30 2.88
                             7 2.89   2 2.90  15 2.91
  13  0.499  0.500  0.003-   4 2.82  11 2.82   9 2.83  16 2.83  14 2.85  26 2.87   8 2.88  15 2.88
                            24 2.88  31 2.88  29 2.88
  14  0.753  0.500  0.248-  10 2.83  13 2.85  12 2.85   5 2.85   8 2.86  15 2.86  25 2.87  23 2.88
                            30 2.88  16 2.89   9 2.89   1 2.89
  15  0.751  0.751  0.998-  28 2.82  22 2.84   2 2.84  29 2.85  16 2.85  31 2.86   6 2.86  14 2.86
                             7 2.87  13 2.88  10 2.88  12 2.91
  16  0.500  0.752  0.245-  11 2.80  13 2.83   6 2.84   1 2.84  15 2.85   3 2.85   7 2.87  21 2.88
                            30 2.88  14 2.89  27 2.91
  17  0.997  0.000  0.500-   7 2.82  19 2.84  27 2.84  22 2.84  23 2.84  30 2.84  28 2.86  20 2.86
                            12 2.88   5 2.88   3 2.88  18 2.90
  18  0.250  0.000  0.754-   6 2.82   2 2.84  24 2.86  31 2.86  27 2.87  19 2.87  28 2.87  20 2.87
                            21 2.88  11 2.89   4 2.89  17 2.90
  19  0.245  0.248  0.500-   5 2.80  25 2.83  17 2.84   1 2.84  20 2.85   3 2.85  18 2.87  21 2.88
                            24 2.88  26 2.89   9 2.91
  20  0.998  0.249  0.751-   8 2.82  22 2.84   2 2.84  29 2.85  19 2.85  23 2.86  17 2.86  26 2.86
                            18 2.87  25 2.88  10 2.88   4 2.91
  21  0.502  0.000  0.502-  22 2.84  23 2.85  24 2.85  30 2.85  31 2.85  18 2.88   7 2.88  19 2.88
                            27 2.88  16 2.88   9 2.88   3 2.89
  22  0.750  0.000  0.750-   6 2.84  17 2.84  15 2.84   8 2.84  20 2.84  28 2.84   2 2.84  21 2.84
                            24 2.86  23 2.86  30 2.86  31 2.86
  23  0.750  0.250  0.500-  17 2.84  21 2.85   7 2.86  24 2.86  20 2.86  22 2.86  29 2.87  14 2.88
                            25 2.88   9 2.88   5 2.88   1 2.92
  24  0.500  0.250  0.750-   6 2.84  21 2.85  18 2.86  23 2.86   8 2.86  22 2.86  29 2.87  26 2.88
                            13 2.88  19 2.88   4 2.88   1 2.92
  25  0.003  0.500  0.499-   5 2.82  12 2.82  19 2.83  27 2.83  26 2.85  14 2.87  20 2.88  28 2.88
                            23 2.88  30 2.88  29 2.88
  26  0.248  0.500  0.753-  10 2.83  25 2.85  11 2.85   4 2.85  20 2.86  28 2.86  13 2.87  24 2.88
                            31 2.88  19 2.89  27 2.89   1 2.89
  27  0.245  0.752  0.500-  12 2.80  25 2.83  17 2.84   1 2.84  28 2.85   3 2.85  18 2.87  21 2.88
                            31 2.88  26 2.89  16 2.91
  28  0.998  0.751  0.751-  15 2.82  22 2.84   2 2.84  29 2.85  27 2.85  30 2.86  17 2.86  26 2.86
                            18 2.87  25 2.88  10 2.88  11 2.91
  29  0.751  0.500  0.751-   8 2.85  15 2.85  20 2.85  28 2.85  23 2.87  30 2.87  24 2.87  31 2.87
                            25 2.88  13 2.88  10 2.90   1 2.99
  30  0.750  0.750  0.500-  17 2.84  21 2.85   7 2.86  31 2.86  28 2.86  22 2.86  29 2.87  14 2.88
                            25 2.88  16 2.88  12 2.88   1 2.92
  31  0.500  0.750  0.750-   6 2.84  21 2.85  18 2.86  30 2.86  15 2.86  22 2.86  29 2.87  26 2.88
                            13 2.88  27 2.88  11 2.88   1 2.92
 
  LATTYP: Found a simple cubic cell.
 ALAT       =     8.0870540000
  
  Lattice vectors:
  
 A1 = (   8.0870540000,   0.0000000000,   0.0000000000)
 A2 = (   0.0000000000,   8.0870540000,   0.0000000000)
 A3 = (   0.0000000000,   0.0000000000,   8.0870540000)
 Subroutine PRICEL returns:
 Original cell was already a primitive cell.
 

Analysis of symmetry for initial positions (statically):

 Routine SETGRP: Setting up the symmetry group for a 
 simple cubic supercell.


 Subroutine GETGRP returns: Found  4 space group operations
 (whereof  4 operations were pure point group operations)
 out of a pool of 48 trial point group operations.


The static configuration has the point symmetry C_2v.

Analysis of symmetry for dynamics (positions and initial velocities):

 Subroutine DYNSYM returns: Found  4 space group operations
 (whereof  4 operations were pure point group operations)
 out of a pool of  4 trial space group operations
 (whereof  4 operations were pure point group operations)
 and found also     1 'primitive' translations


The dynamic configuration has the point symmetry C_2v.
 
 
 KPOINTS: Automatic kpoint scheme                 

Automatic generation of k-mesh.
 
 Subroutine IBZKPT returns following result:
 ===========================================
 
 Found      2 irreducible k-points:
 
 Following reciprocal coordinates:
            Coordinates               Weight
  0.250000  0.250000  0.250000      4.000000
 -0.250000  0.250000  0.250000      4.000000
 
 Following cartesian coordinates:
            Coordinates               Weight
  0.030914  0.030914  0.030914      4.000000
 -0.030914  0.030914  0.030914      4.000000
 


--------------------------------------------------------------------------------------------------------




 Dimension of arrays:
   k-points           NKPTS =      2   k-points in BZ     NKDIM =      2   number of bands    NBANDS=     62
   number of dos      NEDOS =    301   number of ions     NIONS =     31
   non local maximal  LDIM  =      4   non local SUM 2l+1 LMDIM =      8
   total plane-waves  NPLWV = 110592
   max r-space proj   IRMAX =      1   max aug-charges    IRDMAX=   9081
   dimension x,y,z NGX =    48 NGY =   48 NGZ =   48
   dimension x,y,z NGXF=    96 NGYF=   96 NGZF=   96
   support grid    NGXF=    96 NGYF=   96 NGZF=   96
   ions per type =               1  30
 NGX,Y,Z   is equivalent  to a cutoff of   9.87,  9.87,  9.87 a.u.
 NGXF,Y,Z  is equivalent  to a cutoff of  19.73, 19.73, 19.73 a.u.


 I would recommend the setting:
   dimension x,y,z NGX =    46 NGY =   46 NGZ =   46
 SYSTEM =  unknown system                          
 POSCAR =  Mg1 Al30                                

 Startparameter for this run:
   NWRITE =      2    write-flag & timer
   PREC   = accura    medium, high low
   ISTART =      0    job   : 0-new  1-cont  2-samecut
   ICHARG =      2    charge: 1-file 2-atom 10-const
   ISPIN  =      1    spin polarized calculation?
   LNONCOLLINEAR =      F non collinear calculations
   LSORBIT =      F    spin-orbit coupling
   INIWAV =      1    electr: 0-lowe 1-rand  2-diag
   LASPH  =      F    aspherical Exc in radial PAW
   METAGGA=      F    non-selfconsistent MetaGGA calc.

 Electronic Relaxation 1
   ENCUT  =  300.0 eV  22.05 Ry    4.70 a.u.  11.42 11.42 11.42*2*pi/ulx,y,z
   ENINI  =  300.0     initial cutoff
   ENAUG  =  291.1 eV  augmentation charge cutoff
   NELM   =     60;   NELMIN=  2; NELMDL=-12     # of ELM steps 
   EDIFF  = 0.1E-03   stopping-criterion for ELM
   LREAL  =      F    real-space projection
   LCOMPAT=      F    compatible to vasp.4.4
   LREAL_COMPAT= F    compatible to vasp.4.5.1-3
   GGA_COMPAT  = T    GGA compatible to vasp.4.4-vasp.4.6
   LMAXPAW     = -100 max onsite density
   LMAXMIX     =    2 max onsite mixed and CHGCAR
   VOSKOWN=      0    Vosko Wilk Nusair interpolation
   ROPT   =    0.00000   0.00000
 Ionic relaxation
   EDIFFG = 0.5E-01   stopping-criterion for IOM
   NSW    =      0    number of steps for IOM
   NBLOCK =      1;   KBLOCK =      1    inner block; outer block 
   IBRION =     -1    ionic relax: 0-MD 1-quasi-New 2-CG
   NFREE  =      0    steps in history (QN), initial steepest desc. (CG)
   ISIF   =      2    stress and relaxation
   IWAVPR =     10    prediction:  0-non 1-charg 2-wave 3-comb
   ISYM   =      2    0-nonsym 1-usesym 2-fastsym
   LCORR  =      T    Harris-Foulkes like correction to forces

   POTIM  = 0.5000    time-step for ionic-motion
   TEIN   =    0.0    initial temperature
   TEBEG  =    0.0;   TEEND  =   0.0 temperature during run
   SMASS  =  -3.00    Nose mass-parameter (am)
   estimated Nose-frequenzy (Omega)   =  0.10E-29 period in steps =****** mass=  -0.149E-26a.u.
   NPACO  =    256;   APACO  = 16.0  distance and # of slots for P.C.
   PSTRESS=    0.0 pullay stress

  Mass of Ions in am
   POMASS =  24.30 26.98
  Ionic Valenz
   ZVAL   =   2.00  3.00
  Atomic Wigner-Seitz radii
   RWIGS  =  -1.00 -1.00
   NELECT =      92.0000    total number of electrons
   NUPDOWN=      -1.0000    fix difference up-down

 DOS related values:
   EMIN   =  10.00;   EMAX   =-10.00  energy-range for DOS
   EFERMI =   0.00
   ISMEAR =     1;   SIGMA  =   0.20  broadening in eV -4-tet -1-fermi 0-gaus

 Electronic relaxation 2 (details)
   IALGO  =     48    algorithm
   LDIAG  =      T    sub-space diagonalisation
   IMIX   =      4    mixing-type and parameters
     AMIX     =   0.40;   BMIX     =  1.00
     AMIX_MAG =   1.60;   BMIX_MAG =  1.00
     AMIN     =   0.10
     WC   =   100.;   INIMIX=   1;  MIXPRE=   1

 Intra band minimization:
   WEIMIN = 0.0000     energy-eigenvalue tresh-hold
   EBREAK =  0.40E-06  absolut break condition
   DEPER  =   0.30     relativ break condition  

   TIME   =   0.40     timestep for ELM

  volume/ion in A,a.u.               =      17.06       115.13
  Fermi-wavevector in a.u.,A,eV,Ry     =   0.913862  1.726948 11.362811  0.835143
  Thomas-Fermi vector in A             =   2.038422
 
 Write flags
   LWAVE  =      F    write WAVECAR
   LCHARG =      F    write CHGCAR
   LVTOT  =      F    write LOCPOT, local potential
   LELF   =      F    write electronic localiz. function (ELF)
   LORBIT =      0    0 simple, 1 ext, 2 COOP (PROOUT)


 Dipole corrections
   LMONO  =      F    monopole corrections only (constant potential shift)
   LDIPOL =      F    correct potential (dipole corrections)
   IDIPOL =      0    1-x, 2-y, 3-z, 4-all directions 
   EPSILON=  1.0000000 bulk dielectric constant

 Exchange correlation treatment:
   GGA     =    --    GGA type
   LEXCH   =     8    internal setting for exchange type
   VOSKOWN=      0    Vosko Wilk Nusair interpolation
   LHFCALC =     F    Hartree Fock is set to
   LHFONE  =     F    Hartree Fock one center treatment
   AEXX    =    0.0000 exact exchange contribution

 Linear response parameters
   LEPSILON=     F    determine dielectric tensor
   LRPA    =     F    only Hartree local field effects (RPA)
   LNABLA  =     F    use nabla operator in PAW spheres
   LVEL    =     F    velocity operator in full k-point grid
   LINTERFAST=   F  fast interpolation
   KINTER  =     0    interpolate to denser k-point grid
   CSHIFT  =0.1000    complex shift for real part using Kramers Kronig
   OMEGAMAX=  -1.0    maximum frequency

 Orbital magnetization related:
   ORBITALMAG=     F  switch on orbital magnetization
   LCHIMAG   =     F  perturbation theory with respect to B field



--------------------------------------------------------------------------------------------------------


 Static calculation
 charge density and potential will be updated during run
 non-spin polarized calculation
 RMM-DIIS sequential band-by-band
 perform sub-space diagonalisation
    before iterative eigenvector-optimisation
 modified Broyden-mixing scheme, WC =      100.0
 initial mixing is a Kerker type mixing with AMIX =  0.4000 and BMIX =      1.0000
 Hartree-type preconditioning will be used
 using additional bands           16
 reciprocal scheme for non local part
 use partial core corrections
 calculate Harris-corrections to forces 
   (improved forces if not selfconsistent)
 use gradient corrections 
 use of overlap-Matrix (Vanderbilt PP)
 Methfessel and Paxton  Order N= 1 SIGMA  =   0.20


--------------------------------------------------------------------------------------------------------


  energy-cutoff  :      300.00
  volume of cell :      528.90
      direct lattice vectors                 reciprocal lattice vectors
     8.087054000  0.000000000  0.000000000     0.123654423  0.000000000  0.000000000
     0.000000000  8.087054000  0.000000000     0.000000000  0.123654423  0.000000000
     0.000000000  0.000000000  8.087054000     0.000000000  0.000000000  0.123654423

  length of vectors
     8.087054000  8.087054000  8.087054000     0.123654423  0.123654423  0.123654423


 
 k-points in units of 2pi/SCALE and weight: Automatic kpoint scheme                 
   0.03091361  0.03091361  0.03091361       0.500
  -0.03091361  0.03091361  0.03091361       0.500
 
 k-points in reciprocal lattice and weights: Automatic kpoint scheme                 
   0.25000000  0.25000000  0.25000000       0.500
  -0.25000000  0.25000000  0.25000000       0.500
 
 position of ions in fractional coordinates (direct lattice) 
   0.48919700  0.50000000  0.48919700
   0.99895400  0.00000000  0.99895400
   0.24921100  0.00000000  0.24921100
   0.25153700  0.25445300  0.00545800
   0.00545800  0.25445300  0.25153700
   0.50010800  0.00000000  0.99663600
   0.75382700  0.00000000  0.25037000
   0.75095000  0.24908900  0.99793900
   0.50018600  0.24756300  0.24547200
   0.00438400  0.50000000  0.00438400
   0.25153700  0.74554700  0.00545800
   0.00545800  0.74554700  0.25153700
   0.49871700  0.50000000  0.00316300
   0.75255800  0.50000000  0.24756000
   0.75095000  0.75091100  0.99793900
   0.50018600  0.75243700  0.24547200
   0.99663600  0.00000000  0.50010800
   0.25037000  0.00000000  0.75382700
   0.24547200  0.24756300  0.50018600
   0.99793900  0.24908900  0.75095000
   0.50175700  0.00000000  0.50175700
   0.75041200  0.00000000  0.75041200
   0.74961900  0.24965800  0.49996400
   0.49996400  0.24965800  0.74961900
   0.00316300  0.50000000  0.49871700
   0.24756000  0.50000000  0.75255800
   0.24547200  0.75243700  0.50018600
   0.99793900  0.75091100  0.75095000
   0.75089700  0.50000000  0.75089700
   0.74961900  0.75034200  0.49996400
   0.49996400  0.75034200  0.74961900
 
 position of ions in cartesian coordinates  (Angst):
   3.95616256  4.04352700  3.95616256
   8.07859494  0.00000000  8.07859494
   2.01538281  0.00000000  2.01538281
   2.03419330  2.05777515  0.04413914
   0.04413914  2.05777515  2.03419330
   4.04440040  0.00000000  8.05984915
   6.09623966  0.00000000  2.02475571
   6.07297320  2.01439619  8.07038658
   4.04503119  2.00205535  1.98514532
   0.03545364  4.04352700  0.03545364
   2.03419330  6.02927885  0.04413914
   0.04413914  6.02927885  2.03419330
   4.03315131  4.04352700  0.02557935
   6.08597718  4.04352700  2.00203109
   6.07297320  6.07265781  8.07038658
   4.04503119  6.08499865  1.98514532
   8.05984915  0.00000000  4.04440040
   2.02475571  0.00000000  6.09623966
   1.98514532  2.00205535  4.04503119
   8.07038658  2.01439619  6.07297320
   4.05773595  0.00000000  4.05773595
   6.06862237  0.00000000  6.06862237
   6.06220933  2.01899773  4.04323587
   4.04323587  2.01899773  6.06220933
   0.02557935  4.04352700  4.03315131
   2.00203109  4.04352700  6.08597718
   1.98514532  6.08499865  4.04503119
   8.07038658  6.07265781  6.07297320
   6.07254459  4.04352700  6.07254459
   6.06220933  6.06805627  4.04323587
   4.04323587  6.06805627  6.06220933
 


--------------------------------------------------------------------------------------------------------


 k-point  1 :  0.25000.25000.2500  plane waves:    6238
 k-point  2 :  -.25000.25000.2500  plane waves:    6238

 maximum and minimum number of plane-waves per node :    6238   6238

 maximum number of plane-waves:    6238
 maximal index in each direction: 
   IXMAX= 11   IYMAX= 11   IZMAX= 11
   IXMIN=-11   IYMIN=-11   IZMIN=-11

 NGX is ok and might be reduce to  46
 NGY is ok and might be reduce to  46
 NGZ is ok and might be reduce to  46

 serial   3D FFT for wavefunctions
 parallel 3D FFT for charge:
    minimum data exchange during FFTs selected (reduces bandwidth)


 total amount of memory used by VASP on root node 133132. kBytes
========================================================================

   base      :    30000. kBytes
   nonl-proj :     4690. kBytes
   fftplans  :    30736. kBytes
   grid      :    54743. kBytes
   one-center:       95. kBytes
   wavefun   :    12868. kBytes
 
 Broyden mixing: mesh for mixing (old mesh)
   NGX = 23   NGY = 23   NGZ = 23
  (NGX  = 96   NGY  = 96   NGZ  = 96)
  gives a total of  12167 points

 initial charge density was supplied:
 charge density of overlapping atoms calculated
 number of electron   92.0000000 magnetization 
 keeping initial charge density in first step


--------------------------------------------------------------------------------------------------------


 Maximum index for augmentation-charges         8600 (set IRDMAX)


--------------------------------------------------------------------------------------------------------


 First call to EWALD:  gamma=   0.219
 Maximum number of real-space cells 3x 3x 3
 Maximum number of reciprocal cells 3x 3x 3

    FEWALD:  cpu time    0.07: real time    0.02
   RESPFUN:  cpu time    0.00: real time    0.00


----------------------------------------- Iteration    1(   1)  ---------------------------------------


    POTLOK:  cpu time    2.02: real time    1.90
    SETDIJ:  cpu time    0.15: real time    0.15
    EDDIAG:  cpu time    4.97: real time    3.21
  RMM-DIIS:  cpu time   22.35: real time    7.25
    ORTHCH:  cpu time    0.33: real time    0.08
       DOS:  cpu time    0.01: real time    0.00
    --------------------------------------------
      LOOP:  cpu time   29.83: real time   12.61

 eigenvalue-minimisations  :   124
 total energy-change (2. order) : 0.2949928E+03  (-0.1691480E+04)
 number of electron   92.0000000 magnetization 
 augmentation part    92.0000000 magnetization 

 Free energy of the ion-electron system (eV)
  ---------------------------------------------------
  alpha Z        PSCENC =        -7.38312591
  Ewald energy   TEWEN  =     -2181.80197214
  -1/2 Hartree   DENC   =       -23.78526237
  -exchange  EXHF       =         0.00000000
  -V(xc)+E(xc)   XCENC  =      -796.35263540
  PAW double counting   =      1078.21717227     -108.50372521
  entropy T*S    EENTRO =        -0.02816030
  eigenvalues    EBANDS =       705.49910911
  atomic energy  EATOM  =      1629.13144109
  ---------------------------------------------------
  free energy    TOTEN  =       294.99284114 eV

  energy without entropy =      295.02100144  energy(sigma->0) =      295.00222790


--------------------------------------------------------------------------------------------------------




----------------------------------------- Iteration    1(   2)  ---------------------------------------


    EDDIAG:  cpu time    4.71: real time    3.12
  RMM-DIIS:  cpu time   22.35: real time    7.29
    ORTHCH:  cpu time    0.34: real time    0.08
       DOS:  cpu time    0.01: real time    0.00
    --------------------------------------------
      LOOP:  cpu time   27.40: real time   10.50

 eigenvalue-minimisations  :   124
 total energy-change (2. order) :-0.3102161E+03  (-0.3042396E+03)
 number of electron   92.0000000 magnetization 
 augmentation part    92.0000000 magnetization 

 Free energy of the ion-electron system (eV)
  ---------------------------------------------------
  alpha Z        PSCENC =        -7.38312591
  Ewald energy   TEWEN  =     -2181.80197214
  -1/2 Hartree   DENC   =       -23.78526237
  -exchange  EXHF       =         0.00000000
  -V(xc)+E(xc)   XCENC  =      -796.35263540
  PAW double counting   =      1078.21717227     -108.50372521
  entropy T*S    EENTRO =        -0.04953738
  eigenvalues    EBANDS =       395.30442525
  atomic energy  EATOM  =      1629.13144109
  ---------------------------------------------------
  free energy    TOTEN  =       -15.22321980 eV

  energy without entropy =      -15.17368242  energy(sigma->0) =      -15.20670734


--------------------------------------------------------------------------------------------------------




----------------------------------------- Iteration    1(   3)  ---------------------------------------


    EDDIAG:  cpu time    4.73: real time    3.13
  RMM-DIIS:  cpu time   22.43: real time    7.27
    ORTHCH:  cpu time    0.36: real time    0.09
       DOS:  cpu time    0.01: real time    0.00
    --------------------------------------------
      LOOP:  cpu time   27.52: real time   10.49

 eigenvalue-minimisations  :   124
 total energy-change (2. order) :-0.7119399E+02  (-0.7358448E+02)
 number of electron   92.0000000 magnetization 
 augmentation part    92.0000000 magnetization 

 Free energy of the ion-electron system (eV)
  ---------------------------------------------------
  alpha Z        PSCENC =        -7.38312591
  Ewald energy   TEWEN  =     -2181.80197214
  -1/2 Hartree   DENC   =       -23.78526237
  -exchange  EXHF       =         0.00000000
  -V(xc)+E(xc)   XCENC  =      -796.35263540
  PAW double counting   =      1078.21717227     -108.50372521
  entropy T*S    EENTRO =        -0.08620881
  eigenvalues    EBANDS =       324.14710263
  atomic energy  EATOM  =      1629.13144109
  ---------------------------------------------------
  free energy    TOTEN  =       -86.41721385 eV

  energy without entropy =      -86.33100504  energy(sigma->0) =      -86.38847758


--------------------------------------------------------------------------------------------------------




----------------------------------------- Iteration    1(   4)  ---------------------------------------


    EDDIAG:  cpu time    4.81: real time    3.14
  RMM-DIIS:  cpu time   22.18: real time    7.25
    ORTHCH:  cpu time    0.34: real time    0.08
       DOS:  cpu time    0.01: real time    0.00
    --------------------------------------------
      LOOP:  cpu time   27.34: real time   10.47

 eigenvalue-minimisations  :   124
 total energy-change (2. order) :-0.1651019E+02  (-0.1678512E+02)
 number of electron   92.0000000 magnetization 
 augmentation part    92.0000000 magnetization 

 Free energy of the ion-electron system (eV)
  ---------------------------------------------------
  alpha Z        PSCENC =        -7.38312591
  Ewald energy   TEWEN  =     -2181.80197214
  -1/2 Hartree   DENC   =       -23.78526237
  -exchange  EXHF       =         0.00000000
  -V(xc)+E(xc)   XCENC  =      -796.35263540
  PAW double counting   =      1078.21717227     -108.50372521
  entropy T*S    EENTRO =        -0.01012106
  eigenvalues    EBANDS =       307.56082384
  atomic energy  EATOM  =      1629.13144109
  ---------------------------------------------------
  free energy    TOTEN  =      -102.92740490 eV

  energy without entropy =     -102.91728384  energy(sigma->0) =     -102.92403121


--------------------------------------------------------------------------------------------------------




----------------------------------------- Iteration    1(   5)  ---------------------------------------


    EDDIAG:  cpu time    4.78: real time    3.14
  RMM-DIIS:  cpu time   22.74: real time    7.49
    ORTHCH:  cpu time    0.33: real time    0.08
       DOS:  cpu time    0.01: real time    0.00
    --------------------------------------------
      LOOP:  cpu time   27.87: real time   10.71

 eigenvalue-minimisations  :   124
 total energy-change (2. order) :-0.6308262E+01  (-0.5288433E+01)
 number of electron   92.0000000 magnetization 
 augmentation part    92.0000000 magnetization 

 Free energy of the ion-electron system (eV)
  ---------------------------------------------------
  alpha Z        PSCENC =        -7.38312591
  Ewald energy   TEWEN  =     -2181.80197214
  -1/2 Hartree   DENC   =       -23.78526237
  -exchange  EXHF       =         0.00000000
  -V(xc)+E(xc)   XCENC  =      -796.35263540
  PAW double counting   =      1078.21717227     -108.50372521
  entropy T*S    EENTRO =        -0.01668960
  eigenvalues    EBANDS =       301.25913076
  atomic energy  EATOM  =      1629.13144109
  ---------------------------------------------------
  free energy    TOTEN  =      -109.23566652 eV

  energy without entropy =     -109.21897692  energy(sigma->0) =     -109.23010332


--------------------------------------------------------------------------------------------------------




----------------------------------------- Iteration    1(   6)  ---------------------------------------


    EDDIAG:  cpu time    4.87: real time    3.16
  RMM-DIIS:  cpu time   22.66: real time    7.30
    ORTHCH:  cpu time    0.33: real time    0.08
       DOS:  cpu time    0.01: real time    0.00
    --------------------------------------------
      LOOP:  cpu time   27.88: real time   10.55

 eigenvalue-minimisations  :   124
 total energy-change (2. order) :-0.2445535E+01  (-0.1981212E+01)
 number of electron   92.0000000 magnetization 
 augmentation part    92.0000000 magnetization 

 Free energy of the ion-electron system (eV)
  ---------------------------------------------------
  alpha Z        PSCENC =        -7.38312591
  Ewald energy   TEWEN  =     -2181.80197214
  -1/2 Hartree   DENC   =       -23.78526237
  -exchange  EXHF       =         0.00000000
  -V(xc)+E(xc)   XCENC  =      -796.35263540
  PAW double counting   =      1078.21717227     -108.50372521
  entropy T*S    EENTRO =        -0.00946624
  eigenvalues    EBANDS =       298.80637278
  atomic energy  EATOM  =      1629.13144109
  ---------------------------------------------------
  free energy    TOTEN  =      -111.68120113 eV

  energy without entropy =     -111.67173489  energy(sigma->0) =     -111.67804572


--------------------------------------------------------------------------------------------------------




----------------------------------------- Iteration    1(   7)  ---------------------------------------


    EDDIAG:  cpu time    4.54: real time    3.09
  RMM-DIIS:  cpu time   22.64: real time    7.31
    ORTHCH:  cpu time    0.33: real time    0.08
       DOS:  cpu time    0.01: real time    0.00
    --------------------------------------------
      LOOP:  cpu time   27.53: real time   10.49

 eigenvalue-minimisations  :   124
 total energy-change (2. order) :-0.9648887E+00  (-0.8062972E+00)
 number of electron   92.0000000 magnetization 
 augmentation part    92.0000000 magnetization 

 Free energy of the ion-electron system (eV)
  ---------------------------------------------------
  alpha Z        PSCENC =        -7.38312591
  Ewald energy   TEWEN  =     -2181.80197214
  -1/2 Hartree   DENC   =       -23.78526237
  -exchange  EXHF       =         0.00000000
  -V(xc)+E(xc)   XCENC  =      -796.35263540
  PAW double counting   =      1078.21717227     -108.50372521
  entropy T*S    EENTRO =         0.00062266
  eigenvalues    EBANDS =       297.83139522
  atomic energy  EATOM  =      1629.13144109
  ---------------------------------------------------
  free energy    TOTEN  =      -112.64608979 eV

  energy without entropy =     -112.64671245  energy(sigma->0) =     -112.64629734


--------------------------------------------------------------------------------------------------------




----------------------------------------- Iteration    1(   8)  ---------------------------------------


    EDDIAG:  cpu time    4.55: real time    3.09
  RMM-DIIS:  cpu time   22.58: real time    7.32
    ORTHCH:  cpu time    0.34: real time    0.08
       DOS:  cpu time    0.01: real time    0.00
    --------------------------------------------
      LOOP:  cpu time   27.48: real time   10.50

 eigenvalue-minimisations  :   124
 total energy-change (2. order) :-0.4162087E+00  (-0.3582906E+00)
 number of electron   92.0000000 magnetization 
 augmentation part    92.0000000 magnetization 

 Free energy of the ion-electron system (eV)
  ---------------------------------------------------
  alpha Z        PSCENC =        -7.38312591
  Ewald energy   TEWEN  =     -2181.80197214
  -1/2 Hartree   DENC   =       -23.78526237
  -exchange  EXHF       =         0.00000000
  -V(xc)+E(xc)   XCENC  =      -796.35263540
  PAW double counting   =      1078.21717227     -108.50372521
  entropy T*S    EENTRO =        -0.00591434
  eigenvalues    EBANDS =       297.42172356
  atomic energy  EATOM  =      1629.13144109
  ---------------------------------------------------
  free energy    TOTEN  =      -113.06229845 eV

  energy without entropy =     -113.05638411  energy(sigma->0) =     -113.06032701


--------------------------------------------------------------------------------------------------------




----------------------------------------- Iteration    1(   9)  ---------------------------------------


    EDDIAG:  cpu time    4.68: real time    3.11
  RMM-DIIS:  cpu time   60.36: real time   17.35
    ORTHCH:  cpu time    0.37: real time    0.10
       DOS:  cpu time    0.01: real time    0.00
    --------------------------------------------
      LOOP:  cpu time   65.41: real time   20.56

 eigenvalue-minimisations  :   332
 total energy-change (2. order) :-0.3523778E+00  (-0.3247202E+00)
 number of electron   92.0000000 magnetization 
 augmentation part    92.0000000 magnetization 

 Free energy of the ion-electron system (eV)
  ---------------------------------------------------
  alpha Z        PSCENC =        -7.38312591
  Ewald energy   TEWEN  =     -2181.80197214
  -1/2 Hartree   DENC   =       -23.78526237
  -exchange  EXHF       =         0.00000000
  -V(xc)+E(xc)   XCENC  =      -796.35263540
  PAW double counting   =      1078.21717227     -108.50372521
  entropy T*S    EENTRO =        -0.00647147
  eigenvalues    EBANDS =       297.06990290
  atomic energy  EATOM  =      1629.13144109
  ---------------------------------------------------
  free energy    TOTEN  =      -113.41467625 eV

  energy without entropy =     -113.40820477  energy(sigma->0) =     -113.41251909


--------------------------------------------------------------------------------------------------------




----------------------------------------- Iteration    1(  10)  ---------------------------------------


    EDDIAG:  cpu time    4.66: real time    3.26
  RMM-DIIS:  cpu time   54.18: real time   15.29
    ORTHCH:  cpu time    0.34: real time    0.08
       DOS:  cpu time    0.01: real time    0.00
    --------------------------------------------
      LOOP:  cpu time   59.18: real time   18.63

 eigenvalue-minimisations  :   299
 total energy-change (2. order) :-0.8039921E-01  (-0.2850201E-01)
 number of electron   92.0000000 magnetization 
 augmentation part    92.0000000 magnetization 

 Free energy of the ion-electron system (eV)
  ---------------------------------------------------
  alpha Z        PSCENC =        -7.38312591
  Ewald energy   TEWEN  =     -2181.80197214
  -1/2 Hartree   DENC   =       -23.78526237
  -exchange  EXHF       =         0.00000000
  -V(xc)+E(xc)   XCENC  =      -796.35263540
  PAW double counting   =      1078.21717227     -108.50372521
  entropy T*S    EENTRO =        -0.02405420
  eigenvalues    EBANDS =       297.00708642
  atomic energy  EATOM  =      1629.13144109
  ---------------------------------------------------
  free energy    TOTEN  =      -113.49507546 eV

  energy without entropy =     -113.47102126  energy(sigma->0) =     -113.48705739


--------------------------------------------------------------------------------------------------------




----------------------------------------- Iteration    1(  11)  ---------------------------------------


    EDDIAG:  cpu time    4.53: real time    3.07
  RMM-DIIS:  cpu time   48.10: real time   13.85
    ORTHCH:  cpu time    0.34: real time    0.08
       DOS:  cpu time    0.01: real time    0.00
    --------------------------------------------
      LOOP:  cpu time   52.97: real time   17.01

 eigenvalue-minimisations  :   261
 total energy-change (2. order) :-0.3887106E-02  (-0.1192059E-02)
 number of electron   92.0000000 magnetization 
 augmentation part    92.0000000 magnetization 

 Free energy of the ion-electron system (eV)
  ---------------------------------------------------
  alpha Z        PSCENC =        -7.38312591
  Ewald energy   TEWEN  =     -2181.80197214
  -1/2 Hartree   DENC   =       -23.78526237
  -exchange  EXHF       =         0.00000000
  -V(xc)+E(xc)   XCENC  =      -796.35263540
  PAW double counting   =      1078.21717227     -108.50372521
  entropy T*S    EENTRO =        -0.02629222
  eigenvalues    EBANDS =       297.00543732
  atomic energy  EATOM  =      1629.13144109
  ---------------------------------------------------
  free energy    TOTEN  =      -113.49896257 eV

  energy without entropy =     -113.47267035  energy(sigma->0) =     -113.49019850


--------------------------------------------------------------------------------------------------------




----------------------------------------- Iteration    1(  12)  ---------------------------------------


    EDDIAG:  cpu time    4.66: real time    3.11
  RMM-DIIS:  cpu time   38.67: real time   11.23
    ORTHCH:  cpu time    0.33: real time    0.08
       DOS:  cpu time    0.01: real time    0.00
    CHARGE:  cpu time    1.74: real time    1.65
    MIXING:  cpu time    0.07: real time    0.07
    --------------------------------------------
      LOOP:  cpu time   45.48: real time   16.14

 eigenvalue-minimisations  :   203
 total energy-change (2. order) :-0.5158744E-04  (-0.3409885E-04)
 number of electron   91.9999997 magnetization 
 augmentation part    -1.0977784 magnetization 

 Broyden mixing:
  rms(total) = 0.53611E+00    rms(broyden)= 0.53608E+00
  rms(prec ) = 0.88483E+00
  weight for this iteration     100.00

 Free energy of the ion-electron system (eV)
  ---------------------------------------------------
  alpha Z        PSCENC =        -7.38312591
  Ewald energy   TEWEN  =     -2181.80197214
  -1/2 Hartree   DENC   =       -23.78526237
  -exchange  EXHF       =         0.00000000
  -V(xc)+E(xc)   XCENC  =      -796.35263540
  PAW double counting   =      1078.21717227     -108.50372521
  entropy T*S    EENTRO =        -0.02630384
  eigenvalues    EBANDS =       297.00539736
  atomic energy  EATOM  =      1629.13144109
  ---------------------------------------------------
  free energy    TOTEN  =      -113.49901416 eV

  energy without entropy =     -113.47271031  energy(sigma->0) =     -113.49024621


--------------------------------------------------------------------------------------------------------




----------------------------------------- Iteration    1(  13)  ---------------------------------------


    POTLOK:  cpu time    1.90: real time    1.91
    SETDIJ:  cpu time    0.15: real time    0.15
    EDDIAG:  cpu time    4.97: real time    3.29
  RMM-DIIS:  cpu time   49.55: real time   14.67
    ORTHCH:  cpu time    0.34: real time    0.08
       DOS:  cpu time    0.01: real time    0.00
    CHARGE:  cpu time    1.75: real time    1.65
    MIXING:  cpu time    0.06: real time    0.06
    --------------------------------------------
      LOOP:  cpu time   58.73: real time   21.81

 eigenvalue-minimisations  :   269
 total energy-change (2. order) : 0.6377841E+00  (-0.8945587E-01)
 number of electron   91.9999997 magnetization 
 augmentation part    -1.1084717 magnetization 

 Broyden mixing:
  rms(total) = 0.32736E+00    rms(broyden)= 0.32736E+00
  rms(prec ) = 0.48441E+00
  weight for this iteration     100.00

 eigenvalues of (default mixing * dielectric matrix)
  average eigenvalue GAMMA=   2.4616
  2.4616

 Free energy of the ion-electron system (eV)
  ---------------------------------------------------
  alpha Z        PSCENC =        -7.38312591
  Ewald energy   TEWEN  =     -2181.80197214
  -1/2 Hartree   DENC   =       -25.28544775
  -exchange  EXHF       =         0.00000000
  -V(xc)+E(xc)   XCENC  =      -795.23290860
  PAW double counting   =      1080.41793146     -110.83916333
  entropy T*S    EENTRO =        -0.03922655
  eigenvalues    EBANDS =       298.17124173
  atomic energy  EATOM  =      1629.13144109
  ---------------------------------------------------
  free energy    TOTEN  =      -112.86123002 eV

  energy without entropy =     -112.82200347  energy(sigma->0) =     -112.84815450


--------------------------------------------------------------------------------------------------------




----------------------------------------- Iteration    1(  14)  ---------------------------------------


    POTLOK:  cpu time    1.88: real time    1.88
    SETDIJ:  cpu time    0.15: real time    0.15
    EDDIAG:  cpu time    4.89: real time    3.21
  RMM-DIIS:  cpu time   51.45: real time   15.15
    ORTHCH:  cpu time    0.33: real time    0.08
       DOS:  cpu time    0.01: real time    0.00
    CHARGE:  cpu time    1.76: real time    1.66
    MIXING:  cpu time    0.06: real time    0.06
    --------------------------------------------
      LOOP:  cpu time   60.54: real time   22.20

 eigenvalue-minimisations  :   279
 total energy-change (2. order) : 0.2457912E+00  (-0.2320312E-01)
 number of electron   91.9999996 magnetization 
 augmentation part    -1.1242613 magnetization 

 Broyden mixing:
  rms(total) = 0.12045E+00    rms(broyden)= 0.12045E+00
  rms(prec ) = 0.17813E+00
  weight for this iteration     100.00

 eigenvalues of (default mixing * dielectric matrix)
  average eigenvalue GAMMA=   1.8906
  2.6030  1.1782

 Free energy of the ion-electron system (eV)
  ---------------------------------------------------
  alpha Z        PSCENC =        -7.38312591
  Ewald energy   TEWEN  =     -2181.80197214
  -1/2 Hartree   DENC   =       -26.43011508
  -exchange  EXHF       =         0.00000000
  -V(xc)+E(xc)   XCENC  =      -793.85563389
  PAW double counting   =      1082.20456389     -112.78942175
  entropy T*S    EENTRO =        -0.03968379
  eigenvalues    EBANDS =       298.34850871
  atomic energy  EATOM  =      1629.13144109
  ---------------------------------------------------
  free energy    TOTEN  =      -112.61543887 eV

  energy without entropy =     -112.57575508  energy(sigma->0) =     -112.60221094


--------------------------------------------------------------------------------------------------------




----------------------------------------- Iteration    1(  15)  ---------------------------------------


    POTLOK:  cpu time    1.91: real time    1.89
    SETDIJ:  cpu time    0.15: real time    0.15
    EDDIAG:  cpu time    4.90: real time    3.22
  RMM-DIIS:  cpu time   50.65: real time   14.90
    ORTHCH:  cpu time    0.33: real time    0.08
       DOS:  cpu time    0.01: real time    0.00
    CHARGE:  cpu time    1.75: real time    1.66
    MIXING:  cpu time    0.08: real time    0.06
    --------------------------------------------
      LOOP:  cpu time   59.79: real time   21.96

 eigenvalue-minimisations  :   287
 total energy-change (2. order) : 0.4073707E-01  (-0.3888251E-02)
 number of electron   91.9999996 magnetization 
 augmentation part    -1.1359682 magnetization 

 Broyden mixing:
  rms(total) = 0.13987E-01    rms(broyden)= 0.13987E-01
  rms(prec ) = 0.25421E-01
  weight for this iteration     100.00

 eigenvalues of (default mixing * dielectric matrix)
  average eigenvalue GAMMA=   1.8619
  2.6241  1.1297  1.8320

 Free energy of the ion-electron system (eV)
  ---------------------------------------------------
  alpha Z        PSCENC =        -7.38312591
  Ewald energy   TEWEN  =     -2181.80197214
  -1/2 Hartree   DENC   =       -27.01547286
  -exchange  EXHF       =         0.00000000
  -V(xc)+E(xc)   XCENC  =      -792.98678227
  PAW double counting   =      1083.22612123     -113.92685776
  entropy T*S    EENTRO =        -0.03844091
  eigenvalues    EBANDS =       298.22038772
  atomic energy  EATOM  =      1629.13144109
  ---------------------------------------------------
  free energy    TOTEN  =      -112.57470180 eV

  energy without entropy =     -112.53626089  energy(sigma->0) =     -112.56188816


--------------------------------------------------------------------------------------------------------




----------------------------------------- Iteration    1(  16)  ---------------------------------------


    POTLOK:  cpu time    1.96: real time    1.89
    SETDIJ:  cpu time    0.15: real time    0.15
    EDDIAG:  cpu time    4.89: real time    3.21
  RMM-DIIS:  cpu time   53.35: real time   15.40
    ORTHCH:  cpu time    0.33: real time    0.08
       DOS:  cpu time    0.01: real time    0.00
    CHARGE:  cpu time    1.75: real time    1.66
    MIXING:  cpu time    0.10: real time    0.06
    --------------------------------------------
      LOOP:  cpu time   62.55: real time   22.46

 eigenvalue-minimisations  :   295
 total energy-change (2. order) : 0.8486598E-03  (-0.4775689E-03)
 number of electron   91.9999996 magnetization 
 augmentation part    -1.1387676 magnetization 

 Broyden mixing:
  rms(total) = 0.44485E-02    rms(broyden)= 0.44485E-02
  rms(prec ) = 0.83450E-02
  weight for this iteration     100.00

 eigenvalues of (default mixing * dielectric matrix)
  average eigenvalue GAMMA=   1.8808
  2.6014  2.4130  1.2544  1.2544

 Free energy of the ion-electron system (eV)
  ---------------------------------------------------
  alpha Z        PSCENC =        -7.38312591
  Ewald energy   TEWEN  =     -2181.80197214
  -1/2 Hartree   DENC   =       -27.01158995
  -exchange  EXHF       =         0.00000000
  -V(xc)+E(xc)   XCENC  =      -792.90577126
  PAW double counting   =      1083.48146754     -114.20848117
  entropy T*S    EENTRO =        -0.03912296
  eigenvalues    EBANDS =       298.16330162
  atomic energy  EATOM  =      1629.13144109
  ---------------------------------------------------
  free energy    TOTEN  =      -112.57385314 eV

  energy without entropy =     -112.53473018  energy(sigma->0) =     -112.56081215


--------------------------------------------------------------------------------------------------------




----------------------------------------- Iteration    1(  17)  ---------------------------------------


    POTLOK:  cpu time    2.03: real time    1.90
    SETDIJ:  cpu time    0.15: real time    0.15
    EDDIAG:  cpu time    4.91: real time    3.21
  RMM-DIIS:  cpu time   46.46: real time   13.64
    ORTHCH:  cpu time    0.33: real time    0.08
       DOS:  cpu time    0.01: real time    0.00
    --------------------------------------------
      LOOP:  cpu time   53.89: real time   18.99

 eigenvalue-minimisations  :   252
 total energy-change (2. order) :-0.8620927E-06  (-0.5884085E-04)
 number of electron   91.9999996 magnetization 
 augmentation part    -1.1387676 magnetization 

 Free energy of the ion-electron system (eV)
  ---------------------------------------------------
  alpha Z        PSCENC =        -7.38312591
  Ewald energy   TEWEN  =     -2181.80197214
  -1/2 Hartree   DENC   =       -26.98446081
  -exchange  EXHF       =         0.00000000
  -V(xc)+E(xc)   XCENC  =      -792.89048903
  PAW double counting   =      1083.54029307     -114.27718445
  entropy T*S    EENTRO =        -0.03879886
  eigenvalues    EBANDS =       298.13044304
  atomic energy  EATOM  =      1629.13144109
  ---------------------------------------------------
  free energy    TOTEN  =      -112.57385400 eV

  energy without entropy =     -112.53505514  energy(sigma->0) =     -112.56092105


--------------------------------------------------------------------------------------------------------




 average (electrostatic) potential at core
  the test charge radii are     1.0714  1.0406
  (the norm of the test charge is              1.0000)
       1 -50.4149       2 -73.0293       3 -73.1355       4 -73.0364       5 -73.0364
       6 -73.0805       7 -73.1074       8 -73.0612       9 -72.9699      10 -73.0407
      11 -73.0364      12 -73.0364      13 -73.0466      14 -73.0703      15 -73.0612
      16 -72.9699      17 -73.0805      18 -73.1074      19 -72.9699      20 -73.0612
      21 -73.1089      22 -72.9200      23 -73.0313      24 -73.0313      25 -73.0466
      26 -73.0703      27 -72.9699      28 -73.0612      29 -73.0473      30 -73.0313
      31 -73.0313
 
 
 
 E-fermi :   7.8532     XC(G=0): -10.0132     alpha+bet :-14.3073
   add alpha+bet to get absolut eigen values

 k-point   1 :       0.2500    0.2500    0.2500
  band No.  band energies     occupation 
      1      -2.9537      2.00000
      2      -1.9234      2.00000
      3      -1.8729      2.00000
      4      -1.6395      2.00000
      5      -0.8023      2.00000
      6      -0.7489      2.00000
      7      -0.3842      2.00000
      8       0.2939      2.00000
      9       0.3325      2.00000
     10       0.5041      2.00000
     11       0.6132      2.00000
     12       1.3479      2.00000
     13       1.4017      2.00000
     14       1.4199      2.00000
     15       1.5536      2.00000
     16       1.7295      2.00000
     17       1.9669      2.00000
     18       2.6625      2.00000
     19       2.6782      2.00000
     20       2.8495      2.00000
     21       3.5423      2.00000
     22       3.6134      2.00000
     23       3.6602      2.00000
     24       3.7137      2.00000
     25       3.7517      2.00000
     26       4.0381      2.00000
     27       4.5416      2.00000
     28       4.5956      2.00000
     29       4.6349      2.00000
     30       4.7563      2.00000
     31       4.8131      2.00000
     32       4.8842      2.00000
     33       4.9345      2.00000
     34       5.0576      2.00000
     35       5.2410      2.00000
     36       5.7190      2.00000
     37       5.8333      2.00000
     38       6.3342      2.00000
     39       6.7374      2.00000
     40       6.7632      2.00000
     41       6.7968      2.00000
     42       6.9707      2.00000
     43       7.0138      2.00000
     44       7.0722      2.00000
     45       7.1149      2.00000
     46       7.8147      1.31925
     47       7.8463      1.05890
     48       7.9404      0.33426
     49       8.0801     -0.06807
     50       8.1651     -0.04991
     51       8.2292     -0.02311
     52       8.2574     -0.01493
     53       8.3300     -0.00383
     54       8.4170     -0.00050
     55       9.0915      0.00000
     56       9.1545      0.00000
     57       9.1651      0.00000
     58       9.3950      0.00000
     59       9.4166      0.00000
     60       9.4790      0.00000
     61      10.0009      0.00000
     62      10.0313      0.00000

 k-point   2 :      -0.2500    0.2500    0.2500
  band No.  band energies     occupation 
      1      -2.9566      2.00000
      2      -1.9165      2.00000
      3      -1.8163      2.00000
      4      -1.7069      2.00000
      5      -0.8007      2.00000
      6      -0.6665      2.00000
      7      -0.5202      2.00000
      8       0.2994      2.00000
      9       0.3996      2.00000
     10       0.4339      2.00000
     11       0.6853      2.00000
     12       1.3762      2.00000
     13       1.4605      2.00000
     14       1.4731      2.00000
     15       1.5060      2.00000
     16       1.7269      2.00000
     17       1.8718      2.00000
     18       2.6308      2.00000
     19       2.7358      2.00000
     20       2.7731      2.00000
     21       3.5529      2.00000
     22       3.6257      2.00000
     23       3.6540      2.00000
     24       3.6886      2.00000
     25       3.7650      2.00000
     26       4.0066      2.00000
     27       4.5714      2.00000
     28       4.6540      2.00000
     29       4.6761      2.00000
     30       4.7240      2.00000
     31       4.7434      2.00000
     32       4.9155      2.00000
     33       4.9346      2.00000
     34       5.0558      2.00000
     35       5.1802      2.00000
     36       5.7322      2.00000
     37       5.9521      2.00000
     38       6.2619      2.00000
     39       6.7560      2.00000
     40       6.7763      2.00000
     41       6.8812      2.00000
     42       7.0051      2.00000
     43       7.0228      2.00000
     44       7.0588      2.00000
     45       7.1353      2.00000
     46       7.8464      1.05743
     47       7.9124      0.52287
     48       7.9791      0.13464
     49       8.0688     -0.06289
     50       8.1284     -0.06524
     51       8.1374     -0.06196
     52       8.1815     -0.04234
     53       8.2272     -0.02379
     54       8.2764     -0.01080
     55       9.1350      0.00000
     56       9.1586      0.00000
     57       9.3035      0.00000
     58       9.3970      0.00000
     59       9.4023      0.00000
     60       9.4818      0.00000
     61      10.0046      0.00000
     62      10.0282      0.00000


--------------------------------------------------------------------------------------------------------


 soft charge-density along one line, spin component           1
         0         1         2         3         4         5         6         7         8         9
 total charge-density along one line
 
 pseudopotential strength for first ion, spin component:           1
  3.575  -0.046   0.000   0.000   0.000   0.000   0.000   0.000
 -0.046  -0.001   0.000   0.000   0.000   0.000   0.000   0.000
  0.000   0.000   0.746   0.000   0.000  -0.044   0.000   0.000
  0.000   0.000   0.000   0.746   0.000   0.000  -0.044   0.000
  0.000   0.000   0.000   0.000   0.746   0.000   0.000  -0.044
  0.000   0.000  -0.044   0.000   0.000  -0.031   0.000   0.000
  0.000   0.000   0.000  -0.044   0.000   0.000  -0.031   0.000
  0.000   0.000   0.000   0.000  -0.044   0.000   0.000  -0.031
 total augmentation occupancy for first ion, spin component:           1
  1.099  -0.054   0.000  -0.020  -0.020   0.000  -0.001  -0.001
 -0.054   0.005   0.000  -0.003  -0.003   0.000   0.000   0.000
  0.000   0.000   0.990   0.000   0.000   0.051   0.000   0.000
 -0.020  -0.003   0.000   0.889  -0.061   0.000   0.047  -0.005
 -0.020  -0.003   0.000  -0.061   0.889   0.000  -0.005   0.047
  0.000   0.000   0.051   0.000   0.000   0.003   0.000   0.000
 -0.001   0.000   0.000   0.047  -0.005   0.000   0.003   0.000
 -0.001   0.000   0.000  -0.005   0.047   0.000   0.000   0.003


------------------------ aborting loop because EDIFF is reached ----------------------------------------




--------------------------------------------------------------------------------------------------------



  FREE ENERGIE OF THE ION-ELECTRON SYSTEM (eV)
  ---------------------------------------------------
  free  energy   TOTEN  =      -112.573854 eV

  energy  without entropy=     -112.535055  energy(sigma->0) =     -112.560921
 
    CHARGE:  cpu time    1.66: real time    1.66
    FORLOC:  cpu time    0.73: real time    0.73
    FORNL :  cpu time    5.87: real time    5.88
    STRESS:  cpu time   36.29: real time    9.76
    FORCOR:  cpu time    2.53: real time    2.54
    FORHAR:  cpu time    1.13: real time    1.13
    MIXING:  cpu time    0.10: real time    0.06

  FORCE on cell =-STRESS in cart. coord.  units (eV):
  Direction    XX          YY          ZZ          XY          YZ          ZX
  --------------------------------------------------------------------------------------
  Alpha Z    -7.38313    -7.38313    -7.38313
  Ewald    -724.31198  -733.18687  -724.31198     0.00000     0.00000     5.52820
  Hartree    11.05844     4.95286    11.05844     0.00000     0.00000     3.04697
  E(xc)    -260.84056  -260.90395  -260.84056     0.00000     0.00000     0.06593
  Local     -18.68142    -3.68819   -18.68142     0.00000     0.00000    -8.38977
  n-local   576.96039   577.31068   576.96040     0.29722    -1.10283    -0.53227
  augment   -30.45083   -30.55481   -30.45083     0.00000     0.00000    -0.03192
  Kinetic   452.00793   456.10927   452.00767    -3.68501     0.91456     2.18088
  Fock        0.00000     0.00000     0.00000     0.00000     0.00000     0.00000
  -------------------------------------------------------------------------------------
  Total      -1.64128     2.65586    -1.64128     0.00000     0.00000     1.86802
  in kB      -4.97189     8.04535    -4.97189     0.00000     0.00000     5.65877
  external pressure =       -0.63 kB  Pullay stress =        0.00 kB


 VOLUME and BASIS-vectors are now :
 -----------------------------------------------------------------------------
  energy-cutoff  :      300.00
  volume of cell :      528.90
      direct lattice vectors                 reciprocal lattice vectors
     8.087054000  0.000000000  0.000000000     0.123654423  0.000000000  0.000000000
     0.000000000  8.087054000  0.000000000     0.000000000  0.123654423  0.000000000
     0.000000000  0.000000000  8.087054000     0.000000000  0.000000000  0.123654423

  length of vectors
     8.087054000  8.087054000  8.087054000     0.123654423  0.123654423  0.123654423


 FORCES acting on ions
    electron-ion (+dipol)            ewald-force                    non-local-force                 convergence-correction
 -----------------------------------------------------------------------------------------------
   0.518E+01 -.132E-13 0.518E+01   -.511E+01 0.377E-14 -.511E+01   -.545E-01 0.000E+00 -.545E-01   -.819E-02 0.212E-14 -.820E-02
   -.301E+01 -.132E-13 -.301E+01   0.267E+01 0.333E-15 0.267E+01   0.327E+00 0.000E+00 0.327E+00   0.950E-02 -.637E-15 0.950E-02
   -.122E+01 0.415E-13 -.122E+01   0.115E+01 0.112E-13 0.115E+01   0.762E-01 0.000E+00 0.762E-01   0.637E-02 -.809E-15 0.637E-02
   -.519E+00 -.859E+01 -.752E+01   0.596E+00 0.877E+01 0.773E+01   -.126E+00 -.209E+00 -.246E+00   0.470E-02 0.135E-01 0.142E-01
   -.752E+01 -.859E+01 -.519E+00   0.773E+01 0.877E+01 0.596E+00   -.246E+00 -.209E+00 -.126E+00   0.142E-01 0.135E-01 0.470E-02
   0.201E+01 -.113E-13 -.273E+01   -.207E+01 -.759E-13 0.247E+01   0.857E-01 -.867E-18 0.270E+00   -.851E-02 -.289E-14 0.933E-02
   0.122E+01 0.142E-12 -.430E+00   -.105E+01 0.162E-13 0.625E+00   -.182E+00 0.651E-18 -.224E+00   -.559E-02 0.802E-14 0.478E-02
   0.722E+00 -.324E+01 -.280E+01   -.798E+00 0.327E+01 0.263E+01   0.943E-01 -.437E-01 0.171E+00   -.505E-02 0.869E-02 0.955E-02
   0.779E+01 -.116E+02 -.501E+01   -.786E+01 0.117E+02 0.495E+01   0.652E-01 -.219E+00 0.462E-01   -.142E-01 0.158E-01 0.973E-02
   -.757E+01 -.156E-12 -.757E+01   0.774E+01 -.733E-13 0.774E+01   -.214E+00 0.000E+00 -.214E+00   0.139E-01 0.238E-14 0.139E-01
   -.519E+00 0.859E+01 -.752E+01   0.596E+00 -.877E+01 0.773E+01   -.126E+00 0.209E+00 -.246E+00   0.470E-02 -.135E-01 0.142E-01
   -.752E+01 0.859E+01 -.519E+00   0.773E+01 -.877E+01 0.596E+00   -.246E+00 0.209E+00 -.126E+00   0.142E-01 -.135E-01 0.470E-02
   0.775E+01 0.119E-12 -.781E+01   -.783E+01 0.350E-14 0.796E+01   0.964E-01 -.139E-16 -.110E+00   -.138E-01 0.380E-14 0.144E-01
   0.398E+01 -.954E-13 -.416E+01   -.414E+01 -.857E-12 0.422E+01   0.161E+00 0.000E+00 -.104E+00   -.827E-02 -.529E-14 0.829E-02
   0.722E+00 0.324E+01 -.280E+01   -.798E+00 -.327E+01 0.263E+01   0.943E-01 0.437E-01 0.171E+00   -.505E-02 -.869E-02 0.955E-02
   0.779E+01 0.116E+02 -.501E+01   -.786E+01 -.117E+02 0.495E+01   0.652E-01 0.219E+00 0.462E-01   -.142E-01 -.158E-01 0.973E-02
   -.273E+01 -.142E-12 0.201E+01   0.247E+01 -.328E-14 -.207E+01   0.270E+00 0.000E+00 0.857E-01   0.932E-02 -.389E-15 -.851E-02
   -.430E+00 0.144E-13 0.122E+01   0.625E+00 -.122E-14 -.105E+01   -.224E+00 -.867E-18 -.182E+00   0.478E-02 -.778E-14 -.559E-02
   -.501E+01 -.116E+02 0.779E+01   0.495E+01 0.117E+02 -.786E+01   0.462E-01 -.219E+00 0.652E-01   0.973E-02 0.158E-01 -.142E-01
   -.280E+01 -.324E+01 0.722E+00   0.263E+01 0.327E+01 -.798E+00   0.171E+00 -.437E-01 0.943E-01   0.955E-02 0.869E-02 -.505E-02
   0.294E+01 -.934E-14 0.294E+01   -.270E+01 0.272E-14 -.270E+01   -.248E+00 0.000E+00 -.248E+00   -.102E-01 -.237E-14 -.102E-01
   0.130E+01 0.389E-13 0.130E+01   -.113E+01 0.105E-14 -.113E+01   -.160E+00 0.000E+00 -.160E+00   -.576E-02 -.507E-14 -.576E-02
   0.401E+01 -.653E+01 0.259E+01   -.415E+01 0.654E+01 -.243E+01   0.205E+00 -.560E-01 -.140E+00   -.903E-02 0.116E-01 -.929E-02
   0.259E+01 -.653E+01 0.401E+01   -.243E+01 0.654E+01 -.415E+01   -.140E+00 -.560E-01 0.205E+00   -.929E-02 0.116E-01 -.903E-02
   -.781E+01 -.135E-13 0.775E+01   0.796E+01 -.777E-14 -.783E+01   -.110E+00 0.139E-16 0.964E-01   0.144E-01 0.190E-14 -.138E-01
   -.416E+01 -.182E-13 0.398E+01   0.422E+01 -.854E-12 -.414E+01   -.104E+00 0.173E-17 0.161E+00   0.829E-02 0.809E-14 -.827E-02
   -.501E+01 0.116E+02 0.779E+01   0.495E+01 -.117E+02 -.786E+01   0.462E-01 0.219E+00 0.652E-01   0.973E-02 -.158E-01 -.142E-01
   -.280E+01 0.324E+01 0.722E+00   0.263E+01 -.327E+01 -.798E+00   0.171E+00 0.437E-01 0.943E-01   0.955E-02 -.869E-02 -.505E-02
   0.408E+01 -.339E-13 0.408E+01   -.413E+01 -.572E-14 -.413E+01   0.842E-01 0.000E+00 0.842E-01   -.814E-02 0.519E-14 -.814E-02
   0.401E+01 0.653E+01 0.259E+01   -.415E+01 -.654E+01 -.243E+01   0.205E+00 0.560E-01 -.140E+00   -.903E-02 -.116E-01 -.929E-02
   0.259E+01 0.653E+01 0.401E+01   -.243E+01 -.654E+01 -.415E+01   -.140E+00 0.560E-01 0.205E+00   -.929E-02 -.116E-01 -.903E-02
 -----------------------------------------------------------------------------------------------
   0.565E-01 -.295E-12 0.565E-01   0.133E-14 -.888E-14 0.568E-13   -.559E-01 -.555E-16 -.559E-01   -.531E-03 -.506E-14 -.531E-03
 
 
 POSITION                                       TOTAL-FORCE (eV/Angst)
 -----------------------------------------------------------------------------------
      3.95616      4.04353      3.95616         0.001981      0.000000      0.001981
      8.07859      0.00000      8.07859         0.000351      0.000000      0.000351
      2.01538      0.00000      2.01538         0.012164      0.000000      0.012164
      2.03419      2.05778      0.04414        -0.044375     -0.018821     -0.025984
      0.04414      2.05778      2.03419        -0.025984     -0.018821     -0.044375
      4.04440      0.00000      8.05985         0.023257      0.000000      0.017152
      6.09624      0.00000      2.02476        -0.020539      0.000000     -0.024625
      6.07297      2.01440      8.07039         0.012711     -0.014024      0.010750
      4.04503      2.00206      1.98515        -0.017806     -0.040668     -0.004055
      0.03545      4.04353      0.03545        -0.031542      0.000000     -0.031542
      2.03419      6.02928      0.04414        -0.044375      0.018821     -0.025984
      0.04414      6.02928      2.03419        -0.025984      0.018821     -0.044375
      4.03315      4.04353      0.02558         0.007792      0.000000      0.049927
      6.08598      4.04353      2.00203        -0.005410      0.000000     -0.034045
      6.07297      6.07266      8.07039         0.012711      0.014024      0.010750
      4.04503      6.08500      1.98515        -0.017806      0.040668     -0.004055
      8.05985      0.00000      4.04440         0.017152      0.000000      0.023257
      2.02476      0.00000      6.09624        -0.024625      0.000000     -0.020539
      1.98515      2.00206      4.04503        -0.004055     -0.040668     -0.017806
      8.07039      2.01440      6.07297         0.010750     -0.014024      0.012711
      4.05774      0.00000      4.05774        -0.020688      0.000000     -0.020688
      6.06862      0.00000      6.06862         0.008950      0.000000      0.008950
      6.06221      2.01900      4.04324         0.053025     -0.036626      0.010586
      4.04324      2.01900      6.06221         0.010586     -0.036626      0.053025
      0.02558      4.04353      4.03315         0.049927      0.000000      0.007792
      2.00203      4.04353      6.08598        -0.034045      0.000000     -0.005410
      1.98515      6.08500      4.04503        -0.004055      0.040668     -0.017806
      8.07039      6.07266      6.07297         0.010750      0.014024      0.012711
      6.07254      4.04353      6.07254         0.025572      0.000000      0.025572
      6.06221      6.06806      4.04324         0.053025      0.036626      0.010586
      4.04324      6.06806      6.06221         0.010586      0.036626      0.053025
 -----------------------------------------------------------------------------------
    total drift:                                0.000007      0.000000      0.000007


--------------------------------------------------------------------------------------------------------


    POTLOK:  cpu time    2.17: real time    2.04


--------------------------------------------------------------------------------------------------------


  FORCES: max atom, RMS     0.065308    0.042017
  FORCE total and by dimension    0.233939    0.053025
     LOOP+:  cpu time  792.22: real time  290.12
    4ORBIT:  cpu time    0.00: real time    0.00

 total amount of memory used by VASP on root node 133132. kBytes
========================================================================

   base      :    30000. kBytes
   nonl-proj :     4690. kBytes
   fftplans  :    30736. kBytes
   grid      :    54743. kBytes
   one-center:       95. kBytes
   wavefun   :    12868. kBytes
 
  
  
 General timing and accounting informations for this job:
 ========================================================
  
                  Total CPU time used (sec):      800.781
                            User time (sec):      794.066
                          System time (sec):        6.715
                         Elapsed time (sec):      294.543
  
                   Maximum memory used (kb):           0.
                   Average memory used (kb):           0.
  
                          Minor page faults:       118407
                          Major page faults:            0
                 Voluntary context switches:         4852
