<?xml version="1.0" encoding="ISO-8859-1"?>
<modeling>
 <generator>
  <i name="program" type="string">vasp </i>
  <i name="version" type="string">5.2.2  </i>
  <i name="subversion" type="string">15Apr09 complex  parallel </i>
  <i name="platform" type="string">LinuxIFC </i>
  <i name="date" type="string">2014 04 24 </i>
  <i name="time" type="string">10:20:30 </i>
 </generator>
 <incar>
  <i type="string" name="PREC">accurate</i>
  <i type="int" name="IALGO">    48</i>
  <i type="int" name="IBRION">    -1</i>
  <i name="EDIFFG">      0.05000000</i>
  <i type="int" name="NSW">     0</i>
  <i type="int" name="ISIF">     2</i>
  <i name="ENCUT">    300.00000000</i>
  <i name="NELECT">     92.00000000</i>
  <i type="int" name="ISMEAR">     1</i>
  <i name="SIGMA">      0.20000000</i>
  <i type="logical" name="LWAVE"> F  </i>
  <i type="logical" name="LCHARG"> F  </i>
  <i type="logical" name="LPEAD"> F  </i>
  <i type="logical" name="LCALCPOL"> F  </i>
  <i type="logical" name="LCALCEPS"> F  </i>
  <v name="EFIELD_PEAD">      0.00000000      0.00000000      0.00000000</v>
  <i type="logical" name="LEFG"> F  </i>
 </incar>
 <kpoints>
  <generation param="Monkhorst-Pack">
   <v type="int" name="divisions">       2        2        2 </v>
   <v name="usershift">      0.00000000       0.00000000       0.00000000 </v>
   <v name="genvec1">      0.50000000       0.00000000       0.00000000 </v>
   <v name="genvec2">      0.00000000       0.50000000       0.00000000 </v>
   <v name="genvec3">      0.00000000       0.00000000       0.50000000 </v>
   <v name="shift">      0.50000000       0.50000000       0.50000000 </v>
  </generation>
  <varray name="kpointlist" >
   <v>       0.25000000       0.25000000       0.25000000 </v>
   <v>      -0.25000000       0.25000000       0.25000000 </v>
  </varray>
  <varray name="weights" >
   <v>       0.50000000 </v>
   <v>       0.50000000 </v>
  </varray>
 </kpoints>
 <parameters>
  <separator name="general" >
   <i type="string" name="SYSTEM">unknown system</i>
   <i type="logical" name="LCOMPAT"> F  </i>
  </separator>
  <separator name="electronic" >
   <i type="string" name="PREC">accura</i>
   <i name="ENMAX">    300.00000000</i>
   <i name="ENAUG">    291.05200000</i>
   <i name="EDIFF">      0.00010000</i>
   <i type="int" name="IALGO">    48</i>
   <i type="int" name="IWAVPR">    10</i>
   <i type="int" name="NBANDS">    62</i>
   <i name="NELECT">     92.00000000</i>
   <separator name="electronic smearing" >
    <i type="int" name="ISMEAR">     1</i>
    <i name="SIGMA">      0.20000000</i>
   </separator>
   <separator name="electronic projectors" >
    <i type="logical" name="LREAL"> F  </i>
    <v name="ROPT">      0.00000000      0.00000000</v>
    <i type="int" name="LMAXPAW">  -100</i>
    <i type="int" name="LMAXMIX">     2</i>
   </separator>
   <separator name="electronic startup" >
    <i type="int" name="ISTART">     0</i>
    <i type="int" name="ICHARG">     2</i>
    <i type="int" name="INIWAV">     1</i>
   </separator>
   <separator name="electronic spin" >
    <i type="int" name="ISPIN">     1</i>
    <i type="logical" name="LNONCOLLINEAR"> F  </i>
    <v name="MAGMOM">      1.00000000      1.00000000      1.00000000      1.00000000      1.00000000      1.00000000      1.00000000      1.00000000      1.00000000      1.00000000      1.00000000      1.00000000      1.00000000      1.00000000      1.00000000      1.00000000      1.00000000      1.00000000      1.00000000      1.00000000
      1.00000000      1.00000000      1.00000000      1.00000000      1.00000000      1.00000000      1.00000000      1.00000000      1.00000000      1.00000000      1.00000000</v>
    <i name="NUPDOWN">     -1.00000000</i>
    <i type="logical" name="LSORBIT"> F  </i>
    <v name="SAXIS">      0.00000000      0.00000000      1.00000000</v>
    <i type="logical" name="LSPIRAL"> F  </i>
    <v name="QSPIRAL">      0.00000000      0.00000000      0.00000000</v>
    <i type="logical" name="LZEROZ"> F  </i>
   </separator>
   <separator name="electronic exchange-correlation" >
    <i type="logical" name="LASPH"> F  </i>
    <i type="logical" name="LMETAGGA"> F  </i>
   </separator>
   <separator name="electronic convergence" >
    <i type="int" name="NELM">    60</i>
    <i type="int" name="NELMDL">   -12</i>
    <i type="int" name="NELMIN">     2</i>
    <i name="ENINI">    300.00000000</i>
    <separator name="electronic convergence detail" >
     <i type="logical" name="LDIAG"> T  </i>
     <i name="WEIMIN">      0.00000000</i>
     <i name="EBREAK">      0.00000040</i>
     <i name="DEPER">      0.30000000</i>
     <i type="int" name="NRMM">     4</i>
     <i name="TIME">      0.40000000</i>
    </separator>
   </separator>
   <separator name="electronic mixer" >
    <i name="AMIX">      0.40000000</i>
    <i name="BMIX">      1.00000000</i>
    <i name="AMIN">      0.10000000</i>
    <i name="AMIX_MAG">      1.60000000</i>
    <i name="BMIX_MAG">      1.00000000</i>
    <separator name="electronic mixer details" >
     <i type="int" name="IMIX">     4</i>
     <i type="int" name="MAXMIX">   -45</i>
     <i name="WC">    100.00000000</i>
     <i type="int" name="INIMIX">     1</i>
     <i type="int" name="MIXPRE">     1</i>
     <i type="int" name="MREMOVE">     5</i>
    </separator>
   </separator>
   <separator name="electronic dipolcorrection" >
    <i type="logical" name="LDIPOL"> F  </i>
    <i type="logical" name="LMONO"> F  </i>
    <i type="int" name="IDIPOL">     0</i>
    <i name="EPSILON">      1.00000000</i>
    <v name="DIPOL">   -100.00000000   -100.00000000   -100.00000000</v>
    <i name="EFIELD">      0.00000000</i>
   </separator>
  </separator>
  <separator name="grids" >
   <i type="int" name="NGX">    48</i>
   <i type="int" name="NGY">    48</i>
   <i type="int" name="NGZ">    48</i>
   <i type="int" name="NGXF">    96</i>
   <i type="int" name="NGYF">    96</i>
   <i type="int" name="NGZF">    96</i>
   <i type="logical" name="ADDGRID"> F  </i>
  </separator>
  <separator name="ionic" >
   <i type="int" name="NSW">     0</i>
   <i type="int" name="IBRION">    -1</i>
   <i type="int" name="ISIF">     2</i>
   <i name="PSTRESS">      0.00000000</i>
   <i name="EDIFFG">      0.05000000</i>
   <i type="int" name="NFREE">     0</i>
   <i name="POTIM">      0.50000000</i>
   <i name="SMASS">     -3.00000000</i>
  </separator>
  <separator name="ionic md" >
   <i name="TEBEG">      0.00010000</i>
   <i name="TEEND">      0.00010000</i>
   <i type="int" name="NBLOCK">     1</i>
   <i type="int" name="KBLOCK">     1</i>
   <i type="int" name="NPACO">   256</i>
   <i name="APACO">     16.00000000</i>
  </separator>
  <separator name="symmetry" >
   <i type="int" name="ISYM">     2</i>
   <i name="SYMPREC">      0.00001000</i>
  </separator>
  <separator name="dos" >
   <i type="logical" name="LORBIT"> F  </i>
   <v name="RWIGS">     -1.00000000     -1.00000000</v>
   <i type="int" name="NEDOS">   301</i>
   <i name="EMIN">     10.00000000</i>
   <i name="EMAX">    -10.00000000</i>
   <i name="EFERMI">      0.00000000</i>
  </separator>
  <separator name="writing" >
   <i type="int" name="NWRITE">     2</i>
   <i type="logical" name="LWAVE"> F  </i>
   <i type="logical" name="LCHARG"> F  </i>
   <i type="logical" name="LPARD"> F  </i>
   <i type="logical" name="LVTOT"> F  </i>
   <i type="logical" name="LELF"> F  </i>
   <i type="logical" name="LOPTICS"> F  </i>
   <v name="STM">      0.00000000      0.00000000      0.00000000      0.00000000      0.00000000</v>
  </separator>
  <separator name="performance" >
   <i type="int" name="NPAR">     1</i>
   <i type="int" name="NSIM">     4</i>
   <i type="int" name="NBLK">    32</i>
   <i type="logical" name="LPLANE"> T  </i>
   <i type="logical" name="LSCALAPACK"> F  </i>
   <i type="logical" name="LSCAAWARE"> F  </i>
   <i type="logical" name="LSCALU"> F  </i>
   <i type="logical" name="LASYNC"> F  </i>
  </separator>
  <separator name="miscellaneous" >
   <i type="int" name="IDIOT">     3</i>
   <i type="logical" name="LMUSIC"> F  </i>
   <v name="POMASS">     24.30500000     26.98200000</v>
   <i type="logical" name="LCORR"> T  </i>
  </separator>
  <i type="logical" name="LREAL_COMPAT"> F  </i>
  <i type="logical" name="GGA_COMPAT"> T  </i>
  <i type="logical" name="LBERRY"> F  </i>
  <i type="int" name="ICORELEVEL">     0</i>
  <i type="logical" name="LDAU"> F  </i>
  <i type="int" name="I_CONSTRAINED_M">     0</i>
  <separator name="electronic exchange-correlation" >
   <i type="string" name="GGA">--</i>
   <i type="int" name="VOSKOWN">     0</i>
   <i type="logical" name="LHFCALC"> F  </i>
   <i type="logical" name="LHFONE"> F  </i>
   <i type="logical" name="LRHFCALC"> F  </i>
   <i type="logical" name="LTHOMAS"> F  </i>
   <i type="logical" name="LMODELHF"> F  </i>
   <i name="ENCUTFOCK">      0.00000000</i>
   <i name="ENCUT4O">     -1.00000000</i>
   <i type="int" name="EXXOEP">     0</i>
   <i type="int" name="FOURORBIT">     0</i>
   <i name="AEXX">      0.00000000</i>
   <i name="HFALPHA">      0.00000000</i>
   <i name="ALDAX">      1.00000000</i>
   <i name="AGGAX">      1.00000000</i>
   <i name="ALDAC">      1.00000000</i>
   <i name="AGGAC">      1.00000000</i>
   <i type="int" name="NKREDX">     1</i>
   <i type="int" name="NKREDY">     1</i>
   <i type="int" name="NKREDZ">     1</i>
   <i type="logical" name="SHIFTRED"> F  </i>
   <i type="logical" name="ODDONLY"> F  </i>
   <i type="logical" name="EVENONLY"> F  </i>
   <i type="int" name="LMAXFOCK">     0</i>
   <i type="int" name="NMAXFOCKAE">     0</i>
   <i name="HFSCREEN">      0.00000000</i>
   <i name="HFSCREENC">      0.00000000</i>
  </separator>
  <separator name="model GW" >
   <i type="int" name="MODEL_GW">     0</i>
   <i name="MODEL_EPS0">     10.23671437</i>
   <i name="MODEL_ALPHA">      1.00000000</i>
  </separator>
  <separator name="linear response parameters" >
   <i type="logical" name="LEPSILON"> F  </i>
   <i type="logical" name="LRPA"> F  </i>
   <i type="logical" name="LNABLA"> F  </i>
   <i type="logical" name="LVEL"> F  </i>
   <i type="int" name="KINTER">     0</i>
   <i name="CSHIFT">      0.10000000</i>
   <i name="OMEGAMAX">     -1.00000000</i>
  </separator>
  <separator name="orbital magnetization" >
   <i type="logical" name="ORBITALMAG"> F  </i>
   <i type="logical" name="LMAGBLOCH"> F  </i>
   <i type="logical" name="LCHIMAG"> F  </i>
   <i type="logical" name="LGAUGE"> T  </i>
   <i type="int" name="MAGATOM">     0</i>
   <v name="MAGDIPOL">      0.00000000      0.00000000      0.00000000</v>
   <v name="AVECCONST">      0.00000000      0.00000000      0.00000000</v>
  </separator>
  <separator name="response functions" >
   <i type="logical" name="LRPA"> T  </i>
   <i type="logical" name="LTCTE"> F  </i>
   <i type="logical" name="LTETE"> F  </i>
   <i type="logical" name="L2ORDER"> F  </i>
   <i type="logical" name="LGWLF"> F  </i>
   <i name="ENCUTGW">    200.00000000</i>
   <i name="ENCUTGWSOFT">     -2.00000000</i>
   <i name="ENCUTLF">     -1.00000000</i>
   <i type="int" name="LMAXMP2">    -1</i>
   <i name="SCISSOR">      0.00000000</i>
   <i type="int" name="NOMEGA">     0</i>
   <i type="int" name="NOMEGAR">     0</i>
   <i type="int" name="NBANDSGW">    -1</i>
   <i type="int" name="NBANDSLF">    -1</i>
   <i type="int" name="NELM">     1</i>
   <i type="int" name="DIM">     3</i>
   <i type="int" name="ANTIRES">     0</i>
   <i type="logical" name="LUSEW"> F  </i>
   <i name="OMEGAMAX">    -30.00000000</i>
   <i name="OMEGATL">   -200.00000000</i>
   <i type="int" name="OMEGAGRID">     0</i>
   <i name="CSHIFT">     -0.10000000</i>
   <i type="logical" name="SELFENERGY"> F  </i>
   <i type="logical" name="LSPECTRAL"> F  </i>
   <i type="logical" name="ODDONLYGW"> F  </i>
   <i type="logical" name="EVENONLYGW"> F  </i>
   <i type="int" name="NKREDLFX">     1</i>
   <i type="int" name="NKREDLFY">     1</i>
   <i type="int" name="NKREDLFZ">     1</i>
   <i type="int" name="MAXMEM">  1024</i>
   <i type="int" name="TELESCOPE">     0</i>
  </separator>
 </parameters>
 <atominfo>
  <atoms>      31 </atoms>
  <types>       2 </types>
  <array name="atoms" >
   <dimension dim="1">ion</dimension>
   <field type="string">element</field>
   <field type="int">atomtype</field>
   <set>
    <rc><c>Mg</c><c>   1</c></rc>
    <rc><c>Al</c><c>   2</c></rc>
    <rc><c>Al</c><c>   2</c></rc>
    <rc><c>Al</c><c>   2</c></rc>
    <rc><c>Al</c><c>   2</c></rc>
    <rc><c>Al</c><c>   2</c></rc>
    <rc><c>Al</c><c>   2</c></rc>
    <rc><c>Al</c><c>   2</c></rc>
    <rc><c>Al</c><c>   2</c></rc>
    <rc><c>Al</c><c>   2</c></rc>
    <rc><c>Al</c><c>   2</c></rc>
    <rc><c>Al</c><c>   2</c></rc>
    <rc><c>Al</c><c>   2</c></rc>
    <rc><c>Al</c><c>   2</c></rc>
    <rc><c>Al</c><c>   2</c></rc>
    <rc><c>Al</c><c>   2</c></rc>
    <rc><c>Al</c><c>   2</c></rc>
    <rc><c>Al</c><c>   2</c></rc>
    <rc><c>Al</c><c>   2</c></rc>
    <rc><c>Al</c><c>   2</c></rc>
    <rc><c>Al</c><c>   2</c></rc>
    <rc><c>Al</c><c>   2</c></rc>
    <rc><c>Al</c><c>   2</c></rc>
    <rc><c>Al</c><c>   2</c></rc>
    <rc><c>Al</c><c>   2</c></rc>
    <rc><c>Al</c><c>   2</c></rc>
    <rc><c>Al</c><c>   2</c></rc>
    <rc><c>Al</c><c>   2</c></rc>
    <rc><c>Al</c><c>   2</c></rc>
    <rc><c>Al</c><c>   2</c></rc>
    <rc><c>Al</c><c>   2</c></rc>
   </set>
  </array>
  <array name="atomtypes" >
   <dimension dim="1">type</dimension>
   <field type="int">atomspertype</field>
   <field type="string">element</field>
   <field>mass</field>
   <field>valence</field>
   <field type="string">pseudopotential</field>
   <set>
    <rc><c>   1</c><c>Mg</c><c>     24.30500000</c><c>      2.00000000</c><c> PAW_PBE Mg 05Jan2001                   </c></rc>
    <rc><c>  30</c><c>Al</c><c>     26.98200000</c><c>      3.00000000</c><c> PAW_PBE Al 04Jan2001                   </c></rc>
   </set>
  </array>
 </atominfo>
 <structure name="initialpos" >
  <crystal>
   <varray name="basis" >
    <v>       8.08705400       0.00000000       0.00000000 </v>
    <v>       0.00000000       8.08705400       0.00000000 </v>
    <v>       0.00000000       0.00000000       8.08705400 </v>
   </varray>
   <i name="volume">    528.89690930 </i>
   <varray name="rec_basis" >
    <v>       0.12365442       0.00000000       0.00000000 </v>
    <v>       0.00000000       0.12365442       0.00000000 </v>
    <v>       0.00000000       0.00000000       0.12365442 </v>
   </varray>
  </crystal>
  <varray name="positions" >
   <v>       0.48919700       0.50000000       0.48919700 </v>
   <v>       0.99895400       0.00000000       0.99895400 </v>
   <v>       0.24921100       0.00000000       0.24921100 </v>
   <v>       0.25153700       0.25445300       0.00545800 </v>
   <v>       0.00545800       0.25445300       0.25153700 </v>
   <v>       0.50010800       0.00000000       0.99663600 </v>
   <v>       0.75382700       0.00000000       0.25037000 </v>
   <v>       0.75095000       0.24908900       0.99793900 </v>
   <v>       0.50018600       0.24756300       0.24547200 </v>
   <v>       0.00438400       0.50000000       0.00438400 </v>
   <v>       0.25153700       0.74554700       0.00545800 </v>
   <v>       0.00545800       0.74554700       0.25153700 </v>
   <v>       0.49871700       0.50000000       0.00316300 </v>
   <v>       0.75255800       0.50000000       0.24756000 </v>
   <v>       0.75095000       0.75091100       0.99793900 </v>
   <v>       0.50018600       0.75243700       0.24547200 </v>
   <v>       0.99663600       0.00000000       0.50010800 </v>
   <v>       0.25037000       0.00000000       0.75382700 </v>
   <v>       0.24547200       0.24756300       0.50018600 </v>
   <v>       0.99793900       0.24908900       0.75095000 </v>
   <v>       0.50175700       0.00000000       0.50175700 </v>
   <v>       0.75041200       0.00000000       0.75041200 </v>
   <v>       0.74961900       0.24965800       0.49996400 </v>
   <v>       0.49996400       0.24965800       0.74961900 </v>
   <v>       0.00316300       0.50000000       0.49871700 </v>
   <v>       0.24756000       0.50000000       0.75255800 </v>
   <v>       0.24547200       0.75243700       0.50018600 </v>
   <v>       0.99793900       0.75091100       0.75095000 </v>
   <v>       0.75089700       0.50000000       0.75089700 </v>
   <v>       0.74961900       0.75034200       0.49996400 </v>
   <v>       0.49996400       0.75034200       0.74961900 </v>
  </varray>
 </structure>
 <calculation>
  <scstep>
   <time name="diag">    4.97    3.21</time>
   <time name="diis">   22.35    7.25</time>
   <time name="orth">    0.33    0.08</time>
   <time name="total">   29.83   12.61</time>
   <energy>
    <i name="alphaZ">     -7.38312591 </i>
    <i name="ewald">  -2181.80197214 </i>
    <i name="hartreedc">    -23.78526237 </i>
    <i name="XCdc">   -796.35263540 </i>
    <i name="pawpsdc">   1078.21717227 </i>
    <i name="pawaedc">   -108.50372521 </i>
    <i name="eentropy">     -0.02816030 </i>
    <i name="bandstr">    705.49910911 </i>
    <i name="atom">   1629.13144109 </i>
    <i name="e_fr_energy">    294.99284114 </i>
    <i name="e_wo_entrp">    295.02100144 </i>
    <i name="e_0_energy">    295.00222790 </i>
   </energy>
  </scstep>
  <scstep>
   <time name="diag">    4.71    3.12</time>
   <time name="diis">   22.35    7.29</time>
   <time name="orth">    0.34    0.08</time>
   <time name="total">   27.40   10.50</time>
   <energy>
    <i name="e_fr_energy">    -15.22321980 </i>
    <i name="e_wo_entrp">    -15.17368242 </i>
    <i name="e_0_energy">    -15.20670734 </i>
   </energy>
  </scstep>
  <scstep>
   <time name="diag">    4.73    3.13</time>
   <time name="diis">   22.43    7.27</time>
   <time name="orth">    0.36    0.09</time>
   <time name="total">   27.52   10.49</time>
   <energy>
    <i name="e_fr_energy">    -86.41721385 </i>
    <i name="e_wo_entrp">    -86.33100504 </i>
    <i name="e_0_energy">    -86.38847758 </i>
   </energy>
  </scstep>
  <scstep>
   <time name="diag">    4.81    3.14</time>
   <time name="diis">   22.18    7.25</time>
   <time name="orth">    0.34    0.08</time>
   <time name="total">   27.34   10.47</time>
   <energy>
    <i name="e_fr_energy">   -102.92740490 </i>
    <i name="e_wo_entrp">   -102.91728384 </i>
    <i name="e_0_energy">   -102.92403121 </i>
   </energy>
  </scstep>
  <scstep>
   <time name="diag">    4.78    3.14</time>
   <time name="diis">   22.74    7.49</time>
   <time name="orth">    0.33    0.08</time>
   <time name="total">   27.87   10.71</time>
   <energy>
    <i name="e_fr_energy">   -109.23566652 </i>
    <i name="e_wo_entrp">   -109.21897692 </i>
    <i name="e_0_energy">   -109.23010332 </i>
   </energy>
  </scstep>
  <scstep>
   <time name="diag">    4.87    3.16</time>
   <time name="diis">   22.66    7.30</time>
   <time name="orth">    0.33    0.08</time>
   <time name="total">   27.88   10.55</time>
   <energy>
    <i name="e_fr_energy">   -111.68120113 </i>
    <i name="e_wo_entrp">   -111.67173489 </i>
    <i name="e_0_energy">   -111.67804572 </i>
   </energy>
  </scstep>
  <scstep>
   <time name="diag">    4.54    3.09</time>
   <time name="diis">   22.64    7.31</time>
   <time name="orth">    0.33    0.08</time>
   <time name="total">   27.53   10.49</time>
   <energy>
    <i name="e_fr_energy">   -112.64608979 </i>
    <i name="e_wo_entrp">   -112.64671245 </i>
    <i name="e_0_energy">   -112.64629734 </i>
   </energy>
  </scstep>
  <scstep>
   <time name="diag">    4.55    3.09</time>
   <time name="diis">   22.58    7.32</time>
   <time name="orth">    0.34    0.08</time>
   <time name="total">   27.48   10.50</time>
   <energy>
    <i name="e_fr_energy">   -113.06229845 </i>
    <i name="e_wo_entrp">   -113.05638411 </i>
    <i name="e_0_energy">   -113.06032701 </i>
   </energy>
  </scstep>
  <scstep>
   <time name="diag">    4.68    3.11</time>
   <time name="diis">   60.36   17.35</time>
   <time name="orth">    0.37    0.10</time>
   <time name="total">   65.41   20.56</time>
   <energy>
    <i name="e_fr_energy">   -113.41467625 </i>
    <i name="e_wo_entrp">   -113.40820477 </i>
    <i name="e_0_energy">   -113.41251909 </i>
   </energy>
  </scstep>
  <scstep>
   <time name="diag">    4.66    3.26</time>
   <time name="diis">   54.18   15.29</time>
   <time name="orth">    0.34    0.08</time>
   <time name="total">   59.18   18.63</time>
   <energy>
    <i name="e_fr_energy">   -113.49507546 </i>
    <i name="e_wo_entrp">   -113.47102126 </i>
    <i name="e_0_energy">   -113.48705739 </i>
   </energy>
  </scstep>
  <scstep>
   <time name="diag">    4.53    3.07</time>
   <time name="diis">   48.10   13.85</time>
   <time name="orth">    0.34    0.08</time>
   <time name="total">   52.97   17.01</time>
   <energy>
    <i name="e_fr_energy">   -113.49896257 </i>
    <i name="e_wo_entrp">   -113.47267035 </i>
    <i name="e_0_energy">   -113.49019850 </i>
   </energy>
  </scstep>
  <scstep>
   <time name="diag">    4.66    3.11</time>
   <time name="diis">   38.67   11.23</time>
   <time name="orth">    0.33    0.08</time>
   <time name="total">   45.48   16.14</time>
   <energy>
    <i name="e_fr_energy">   -113.49901416 </i>
    <i name="e_wo_entrp">   -113.47271031 </i>
    <i name="e_0_energy">   -113.49024621 </i>
   </energy>
  </scstep>
  <scstep>
   <time name="diag">    4.97    3.29</time>
   <time name="diis">   49.55   14.67</time>
   <time name="orth">    0.34    0.08</time>
   <time name="total">   58.73   21.81</time>
   <energy>
    <i name="e_fr_energy">   -112.86123002 </i>
    <i name="e_wo_entrp">   -112.82200347 </i>
    <i name="e_0_energy">   -112.84815450 </i>
   </energy>
  </scstep>
  <scstep>
   <time name="diag">    4.89    3.21</time>
   <time name="diis">   51.45   15.15</time>
   <time name="orth">    0.33    0.08</time>
   <time name="total">   60.54   22.20</time>
   <energy>
    <i name="e_fr_energy">   -112.61543887 </i>
    <i name="e_wo_entrp">   -112.57575508 </i>
    <i name="e_0_energy">   -112.60221094 </i>
   </energy>
  </scstep>
  <scstep>
   <time name="diag">    4.90    3.22</time>
   <time name="diis">   50.65   14.90</time>
   <time name="orth">    0.33    0.08</time>
   <time name="total">   59.79   21.96</time>
   <energy>
    <i name="e_fr_energy">   -112.57470180 </i>
    <i name="e_wo_entrp">   -112.53626089 </i>
    <i name="e_0_energy">   -112.56188816 </i>
   </energy>
  </scstep>
  <scstep>
   <time name="diag">    4.89    3.21</time>
   <time name="diis">   53.35   15.40</time>
   <time name="orth">    0.33    0.08</time>
   <time name="total">   62.55   22.46</time>
   <energy>
    <i name="e_fr_energy">   -112.57385314 </i>
    <i name="e_wo_entrp">   -112.53473018 </i>
    <i name="e_0_energy">   -112.56081215 </i>
   </energy>
  </scstep>
  <scstep>
   <time name="diag">    4.91    3.21</time>
   <time name="diis">   46.46   13.64</time>
   <time name="orth">    0.33    0.08</time>
   <time name="total">   53.89   18.99</time>
   <energy>
    <i name="alphaZ">     -7.38312591 </i>
    <i name="ewald">  -2181.80197214 </i>
    <i name="hartreedc">    -26.98446081 </i>
    <i name="XCdc">   -792.89048903 </i>
    <i name="pawpsdc">   1083.54029307 </i>
    <i name="pawaedc">   -114.27718445 </i>
    <i name="eentropy">     -0.03879886 </i>
    <i name="bandstr">    298.13044304 </i>
    <i name="atom">   1629.13144109 </i>
    <i name="e_fr_energy">   -112.57385400 </i>
    <i name="e_wo_entrp">   -112.53505514 </i>
    <i name="e_0_energy">   -112.56092105 </i>
   </energy>
  </scstep>
  <structure>
   <crystal>
    <varray name="basis" >
     <v>       8.08705400       0.00000000       0.00000000 </v>
     <v>       0.00000000       8.08705400       0.00000000 </v>
     <v>       0.00000000       0.00000000       8.08705400 </v>
    </varray>
    <i name="volume">    528.89690930 </i>
    <varray name="rec_basis" >
     <v>       0.12365442       0.00000000       0.00000000 </v>
     <v>       0.00000000       0.12365442       0.00000000 </v>
     <v>       0.00000000       0.00000000       0.12365442 </v>
    </varray>
   </crystal>
   <varray name="positions" >
    <v>       0.48919700       0.50000000       0.48919700 </v>
    <v>       0.99895400       0.00000000       0.99895400 </v>
    <v>       0.24921100       0.00000000       0.24921100 </v>
    <v>       0.25153700       0.25445300       0.00545800 </v>
    <v>       0.00545800       0.25445300       0.25153700 </v>
    <v>       0.50010800       0.00000000       0.99663600 </v>
    <v>       0.75382700       0.00000000       0.25037000 </v>
    <v>       0.75095000       0.24908900       0.99793900 </v>
    <v>       0.50018600       0.24756300       0.24547200 </v>
    <v>       0.00438400       0.50000000       0.00438400 </v>
    <v>       0.25153700       0.74554700       0.00545800 </v>
    <v>       0.00545800       0.74554700       0.25153700 </v>
    <v>       0.49871700       0.50000000       0.00316300 </v>
    <v>       0.75255800       0.50000000       0.24756000 </v>
    <v>       0.75095000       0.75091100       0.99793900 </v>
    <v>       0.50018600       0.75243700       0.24547200 </v>
    <v>       0.99663600       0.00000000       0.50010800 </v>
    <v>       0.25037000       0.00000000       0.75382700 </v>
    <v>       0.24547200       0.24756300       0.50018600 </v>
    <v>       0.99793900       0.24908900       0.75095000 </v>
    <v>       0.50175700       0.00000000       0.50175700 </v>
    <v>       0.75041200       0.00000000       0.75041200 </v>
    <v>       0.74961900       0.24965800       0.49996400 </v>
    <v>       0.49996400       0.24965800       0.74961900 </v>
    <v>       0.00316300       0.50000000       0.49871700 </v>
    <v>       0.24756000       0.50000000       0.75255800 </v>
    <v>       0.24547200       0.75243700       0.50018600 </v>
    <v>       0.99793900       0.75091100       0.75095000 </v>
    <v>       0.75089700       0.50000000       0.75089700 </v>
    <v>       0.74961900       0.75034200       0.49996400 </v>
    <v>       0.49996400       0.75034200       0.74961900 </v>
   </varray>
  </structure>
  <varray name="forces" >
   <v>       0.00198061       0.00000000       0.00198061 </v>
   <v>       0.00035145       0.00000000       0.00035145 </v>
   <v>       0.01216361       0.00000000       0.01216361 </v>
   <v>      -0.04437486      -0.01882081      -0.02598433 </v>
   <v>      -0.02598433      -0.01882081      -0.04437486 </v>
   <v>       0.02325730       0.00000000       0.01715214 </v>
   <v>      -0.02053924       0.00000000      -0.02462470 </v>
   <v>       0.01271091      -0.01402420       0.01074972 </v>
   <v>      -0.01780643      -0.04066817      -0.00405461 </v>
   <v>      -0.03154218       0.00000000      -0.03154218 </v>
   <v>      -0.04437486       0.01882081      -0.02598433 </v>
   <v>      -0.02598433       0.01882081      -0.04437486 </v>
   <v>       0.00779224       0.00000000       0.04992728 </v>
   <v>      -0.00540965       0.00000000      -0.03404493 </v>
   <v>       0.01271091       0.01402420       0.01074972 </v>
   <v>      -0.01780643       0.04066817      -0.00405461 </v>
   <v>       0.01715214       0.00000000       0.02325730 </v>
   <v>      -0.02462470       0.00000000      -0.02053924 </v>
   <v>      -0.00405461      -0.04066817      -0.01780643 </v>
   <v>       0.01074972      -0.01402420       0.01271091 </v>
   <v>      -0.02068811       0.00000000      -0.02068811 </v>
   <v>       0.00895018       0.00000000       0.00895018 </v>
   <v>       0.05302483      -0.03662563       0.01058584 </v>
   <v>       0.01058584      -0.03662563       0.05302483 </v>
   <v>       0.04992728       0.00000000       0.00779224 </v>
   <v>      -0.03404493       0.00000000      -0.00540965 </v>
   <v>      -0.00405461       0.04066817      -0.01780643 </v>
   <v>       0.01074972       0.01402420       0.01271091 </v>
   <v>       0.02557188       0.00000000       0.02557188 </v>
   <v>       0.05302483       0.03662563       0.01058584 </v>
   <v>       0.01058584       0.03662563       0.05302483 </v>
  </varray>
  <varray name="stress" >
   <v>      -4.97189204       0.00000000       5.65876705 </v>
   <v>       0.00000000       8.04534582       0.00000000 </v>
   <v>       5.65876705       0.00000000      -4.97189204 </v>
  </varray>
  <energy>
   <i name="e_fr_energy">   -112.57385400 </i>
   <i name="e_wo_entrp">   -112.56092105 </i>
   <i name="e_0_energy">     -0.03879886 </i>
  </energy>
  <time name="totalsc">  792.22  290.12</time>
  <eigenvalues>
   <array>
    <dimension dim="1">band</dimension>
    <dimension dim="2">kpoint</dimension>
    <dimension dim="3">spin</dimension>
    <field>eigene</field>
    <field>occ</field>
    <set>
     <set comment="spin 1">
      <set comment="kpoint 1">
       <r>   -2.9537    1.0000 </r>
       <r>   -1.9234    1.0000 </r>
       <r>   -1.8729    1.0000 </r>
       <r>   -1.6395    1.0000 </r>
       <r>   -0.8023    1.0000 </r>
       <r>   -0.7489    1.0000 </r>
       <r>   -0.3842    1.0000 </r>
       <r>    0.2939    1.0000 </r>
       <r>    0.3325    1.0000 </r>
       <r>    0.5041    1.0000 </r>
       <r>    0.6132    1.0000 </r>
       <r>    1.3479    1.0000 </r>
       <r>    1.4017    1.0000 </r>
       <r>    1.4199    1.0000 </r>
       <r>    1.5536    1.0000 </r>
       <r>    1.7295    1.0000 </r>
       <r>    1.9669    1.0000 </r>
       <r>    2.6625    1.0000 </r>
       <r>    2.6782    1.0000 </r>
       <r>    2.8495    1.0000 </r>
       <r>    3.5423    1.0000 </r>
       <r>    3.6134    1.0000 </r>
       <r>    3.6602    1.0000 </r>
       <r>    3.7137    1.0000 </r>
       <r>    3.7517    1.0000 </r>
       <r>    4.0381    1.0000 </r>
       <r>    4.5416    1.0000 </r>
       <r>    4.5956    1.0000 </r>
       <r>    4.6349    1.0000 </r>
       <r>    4.7563    1.0000 </r>
       <r>    4.8131    1.0000 </r>
       <r>    4.8842    1.0000 </r>
       <r>    4.9345    1.0000 </r>
       <r>    5.0576    1.0000 </r>
       <r>    5.2410    1.0000 </r>
       <r>    5.7190    1.0000 </r>
       <r>    5.8333    1.0000 </r>
       <r>    6.3342    1.0000 </r>
       <r>    6.7374    1.0000 </r>
       <r>    6.7632    1.0000 </r>
       <r>    6.7968    1.0000 </r>
       <r>    6.9707    1.0000 </r>
       <r>    7.0138    1.0000 </r>
       <r>    7.0722    1.0000 </r>
       <r>    7.1149    1.0000 </r>
       <r>    7.8147    0.6596 </r>
       <r>    7.8463    0.5294 </r>
       <r>    7.9404    0.1671 </r>
       <r>    8.0801   -0.0340 </r>
       <r>    8.1651   -0.0250 </r>
       <r>    8.2292   -0.0116 </r>
       <r>    8.2574   -0.0075 </r>
       <r>    8.3300   -0.0019 </r>
       <r>    8.4170   -0.0002 </r>
       <r>    9.0915    0.0000 </r>
       <r>    9.1545    0.0000 </r>
       <r>    9.1651    0.0000 </r>
       <r>    9.3950    0.0000 </r>
       <r>    9.4166    0.0000 </r>
       <r>    9.4790    0.0000 </r>
       <r>   10.0009    0.0000 </r>
       <r>   10.0313    0.0000 </r>
      </set>
      <set comment="kpoint 2">
       <r>   -2.9566    1.0000 </r>
       <r>   -1.9165    1.0000 </r>
       <r>   -1.8163    1.0000 </r>
       <r>   -1.7069    1.0000 </r>
       <r>   -0.8007    1.0000 </r>
       <r>   -0.6665    1.0000 </r>
       <r>   -0.5202    1.0000 </r>
       <r>    0.2994    1.0000 </r>
       <r>    0.3996    1.0000 </r>
       <r>    0.4339    1.0000 </r>
       <r>    0.6853    1.0000 </r>
       <r>    1.3762    1.0000 </r>
       <r>    1.4605    1.0000 </r>
       <r>    1.4731    1.0000 </r>
       <r>    1.5060    1.0000 </r>
       <r>    1.7269    1.0000 </r>
       <r>    1.8718    1.0000 </r>
       <r>    2.6308    1.0000 </r>
       <r>    2.7358    1.0000 </r>
       <r>    2.7731    1.0000 </r>
       <r>    3.5529    1.0000 </r>
       <r>    3.6257    1.0000 </r>
       <r>    3.6540    1.0000 </r>
       <r>    3.6886    1.0000 </r>
       <r>    3.7650    1.0000 </r>
       <r>    4.0066    1.0000 </r>
       <r>    4.5714    1.0000 </r>
       <r>    4.6540    1.0000 </r>
       <r>    4.6761    1.0000 </r>
       <r>    4.7240    1.0000 </r>
       <r>    4.7434    1.0000 </r>
       <r>    4.9155    1.0000 </r>
       <r>    4.9346    1.0000 </r>
       <r>    5.0558    1.0000 </r>
       <r>    5.1802    1.0000 </r>
       <r>    5.7322    1.0000 </r>
       <r>    5.9521    1.0000 </r>
       <r>    6.2619    1.0000 </r>
       <r>    6.7560    1.0000 </r>
       <r>    6.7763    1.0000 </r>
       <r>    6.8812    1.0000 </r>
       <r>    7.0051    1.0000 </r>
       <r>    7.0228    1.0000 </r>
       <r>    7.0588    1.0000 </r>
       <r>    7.1353    1.0000 </r>
       <r>    7.8464    0.5287 </r>
       <r>    7.9124    0.2614 </r>
       <r>    7.9791    0.0673 </r>
       <r>    8.0688   -0.0314 </r>
       <r>    8.1284   -0.0326 </r>
       <r>    8.1374   -0.0310 </r>
       <r>    8.1815   -0.0212 </r>
       <r>    8.2272   -0.0119 </r>
       <r>    8.2764   -0.0054 </r>
       <r>    9.1350    0.0000 </r>
       <r>    9.1586    0.0000 </r>
       <r>    9.3035    0.0000 </r>
       <r>    9.3970    0.0000 </r>
       <r>    9.4023    0.0000 </r>
       <r>    9.4818    0.0000 </r>
       <r>   10.0046    0.0000 </r>
       <r>   10.0282    0.0000 </r>
      </set>
     </set>
    </set>
   </array>
  </eigenvalues>
  <separator name="orbital magnetization" >
   <v name="MAGDIPOLOUT">      0.00000000      0.00000000      0.00000000</v>
  </separator>
  <dos>
   <i name="efermi">      7.85322160 </i>
   <total>
    <array>
     <dimension dim="1">gridpoints</dimension>
     <dimension dim="2">spin</dimension>
     <field>energy</field>
     <field>total</field>
     <field>integrated</field>
     <set>
      <set comment="spin 1">
       <r>  -4.9566   0.0000   0.0000 </r>
       <r>  -4.9000   0.0000   0.0000 </r>
       <r>  -4.8434   0.0000   0.0000 </r>
       <r>  -4.7867   0.0000   0.0000 </r>
       <r>  -4.7301   0.0000   0.0000 </r>
       <r>  -4.6735   0.0000   0.0000 </r>
       <r>  -4.6169   0.0000   0.0000 </r>
       <r>  -4.5602   0.0000   0.0000 </r>
       <r>  -4.5036   0.0000   0.0000 </r>
       <r>  -4.4470   0.0000   0.0000 </r>
       <r>  -4.3903   0.0000   0.0000 </r>
       <r>  -4.3337   0.0000   0.0000 </r>
       <r>  -4.2771   0.0000   0.0000 </r>
       <r>  -4.2205   0.0000   0.0000 </r>
       <r>  -4.1638   0.0000   0.0000 </r>
       <r>  -4.1072   0.0000   0.0000 </r>
       <r>  -4.0506   0.0000   0.0000 </r>
       <r>  -3.9940   0.0000   0.0000 </r>
       <r>  -3.9373   0.0000   0.0000 </r>
       <r>  -3.8807   0.0000   0.0000 </r>
       <r>  -3.8241   0.0000   0.0000 </r>
       <r>  -3.7675   0.0000   0.0000 </r>
       <r>  -3.7108   0.0000   0.0000 </r>
       <r>  -3.6542  -0.0001   0.0000 </r>
       <r>  -3.5976  -0.0008  -0.0001 </r>
       <r>  -3.5410  -0.0039  -0.0003 </r>
       <r>  -3.4843  -0.0159  -0.0012 </r>
       <r>  -3.4277  -0.0531  -0.0042 </r>
       <r>  -3.3711  -0.1427  -0.0123 </r>
       <r>  -3.3145  -0.2981  -0.0291 </r>
       <r>  -3.2578  -0.4409  -0.0541 </r>
       <r>  -3.2012  -0.2963  -0.0709 </r>
       <r>  -3.1446   0.5915  -0.0374 </r>
       <r>  -3.0879   2.5467   0.1068 </r>
       <r>  -3.0313   5.2571   0.4045 </r>
       <r>  -2.9747   7.6146   0.8357 </r>
       <r>  -2.9181   8.3422   1.3081 </r>
       <r>  -2.8614   7.0052   1.7048 </r>
       <r>  -2.8048   4.3889   1.9533 </r>
       <r>  -2.7482   1.8269   2.0567 </r>
       <r>  -2.6916   0.2086   2.0685 </r>
       <r>  -2.6349  -0.3979   2.0460 </r>
       <r>  -2.5783  -0.4103   2.0228 </r>
       <r>  -2.5217  -0.2474   2.0088 </r>
       <r>  -2.4651  -0.1206   2.0019 </r>
       <r>  -2.4084  -0.0846   1.9971 </r>
       <r>  -2.3518  -0.1519   1.9885 </r>
       <r>  -2.2952  -0.3419   1.9692 </r>
       <r>  -2.2386  -0.6263   1.9337 </r>
       <r>  -2.1819  -0.7765   1.8897 </r>
       <r>  -2.1253  -0.2340   1.8765 </r>
       <r>  -2.0687   1.7383   1.9749 </r>
       <r>  -2.0120   5.4800   2.2852 </r>
       <r>  -1.9554  10.3079   2.8689 </r>
       <r>  -1.8988  14.6006   3.6957 </r>
       <r>  -1.8422  16.8164   4.6480 </r>
       <r>  -1.7855  16.5469   5.5850 </r>
       <r>  -1.7289  14.5225   6.4073 </r>
       <r>  -1.6723  11.7074   7.0703 </r>
       <r>  -1.6157   8.6311   7.5590 </r>
       <r>  -1.5590   5.5406   7.8727 </r>
       <r>  -1.5024   2.7944   8.0310 </r>
       <r>  -1.4458   0.8245   8.0777 </r>
       <r>  -1.3892  -0.1978   8.0665 </r>
       <r>  -1.3325  -0.4856   8.0390 </r>
       <r>  -1.2759  -0.4354   8.0143 </r>
       <r>  -1.2193  -0.3776   7.9929 </r>
       <r>  -1.1627  -0.4710   7.9663 </r>
       <r>  -1.1060  -0.6718   7.9282 </r>
       <r>  -1.0494  -0.6623   7.8907 </r>
       <r>  -0.9928   0.1783   7.9008 </r>
       <r>  -0.9361   2.5019   8.0425 </r>
       <r>  -0.8795   6.3693   8.4032 </r>
       <r>  -0.8229  10.7684   9.0129 </r>
       <r>  -0.7663  13.9745   9.8043 </r>
       <r>  -0.7096  14.7208  10.6378 </r>
       <r>  -0.6530  13.1547  11.3827 </r>
       <r>  -0.5964  10.6202  11.9841 </r>
       <r>  -0.5398   8.5150  12.4663 </r>
       <r>  -0.4831   7.3384  12.8818 </r>
       <r>  -0.4265   6.6595  13.2590 </r>
       <r>  -0.3699   5.7708  13.5857 </r>
       <r>  -0.3133   4.3411  13.8316 </r>
       <r>  -0.2566   2.5992  13.9787 </r>
       <r>  -0.2000   1.0399  14.0376 </r>
       <r>  -0.1434  -0.0097  14.0371 </r>
       <r>  -0.0868  -0.5846  14.0040 </r>
       <r>  -0.0301  -0.9129  13.9523 </r>
       <r>   0.0265  -1.0496  13.8928 </r>
       <r>   0.0831  -0.5959  13.8591 </r>
       <r>   0.1398   1.2215  13.9283 </r>
       <r>   0.1964   4.9815  14.2104 </r>
       <r>   0.2530  10.3125  14.7943 </r>
       <r>   0.3096  15.6832  15.6824 </r>
       <r>   0.3663  19.1953  16.7694 </r>
       <r>   0.4229  19.8399  17.8928 </r>
       <r>   0.4795  18.0934  18.9174 </r>
       <r>   0.5361  15.3330  19.7856 </r>
       <r>   0.5928  12.6888  20.5041 </r>
       <r>   0.6494  10.3872  21.0923 </r>
       <r>   0.7060   8.0469  21.5480 </r>
       <r>   0.7626   5.4400  21.8560 </r>
       <r>   0.8193   2.8710  22.0186 </r>
       <r>   0.8759   0.8736  22.0681 </r>
       <r>   0.9325  -0.3106  22.0505 </r>
       <r>   0.9891  -0.8935  21.9999 </r>
       <r>   1.0458  -1.2428  21.9295 </r>
       <r>   1.1024  -1.4091  21.8497 </r>
       <r>   1.1590  -0.8032  21.8043 </r>
       <r>   1.2157   1.6921  21.9001 </r>
       <r>   1.2723   6.9789  22.2953 </r>
       <r>   1.3289  14.6507  23.1249 </r>
       <r>   1.3855  22.4861  24.3982 </r>
       <r>   1.4422  27.3920  25.9493 </r>
       <r>   1.4988  27.4192  27.5019 </r>
       <r>   1.5554  23.2061  28.8160 </r>
       <r>   1.6120  17.4726  29.8054 </r>
       <r>   1.6687  12.9758  30.5402 </r>
       <r>   1.7253  10.7897  31.1512 </r>
       <r>   1.7819  10.2601  31.7322 </r>
       <r>   1.8385  10.1633  32.3077 </r>
       <r>   1.8952   9.6521  32.8542 </r>
       <r>   1.9518   8.3996  33.3299 </r>
       <r>   2.0084   6.4334  33.6942 </r>
       <r>   2.0650   4.0908  33.9258 </r>
       <r>   2.1217   1.9241  34.0348 </r>
       <r>   2.1783   0.3846  34.0566 </r>
       <r>   2.2349  -0.4583  34.0306 </r>
       <r>   2.2916  -0.8663  33.9815 </r>
       <r>   2.3482  -1.0830  33.9202 </r>
       <r>   2.4048  -0.9585  33.8659 </r>
       <r>   2.4614   0.1695  33.8755 </r>
       <r>   2.5181   3.1188  34.0521 </r>
       <r>   2.5747   8.0836  34.5099 </r>
       <r>   2.6313  13.9922  35.3022 </r>
       <r>   2.6879  18.7522  36.3641 </r>
       <r>   2.7446  20.4340  37.5212 </r>
       <r>   2.8012  18.4680  38.5670 </r>
       <r>   2.8578  13.8745  39.3526 </r>
       <r>   2.9144   8.4885  39.8333 </r>
       <r>   2.9711   3.9269  40.0557 </r>
       <r>   3.0277   0.9762  40.1109 </r>
       <r>   3.0843  -0.4393  40.0861 </r>
       <r>   3.1409  -0.9058  40.0348 </r>
       <r>   3.1976  -1.0729  39.9740 </r>
       <r>   3.2542  -1.2953  39.9007 </r>
       <r>   3.3108  -1.3954  39.8217 </r>
       <r>   3.3674  -0.5636  39.7897 </r>
       <r>   3.4241   2.4265  39.9271 </r>
       <r>   3.4807   8.4971  40.4083 </r>
       <r>   3.5373  17.2603  41.3857 </r>
       <r>   3.5940  26.4888  42.8856 </r>
       <r>   3.6506  32.8081  44.7434 </r>
       <r>   3.7072  33.5183  46.6415 </r>
       <r>   3.7638  28.4021  48.2498 </r>
       <r>   3.8205  20.0824  49.3870 </r>
       <r>   3.8771  12.4239  50.0905 </r>
       <r>   3.9337   8.0476  50.5462 </r>
       <r>   3.9903   6.8914  50.9364 </r>
       <r>   4.0470   6.9173  51.3281 </r>
       <r>   4.1036   6.1368  51.6756 </r>
       <r>   4.1602   4.0390  51.9043 </r>
       <r>   4.2168   1.4150  51.9845 </r>
       <r>   4.2735  -0.6709  51.9465 </r>
       <r>   4.3301  -1.4563  51.8640 </r>
       <r>   4.3867  -0.3106  51.8464 </r>
       <r>   4.4433   3.4059  52.0393 </r>
       <r>   4.5000   9.8530  52.5972 </r>
       <r>   4.5566  18.0124  53.6172 </r>
       <r>   4.6132  25.7322  55.0743 </r>
       <r>   4.6699  30.8232  56.8197 </r>
       <r>   4.7265  32.3889  58.6538 </r>
       <r>   4.7831  31.2167  60.4215 </r>
       <r>   4.8397  28.8893  62.0574 </r>
       <r>   4.8964  26.4872  63.5572 </r>
       <r>   4.9530  24.0952  64.9216 </r>
       <r>   5.0096  21.3861  66.1327 </r>
       <r>   5.0662  18.3687  67.1728 </r>
       <r>   5.1229  15.4051  68.0451 </r>
       <r>   5.1795  12.6832  68.7633 </r>
       <r>   5.2361   9.9767  69.3283 </r>
       <r>   5.2927   7.0090  69.7252 </r>
       <r>   5.3494   3.9164  69.9469 </r>
       <r>   5.4060   1.2555  70.0180 </r>
       <r>   5.4626  -0.3496  69.9982 </r>
       <r>   5.5192  -0.4668  69.9718 </r>
       <r>   5.5759   1.0809  70.0330 </r>
       <r>   5.6325   4.0774  70.2639 </r>
       <r>   5.6891   7.7091  70.7004 </r>
       <r>   5.7458  10.7206  71.3075 </r>
       <r>   5.8024  12.0680  71.9909 </r>
       <r>   5.8590  11.5004  72.6421 </r>
       <r>   5.9156   9.5098  73.1806 </r>
       <r>   5.9723   6.8647  73.5693 </r>
       <r>   6.0289   4.3375  73.8149 </r>
       <r>   6.0855   2.7111  73.9685 </r>
       <r>   6.1421   2.6192  74.1168 </r>
       <r>   6.1988   4.0684  74.3472 </r>
       <r>   6.2554   6.1346  74.6945 </r>
       <r>   6.3120   7.3670  75.1117 </r>
       <r>   6.3686   6.7446  75.4936 </r>
       <r>   6.4253   4.4234  75.7441 </r>
       <r>   6.4819   1.7227  75.8417 </r>
       <r>   6.5385   0.4901  75.8694 </r>
       <r>   6.5951   2.2427  75.9964 </r>
       <r>   6.6518   7.2791  76.4086 </r>
       <r>   6.7084  14.1477  77.2097 </r>
       <r>   6.7650  20.2916  78.3588 </r>
       <r>   6.8217  23.9553  79.7153 </r>
       <r>   6.8783  25.6509  81.1678 </r>
       <r>   6.9349  27.2785  82.7125 </r>
       <r>   6.9915  29.5833  84.3876 </r>
       <r>   7.0482  30.8914  86.1369 </r>
       <r>   7.1048  28.7043  87.7623 </r>
       <r>   7.1614  22.3443  89.0276 </r>
       <r>   7.2180  13.7808  89.8080 </r>
       <r>   7.2747   6.0353  90.1497 </r>
       <r>   7.3313   1.0439  90.2088 </r>
       <r>   7.3879  -1.1349  90.1446 </r>
       <r>   7.4445  -1.6182  90.0529 </r>
       <r>   7.5012  -1.5575  89.9647 </r>
       <r>   7.5578  -1.4160  89.8845 </r>
       <r>   7.6144  -0.8181  89.8382 </r>
       <r>   7.6710   1.1345  89.9025 </r>
       <r>   7.7277   5.1331  90.1931 </r>
       <r>   7.7843  10.8429  90.8071 </r>
       <r>   7.8409  16.7640  91.7564 </r>
       <r>   7.8976  21.2452  92.9594 </r>
       <r>   7.9542  23.9085  94.3133 </r>
       <r>   8.0108  25.9781  95.7843 </r>
       <r>   8.0674  28.9531  97.4238 </r>
       <r>   8.1241  32.8627  99.2847 </r>
       <r>   8.1807  35.8847 101.3167 </r>
       <r>   8.2373  35.7285 103.3399 </r>
       <r>   8.2939  31.4490 105.1208 </r>
       <r>   8.3506  24.0953 106.4852 </r>
       <r>   8.4072  15.8651 107.3836 </r>
       <r>   8.4638   8.7409 107.8785 </r>
       <r>   8.5204   3.7061 108.0884 </r>
       <r>   8.5771   0.7846 108.1328 </r>
       <r>   8.6337  -0.5431 108.1021 </r>
       <r>   8.6903  -0.9667 108.0473 </r>
       <r>   8.7469  -1.0945 107.9854 </r>
       <r>   8.8036  -1.2360 107.9154 </r>
       <r>   8.8602  -1.1851 107.8483 </r>
       <r>   8.9168  -0.1491 107.8398 </r>
       <r>   8.9735   2.8685 108.0022 </r>
       <r>   9.0301   8.1348 108.4629 </r>
       <r>   9.0867  14.3974 109.2782 </r>
       <r>   9.1433  19.3963 110.3765 </r>
       <r>   9.2000  21.7410 111.6076 </r>
       <r>   9.2566  22.2749 112.8690 </r>
       <r>   9.3132  23.0528 114.1743 </r>
       <r>   9.3698  24.7849 115.5778 </r>
       <r>   9.4265  25.7420 117.0355 </r>
       <r>   9.4831  23.5139 118.3670 </r>
       <r>   9.5397  17.5949 119.3633 </r>
       <r>   9.5963   9.9543 119.9270 </r>
       <r>   9.6530   3.3194 120.1150 </r>
       <r>   9.7096  -0.6667 120.0772 </r>
       <r>   9.7662  -1.7068 119.9806 </r>
       <r>   9.8228   0.0019 119.9807 </r>
       <r>   9.8795   4.1733 120.2170 </r>
       <r>   9.9361   9.8264 120.7734 </r>
       <r>   9.9927  14.7842 121.6106 </r>
       <r>  10.0493  16.5661 122.5487 </r>
       <r>  10.1060  14.2226 123.3541 </r>
       <r>  10.1626   9.1703 123.8733 </r>
       <r>  10.2192   4.0190 124.1009 </r>
       <r>  10.2759   0.6332 124.1368 </r>
       <r>  10.3325  -0.7250 124.0957 </r>
       <r>  10.3891  -0.8267 124.0489 </r>
       <r>  10.4457  -0.5147 124.0198 </r>
       <r>  10.5024  -0.2339 124.0065 </r>
       <r>  10.5590  -0.0836 124.0018 </r>
       <r>  10.6156  -0.0242 124.0004 </r>
       <r>  10.6722  -0.0058 124.0001 </r>
       <r>  10.7289  -0.0012 124.0000 </r>
       <r>  10.7855  -0.0002 124.0000 </r>
       <r>  10.8421   0.0000 124.0000 </r>
       <r>  10.8987   0.0000 124.0000 </r>
       <r>  10.9554   0.0000 124.0000 </r>
       <r>  11.0120   0.0000 124.0000 </r>
       <r>  11.0686   0.0000 124.0000 </r>
       <r>  11.1252   0.0000 124.0000 </r>
       <r>  11.1819   0.0000 124.0000 </r>
       <r>  11.2385   0.0000 124.0000 </r>
       <r>  11.2951   0.0000 124.0000 </r>
       <r>  11.3518   0.0000 124.0000 </r>
       <r>  11.4084   0.0000 124.0000 </r>
       <r>  11.4650   0.0000 124.0000 </r>
       <r>  11.5216   0.0000 124.0000 </r>
       <r>  11.5783   0.0000 124.0000 </r>
       <r>  11.6349   0.0000 124.0000 </r>
       <r>  11.6915   0.0000 124.0000 </r>
       <r>  11.7481   0.0000 124.0000 </r>
       <r>  11.8048   0.0000 124.0000 </r>
       <r>  11.8614   0.0000 124.0000 </r>
       <r>  11.9180   0.0000 124.0000 </r>
       <r>  11.9746   0.0000 124.0000 </r>
       <r>  12.0313   0.0000 124.0000 </r>
      </set>
     </set>
    </array>
   </total>
  </dos>
 </calculation>
 <structure name="finalpos" >
  <crystal>
   <varray name="basis" >
    <v>       8.08705400       0.00000000       0.00000000 </v>
    <v>       0.00000000       8.08705400       0.00000000 </v>
    <v>       0.00000000       0.00000000       8.08705400 </v>
   </varray>
   <i name="volume">    528.89690930 </i>
   <varray name="rec_basis" >
    <v>       0.12365442       0.00000000       0.00000000 </v>
    <v>       0.00000000       0.12365442       0.00000000 </v>
    <v>       0.00000000       0.00000000       0.12365442 </v>
   </varray>
  </crystal>
  <varray name="positions" >
   <v>       0.48919700       0.50000000       0.48919700 </v>
   <v>       0.99895400       0.00000000       0.99895400 </v>
   <v>       0.24921100       0.00000000       0.24921100 </v>
   <v>       0.25153700       0.25445300       0.00545800 </v>
   <v>       0.00545800       0.25445300       0.25153700 </v>
   <v>       0.50010800       0.00000000       0.99663600 </v>
   <v>       0.75382700       0.00000000       0.25037000 </v>
   <v>       0.75095000       0.24908900       0.99793900 </v>
   <v>       0.50018600       0.24756300       0.24547200 </v>
   <v>       0.00438400       0.50000000       0.00438400 </v>
   <v>       0.25153700       0.74554700       0.00545800 </v>
   <v>       0.00545800       0.74554700       0.25153700 </v>
   <v>       0.49871700       0.50000000       0.00316300 </v>
   <v>       0.75255800       0.50000000       0.24756000 </v>
   <v>       0.75095000       0.75091100       0.99793900 </v>
   <v>       0.50018600       0.75243700       0.24547200 </v>
   <v>       0.99663600       0.00000000       0.50010800 </v>
   <v>       0.25037000       0.00000000       0.75382700 </v>
   <v>       0.24547200       0.24756300       0.50018600 </v>
   <v>       0.99793900       0.24908900       0.75095000 </v>
   <v>       0.50175700       0.00000000       0.50175700 </v>
   <v>       0.75041200       0.00000000       0.75041200 </v>
   <v>       0.74961900       0.24965800       0.49996400 </v>
   <v>       0.49996400       0.24965800       0.74961900 </v>
   <v>       0.00316300       0.50000000       0.49871700 </v>
   <v>       0.24756000       0.50000000       0.75255800 </v>
   <v>       0.24547200       0.75243700       0.50018600 </v>
   <v>       0.99793900       0.75091100       0.75095000 </v>
   <v>       0.75089700       0.50000000       0.75089700 </v>
   <v>       0.74961900       0.75034200       0.49996400 </v>
   <v>       0.49996400       0.75034200       0.74961900 </v>
  </varray>
 </structure>
</modeling>
