  31  31   0   0
  0.1706119E+02  0.8087054E-09  0.8087054E-09  0.8087054E-09  0.5000000E-15
  1.000000000000000E-004
  CAR 
 unknown system                          
     11.98982233     -4.98597716  301      7.87229920      1.00000000
     -4.986  0.0000E+00  0.0000E+00
     -4.929  0.0000E+00  0.0000E+00
     -4.873  0.0000E+00  0.0000E+00
     -4.816  0.0000E+00  0.0000E+00
     -4.760  0.0000E+00  0.0000E+00
     -4.703  0.0000E+00  0.0000E+00
     -4.646  0.0000E+00  0.0000E+00
     -4.590 -0.4397E-28 -0.2488E-29
     -4.533 -0.3631E-26 -0.2079E-27
     -4.477 -0.2576E-24 -0.1479E-25
     -4.420 -0.1555E-22 -0.8947E-24
     -4.364 -0.7981E-21 -0.4606E-22
     -4.307 -0.3482E-19 -0.2017E-20
     -4.250 -0.1292E-17 -0.7510E-19
     -4.194 -0.4070E-16 -0.2378E-17
     -4.137 -0.1054E-14 -0.6201E-16
     -4.081 -0.2396E-13 -0.1418E-14
     -4.024 -0.4604E-12 -0.2747E-13
     -3.967 -0.7501E-11 -0.4519E-12
     -3.911 -0.1035E-09 -0.6308E-11
     -3.854 -0.1208E-08 -0.7467E-10
     -3.798 -0.1192E-07 -0.7490E-09
     -3.741 -0.9913E-07 -0.6359E-08
     -3.684 -0.6940E-06 -0.4563E-07
     -3.628 -0.4076E-05 -0.2763E-06
     -3.571 -0.1999E-04 -0.1408E-05
     -3.515 -0.8138E-04 -0.6013E-05
     -3.458 -0.2721E-03 -0.2141E-04
     -3.402 -0.7339E-03 -0.6294E-04
     -3.345 -0.1541E-02 -0.1502E-03
     -3.288 -0.2301E-02 -0.2803E-03
     -3.232 -0.1602E-02 -0.3710E-03
     -3.175  0.2928E-02 -0.2053E-03
     -3.119  0.1303E-01  0.5319E-03
     -3.062  0.2717E-01  0.2069E-02
     -3.005  0.3964E-01  0.4312E-02
     -2.949  0.4372E-01  0.6786E-02
     -2.892  0.3698E-01  0.8879E-02
     -2.836  0.2338E-01  0.1020E-01
     -2.779  0.9886E-02  0.1076E-01
     -2.723  0.1255E-02  0.1083E-01
     -2.666 -0.2047E-02  0.1072E-01
     -2.609 -0.2169E-02  0.1059E-01
     -2.553 -0.1323E-02  0.1052E-01
     -2.496 -0.6495E-03  0.1048E-01
     -2.440 -0.4486E-03  0.1046E-01
     -2.383 -0.7718E-03  0.1041E-01
     -2.326 -0.1679E-02  0.1032E-01
     -2.270 -0.2970E-02  0.1015E-01
     -2.213 -0.3502E-02  0.9952E-02
     -2.157 -0.6806E-03  0.9913E-02
     -2.100  0.8730E-02  0.1041E-01
     -2.044  0.2608E-01  0.1188E-01
     -1.987  0.4832E-01  0.1462E-01
     -1.930  0.6862E-01  0.1850E-01
     -1.874  0.8051E-01  0.2306E-01
     -1.817  0.8197E-01  0.2769E-01
     -1.761  0.7549E-01  0.3197E-01
     -1.704  0.6454E-01  0.3562E-01
     -1.647  0.5103E-01  0.3851E-01
     -1.591  0.3588E-01  0.4054E-01
     -1.534  0.2086E-01  0.4172E-01
     -1.478  0.8632E-02  0.4220E-01
     -1.421  0.1069E-02  0.4226E-01
     -1.364 -0.2038E-02  0.4215E-01
     -1.308 -0.2449E-02  0.4201E-01
     -1.251 -0.2126E-02  0.4189E-01
     -1.195 -0.2292E-02  0.4176E-01
     -1.138 -0.3109E-02  0.4159E-01
     -1.082 -0.3377E-02  0.4139E-01
     -1.025 -0.3669E-03  0.4137E-01
     -0.968  0.9122E-02  0.4189E-01
     -0.912  0.2595E-01  0.4336E-01
     -0.855  0.4617E-01  0.4597E-01
     -0.799  0.6235E-01  0.4950E-01
     -0.742  0.6895E-01  0.5340E-01
     -0.685  0.6635E-01  0.5715E-01
     -0.629  0.5917E-01  0.6050E-01
     -0.572  0.5134E-01  0.6341E-01
     -0.516  0.4402E-01  0.6590E-01
     -0.459  0.3723E-01  0.6801E-01
     -0.403  0.3124E-01  0.6977E-01
     -0.346  0.2576E-01  0.7123E-01
     -0.289  0.1976E-01  0.7235E-01
     -0.233  0.1271E-01  0.7307E-01
     -0.176  0.5573E-02  0.7338E-01
     -0.120 -0.1776E-03  0.7337E-01
     -0.063 -0.3853E-02  0.7316E-01
     -0.006 -0.5149E-02  0.7286E-01
      0.050 -0.2673E-02  0.7271E-01
      0.107  0.6306E-02  0.7307E-01
      0.163  0.2360E-01  0.7440E-01
      0.220  0.4705E-01  0.7707E-01
      0.277  0.7014E-01  0.8104E-01
      0.333  0.8563E-01  0.8588E-01
      0.390  0.9029E-01  0.9099E-01
      0.446  0.8627E-01  0.9587E-01
      0.503  0.7843E-01  0.1003E+00
      0.559  0.7043E-01  0.1043E+00
      0.616  0.6269E-01  0.1078E+00
      0.673  0.5330E-01  0.1109E+00
      0.729  0.4080E-01  0.1132E+00
      0.786  0.2621E-01  0.1147E+00
      0.842  0.1262E-01  0.1154E+00
      0.899  0.2756E-02  0.1155E+00
      0.956 -0.2904E-02  0.1154E+00
      1.012 -0.5916E-02  0.1150E+00
      1.069 -0.7639E-02  0.1146E+00
      1.125 -0.6751E-02  0.1142E+00
      1.182  0.1591E-02  0.1143E+00
      1.238  0.2326E-01  0.1156E+00
      1.295  0.5954E-01  0.1190E+00
      1.352  0.1024E+00  0.1248E+00
      1.408  0.1360E+00  0.1325E+00
      1.465  0.1457E+00  0.1407E+00
      1.521  0.1279E+00  0.1480E+00
      1.578  0.9340E-01  0.1532E+00
      1.635  0.6094E-01  0.1567E+00
      1.691  0.4535E-01  0.1593E+00
      1.748  0.4895E-01  0.1620E+00
      1.804  0.6176E-01  0.1655E+00
      1.861  0.6992E-01  0.1695E+00
      1.918  0.6536E-01  0.1732E+00
      1.974  0.4942E-01  0.1760E+00
      2.031  0.2939E-01  0.1776E+00
      2.087  0.1245E-01  0.1783E+00
      2.144  0.1984E-02  0.1785E+00
      2.200 -0.2609E-02  0.1783E+00
      2.257 -0.3904E-02  0.1781E+00
      2.314 -0.4257E-02  0.1778E+00
      2.370 -0.4384E-02  0.1776E+00
      2.427 -0.2834E-02  0.1774E+00
      2.483  0.3513E-02  0.1776E+00
      2.540  0.1759E-01  0.1786E+00
      2.597  0.3942E-01  0.1809E+00
      2.653  0.6451E-01  0.1845E+00
      2.710  0.8530E-01  0.1893E+00
      2.766  0.9505E-01  0.1947E+00
      2.823  0.9120E-01  0.1999E+00
      2.879  0.7583E-01  0.2042E+00
      2.936  0.5401E-01  0.2072E+00
      2.993  0.3159E-01  0.2090E+00
      3.049  0.1338E-01  0.2098E+00
      3.106  0.1569E-02  0.2099E+00
      3.162 -0.4667E-02  0.2096E+00
      3.219 -0.7753E-02  0.2092E+00
      3.276 -0.8962E-02  0.2086E+00
      3.332 -0.6022E-02  0.2083E+00
      3.389  0.6902E-02  0.2087E+00
      3.445  0.3549E-01  0.2107E+00
      3.502  0.7909E-01  0.2152E+00
      3.559  0.1269E+00  0.2224E+00
      3.615  0.1616E+00  0.2315E+00
      3.672  0.1695E+00  0.2411E+00
      3.728  0.1494E+00  0.2496E+00
      3.785  0.1131E+00  0.2560E+00
      3.841  0.7705E-01  0.2603E+00
      3.898  0.5292E-01  0.2633E+00
      3.955  0.4222E-01  0.2657E+00
      4.011  0.3864E-01  0.2679E+00
      4.068  0.3430E-01  0.2698E+00
      4.124  0.2534E-01  0.2713E+00
      4.181  0.1310E-01  0.2720E+00
      4.238  0.1487E-02  0.2721E+00
      4.294 -0.5719E-02  0.2718E+00
      4.351 -0.5237E-02  0.2715E+00
      4.407  0.6525E-02  0.2718E+00
      4.464  0.3227E-01  0.2737E+00
      4.520  0.7016E-01  0.2776E+00
      4.577  0.1115E+00  0.2839E+00
      4.634  0.1434E+00  0.2921E+00
      4.690  0.1572E+00  0.3010E+00
      4.747  0.1540E+00  0.3097E+00
      4.803  0.1432E+00  0.3178E+00
      4.860  0.1340E+00  0.3253E+00
      4.917  0.1284E+00  0.3326E+00
      4.973  0.1231E+00  0.3396E+00
      5.030  0.1151E+00  0.3461E+00
      5.086  0.1044E+00  0.3520E+00
      5.143  0.9137E-01  0.3572E+00
      5.200  0.7473E-01  0.3614E+00
      5.256  0.5379E-01  0.3644E+00
      5.313  0.3111E-01  0.3662E+00
      5.369  0.1158E-01  0.3669E+00
      5.426 -0.9425E-03  0.3668E+00
      5.482 -0.5352E-02  0.3665E+00
      5.539 -0.2067E-02  0.3664E+00
      5.596  0.8202E-02  0.3668E+00
      5.652  0.2352E-01  0.3682E+00
      5.709  0.3931E-01  0.3704E+00
      5.765  0.4955E-01  0.3732E+00
      5.822  0.5052E-01  0.3761E+00
      5.879  0.4352E-01  0.3785E+00
      5.935  0.3407E-01  0.3805E+00
      5.992  0.2839E-01  0.3821E+00
      6.048  0.2960E-01  0.3837E+00
      6.105  0.3584E-01  0.3858E+00
      6.161  0.4195E-01  0.3881E+00
      6.218  0.4350E-01  0.3906E+00
      6.275  0.3961E-01  0.3928E+00
      6.331  0.3194E-01  0.3947E+00
      6.388  0.2227E-01  0.3959E+00
      6.444  0.1260E-01  0.3966E+00
      6.501  0.7189E-02  0.3970E+00
      6.558  0.1240E-01  0.3977E+00
      6.614  0.3203E-01  0.3995E+00
      6.671  0.6208E-01  0.4031E+00
      6.727  0.9125E-01  0.4082E+00
      6.784  0.1093E+00  0.4144E+00
      6.840  0.1162E+00  0.4210E+00
      6.897  0.1211E+00  0.4278E+00
      6.954  0.1323E+00  0.4353E+00
      7.010  0.1469E+00  0.4436E+00
      7.067  0.1533E+00  0.4523E+00
      7.123  0.1405E+00  0.4603E+00
      7.180  0.1083E+00  0.4664E+00
      7.237  0.6689E-01  0.4702E+00
      7.293  0.2987E-01  0.4719E+00
      7.350  0.5653E-02  0.4722E+00
      7.406 -0.5420E-02  0.4719E+00
      7.463 -0.8204E-02  0.4714E+00
      7.520 -0.7666E-02  0.4710E+00
      7.576 -0.5591E-02  0.4707E+00
      7.633 -0.3665E-03  0.4706E+00
      7.689  0.1086E-01  0.4713E+00
      7.746  0.2934E-01  0.4729E+00
      7.802  0.5331E-01  0.4759E+00
      7.859  0.7922E-01  0.4804E+00
      7.916  0.1044E+00  0.4863E+00
      7.972  0.1287E+00  0.4936E+00
      8.029  0.1538E+00  0.5023E+00
      8.085  0.1789E+00  0.5124E+00
      8.142  0.1978E+00  0.5236E+00
      8.199  0.1997E+00  0.5349E+00
      8.255  0.1774E+00  0.5450E+00
      8.312  0.1353E+00  0.5526E+00
      8.368  0.8846E-01  0.5576E+00
      8.425  0.5203E-01  0.5606E+00
      8.481  0.3146E-01  0.5623E+00
      8.538  0.2235E-01  0.5636E+00
      8.595  0.1707E-01  0.5646E+00
      8.651  0.1099E-01  0.5652E+00
      8.708  0.3801E-02  0.5654E+00
      8.764 -0.2577E-02  0.5653E+00
      8.821 -0.5830E-02  0.5649E+00
      8.878 -0.3171E-02  0.5648E+00
      8.934  0.8741E-02  0.5653E+00
      8.991  0.3151E-01  0.5670E+00
      9.047  0.6157E-01  0.5705E+00
      9.104  0.9013E-01  0.5756E+00
      9.161  0.1090E+00  0.5818E+00
      9.217  0.1170E+00  0.5884E+00
      9.274  0.1202E+00  0.5952E+00
      9.330  0.1240E+00  0.6022E+00
      9.387  0.1263E+00  0.6094E+00
      9.443  0.1199E+00  0.6162E+00
      9.500  0.9997E-01  0.6218E+00
      9.557  0.6940E-01  0.6257E+00
      9.613  0.3667E-01  0.6278E+00
      9.670  0.1063E-01  0.6284E+00
      9.726 -0.2768E-02  0.6283E+00
      9.783 -0.4948E-03  0.6282E+00
      9.840  0.1765E-01  0.6292E+00
      9.896  0.4665E-01  0.6319E+00
      9.953  0.7454E-01  0.6361E+00
     10.009  0.8707E-01  0.6410E+00
     10.066  0.7744E-01  0.6454E+00
     10.122  0.5180E-01  0.6483E+00
     10.179  0.2392E-01  0.6497E+00
     10.236  0.4695E-02  0.6500E+00
     10.292 -0.3530E-02  0.6498E+00
     10.349 -0.4522E-02  0.6495E+00
     10.405 -0.2927E-02  0.6493E+00
     10.462 -0.1363E-02  0.6493E+00
     10.519 -0.4962E-03  0.6492E+00
     10.575 -0.1461E-03  0.6492E+00
     10.632 -0.3536E-04  0.6492E+00
     10.688 -0.7108E-05  0.6492E+00
     10.745 -0.1194E-05  0.6492E+00
     10.802 -0.1684E-06  0.6492E+00
     10.858 -0.1999E-07  0.6492E+00
     10.915 -0.2002E-08  0.6492E+00
     10.971 -0.1694E-09  0.6492E+00
     11.028 -0.1213E-10  0.6492E+00
     11.084 -0.7362E-12  0.6492E+00
     11.141 -0.3793E-13  0.6492E+00
     11.198 -0.1602E-14  0.6492E+00
     11.254 -0.8218E-16  0.6492E+00
     11.311  0.0000E+00  0.6492E+00
     11.367  0.0000E+00  0.6492E+00
     11.424  0.0000E+00  0.6492E+00
     11.481  0.0000E+00  0.6492E+00
     11.537  0.0000E+00  0.6492E+00
     11.594  0.0000E+00  0.6492E+00
     11.650  0.0000E+00  0.6492E+00
     11.707  0.0000E+00  0.6492E+00
     11.763  0.0000E+00  0.6492E+00
     11.820  0.0000E+00  0.6492E+00
     11.877  0.0000E+00  0.6492E+00
     11.933  0.0000E+00  0.6492E+00
     11.990  0.0000E+00  0.6492E+00
