   31   31  191    1
  0.1706119E+02  0.8087054E-09  0.8087054E-09  0.8087054E-09  0.5000000E-15
  1.000000000000000E-004
  CAR 
 unknown system                          
   92    2   62
 
  0.2500000E+00  0.2500000E+00  0.2500000E+00  0.5000000E+00
   1       -2.983016
   2       -1.960452
   3       -1.878682
   4       -1.641621
   5       -0.812046
   6       -0.760714
   7       -0.353974
   8        0.257182
   9        0.321854
  10        0.532518
  11        0.616222
  12        1.344779
  13        1.363763
  14        1.405912
  15        1.539507
  16        1.814106
  17        1.940443
  18        2.700647
  19        2.708551
  20        2.904450
  21        3.530270
  22        3.591749
  23        3.628999
  24        3.677369
  25        3.736280
  26        4.050835
  27        4.530875
  28        4.558068
  29        4.645025
  30        4.807243
  31        4.864818
  32        4.870579
  33        4.929419
  34        5.110838
  35        5.206334
  36        5.726643
  37        5.892912
  38        6.355655
  39        6.709979
  40        6.775821
  41        6.786608
  42        6.944436
  43        6.989305
  44        7.094309
  45        7.149887
  46        7.789372
  47        7.887582
  48        8.006346
  49        8.036323
  50        8.162309
  51        8.198781
  52        8.207262
  53        8.373809
  54        8.536625
  55        9.056677
  56        9.137315
  57        9.188009
  58        9.354352
  59        9.371975
  60        9.513232
  61        9.978868
  62        9.985507
 
 -0.2500000E+00  0.2500000E+00  0.2500000E+00  0.5000000E+00
   1       -2.985977
   2       -1.950732
   3       -1.815305
   4       -1.722199
   5       -0.825457
   6       -0.609219
   7       -0.548721
   8        0.261543
   9        0.398804
  10        0.441454
  11        0.699098
  12        1.393497
  13        1.428229
  14        1.492402
  15        1.493949
  16        1.768068
  17        1.842834
  18        2.621342
  19        2.773049
  20        2.839546
  21        3.537793
  22        3.588076
  23        3.634278
  24        3.681312
  25        3.812020
  26        3.963284
  27        4.598089
  28        4.651450
  29        4.677879
  30        4.699060
  31        4.716212
  32        4.949486
  33        4.973549
  34        5.059520
  35        5.175007
  36        5.746220
  37        6.117415
  38        6.177609
  39        6.706396
  40        6.746899
  41        6.917836
  42        7.023738
  43        7.033099
  44        7.070550
  45        7.141252
  46        7.837800
  47        7.956675
  48        7.994826
  49        8.066828
  50        8.149293
  51        8.171895
  52        8.188147
  53        8.216956
  54        8.264269
  55        9.095498
  56        9.146827
  57        9.272823
  58        9.378049
  59        9.408157
  60        9.487868
  61        9.979801
  62        9.989822
