       N       E                     dE             d eps       ncg     rms          rms(c)
RMM:   1     0.298723033983E+03    0.29872E+03   -0.16750E+04   124   0.640E+02
RMM:   2    -0.103459277731E+02   -0.30907E+03   -0.30401E+03   124   0.135E+02
RMM:   3    -0.826093237971E+02   -0.72263E+02   -0.74266E+02   124   0.460E+01
RMM:   4    -0.101582070064E+03   -0.18973E+02   -0.18545E+02   124   0.269E+01
RMM:   5    -0.108511471573E+03   -0.69294E+01   -0.58920E+01   124   0.146E+01
RMM:   6    -0.111123593195E+03   -0.26121E+01   -0.21873E+01   124   0.843E+00
RMM:   7    -0.112239610231E+03   -0.11160E+01   -0.93018E+00   124   0.506E+00
RMM:   8    -0.112740436640E+03   -0.50083E+00   -0.42890E+00   124   0.319E+00
RMM:   9    -0.113158323915E+03   -0.41789E+00   -0.38883E+00   297   0.206E+00
RMM:  10    -0.113237140721E+03   -0.78817E-01   -0.49404E-01   302   0.510E-01
RMM:  11    -0.113243196467E+03   -0.60557E-02   -0.14981E-02   281   0.104E-01
RMM:  12    -0.113243169342E+03    0.27125E-04    0.75694E-04   236   0.248E-02    0.547E+00
RMM:  13    -0.112410318445E+03    0.83285E+00   -0.15879E+00   248   0.174E+00    0.331E+00
RMM:  14    -0.112170445779E+03    0.23987E+00   -0.29330E-01   259   0.101E+00    0.148E+00
RMM:  15    -0.112110510970E+03    0.59935E-01   -0.63287E-02   256   0.575E-01    0.191E-01
RMM:  16    -0.112108848938E+03    0.16620E-02   -0.72135E-03   264   0.155E-01    0.589E-02
RMM:  17    -0.112108713794E+03    0.13514E-03   -0.10228E-03   253   0.635E-02    0.179E-02
RMM:  18    -0.112108718758E+03   -0.49637E-05   -0.82342E-05   273   0.206E-02    0.694E-03
RMM:  19    -0.112108723735E+03   -0.49773E-05   -0.28349E-05   245   0.920E-03    0.308E-03
RMM:  20    -0.112108724373E+03   -0.63825E-06   -0.55319E-06   210   0.421E-03
   1 F= -.11210872E+03 E0= -.11210690E+03  d E =-.546687E-02
       N       E                     dE             d eps       ncg     rms          rms(c)
RMM:   1    -0.112108503671E+03    0.22006E-03   -0.97274E-03   248   0.303E-01    0.212E-02
RMM:   2    -0.112108506484E+03   -0.28129E-05   -0.19313E-04   282   0.373E-02    0.124E-02
RMM:   3    -0.112108506731E+03   -0.24710E-06   -0.32713E-05   248   0.135E-02    0.404E-03
RMM:   4    -0.112108507006E+03   -0.27449E-06   -0.26089E-06   177   0.470E-03
   2 F= -.11210851E+03 E0= -.11210668E+03  d E =-.547584E-02
       N       E                     dE             d eps       ncg     rms          rms(c)
RMM:   1    -0.112108496357E+03    0.10374E-04   -0.38945E-02   248   0.606E-01    0.423E-02
RMM:   2    -0.112108505082E+03   -0.87246E-05   -0.76058E-04   282   0.738E-02    0.247E-02
RMM:   3    -0.112108505576E+03   -0.49414E-06   -0.13456E-04   248   0.269E-02    0.780E-03
RMM:   4    -0.112108506467E+03   -0.89069E-06   -0.12508E-05   248   0.935E-03    0.519E-03
RMM:   5    -0.112108507949E+03   -0.14822E-05   -0.27932E-06   175   0.482E-03    0.149E-03
RMM:   6    -0.112108507878E+03    0.71008E-07   -0.57610E-07   141   0.236E-03
   3 F= -.11210851E+03 E0= -.11210668E+03  d E =-.547567E-02
       N       E                     dE             d eps       ncg     rms          rms(c)
RMM:   1    -0.112107805165E+03    0.70278E-03   -0.22158E-02   248   0.444E-01    0.325E-02
RMM:   2    -0.112107802295E+03    0.28700E-05   -0.48775E-04   279   0.563E-02    0.190E-02
RMM:   3    -0.112107791021E+03    0.11274E-04   -0.72621E-05   249   0.197E-02    0.659E-03
RMM:   4    -0.112107788309E+03    0.27126E-05   -0.91899E-06   231   0.742E-03    0.357E-03
RMM:   5    -0.112107786173E+03    0.21352E-05   -0.51213E-06   196   0.456E-03    0.102E-03
RMM:   6    -0.112107785570E+03    0.60336E-06   -0.10011E-06   146   0.220E-03
   4 F= -.11210779E+03 E0= -.11210596E+03  d E =-.548108E-02
       N       E                     dE             d eps       ncg     rms          rms(c)
RMM:   1    -0.112107885877E+03   -0.99703E-04   -0.48753E-02   248   0.648E-01    0.546E-02
RMM:   2    -0.112107803135E+03    0.82742E-04   -0.11098E-03   271   0.853E-02    0.302E-02
RMM:   3    -0.112107783768E+03    0.19366E-04   -0.19032E-04   250   0.307E-02    0.100E-02
RMM:   4    -0.112107785034E+03   -0.12653E-05   -0.18529E-05   253   0.107E-02    0.571E-03
RMM:   5    -0.112107785824E+03   -0.79049E-06   -0.30249E-06   173   0.450E-03
   5 F= -.11210779E+03 E0= -.11210596E+03  d E =-.547967E-02
       N       E                     dE             d eps       ncg     rms          rms(c)
RMM:   1    -0.112108518666E+03   -0.73363E-03   -0.21614E-02   248   0.442E-01    0.296E-02
RMM:   2    -0.112108531069E+03   -0.12403E-04   -0.46320E-04   281   0.552E-02    0.182E-02
RMM:   3    -0.112108513935E+03    0.17134E-04   -0.70285E-05   248   0.195E-02    0.603E-03
RMM:   4    -0.112108509978E+03    0.39564E-05   -0.11320E-05   227   0.764E-03    0.293E-03
RMM:   5    -0.112108508021E+03    0.19568E-05   -0.63326E-06   204   0.470E-03    0.952E-04
RMM:   6    -0.112108507549E+03    0.47263E-06   -0.19203E-06   165   0.254E-03
   6 F= -.11210851E+03 E0= -.11210668E+03  d E =-.547583E-02
       N       E                     dE             d eps       ncg     rms          rms(c)
RMM:   1    -0.112108490549E+03    0.17472E-04   -0.38826E-02   248   0.605E-01    0.424E-02
RMM:   2    -0.112108503342E+03   -0.12793E-04   -0.76448E-04   281   0.743E-02    0.247E-02
RMM:   3    -0.112108505475E+03   -0.21333E-05   -0.13148E-04   249   0.270E-02    0.792E-03
RMM:   4    -0.112108506520E+03   -0.10447E-05   -0.12636E-05   247   0.944E-03    0.520E-03
RMM:   5    -0.112108508011E+03   -0.14910E-05   -0.29254E-06   179   0.490E-03    0.149E-03
RMM:   6    -0.112108507900E+03    0.11078E-06   -0.60917E-07   141   0.237E-03
   7 F= -.11210851E+03 E0= -.11210668E+03  d E =-.547564E-02
