 vasp.5.2.2 15Apr09 complex 
 executed on             LinuxIFC date 2014.04.24  13:16:14
 running on    1 nodes
 distr:  one band on    1 nodes,    1 groups


--------------------------------------------------------------------------------------------------------


 INCAR:
 POTCAR:   PAW_PBE Mg 05Jan2001                   
 POTCAR:   PAW_PBE Al 04Jan2001                   
 POTCAR:   PAW_PBE Mg 05Jan2001                   
   VRHFIN =Mg: s2p0                                                             
   LEXCH  = PE                                                                  
   EATOM  =    23.0029 eV,    1.6907 Ry                                         
                                                                                
   TITEL  = PAW_PBE Mg 05Jan2001                                                
   LULTRA =        F    use ultrasoft PP ?                                      
   IUNSCR =        1    unscreen: 0-lin 1-nonlin 2-no                           
   RPACOR =    2.000    partial core radius                                     
   POMASS =   24.305; ZVAL   =    2.000    mass and valenz                      
   RCORE  =    2.000    outmost cutoff radius                                   
   RWIGS  =    2.880; RWIGS  =    1.524    wigner-seitz radius (au A)           
   ENMAX  =  210.012; ENMIN  =  157.509 eV                                      
   ICORE  =        2    local potential                                         
   LCOR   =        T    correct aug charges                                     
   LPAW   =        T    paw PP                                                  
   EAUG   =  274.554                                                            
   DEXC   =    -.136                                                            
   RMAX   =    3.182    core radius for proj-oper                               
   RAUG   =    1.300    factor for augmentation sphere                          
   RDEP   =    2.025    radius for radial grids                                 
   QCUT   =   -3.929; QGAM   =    7.858    optimization parameters              
                                                                                
   Description                                                                  
     l     E      TYP  RCUT    TYP  RCUT                                        
     0   .000     23  2.000                                                     
     0  2.000     23  2.000                                                     
     1   .000     23  2.000                                                     
     1  2.000     23  2.000                                                     
     2   .000     23  2.000                                                     
  local pseudopotential read in
  partial core-charges read in
  atomic valenz-charges read in
  non local Contribution for L=           0  read in
    real space projection operators read in
  non local Contribution for L=           0  read in
    real space projection operators read in
  non local Contribution for L=           1  read in
    real space projection operators read in
  non local Contribution for L=           1  read in
    real space projection operators read in
    PAW grid and wavefunctions read in
 
   number of l-projection  operators is LMAX  =           4
   number of lm-projection operators is LMMAX =           8
 
 POTCAR:   PAW_PBE Al 04Jan2001                   
   VRHFIN =Al: s2p1                                                             
   LEXCH  = PE                                                                  
   EATOM  =    53.5387 eV,    3.9350 Ry                                         
                                                                                
   TITEL  = PAW_PBE Al 04Jan2001                                                
   LULTRA =        F    use ultrasoft PP ?                                      
   IUNSCR =        1    unscreen: 0-lin 1-nonlin 2-no                           
   RPACOR =    1.500    partial core radius                                     
   POMASS =   26.982; ZVAL   =    3.000    mass and valenz                      
   RCORE  =    1.900    outmost cutoff radius                                   
   RWIGS  =    2.650; RWIGS  =    1.402    wigner-seitz radius (au A)           
   ENMAX  =  240.300; ENMIN  =  180.225 eV                                      
   ICORE  =        2    local potential                                         
   LCOR   =        T    correct aug charges                                     
   LPAW   =        T    paw PP                                                  
   EAUG   =  291.052                                                            
   DEXC   =    -.041                                                            
   RMAX   =    2.974    core radius for proj-oper                               
   RAUG   =    1.300    factor for augmentation sphere                          
   RDEP   =    1.966    radius for radial grids                                 
   QCUT   =   -4.203; QGAM   =    8.405    optimization parameters              
                                                                                
   Description                                                                  
     l     E      TYP  RCUT    TYP  RCUT                                        
     0   .000     23  1.900                                                     
     0   .000     23  1.900                                                     
     1   .000     23  1.900                                                     
     1  1.000     23  1.900                                                     
     2   .000      7  1.900                                                     
  local pseudopotential read in
  partial core-charges read in
  atomic valenz-charges read in
  non local Contribution for L=           0  read in
    real space projection operators read in
  non local Contribution for L=           0  read in
    real space projection operators read in
  non local Contribution for L=           1  read in
    real space projection operators read in
  non local Contribution for L=           1  read in
    real space projection operators read in
    PAW grid and wavefunctions read in
 
   number of l-projection  operators is LMAX  =           4
   number of lm-projection operators is LMMAX =           8
 

 ----------------------------------------------------------------------------- 
|                                                                             |
|  ADVICE TO THIS USER RUNNING 'VASP/VAMP'   (HEAR YOUR MASTER'S VOICE ...):  |
|                                                                             |
|      You have a (more or less) 'large supercell' and for larger cells       |
|      it might be more efficient to use real space projection operators      |
|      So try LREAL= Auto  in the INCAR   file.                               |
|      Mind: If you want to do a very accurate calculations keep the          |
|      reciprocal projection scheme          (i.e. LREAL=.FALSE.)             |
|                                                                             |
 ----------------------------------------------------------------------------- 

 PAW_PBE Mg 05Jan2001                   :
 energy of atom  1       EATOM=  -23.0029
 kinetic energy error for atom=    0.0002 (will be added to EATOM!!)
 PAW_PBE Al 04Jan2001                   :
 energy of atom  2       EATOM=  -53.5387
 kinetic energy error for atom=    0.0011 (will be added to EATOM!!)
 
 
 POSCAR: Mg1 Al30                                
  positions in direct lattice
  velocities in cartesian coordinates
 exchange correlation table for  LEXCH =        8
   RHO(1)=    0.500       N(1)  =     2000
   RHO(2)=  100.500       N(2)  =     4000

 VTST: version 2.03d, (02/18/09)

 CHAIN: initializing optimizer
 
 OPT: Using VASP Dynamics algorithm
 CHAIN: Read ICHAIN            0
 


--------------------------------------------------------------------------------------------------------


 ion  position               nearest neighbor table
   1  0.375  0.500  0.375-   9 2.70  16 2.70  19 2.70  27 2.70  26 3.17  14 3.17  13 3.17  25 3.17

   2  0.001  0.000  0.001-   7 2.78  18 2.78   3 2.81  15 2.83   8 2.83  20 2.83  28 2.83  22 2.88
                             5 2.88  11 2.88  12 2.88   4 2.88
   3  0.247  0.000  0.247-   2 2.81   9 2.83  16 2.83  19 2.83  27 2.83  12 2.85   5 2.85   4 2.85
                            11 2.85  21 2.93  17 2.94   6 2.94
   4  0.249  0.256  0.005-   5 2.80  13 2.82  10 2.83  18 2.84   3 2.85   9 2.85  26 2.87   2 2.88
                            20 2.88   6 2.90  24 2.92
   5  0.005  0.256  0.249-   4 2.80  25 2.82  10 2.83   7 2.84   3 2.85  19 2.85  14 2.87   2 2.88
                             8 2.88  17 2.90  23 2.92
   6  0.500  0.000  0.986-  18 2.71  16 2.75   9 2.75  22 2.78  24 2.84  31 2.84  15 2.86   8 2.86
                             4 2.90  11 2.90   3 2.94   7 3.01
   7  0.764  0.000  0.250-  17 2.71  16 2.75   9 2.75   2 2.78   5 2.84  12 2.84   8 2.86  15 2.86
                            23 2.90  30 2.90  21 2.94   6 3.01
   8  0.754  0.247  0.996-   9 2.77  20 2.78   2 2.83  22 2.83  29 2.85  10 2.85   6 2.86   7 2.86
                            24 2.88   5 2.88  13 2.90  14 2.90
   9  0.511  0.228  0.239-   1 2.70   7 2.75   6 2.75   8 2.77  21 2.83   3 2.83  23 2.85   4 2.85
                            14 2.91  13 2.91  19 3.12
  10  1.000  0.500  1.000-   4 2.83   5 2.83  11 2.83  12 2.83   8 2.85  15 2.85  20 2.85  28 2.85
                            29 2.86  14 2.88  26 2.88
  11  0.249  0.744  0.005-  12 2.80  13 2.82  10 2.83  18 2.84   3 2.85  16 2.85  26 2.87   2 2.88
                            28 2.88   6 2.90  31 2.92
  12  0.005  0.744  0.249-  11 2.80  25 2.82  10 2.83   7 2.84   3 2.85  27 2.85  14 2.87   2 2.88
                            15 2.88  17 2.90  30 2.92
  13  0.499  0.500  0.003-   4 2.82  11 2.82  14 2.84  24 2.87  31 2.87  26 2.88  29 2.88   8 2.90
                            15 2.90   9 2.91  16 2.91   1 3.17
  14  0.747  0.500  0.251-  23 2.82  30 2.82  13 2.84  12 2.87   5 2.87  25 2.88  10 2.88  15 2.90
                             8 2.90  16 2.91   9 2.91   1 3.17
  15  0.754  0.753  0.996-  16 2.77  28 2.78  22 2.83   2 2.83  29 2.85  10 2.85   6 2.86   7 2.86
                            31 2.88  12 2.88  13 2.90  14 2.90
  16  0.511  0.772  0.239-   1 2.70   7 2.75   6 2.75  15 2.77  21 2.83   3 2.83  30 2.85  11 2.85
                            14 2.91  13 2.91  27 3.12
  17  0.986  0.000  0.500-   7 2.71  19 2.75  27 2.75  22 2.78  23 2.84  30 2.84  28 2.86  20 2.86
                            12 2.90   5 2.90   3 2.94  18 3.01
  18  0.250  0.000  0.764-   6 2.71  19 2.75  27 2.75   2 2.78   4 2.84  11 2.84  20 2.86  28 2.86
                            24 2.90  31 2.90  21 2.94  17 3.01
  19  0.239  0.228  0.511-   1 2.70  18 2.75  17 2.75  20 2.77  21 2.83   3 2.83  24 2.85   5 2.85
                            26 2.91  25 2.91   9 3.12
  20  0.996  0.247  0.754-  19 2.77   8 2.78   2 2.83  22 2.83  29 2.85  10 2.85  17 2.86  18 2.86
                            23 2.88   4 2.88  25 2.90  26 2.90
  21  0.503  0.000  0.503-  22 2.81  16 2.83   9 2.83  19 2.83  27 2.83  24 2.85  23 2.85  30 2.85
                            31 2.85   3 2.93  18 2.94   7 2.94
  22  0.749  0.000  0.749-   6 2.78  17 2.78  21 2.81   8 2.83  20 2.83  15 2.83  28 2.83   2 2.88
                            24 2.88  23 2.88  30 2.88  31 2.88
  23  0.745  0.256  0.501-  24 2.80  14 2.82  29 2.83  17 2.84  21 2.85   9 2.85  25 2.87  22 2.88
                            20 2.88   7 2.90   5 2.92
  24  0.501  0.256  0.745-  23 2.80  26 2.82  29 2.83   6 2.84  21 2.85  19 2.85  13 2.87  22 2.88
                             8 2.88  18 2.90   4 2.92
  25  0.003  0.500  0.499-   5 2.82  12 2.82  26 2.84  23 2.87  30 2.87  14 2.88  29 2.88  20 2.90
                            28 2.90  27 2.91  19 2.91   1 3.17
  26  0.251  0.500  0.747-  24 2.82  31 2.82  25 2.84  11 2.87   4 2.87  13 2.88  10 2.88  28 2.90
                            20 2.90  19 2.91  27 2.91   1 3.17
  27  0.239  0.772  0.511-   1 2.70  18 2.75  17 2.75  28 2.77  21 2.83   3 2.83  31 2.85  12 2.85
                            26 2.91  25 2.91  16 3.12
  28  0.996  0.753  0.754-  27 2.77  15 2.78  22 2.83   2 2.83  29 2.85  10 2.85  17 2.86  18 2.86
                            30 2.88  11 2.88  25 2.90  26 2.90
  29  0.750  0.500  0.750-  23 2.83  30 2.83  24 2.83  31 2.83  15 2.85  28 2.85  20 2.85   8 2.85
                            10 2.86  25 2.88  13 2.88
  30  0.745  0.744  0.501-  31 2.80  14 2.82  29 2.83  17 2.84  21 2.85  16 2.85  25 2.87  22 2.88
                            28 2.88   7 2.90  12 2.92
  31  0.501  0.744  0.745-  30 2.80  26 2.82  29 2.83   6 2.84  21 2.85  27 2.85  13 2.87  22 2.88
                            15 2.88  18 2.90  11 2.92
 
  LATTYP: Found a simple cubic cell.
 ALAT       =     8.0870540000
  
  Lattice vectors:
  
 A1 = (   8.0870540000,   0.0000000000,   0.0000000000)
 A2 = (   0.0000000000,   8.0870540000,   0.0000000000)
 A3 = (   0.0000000000,   0.0000000000,   8.0870540000)
 Subroutine PRICEL returns:
 Original cell was already a primitive cell.
 

Analysis of symmetry for initial positions (statically):

 Routine SETGRP: Setting up the symmetry group for a 
 simple cubic supercell.


 Subroutine GETGRP returns: Found  8 space group operations
 (whereof  4 operations were pure point group operations)
 out of a pool of 48 trial point group operations.


The static configuration has the point symmetry C_2v.
 The point group associated with its full space group is D_2h.

Analysis of symmetry for dynamics (positions and initial velocities):

 Subroutine DYNSYM returns: Found  8 space group operations
 (whereof  4 operations were pure point group operations)
 out of a pool of  8 trial space group operations
 (whereof  4 operations were pure point group operations)
 and found also     1 'primitive' translations


The dynamic configuration has the point symmetry C_2v.
 The point group associated with its full space group is D_2h.

Analysis of constrained symmetry for selective dynamics:

 Subroutine DYNSYM returns: Found  8 space group operations
 (whereof  4 operations were pure point group operations)
 out of a pool of  8 trial space group operations
 (whereof  4 operations were pure point group operations)
 and found also     1 'primitive' translations


The constrained configuration has the point symmetry C_2v.
 The point group associated with its full space group is D_2h.
 
 
 KPOINTS: Automatic kpoint scheme                 

Automatic generation of k-mesh.
 
 Subroutine IBZKPT returns following result:
 ===========================================
 
 Found      2 irreducible k-points:
 
 Following reciprocal coordinates:
            Coordinates               Weight
  0.250000  0.250000  0.250000      4.000000
 -0.250000  0.250000  0.250000      4.000000
 
 Following cartesian coordinates:
            Coordinates               Weight
  0.030914  0.030914  0.030914      4.000000
 -0.030914  0.030914  0.030914      4.000000
 
 
 Subroutine IBZKPT_HF returns following result:
 ==============================================
 
 Found      8 k-points in 1st BZ
 the following      8 k-points will be used (e.g. in the exchange kernel)
 Following reciprocal coordinates:   # in IRBZ
  0.250000  0.250000  0.250000       1
 -0.250000  0.250000  0.250000       2
  0.250000 -0.250000  0.250000       1
 -0.250000 -0.250000 -0.250000       1
 -0.250000  0.250000 -0.250000       1
  0.250000 -0.250000 -0.250000       2
 -0.250000 -0.250000  0.250000       2
  0.250000  0.250000 -0.250000       2


--------------------------------------------------------------------------------------------------------




 Dimension of arrays:
   k-points           NKPTS =      2   k-points in BZ     NKDIM =      2   number of bands    NBANDS=     62
   number of dos      NEDOS =    301   number of ions     NIONS =     31
   non local maximal  LDIM  =      4   non local SUM 2l+1 LMDIM =      8
   total plane-waves  NPLWV = 110592
   max r-space proj   IRMAX =      1   max aug-charges    IRDMAX=   9081
   dimension x,y,z NGX =    48 NGY =   48 NGZ =   48
   dimension x,y,z NGXF=    96 NGYF=   96 NGZF=   96
   support grid    NGXF=    96 NGYF=   96 NGZF=   96
   ions per type =               1  30
 NGX,Y,Z   is equivalent  to a cutoff of   9.87,  9.87,  9.87 a.u.
 NGXF,Y,Z  is equivalent  to a cutoff of  19.73, 19.73, 19.73 a.u.


 I would recommend the setting:
   dimension x,y,z NGX =    46 NGY =   46 NGZ =   46
 SYSTEM =  unknown system                          
 POSCAR =  Mg1 Al30                                

 Startparameter for this run:
   NWRITE =      2    write-flag & timer
   PREC   = accura    medium, high low
   ISTART =      0    job   : 0-new  1-cont  2-samecut
   ICHARG =      2    charge: 1-file 2-atom 10-const
   ISPIN  =      1    spin polarized calculation?
   LNONCOLLINEAR =      F non collinear calculations
   LSORBIT =      F    spin-orbit coupling
   INIWAV =      1    electr: 0-lowe 1-rand  2-diag
   LASPH  =      F    aspherical Exc in radial PAW
   METAGGA=      F    non-selfconsistent MetaGGA calc.

 Electronic Relaxation 1
   ENCUT  =  300.0 eV  22.05 Ry    4.70 a.u.  11.42 11.42 11.42*2*pi/ulx,y,z
   ENINI  =  300.0     initial cutoff
   ENAUG  =  291.1 eV  augmentation charge cutoff
   NELM   =     60;   NELMIN=  2; NELMDL=  0     # of ELM steps 
   EDIFF  = 0.1E-05   stopping-criterion for ELM
   LREAL  =      F    real-space projection
   LCOMPAT=      F    compatible to vasp.4.4
   LREAL_COMPAT= F    compatible to vasp.4.5.1-3
   GGA_COMPAT  = T    GGA compatible to vasp.4.4-vasp.4.6
   LMAXPAW     = -100 max onsite density
   LMAXMIX     =    2 max onsite mixed and CHGCAR
   VOSKOWN=      0    Vosko Wilk Nusair interpolation
   ROPT   =    0.00000   0.00000
 Ionic relaxation
   EDIFFG = 0.5E-01   stopping-criterion for IOM
   NSW    =    382    number of steps for IOM
   NBLOCK =      1;   KBLOCK =    191    inner block; outer block 
   IBRION =      5    ionic relax: 0-MD 1-quasi-New 2-CG
   NFREE  =      2    steps in history (QN), initial steepest desc. (CG)
   ISIF   =      2    stress and relaxation
   IWAVPR =     11    prediction:  0-non 1-charg 2-wave 3-comb
   ISYM   =      2    0-nonsym 1-usesym 2-fastsym
   LCORR  =      T    Harris-Foulkes like correction to forces

   POTIM  = 0.5000    time-step for ionic-motion
   TEIN   =    0.0    initial temperature
   TEBEG  =    0.0;   TEEND  =   0.0 temperature during run
   SMASS  =  -3.00    Nose mass-parameter (am)
   estimated Nose-frequenzy (Omega)   =  0.10E-29 period in steps =****** mass=  -0.149E-26a.u.
   NPACO  =    256;   APACO  = 16.0  distance and # of slots for P.C.
   PSTRESS=    0.0 pullay stress

  Mass of Ions in am
   POMASS =  24.30 26.98
  Ionic Valenz
   ZVAL   =   2.00  3.00
  Atomic Wigner-Seitz radii
   RWIGS  =  -1.00 -1.00
   NELECT =      92.0000    total number of electrons
   NUPDOWN=      -1.0000    fix difference up-down

 DOS related values:
   EMIN   =  10.00;   EMAX   =-10.00  energy-range for DOS
   EFERMI =   0.00
   ISMEAR =     1;   SIGMA  =   0.20  broadening in eV -4-tet -1-fermi 0-gaus

 Electronic relaxation 2 (details)
   IALGO  =     48    algorithm
   LDIAG  =      T    sub-space diagonalisation
   IMIX   =      4    mixing-type and parameters
     AMIX     =   0.40;   BMIX     =  1.00
     AMIX_MAG =   1.60;   BMIX_MAG =  1.00
     AMIN     =   0.10
     WC   =   100.;   INIMIX=   1;  MIXPRE=   1

 Intra band minimization:
   WEIMIN = 0.0010     energy-eigenvalue tresh-hold
   EBREAK =  0.40E-08  absolut break condition
   DEPER  =   0.30     relativ break condition  

   TIME   =   0.40     timestep for ELM

  volume/ion in A,a.u.               =      17.06       115.13
  Fermi-wavevector in a.u.,A,eV,Ry     =   0.913862  1.726948 11.362811  0.835143
  Thomas-Fermi vector in A             =   2.038422
 
 Write flags
   LWAVE  =      F    write WAVECAR
   LCHARG =      F    write CHGCAR
   LVTOT  =      F    write LOCPOT, local potential
   LELF   =      F    write electronic localiz. function (ELF)
   LORBIT =      0    0 simple, 1 ext, 2 COOP (PROOUT)


 Dipole corrections
   LMONO  =      F    monopole corrections only (constant potential shift)
   LDIPOL =      F    correct potential (dipole corrections)
   IDIPOL =      0    1-x, 2-y, 3-z, 4-all directions 
   EPSILON=  1.0000000 bulk dielectric constant

 Exchange correlation treatment:
   GGA     =    --    GGA type
   LEXCH   =     8    internal setting for exchange type
   VOSKOWN=      0    Vosko Wilk Nusair interpolation
   LHFCALC =     F    Hartree Fock is set to
   LHFONE  =     F    Hartree Fock one center treatment
   AEXX    =    0.0000 exact exchange contribution

 Linear response parameters
   LEPSILON=     F    determine dielectric tensor
   LRPA    =     F    only Hartree local field effects (RPA)
   LNABLA  =     F    use nabla operator in PAW spheres
   LVEL    =     F    velocity operator in full k-point grid
   LINTERFAST=   F  fast interpolation
   KINTER  =     0    interpolate to denser k-point grid
   CSHIFT  =0.1000    complex shift for real part using Kramers Kronig
   OMEGAMAX=  -1.0    maximum frequency

 Orbital magnetization related:
   ORBITALMAG=     F  switch on orbital magnetization
   LCHIMAG   =     F  perturbation theory with respect to B field



--------------------------------------------------------------------------------------------------------


 finite differences
   using selective dynamics as specified on POSCAR
 charge density and potential will be updated during run
 non-spin polarized calculation
 RMM-DIIS sequential band-by-band
 perform sub-space diagonalisation
    before iterative eigenvector-optimisation
 modified Broyden-mixing scheme, WC =      100.0
 initial mixing is a Kerker type mixing with AMIX =  0.4000 and BMIX =      1.0000
 Hartree-type preconditioning will be used
 using additional bands           16
 reciprocal scheme for non local part
 use partial core corrections
 calculate Harris-corrections to forces 
   (improved forces if not selfconsistent)
 use gradient corrections 
 use of overlap-Matrix (Vanderbilt PP)
 Methfessel and Paxton  Order N= 1 SIGMA  =   0.20


--------------------------------------------------------------------------------------------------------


  energy-cutoff  :      300.00
  volume of cell :      528.90
      direct lattice vectors                 reciprocal lattice vectors
     8.087054000  0.000000000  0.000000000     0.123654423  0.000000000  0.000000000
     0.000000000  8.087054000  0.000000000     0.000000000  0.123654423  0.000000000
     0.000000000  0.000000000  8.087054000     0.000000000  0.000000000  0.123654423

  length of vectors
     8.087054000  8.087054000  8.087054000     0.123654423  0.123654423  0.123654423


 
 k-points in units of 2pi/SCALE and weight: Automatic kpoint scheme                 
   0.03091361  0.03091361  0.03091361       0.500
  -0.03091361  0.03091361  0.03091361       0.500
 
 k-points in reciprocal lattice and weights: Automatic kpoint scheme                 
   0.25000000  0.25000000  0.25000000       0.500
  -0.25000000  0.25000000  0.25000000       0.500
 
 position of ions in fractional coordinates (direct lattice) 
   0.37499900  0.50000000  0.37499900
   0.00088900  0.00000000  0.00088900
   0.24686700  0.00000000  0.24686700
   0.24947100  0.25554000  0.00484700
   0.00484700  0.25554000  0.24947100
   0.50022900  0.00000000  0.98625600
   0.76374400  0.00000000  0.24977200
   0.75355400  0.24727200  0.99644500
   0.51143800  0.22809400  0.23856300
   0.99997000  0.50000000  0.99997000
   0.24947100  0.74446000  0.00484700
   0.00484700  0.74446000  0.24947100
   0.49877100  0.50000000  0.00321300
   0.74678500  0.50000000  0.25123200
   0.75355400  0.75272800  0.99644500
   0.51143800  0.77190600  0.23856300
   0.98625600  0.00000000  0.50022900
   0.24977200  0.00000000  0.76374400
   0.23856300  0.22809400  0.51143800
   0.99644500  0.24727200  0.75355400
   0.50313300  0.00000000  0.50313300
   0.74911000  0.00000000  0.74911000
   0.74515300  0.25554000  0.50052900
   0.50052900  0.25554000  0.74515300
   0.00321300  0.50000000  0.49877100
   0.25123200  0.50000000  0.74678500
   0.23856300  0.77190600  0.51143800
   0.99644500  0.75272800  0.75355400
   0.75003200  0.50000000  0.75003200
   0.74515300  0.74446000  0.50052900
   0.50052900  0.74446000  0.74515300
 
 position of ions in cartesian coordinates  (Angst):
   3.03263716  4.04352700  3.03263716
   0.00718939  0.00000000  0.00718939
   1.99642676  0.00000000  1.99642676
   2.01748545  2.06656578  0.03919795
   0.03919795  2.06656578  2.01748545
   4.04537894  0.00000000  7.97590553
   6.17643897  0.00000000  2.01991965
   6.09403189  1.99970202  8.05830452
   4.13602672  1.84460850  1.92927186
   8.08681139  4.04352700  8.08681139
   2.01748545  6.02048822  0.03919795
   0.03919795  6.02048822  2.01748545
   4.03358801  4.04352700  0.02598370
   6.03929062  4.04352700  2.03172675
   6.09403189  6.08735198  8.05830452
   4.13602672  6.24244550  1.92927186
   7.97590553  0.00000000  4.04537894
   2.01991965  0.00000000  6.17643897
   1.92927186  1.84460850  4.13602672
   8.05830452  1.99970202  6.09403189
   4.06886374  0.00000000  4.06886374
   6.05809302  0.00000000  6.05809302
   6.02609255  2.06656578  4.04780505
   4.04780505  2.06656578  6.02609255
   0.02598370  4.04352700  4.03358801
   2.03172675  4.04352700  6.03929062
   1.92927186  6.24244550  4.13602672
   8.05830452  6.08735198  6.09403189
   6.06554929  4.04352700  6.06554929
   6.02609255  6.02048822  4.04780505
   4.04780505  6.02048822  6.02609255
 


--------------------------------------------------------------------------------------------------------


 k-point  1 :  0.25000.25000.2500  plane waves:    6238
 k-point  2 :  -.25000.25000.2500  plane waves:    6238

 maximum and minimum number of plane-waves per node :    6238   6238

 maximum number of plane-waves:    6238
 maximal index in each direction: 
   IXMAX= 11   IYMAX= 11   IZMAX= 11
   IXMIN=-11   IYMIN=-11   IZMIN=-11

 NGX is ok and might be reduce to  46
 NGY is ok and might be reduce to  46
 NGZ is ok and might be reduce to  46

 serial   3D FFT for wavefunctions
 parallel 3D FFT for charge:
    minimum data exchange during FFTs selected (reduces bandwidth)


 total amount of memory used by VASP on root node 133132. kBytes
========================================================================

   base      :    30000. kBytes
   nonl-proj :     4690. kBytes
   fftplans  :    30736. kBytes
   grid      :    54743. kBytes
   one-center:       95. kBytes
   wavefun   :    12868. kBytes
 
 Broyden mixing: mesh for mixing (old mesh)
   NGX = 23   NGY = 23   NGZ = 23
  (NGX  = 96   NGY  = 96   NGZ  = 96)
  gives a total of  12167 points

 initial charge density was supplied:
 charge density of overlapping atoms calculated
 number of electron   92.0000000 magnetization 
 keeping initial charge density in first step


--------------------------------------------------------------------------------------------------------


 Maximum index for augmentation-charges         8601 (set IRDMAX)


--------------------------------------------------------------------------------------------------------


 First call to EWALD:  gamma=   0.219
 Maximum number of real-space cells 3x 3x 3
 Maximum number of reciprocal cells 3x 3x 3

    FEWALD:  cpu time    0.07: real time    0.02
   RESPFUN:  cpu time    0.01: real time    0.00


----------------------------------------- Iteration    1(   1)  ---------------------------------------


    POTLOK:  cpu time    1.81: real time    1.77
    SETDIJ:  cpu time    0.15: real time    0.15
    EDDIAG:  cpu time    4.66: real time    2.97
  RMM-DIIS:  cpu time   21.39: real time    6.82
    ORTHCH:  cpu time    0.33: real time    0.08
       DOS:  cpu time    0.00: real time    0.00
    --------------------------------------------
      LOOP:  cpu time   28.35: real time   11.80

 eigenvalue-minimisations  :   124
 total energy-change (2. order) : 0.2987230E+03  (-0.1674980E+04)
 number of electron   92.0000000 magnetization 
 augmentation part    92.0000000 magnetization 

 Free energy of the ion-electron system (eV)
  ---------------------------------------------------
  alpha Z        PSCENC =        -7.38312591
  Ewald energy   TEWEN  =     -2176.44036747
  -1/2 Hartree   DENC   =       -27.67285033
  -exchange  EXHF       =         0.00000000
  -V(xc)+E(xc)   XCENC  =      -796.31408595
  PAW double counting   =      1078.21717227     -108.50372521
  entropy T*S    EENTRO =        -0.03220614
  eigenvalues    EBANDS =       707.72078163
  atomic energy  EATOM  =      1629.13144109
  ---------------------------------------------------
  free energy    TOTEN  =       298.72303398 eV

  energy without entropy =      298.75524013  energy(sigma->0) =      298.73376936


--------------------------------------------------------------------------------------------------------




----------------------------------------- Iteration    1(   2)  ---------------------------------------


    EDDIAG:  cpu time    4.59: real time    2.95
  RMM-DIIS:  cpu time   21.27: real time    6.81
    ORTHCH:  cpu time    0.33: real time    0.08
       DOS:  cpu time    0.00: real time    0.00
    --------------------------------------------
      LOOP:  cpu time   26.20: real time    9.84

 eigenvalue-minimisations  :   124
 total energy-change (2. order) :-0.3090690E+03  (-0.3040054E+03)
 number of electron   92.0000000 magnetization 
 augmentation part    92.0000000 magnetization 

 Free energy of the ion-electron system (eV)
  ---------------------------------------------------
  alpha Z        PSCENC =        -7.38312591
  Ewald energy   TEWEN  =     -2176.44036747
  -1/2 Hartree   DENC   =       -27.67285033
  -exchange  EXHF       =         0.00000000
  -V(xc)+E(xc)   XCENC  =      -796.31408595
  PAW double counting   =      1078.21717227     -108.50372521
  entropy T*S    EENTRO =        -0.03696373
  eigenvalues    EBANDS =       398.65657746
  atomic energy  EATOM  =      1629.13144109
  ---------------------------------------------------
  free energy    TOTEN  =       -10.34592777 eV

  energy without entropy =      -10.30896405  energy(sigma->0) =      -10.33360653


--------------------------------------------------------------------------------------------------------




----------------------------------------- Iteration    1(   3)  ---------------------------------------


    EDDIAG:  cpu time    4.59: real time    2.95
  RMM-DIIS:  cpu time   21.75: real time    6.85
    ORTHCH:  cpu time    0.33: real time    0.08
       DOS:  cpu time    0.01: real time    0.00
    --------------------------------------------
      LOOP:  cpu time   26.69: real time    9.88

 eigenvalue-minimisations  :   124
 total energy-change (2. order) :-0.7226340E+02  (-0.7426617E+02)
 number of electron   92.0000000 magnetization 
 augmentation part    92.0000000 magnetization 

 Free energy of the ion-electron system (eV)
  ---------------------------------------------------
  alpha Z        PSCENC =        -7.38312591
  Ewald energy   TEWEN  =     -2176.44036747
  -1/2 Hartree   DENC   =       -27.67285033
  -exchange  EXHF       =         0.00000000
  -V(xc)+E(xc)   XCENC  =      -796.31408595
  PAW double counting   =      1078.21717227     -108.50372521
  entropy T*S    EENTRO =        -0.03361722
  eigenvalues    EBANDS =       326.38983492
  atomic energy  EATOM  =      1629.13144109
  ---------------------------------------------------
  free energy    TOTEN  =       -82.60932380 eV

  energy without entropy =      -82.57570658  energy(sigma->0) =      -82.59811806


--------------------------------------------------------------------------------------------------------




----------------------------------------- Iteration    1(   4)  ---------------------------------------


    EDDIAG:  cpu time    4.66: real time    2.95
  RMM-DIIS:  cpu time   21.60: real time    6.83
    ORTHCH:  cpu time    0.33: real time    0.08
       DOS:  cpu time    0.01: real time    0.00
    --------------------------------------------
      LOOP:  cpu time   26.62: real time    9.88

 eigenvalue-minimisations  :   124
 total energy-change (2. order) :-0.1897275E+02  (-0.1854518E+02)
 number of electron   92.0000000 magnetization 
 augmentation part    92.0000000 magnetization 

 Free energy of the ion-electron system (eV)
  ---------------------------------------------------
  alpha Z        PSCENC =        -7.38312591
  Ewald energy   TEWEN  =     -2176.44036747
  -1/2 Hartree   DENC   =       -27.67285033
  -exchange  EXHF       =         0.00000000
  -V(xc)+E(xc)   XCENC  =      -796.31408595
  PAW double counting   =      1078.21717227     -108.50372521
  entropy T*S    EENTRO =        -0.00125636
  eigenvalues    EBANDS =       307.38472780
  atomic energy  EATOM  =      1629.13144109
  ---------------------------------------------------
  free energy    TOTEN  =      -101.58207006 eV

  energy without entropy =     -101.58081370  energy(sigma->0) =     -101.58165128


--------------------------------------------------------------------------------------------------------




----------------------------------------- Iteration    1(   5)  ---------------------------------------


    EDDIAG:  cpu time    4.51: real time    2.94
  RMM-DIIS:  cpu time   21.48: real time    6.83
    ORTHCH:  cpu time    0.33: real time    0.08
       DOS:  cpu time    0.01: real time    0.00
    --------------------------------------------
      LOOP:  cpu time   26.34: real time    9.85

 eigenvalue-minimisations  :   124
 total energy-change (2. order) :-0.6929402E+01  (-0.5892027E+01)
 number of electron   92.0000000 magnetization 
 augmentation part    92.0000000 magnetization 

 Free energy of the ion-electron system (eV)
  ---------------------------------------------------
  alpha Z        PSCENC =        -7.38312591
  Ewald energy   TEWEN  =     -2176.44036747
  -1/2 Hartree   DENC   =       -27.67285033
  -exchange  EXHF       =         0.00000000
  -V(xc)+E(xc)   XCENC  =      -796.31408595
  PAW double counting   =      1078.21717227     -108.50372521
  entropy T*S    EENTRO =        -0.00182289
  eigenvalues    EBANDS =       300.45589282
  atomic energy  EATOM  =      1629.13144109
  ---------------------------------------------------
  free energy    TOTEN  =      -108.51147157 eV

  energy without entropy =     -108.50964868  energy(sigma->0) =     -108.51086394


--------------------------------------------------------------------------------------------------------




----------------------------------------- Iteration    1(   6)  ---------------------------------------


    EDDIAG:  cpu time    4.53: real time    2.94
  RMM-DIIS:  cpu time   21.36: real time    6.81
    ORTHCH:  cpu time    0.33: real time    0.08
       DOS:  cpu time    0.00: real time    0.00
    --------------------------------------------
      LOOP:  cpu time   26.23: real time    9.84

 eigenvalue-minimisations  :   124
 total energy-change (2. order) :-0.2612122E+01  (-0.2187292E+01)
 number of electron   92.0000000 magnetization 
 augmentation part    92.0000000 magnetization 

 Free energy of the ion-electron system (eV)
  ---------------------------------------------------
  alpha Z        PSCENC =        -7.38312591
  Ewald energy   TEWEN  =     -2176.44036747
  -1/2 Hartree   DENC   =       -27.67285033
  -exchange  EXHF       =         0.00000000
  -V(xc)+E(xc)   XCENC  =      -796.31408595
  PAW double counting   =      1078.21717227     -108.50372521
  entropy T*S    EENTRO =         0.01329763
  eigenvalues    EBANDS =       297.82865068
  atomic energy  EATOM  =      1629.13144109
  ---------------------------------------------------
  free energy    TOTEN  =      -111.12359319 eV

  energy without entropy =     -111.13689082  energy(sigma->0) =     -111.12802574


--------------------------------------------------------------------------------------------------------




----------------------------------------- Iteration    1(   7)  ---------------------------------------


    EDDIAG:  cpu time    4.58: real time    2.95
  RMM-DIIS:  cpu time   21.82: real time    6.85
    ORTHCH:  cpu time    0.33: real time    0.08
       DOS:  cpu time    0.01: real time    0.00
    --------------------------------------------
      LOOP:  cpu time   26.76: real time    9.89

 eigenvalue-minimisations  :   124
 total energy-change (2. order) :-0.1116017E+01  (-0.9301800E+00)
 number of electron   92.0000000 magnetization 
 augmentation part    92.0000000 magnetization 

 Free energy of the ion-electron system (eV)
  ---------------------------------------------------
  alpha Z        PSCENC =        -7.38312591
  Ewald energy   TEWEN  =     -2176.44036747
  -1/2 Hartree   DENC   =       -27.67285033
  -exchange  EXHF       =         0.00000000
  -V(xc)+E(xc)   XCENC  =      -796.31408595
  PAW double counting   =      1078.21717227     -108.50372521
  entropy T*S    EENTRO =         0.00647614
  eigenvalues    EBANDS =       296.71945513
  atomic energy  EATOM  =      1629.13144109
  ---------------------------------------------------
  free energy    TOTEN  =      -112.23961023 eV

  energy without entropy =     -112.24608637  energy(sigma->0) =     -112.24176894


--------------------------------------------------------------------------------------------------------




----------------------------------------- Iteration    1(   8)  ---------------------------------------


    EDDIAG:  cpu time    4.59: real time    2.95
  RMM-DIIS:  cpu time   21.69: real time    6.85
    ORTHCH:  cpu time    0.33: real time    0.08
       DOS:  cpu time    0.01: real time    0.00
    --------------------------------------------
      LOOP:  cpu time   26.63: real time    9.88

 eigenvalue-minimisations  :   124
 total energy-change (2. order) :-0.5008264E+00  (-0.4288988E+00)
 number of electron   92.0000000 magnetization 
 augmentation part    92.0000000 magnetization 

 Free energy of the ion-electron system (eV)
  ---------------------------------------------------
  alpha Z        PSCENC =        -7.38312591
  Ewald energy   TEWEN  =     -2176.44036747
  -1/2 Hartree   DENC   =       -27.67285033
  -exchange  EXHF       =         0.00000000
  -V(xc)+E(xc)   XCENC  =      -796.31408595
  PAW double counting   =      1078.21717227     -108.50372521
  entropy T*S    EENTRO =         0.00360182
  eigenvalues    EBANDS =       296.22150304
  atomic energy  EATOM  =      1629.13144109
  ---------------------------------------------------
  free energy    TOTEN  =      -112.74043664 eV

  energy without entropy =     -112.74403846  energy(sigma->0) =     -112.74163725


--------------------------------------------------------------------------------------------------------




----------------------------------------- Iteration    1(   9)  ---------------------------------------


    EDDIAG:  cpu time    4.87: real time    3.33
  RMM-DIIS:  cpu time   50.49: real time   14.28
    ORTHCH:  cpu time    0.33: real time    0.08
       DOS:  cpu time    0.01: real time    0.00
    --------------------------------------------
      LOOP:  cpu time   55.70: real time   17.71

 eigenvalue-minimisations  :   297
 total energy-change (2. order) :-0.4178873E+00  (-0.3888316E+00)
 number of electron   92.0000000 magnetization 
 augmentation part    92.0000000 magnetization 

 Free energy of the ion-electron system (eV)
  ---------------------------------------------------
  alpha Z        PSCENC =        -7.38312591
  Ewald energy   TEWEN  =     -2176.44036747
  -1/2 Hartree   DENC   =       -27.67285033
  -exchange  EXHF       =         0.00000000
  -V(xc)+E(xc)   XCENC  =      -796.31408595
  PAW double counting   =      1078.21717227     -108.50372521
  entropy T*S    EENTRO =        -0.00553896
  eigenvalues    EBANDS =       295.81275654
  atomic energy  EATOM  =      1629.13144109
  ---------------------------------------------------
  free energy    TOTEN  =      -113.15832391 eV

  energy without entropy =     -113.15278496  energy(sigma->0) =     -113.15647760


--------------------------------------------------------------------------------------------------------




----------------------------------------- Iteration    1(  10)  ---------------------------------------


    EDDIAG:  cpu time    4.60: real time    2.97
  RMM-DIIS:  cpu time   51.66: real time   14.46
    ORTHCH:  cpu time    0.33: real time    0.08
       DOS:  cpu time    0.01: real time    0.00
    --------------------------------------------
      LOOP:  cpu time   56.61: real time   17.52

 eigenvalue-minimisations  :   302
 total energy-change (2. order) :-0.7881681E-01  (-0.4940431E-01)
 number of electron   92.0000000 magnetization 
 augmentation part    92.0000000 magnetization 

 Free energy of the ion-electron system (eV)
  ---------------------------------------------------
  alpha Z        PSCENC =        -7.38312591
  Ewald energy   TEWEN  =     -2176.44036747
  -1/2 Hartree   DENC   =       -27.67285033
  -exchange  EXHF       =         0.00000000
  -V(xc)+E(xc)   XCENC  =      -796.31408595
  PAW double counting   =      1078.21717227     -108.50372521
  entropy T*S    EENTRO =        -0.00847877
  eigenvalues    EBANDS =       295.73687955
  atomic energy  EATOM  =      1629.13144109
  ---------------------------------------------------
  free energy    TOTEN  =      -113.23714072 eV

  energy without entropy =     -113.22866195  energy(sigma->0) =     -113.23431446


--------------------------------------------------------------------------------------------------------




----------------------------------------- Iteration    1(  11)  ---------------------------------------


    EDDIAG:  cpu time    4.48: real time    2.93
  RMM-DIIS:  cpu time   48.02: real time   13.59
    ORTHCH:  cpu time    0.33: real time    0.08
       DOS:  cpu time    0.01: real time    0.00
    --------------------------------------------
      LOOP:  cpu time   52.85: real time   16.61

 eigenvalue-minimisations  :   281
 total energy-change (2. order) :-0.6055745E-02  (-0.1498140E-02)
 number of electron   92.0000000 magnetization 
 augmentation part    92.0000000 magnetization 

 Free energy of the ion-electron system (eV)
  ---------------------------------------------------
  alpha Z        PSCENC =        -7.38312591
  Ewald energy   TEWEN  =     -2176.44036747
  -1/2 Hartree   DENC   =       -27.67285033
  -exchange  EXHF       =         0.00000000
  -V(xc)+E(xc)   XCENC  =      -796.31408595
  PAW double counting   =      1078.21717227     -108.50372521
  entropy T*S    EENTRO =        -0.00748618
  eigenvalues    EBANDS =       295.72983121
  atomic energy  EATOM  =      1629.13144109
  ---------------------------------------------------
  free energy    TOTEN  =      -113.24319647 eV

  energy without entropy =     -113.23571029  energy(sigma->0) =     -113.24070107


--------------------------------------------------------------------------------------------------------




----------------------------------------- Iteration    1(  12)  ---------------------------------------


    EDDIAG:  cpu time    4.66: real time    2.95
  RMM-DIIS:  cpu time   41.60: real time   11.82
    ORTHCH:  cpu time    0.33: real time    0.08
       DOS:  cpu time    0.01: real time    0.00
    CHARGE:  cpu time    1.75: real time    1.66
    MIXING:  cpu time    0.06: real time    0.06
    --------------------------------------------
      LOOP:  cpu time   48.42: real time   16.58

 eigenvalue-minimisations  :   236
 total energy-change (2. order) : 0.2712487E-04  ( 0.7569365E-04)
 number of electron   91.9999998 magnetization 
 augmentation part    -1.1048611 magnetization 

 Broyden mixing:
  rms(total) = 0.54687E+00    rms(broyden)= 0.54685E+00
  rms(prec ) = 0.97618E+00
  weight for this iteration     100.00

 Free energy of the ion-electron system (eV)
  ---------------------------------------------------
  alpha Z        PSCENC =        -7.38312591
  Ewald energy   TEWEN  =     -2176.44036747
  -1/2 Hartree   DENC   =       -27.67285033
  -exchange  EXHF       =         0.00000000
  -V(xc)+E(xc)   XCENC  =      -796.31408595
  PAW double counting   =      1078.21717227     -108.50372521
  entropy T*S    EENTRO =        -0.00704591
  eigenvalues    EBANDS =       295.72941807
  atomic energy  EATOM  =      1629.13144109
  ---------------------------------------------------
  free energy    TOTEN  =      -113.24316934 eV

  energy without entropy =     -113.23612343  energy(sigma->0) =     -113.24082071


--------------------------------------------------------------------------------------------------------




----------------------------------------- Iteration    1(  13)  ---------------------------------------


    POTLOK:  cpu time    1.79: real time    1.79
    SETDIJ:  cpu time    0.15: real time    0.15
    EDDIAG:  cpu time    4.66: real time    2.97
  RMM-DIIS:  cpu time   41.40: real time   12.14
    ORTHCH:  cpu time    0.33: real time    0.08
       DOS:  cpu time    0.01: real time    0.00
    CHARGE:  cpu time    1.74: real time    1.65
    MIXING:  cpu time    0.05: real time    0.05
    --------------------------------------------
      LOOP:  cpu time   50.14: real time   18.83

 eigenvalue-minimisations  :   248
 total energy-change (2. order) : 0.8328509E+00  (-0.1587921E+00)
 number of electron   91.9999998 magnetization 
 augmentation part    -1.1132687 magnetization 

 Broyden mixing:
  rms(total) = 0.33067E+00    rms(broyden)= 0.33067E+00
  rms(prec ) = 0.49550E+00
  weight for this iteration     100.00

 eigenvalues of (default mixing * dielectric matrix)
  average eigenvalue GAMMA=   2.3703
  2.3703

 Free energy of the ion-electron system (eV)
  ---------------------------------------------------
  alpha Z        PSCENC =        -7.38312591
  Ewald energy   TEWEN  =     -2176.44036747
  -1/2 Hartree   DENC   =       -30.10519157
  -exchange  EXHF       =         0.00000000
  -V(xc)+E(xc)   XCENC  =      -795.16613018
  PAW double counting   =      1080.89783520     -111.33499374
  entropy T*S    EENTRO =        -0.00326655
  eigenvalues    EBANDS =       297.99348068
  atomic energy  EATOM  =      1629.13144109
  ---------------------------------------------------
  free energy    TOTEN  =      -112.41031845 eV

  energy without entropy =     -112.40705190  energy(sigma->0) =     -112.40922960


--------------------------------------------------------------------------------------------------------




----------------------------------------- Iteration    1(  14)  ---------------------------------------


    POTLOK:  cpu time    1.83: real time    1.83
    SETDIJ:  cpu time    0.17: real time    0.17
    EDDIAG:  cpu time    4.68: real time    2.99
  RMM-DIIS:  cpu time   43.28: real time   12.62
    ORTHCH:  cpu time    0.33: real time    0.08
       DOS:  cpu time    0.01: real time    0.00
    CHARGE:  cpu time    1.74: real time    1.65
    MIXING:  cpu time    0.06: real time    0.05
    --------------------------------------------
      LOOP:  cpu time   52.10: real time   19.39

 eigenvalue-minimisations  :   259
 total energy-change (2. order) : 0.2398727E+00  (-0.2932983E-01)
 number of electron   91.9999998 magnetization 
 augmentation part    -1.1263605 magnetization 

 Broyden mixing:
  rms(total) = 0.14840E+00    rms(broyden)= 0.14840E+00
  rms(prec ) = 0.21922E+00
  weight for this iteration     100.00

 eigenvalues of (default mixing * dielectric matrix)
  average eigenvalue GAMMA=   1.8498
  2.5844  1.1152

 Free energy of the ion-electron system (eV)
  ---------------------------------------------------
  alpha Z        PSCENC =        -7.38312591
  Ewald energy   TEWEN  =     -2176.44036747
  -1/2 Hartree   DENC   =       -31.31566041
  -exchange  EXHF       =         0.00000000
  -V(xc)+E(xc)   XCENC  =      -793.96499681
  PAW double counting   =      1082.77729169     -113.36973199
  entropy T*S    EENTRO =        -0.00640791
  eigenvalues    EBANDS =       298.40111195
  atomic energy  EATOM  =      1629.13144109
  ---------------------------------------------------
  free energy    TOTEN  =      -112.17044578 eV

  energy without entropy =     -112.16403787  energy(sigma->0) =     -112.16830981


--------------------------------------------------------------------------------------------------------




----------------------------------------- Iteration    1(  15)  ---------------------------------------


    POTLOK:  cpu time    1.95: real time    1.89
    SETDIJ:  cpu time    0.15: real time    0.15
    EDDIAG:  cpu time    4.67: real time    2.97
  RMM-DIIS:  cpu time   43.36: real time   12.59
    ORTHCH:  cpu time    0.33: real time    0.08
       DOS:  cpu time    0.01: real time    0.00
    CHARGE:  cpu time    1.74: real time    1.65
    MIXING:  cpu time    0.07: real time    0.06
    --------------------------------------------
      LOOP:  cpu time   52.29: real time   19.39

 eigenvalue-minimisations  :   256
 total energy-change (2. order) : 0.5993481E-01  (-0.6328705E-02)
 number of electron   91.9999998 magnetization 
 augmentation part    -1.1391392 magnetization 

 Broyden mixing:
  rms(total) = 0.19068E-01    rms(broyden)= 0.19067E-01
  rms(prec ) = 0.34342E-01
  weight for this iteration     100.00

 eigenvalues of (default mixing * dielectric matrix)
  average eigenvalue GAMMA=   1.7655
  2.6264  1.1339  1.5361

 Free energy of the ion-electron system (eV)
  ---------------------------------------------------
  alpha Z        PSCENC =        -7.38312591
  Ewald energy   TEWEN  =     -2176.44036747
  -1/2 Hartree   DENC   =       -32.06987100
  -exchange  EXHF       =         0.00000000
  -V(xc)+E(xc)   XCENC  =      -792.95174973
  PAW double counting   =      1084.06600155     -114.79746272
  entropy T*S    EENTRO =        -0.00575297
  eigenvalues    EBANDS =       298.34037619
  atomic energy  EATOM  =      1629.13144109
  ---------------------------------------------------
  free energy    TOTEN  =      -112.11051097 eV

  energy without entropy =     -112.10475800  energy(sigma->0) =     -112.10859332


--------------------------------------------------------------------------------------------------------




----------------------------------------- Iteration    1(  16)  ---------------------------------------


    POTLOK:  cpu time    1.98: real time    1.87
    SETDIJ:  cpu time    0.15: real time    0.15
    EDDIAG:  cpu time    4.66: real time    2.97
  RMM-DIIS:  cpu time   44.53: real time   12.89
    ORTHCH:  cpu time    0.37: real time    0.10
       DOS:  cpu time    0.00: real time    0.00
    CHARGE:  cpu time    1.75: real time    1.66
    MIXING:  cpu time    0.08: real time    0.06
    --------------------------------------------
      LOOP:  cpu time   53.55: real time   19.70

 eigenvalue-minimisations  :   264
 total energy-change (2. order) : 0.1662033E-02  (-0.7213484E-03)
 number of electron   91.9999998 magnetization 
 augmentation part    -1.1425092 magnetization 

 Broyden mixing:
  rms(total) = 0.58926E-02    rms(broyden)= 0.58925E-02
  rms(prec ) = 0.12149E-01
  weight for this iteration     100.00

 eigenvalues of (default mixing * dielectric matrix)
  average eigenvalue GAMMA=   1.7797
  2.5997  2.2607  1.1292  1.1292

 Free energy of the ion-electron system (eV)
  ---------------------------------------------------
  alpha Z        PSCENC =        -7.38312591
  Ewald energy   TEWEN  =     -2176.44036747
  -1/2 Hartree   DENC   =       -32.12164778
  -exchange  EXHF       =         0.00000000
  -V(xc)+E(xc)   XCENC  =      -792.82590983
  PAW double counting   =      1084.32554536     -115.08672418
  entropy T*S    EENTRO =        -0.00583375
  eigenvalues    EBANDS =       298.29777353
  atomic energy  EATOM  =      1629.13144109
  ---------------------------------------------------
  free energy    TOTEN  =      -112.10884894 eV

  energy without entropy =     -112.10301518  energy(sigma->0) =     -112.10690435


--------------------------------------------------------------------------------------------------------




----------------------------------------- Iteration    1(  17)  ---------------------------------------


    POTLOK:  cpu time    1.93: real time    1.79
    SETDIJ:  cpu time    0.15: real time    0.15
    EDDIAG:  cpu time    4.66: real time    2.97
  RMM-DIIS:  cpu time   42.49: real time   12.37
    ORTHCH:  cpu time    0.33: real time    0.08
       DOS:  cpu time    0.01: real time    0.00
    CHARGE:  cpu time    1.74: real time    1.65
    MIXING:  cpu time    0.09: real time    0.06
    --------------------------------------------
      LOOP:  cpu time   51.41: real time   19.08

 eigenvalue-minimisations  :   253
 total energy-change (2. order) : 0.1351437E-03  (-0.1022843E-03)
 number of electron   91.9999998 magnetization 
 augmentation part    -1.1435790 magnetization 

 Broyden mixing:
  rms(total) = 0.17858E-02    rms(broyden)= 0.17858E-02
  rms(prec ) = 0.33964E-02
  weight for this iteration     100.00

 eigenvalues of (default mixing * dielectric matrix)
  average eigenvalue GAMMA=   1.6815
  2.6589  2.2165  1.5184  1.0069  1.0069

 Free energy of the ion-electron system (eV)
  ---------------------------------------------------
  alpha Z        PSCENC =        -7.38312591
  Ewald energy   TEWEN  =     -2176.44036747
  -1/2 Hartree   DENC   =       -32.06028963
  -exchange  EXHF       =         0.00000000
  -V(xc)+E(xc)   XCENC  =      -792.80997641
  PAW double counting   =      1084.37885965     -115.15031064
  entropy T*S    EENTRO =        -0.00540082
  eigenvalues    EBANDS =       298.23045634
  atomic energy  EATOM  =      1629.13144109
  ---------------------------------------------------
  free energy    TOTEN  =      -112.10871379 eV

  energy without entropy =     -112.10331297  energy(sigma->0) =     -112.10691352


--------------------------------------------------------------------------------------------------------




----------------------------------------- Iteration    1(  18)  ---------------------------------------


    POTLOK:  cpu time    1.91: real time    1.78
    SETDIJ:  cpu time    0.15: real time    0.15
    EDDIAG:  cpu time    4.67: real time    2.97
  RMM-DIIS:  cpu time   46.54: real time   13.19
    ORTHCH:  cpu time    0.33: real time    0.08
       DOS:  cpu time    0.01: real time    0.00
    CHARGE:  cpu time    1.73: real time    1.64
    MIXING:  cpu time    0.09: real time    0.06
    --------------------------------------------
      LOOP:  cpu time   55.44: real time   19.87

 eigenvalue-minimisations  :   273
 total energy-change (2. order) :-0.4963742E-05  (-0.8234226E-05)
 number of electron   91.9999998 magnetization 
 augmentation part    -1.1439875 magnetization 

 Broyden mixing:
  rms(total) = 0.69356E-03    rms(broyden)= 0.69355E-03
  rms(prec ) = 0.15078E-02
  weight for this iteration     100.00

 eigenvalues of (default mixing * dielectric matrix)
  average eigenvalue GAMMA=   1.7271
  2.5765  2.5765  1.7150  1.4524  1.0210  1.0210

 Free energy of the ion-electron system (eV)
  ---------------------------------------------------
  alpha Z        PSCENC =        -7.38312591
  Ewald energy   TEWEN  =     -2176.44036747
  -1/2 Hartree   DENC   =       -32.07483209
  -exchange  EXHF       =         0.00000000
  -V(xc)+E(xc)   XCENC  =      -792.80220517
  PAW double counting   =      1084.38491491     -115.16005774
  entropy T*S    EENTRO =        -0.00544431
  eigenvalues    EBANDS =       298.24095793
  atomic energy  EATOM  =      1629.13144109
  ---------------------------------------------------
  free energy    TOTEN  =      -112.10871876 eV

  energy without entropy =     -112.10327445  energy(sigma->0) =     -112.10690399


--------------------------------------------------------------------------------------------------------




----------------------------------------- Iteration    1(  19)  ---------------------------------------


    POTLOK:  cpu time    1.92: real time    1.79
    SETDIJ:  cpu time    0.15: real time    0.15
    EDDIAG:  cpu time    4.66: real time    2.96
  RMM-DIIS:  cpu time   41.59: real time   11.93
    ORTHCH:  cpu time    0.33: real time    0.08
       DOS:  cpu time    0.00: real time    0.00
    CHARGE:  cpu time    1.73: real time    1.64
    MIXING:  cpu time    0.10: real time    0.06
    --------------------------------------------
      LOOP:  cpu time   50.50: real time   18.62

 eigenvalue-minimisations  :   245
 total energy-change (2. order) :-0.4977302E-05  (-0.2834903E-05)
 number of electron   91.9999998 magnetization 
 augmentation part    -1.1440938 magnetization 

 Broyden mixing:
  rms(total) = 0.30754E-03    rms(broyden)= 0.30753E-03
  rms(prec ) = 0.96172E-03
  weight for this iteration     100.00

 eigenvalues of (default mixing * dielectric matrix)
  average eigenvalue GAMMA=   1.6731
  2.6797  2.5640  1.6650  1.6650  0.9496  1.0942  1.0942

 Free energy of the ion-electron system (eV)
  ---------------------------------------------------
  alpha Z        PSCENC =        -7.38312591
  Ewald energy   TEWEN  =     -2176.44036747
  -1/2 Hartree   DENC   =       -32.08606667
  -exchange  EXHF       =         0.00000000
  -V(xc)+E(xc)   XCENC  =      -792.80032213
  PAW double counting   =      1084.37125074     -115.14760524
  entropy T*S    EENTRO =        -0.00549914
  eigenvalues    EBANDS =       298.25157099
  atomic energy  EATOM  =      1629.13144109
  ---------------------------------------------------
  free energy    TOTEN  =      -112.10872374 eV

  energy without entropy =     -112.10322460  energy(sigma->0) =     -112.10689069


--------------------------------------------------------------------------------------------------------




----------------------------------------- Iteration    1(  20)  ---------------------------------------


    POTLOK:  cpu time    1.91: real time    1.79
    SETDIJ:  cpu time    0.15: real time    0.15
    EDDIAG:  cpu time    4.65: real time    2.96
  RMM-DIIS:  cpu time   35.48: real time   10.36
    ORTHCH:  cpu time    0.33: real time    0.08
       DOS:  cpu time    0.01: real time    0.00
    --------------------------------------------
      LOOP:  cpu time   42.54: real time   15.35

 eigenvalue-minimisations  :   210
 total energy-change (2. order) :-0.6382490E-06  (-0.5531911E-06)
 number of electron   91.9999998 magnetization 
 augmentation part    -1.1440938 magnetization 

 Free energy of the ion-electron system (eV)
  ---------------------------------------------------
  alpha Z        PSCENC =        -7.38312591
  Ewald energy   TEWEN  =     -2176.44036747
  -1/2 Hartree   DENC   =       -32.08274028
  -exchange  EXHF       =         0.00000000
  -V(xc)+E(xc)   XCENC  =      -792.79989155
  PAW double counting   =      1084.36316965     -115.13983900
  entropy T*S    EENTRO =        -0.00546687
  eigenvalues    EBANDS =       298.24809596
  atomic energy  EATOM  =      1629.13144109
  ---------------------------------------------------
  free energy    TOTEN  =      -112.10872437 eV

  energy without entropy =     -112.10325751  energy(sigma->0) =     -112.10690208


--------------------------------------------------------------------------------------------------------




 average (electrostatic) potential at core
  the test charge radii are     1.0714  1.0406
  (the norm of the test charge is              1.0000)
       1 -50.6503       2 -72.9666       3 -73.1295       4 -73.0301       5 -73.0301
       6 -73.0507       7 -73.0507       8 -73.0499       9 -72.8999      10 -73.0202
      11 -73.0301      12 -73.0301      13 -73.0833      14 -73.0833      15 -73.0499
      16 -72.8999      17 -73.0507      18 -73.0507      19 -72.8999      20 -73.0499
      21 -73.1297      22 -72.9668      23 -73.0303      24 -73.0303      25 -73.0833
      26 -73.0833      27 -72.8999      28 -73.0499      29 -73.0204      30 -73.0303
      31 -73.0303
 
 
 
 E-fermi :   7.8723     XC(G=0): -10.0126     alpha+bet :-14.3073
   add alpha+bet to get absolut eigen values

 k-point   1 :       0.2500    0.2500    0.2500
  band No.  band energies     occupation 
      1      -2.9831      2.00000
      2      -1.9605      2.00000
      3      -1.8787      2.00000
      4      -1.6417      2.00000
      5      -0.8120      2.00000
      6      -0.7607      2.00000
      7      -0.3540      2.00000
      8       0.2572      2.00000
      9       0.3218      2.00000
     10       0.5325      2.00000
     11       0.6162      2.00000
     12       1.3448      2.00000
     13       1.3638      2.00000
     14       1.4059      2.00000
     15       1.5395      2.00000
     16       1.8141      2.00000
     17       1.9404      2.00000
     18       2.7008      2.00000
     19       2.7085      2.00000
     20       2.9045      2.00000
     21       3.5303      2.00000
     22       3.5917      2.00000
     23       3.6290      2.00000
     24       3.6773      2.00000
     25       3.7363      2.00000
     26       4.0508      2.00000
     27       4.5309      2.00000
     28       4.5581      2.00000
     29       4.6450      2.00000
     30       4.8073      2.00000
     31       4.8648      2.00000
     32       4.8706      2.00000
     33       4.9294      2.00000
     34       5.1108      2.00000
     35       5.2063      2.00000
     36       5.7267      2.00000
     37       5.8929      2.00000
     38       6.3557      2.00000
     39       6.7100      2.00000
     40       6.7758      2.00000
     41       6.7866      2.00000
     42       6.9444      2.00000
     43       6.9893      2.00000
     44       7.0943      2.00000
     45       7.1499      2.00000
     46       7.7894      1.63934
     47       7.8876      0.87103
     48       8.0064      0.10178
     49       8.0363      0.01013
     50       8.1623     -0.05963
     51       8.1987     -0.04317
     52       8.2072     -0.03933
     53       8.3738     -0.00224
     54       8.5367     -0.00003
     55       9.0569      0.00000
     56       9.1380      0.00000
     57       9.1890      0.00000
     58       9.3605      0.00000
     59       9.3767      0.00000
     60       9.5246      0.00000
     61       9.9938      0.00000
     62      10.0513      0.00000

 k-point   2 :      -0.2500    0.2500    0.2500
  band No.  band energies     occupation 
      1      -2.9860      2.00000
      2      -1.9508      2.00000
      3      -1.8153      2.00000
      4      -1.7222      2.00000
      5      -0.8255      2.00000
      6      -0.6092      2.00000
      7      -0.5487      2.00000
      8       0.2615      2.00000
      9       0.3988      2.00000
     10       0.4414      2.00000
     11       0.6991      2.00000
     12       1.3935      2.00000
     13       1.4282      2.00000
     14       1.4928      2.00000
     15       1.4935      2.00000
     16       1.7681      2.00000
     17       1.8428      2.00000
     18       2.6214      2.00000
     19       2.7731      2.00000
     20       2.8396      2.00000
     21       3.5378      2.00000
     22       3.5880      2.00000
     23       3.6342      2.00000
     24       3.6813      2.00000
     25       3.8120      2.00000
     26       3.9632      2.00000
     27       4.5981      2.00000
     28       4.6514      2.00000
     29       4.6779      2.00000
     30       4.6991      2.00000
     31       4.7162      2.00000
     32       4.9495      2.00000
     33       4.9736      2.00000
     34       5.0595      2.00000
     35       5.1750      2.00000
     36       5.7462      2.00000
     37       6.1175      2.00000
     38       6.1775      2.00000
     39       6.7064      2.00000
     40       6.7469      2.00000
     41       6.9178      2.00000
     42       7.0238      2.00000
     43       7.0330      2.00000
     44       7.0705      2.00000
     45       7.1412      2.00000
     46       7.8378      1.28725
     47       7.9567      0.35168
     48       7.9948      0.14874
     49       8.0669     -0.04412
     50       8.1493     -0.06461
     51       8.1719     -0.05549
     52       8.1881     -0.04807
     53       8.2169     -0.03510
     54       8.2643     -0.01817
     55       9.0957      0.00000
     56       9.1478      0.00000
     57       9.2742      0.00000
     58       9.3844      0.00000
     59       9.4115      0.00000
     60       9.4981      0.00000
     61       9.9931      0.00000
     62      10.0431      0.00000


--------------------------------------------------------------------------------------------------------


 soft charge-density along one line, spin component           1
         0         1         2         3         4         5         6         7         8         9
 total charge-density along one line
 
 pseudopotential strength for first ion, spin component:           1
  3.573  -0.044   0.000   0.000   0.000   0.000   0.000   0.000
 -0.044  -0.001   0.000   0.000   0.000   0.000   0.000   0.000
  0.000   0.000   0.744   0.000   0.000  -0.043   0.000   0.000
  0.000   0.000   0.000   0.743   0.000   0.000  -0.043   0.000
  0.000   0.000   0.000   0.000   0.743   0.000   0.000  -0.043
  0.000   0.000  -0.043   0.000   0.000  -0.031   0.000   0.000
  0.000   0.000   0.000  -0.043   0.000   0.000  -0.031   0.000
  0.000   0.000   0.000   0.000  -0.043   0.000   0.000  -0.031
 total augmentation occupancy for first ion, spin component:           1
  1.179  -0.047   0.000   0.000   0.000   0.000   0.000   0.000
 -0.047   0.004   0.000   0.000   0.000   0.000   0.000   0.000
  0.000   0.000   1.103   0.000   0.000   0.049   0.000   0.000
  0.000   0.000   0.000   0.633  -0.205   0.000   0.031  -0.009
  0.000   0.000   0.000  -0.205   0.633   0.000  -0.009   0.031
  0.000   0.000   0.049   0.000   0.000   0.003   0.000   0.000
  0.000   0.000   0.000   0.031  -0.009   0.000   0.002   0.000
  0.000   0.000   0.000  -0.009   0.031   0.000   0.000   0.002


------------------------ aborting loop because EDIFF is reached ----------------------------------------




--------------------------------------------------------------------------------------------------------



  FREE ENERGIE OF THE ION-ELECTRON SYSTEM (eV)
  ---------------------------------------------------
  free  energy   TOTEN  =      -112.108724 eV

  energy  without entropy=     -112.103258  energy(sigma->0) =     -112.106902
 
    CHARGE:  cpu time    1.65: real time    1.65
    FORLOC:  cpu time    0.72: real time    0.72
    FORNL :  cpu time    5.81: real time    5.81
    STRESS:  cpu time   37.93: real time   10.16
    FORCOR:  cpu time    2.46: real time    2.46
    FORHAR:  cpu time    1.11: real time    1.11
    MIXING:  cpu time    0.10: real time    0.06

  FORCE on cell =-STRESS in cart. coord.  units (eV):
  Direction    XX          YY          ZZ          XY          YZ          ZX
  --------------------------------------------------------------------------------------
  Alpha Z    -7.38313    -7.38313    -7.38313
  Ewald    -722.78508  -730.87870  -722.78508     0.00000     0.00000     1.66506
  Hartree    14.49944     3.08965    14.49944     0.00000     0.00000     3.57832
  E(xc)    -260.98131  -261.28864  -260.98131     0.00000     0.00000     0.19110
  Local     -24.27939    -4.64236   -24.27939     0.00000     0.00000    -5.34971
  n-local   577.95478   580.74670   577.95476     0.43793    -0.97951    -1.83631
  augment   -30.50854   -30.70950   -30.50854    -0.00001    -0.00001     0.01073
  Kinetic   452.51919   457.13959   452.51917    -4.05292     0.30865     2.59743
  Fock        0.00000     0.00000     0.00000     0.00000     0.00000     0.00000
  -------------------------------------------------------------------------------------
  Total      -0.96407     6.07362    -0.96407     0.00000     0.00000     0.85662
  in kB      -2.92044    18.39870    -2.92044     0.00000     0.00000     2.59495
  external pressure =        4.19 kB  Pullay stress =        0.00 kB


 VOLUME and BASIS-vectors are now :
 -----------------------------------------------------------------------------
  energy-cutoff  :      300.00
  volume of cell :      528.90
      direct lattice vectors                 reciprocal lattice vectors
     8.087054000  0.000000000  0.000000000     0.123654423  0.000000000  0.000000000
     0.000000000  8.087054000  0.000000000     0.000000000  0.123654423  0.000000000
     0.000000000  0.000000000  8.087054000     0.000000000  0.000000000  0.123654423

  length of vectors
     8.087054000  8.087054000  8.087054000     0.123654423  0.123654423  0.123654423


 FORCES acting on ions
    electron-ion (+dipol)            ewald-force                    non-local-force                 convergence-correction
 -----------------------------------------------------------------------------------------------
   -.197E-05 -.358E-13 -.197E-05   -.144E-03 0.228E-14 -.144E-03   0.678E-20 0.000E+00 0.678E-20   0.820E-05 0.707E-15 0.820E-05
   -.223E+01 0.169E-12 -.223E+01   0.209E+01 -.333E-14 0.209E+01   0.124E+00 0.000E+00 0.124E+00   0.439E-03 0.682E-14 0.439E-03
   -.206E+01 -.284E-14 -.206E+01   0.192E+01 -.705E-14 0.192E+01   0.162E+00 0.000E+00 0.162E+00   0.521E-03 0.110E-14 0.521E-03
   -.240E+01 -.103E+02 -.727E+01   0.207E+01 0.103E+02 0.734E+01   0.373E+00 0.235E-01 -.263E-01   0.459E-03 0.106E-02 0.622E-03
   -.727E+01 -.103E+02 -.240E+01   0.734E+01 0.103E+02 0.207E+01   -.263E-01 0.235E-01 0.373E+00   0.621E-03 0.106E-02 0.460E-03
   0.144E+01 -.161E-13 -.226E+01   -.174E+01 0.305E-14 0.161E+01   0.322E+00 0.000E+00 0.696E+00   -.392E-03 0.312E-14 0.455E-03
   0.226E+01 0.112E-12 -.144E+01   -.161E+01 -.733E-13 0.174E+01   -.696E+00 0.000E+00 -.322E+00   -.477E-03 -.662E-16 0.413E-03
   0.193E+01 -.511E+01 -.193E+01   -.194E+01 0.504E+01 0.194E+01   -.401E-02 0.116E+00 0.401E-02   -.446E-03 0.895E-03 0.425E-03
   0.711E+01 -.124E+02 -.711E+01   -.698E+01 0.126E+02 0.698E+01   -.131E+00 -.163E+00 0.131E+00   -.635E-03 0.110E-02 0.654E-03
   -.749E+01 0.527E-12 -.749E+01   0.737E+01 0.409E-13 0.737E+01   0.147E+00 0.000E+00 0.147E+00   0.596E-03 -.603E-14 0.597E-03
   -.240E+01 0.103E+02 -.727E+01   0.207E+01 -.103E+02 0.734E+01   0.373E+00 -.235E-01 -.263E-01   0.459E-03 -.106E-02 0.622E-03
   -.727E+01 0.103E+02 -.240E+01   0.734E+01 -.103E+02 0.207E+01   -.263E-01 -.235E-01 0.373E+00   0.621E-03 -.106E-02 0.460E-03
   0.650E+01 0.128E-12 -.647E+01   -.685E+01 -.211E-13 0.649E+01   0.331E+00 -.173E-17 0.287E-01   -.560E-03 -.218E-14 0.592E-03
   0.647E+01 -.866E-13 -.650E+01   -.649E+01 -.845E-12 0.685E+01   -.287E-01 0.000E+00 -.331E+00   -.610E-03 0.731E-15 0.580E-03
   0.193E+01 0.511E+01 -.193E+01   -.194E+01 -.504E+01 0.194E+01   -.401E-02 -.116E+00 0.401E-02   -.446E-03 -.895E-03 0.425E-03
   0.711E+01 0.124E+02 -.711E+01   -.698E+01 -.126E+02 0.698E+01   -.131E+00 0.163E+00 0.131E+00   -.635E-03 -.110E-02 0.654E-03
   -.226E+01 -.674E-13 0.144E+01   0.161E+01 -.649E-14 -.174E+01   0.696E+00 0.000E+00 0.322E+00   0.454E-03 -.314E-15 -.393E-03
   -.144E+01 -.389E-13 0.226E+01   0.174E+01 -.722E-14 -.161E+01   -.322E+00 0.000E+00 -.696E+00   0.413E-03 0.493E-14 -.477E-03
   -.711E+01 -.124E+02 0.711E+01   0.698E+01 0.126E+02 -.698E+01   0.131E+00 -.163E+00 -.131E+00   0.653E-03 0.110E-02 -.635E-03
   -.193E+01 -.511E+01 0.193E+01   0.194E+01 0.504E+01 -.194E+01   0.401E-02 0.116E+00 -.401E-02   0.425E-03 0.895E-03 -.446E-03
   0.206E+01 0.466E-14 0.206E+01   -.192E+01 -.450E-14 -.192E+01   -.162E+00 0.000E+00 -.162E+00   -.501E-03 -.104E-14 -.501E-03
   0.223E+01 -.103E-12 0.223E+01   -.209E+01 -.749E-14 -.209E+01   -.124E+00 0.000E+00 -.124E+00   -.459E-03 0.276E-14 -.460E-03
   0.727E+01 -.103E+02 0.240E+01   -.734E+01 0.103E+02 -.207E+01   0.263E-01 0.235E-01 -.373E+00   -.640E-03 0.106E-02 -.440E-03
   0.240E+01 -.103E+02 0.727E+01   -.207E+01 0.103E+02 -.734E+01   -.373E+00 0.235E-01 0.263E-01   -.439E-03 0.106E-02 -.641E-03
   -.647E+01 0.878E-13 0.650E+01   0.649E+01 -.987E-13 -.685E+01   0.287E-01 0.000E+00 0.331E+00   0.591E-03 0.209E-15 -.561E-03
   -.650E+01 -.108E-12 0.647E+01   0.685E+01 -.865E-12 -.649E+01   -.331E+00 -.867E-18 -.287E-01   0.579E-03 -.453E-14 -.611E-03
   -.711E+01 0.124E+02 0.711E+01   0.698E+01 -.126E+02 -.698E+01   0.131E+00 0.163E+00 -.131E+00   0.653E-03 -.110E-02 -.635E-03
   -.193E+01 0.511E+01 0.193E+01   0.194E+01 -.504E+01 -.194E+01   0.401E-02 -.116E+00 -.401E-02   0.425E-03 -.895E-03 -.446E-03
   0.749E+01 0.173E-12 0.749E+01   -.737E+01 0.279E-13 -.737E+01   -.147E+00 0.000E+00 -.147E+00   -.615E-03 -.251E-14 -.616E-03
   0.727E+01 0.103E+02 0.240E+01   -.734E+01 -.103E+02 -.207E+01   0.263E-01 -.235E-01 -.373E+00   -.640E-03 -.106E-02 -.440E-03
   0.240E+01 0.103E+02 0.727E+01   -.207E+01 -.103E+02 -.734E+01   -.373E+00 -.235E-01 0.263E-01   -.439E-03 -.106E-02 -.641E-03
 -----------------------------------------------------------------------------------------------
   0.578E-02 -.688E-12 0.578E-02   0.711E-14 -.426E-13 0.195E-13   -.167E-15 0.382E-16 0.180E-15   -.146E-04 -.159E-15 -.146E-04
 
 
 POSITION                                       TOTAL-FORCE (eV/Angst)
 -----------------------------------------------------------------------------------
      3.03264      4.04353      3.03264         0.000000      0.000000      0.000000
      0.00719      0.00000      0.00719        -0.015434      0.000000     -0.015434
      1.99643      0.00000      1.99643         0.019756      0.000000      0.019756
      2.01749      2.06657      0.03920         0.049071      0.071667      0.043933
      0.03920      2.06657      2.01749         0.043933      0.071667      0.049071
      4.04538      0.00000      7.97591         0.026020      0.000000      0.048190
      6.17644      0.00000      2.01992        -0.048190      0.000000     -0.026020
      6.09403      1.99970      8.05830        -0.014345      0.055370      0.014345
      4.13603      1.84461      1.92927        -0.000525     -0.023183      0.000525
      8.08681      4.04353      8.08681         0.030576      0.000000      0.030576
      2.01749      6.02049      0.03920         0.049071     -0.071667      0.043933
      0.03920      6.02049      2.01749         0.043933     -0.071667      0.049071
      4.03359      4.04353      0.02598        -0.018990      0.000000      0.050669
      6.03929      4.04353      2.03173        -0.050669      0.000000      0.018990
      6.09403      6.08735      8.05830        -0.014345     -0.055370      0.014345
      4.13603      6.24245      1.92927        -0.000525      0.023183      0.000525
      7.97591      0.00000      4.04538         0.048190      0.000000      0.026020
      2.01992      0.00000      6.17644        -0.026020      0.000000     -0.048190
      1.92927      1.84461      4.13603         0.000525     -0.023183     -0.000525
      8.05830      1.99970      6.09403         0.014345      0.055370     -0.014345
      4.06886      0.00000      4.06886        -0.019756      0.000000     -0.019756
      6.05809      0.00000      6.05809         0.015434      0.000000      0.015434
      6.02609      2.06657      4.04781        -0.043933      0.071667     -0.049071
      4.04781      2.06657      6.02609        -0.049071      0.071667     -0.043933
      0.02598      4.04353      4.03359         0.050669      0.000000     -0.018990
      2.03173      4.04353      6.03929         0.018990      0.000000     -0.050669
      1.92927      6.24245      4.13603         0.000525      0.023183     -0.000525
      8.05830      6.08735      6.09403         0.014345     -0.055370     -0.014345
      6.06555      4.04353      6.06555        -0.030576      0.000000     -0.030576
      6.02609      6.02049      4.04781        -0.043933     -0.071667     -0.049071
      4.04781      6.02049      6.02609        -0.049071     -0.071667     -0.043933
 -----------------------------------------------------------------------------------
    total drift:                                0.005762      0.000000      0.005762


--------------------------------------------------------------------------------------------------------


    POTLOK:  cpu time    2.04: real time    1.92


--------------------------------------------------------------------------------------------------------


  FORCES: max atom, RMS     0.000000    0.000000
  FORCE total and by dimension    0.000000    0.000000

 ----------------------------------------------------------------------------- 
|                                                                             |
|           W    W    AA    RRRRR   N    N  II  N    N   GGGG   !!!           |
|           W    W   A  A   R    R  NN   N  II  NN   N  G    G  !!!           |
|           W    W  A    A  R    R  N N  N  II  N N  N  G       !!!           |
|           W WW W  AAAAAA  RRRRR   N  N N  II  N  N N  G  GGG   !            |
|           WW  WW  A    A  R   R   N   NN  II  N   NN  G    G                |
|           W    W  A    A  R    R  N    N  II  N    N   GGGG   !!!           |
|                                                                             |
|      Your timestep is larger than 0.1 Angst.                                |
|      For finite differences this really does not make sense. I will         |
|      reset POTIM to 0.015. I recommend to use 0.01 to 0.02 for finite       |
|      differences.                                                           |
|                                                                             |
 ----------------------------------------------------------------------------- 

 Finite differences:
   Step               POTIM =   1.500000000000000E-002
   Degrees of freedom DOF   =            3
  LATTYP: Found a simple cubic cell.
 ALAT       =     8.0870540000
  
  Lattice vectors:
  
 A1 = (   8.0870540000,   0.0000000000,   0.0000000000)
 A2 = (   0.0000000000,   8.0870540000,   0.0000000000)
 A3 = (   0.0000000000,   0.0000000000,   8.0870540000)
 Subroutine PRICEL returns:
 Original cell was already a primitive cell.
 

Analysis of symmetry for initial positions (statically):

 Routine SETGRP: Setting up the symmetry group for a 
 simple cubic supercell.


 Subroutine GETGRP returns: Found  2 space group operations
 (whereof  2 operations were pure point group operations)
 out of a pool of 48 trial point group operations.


The static configuration has the point symmetry C_1h.

Analysis of symmetry for dynamics (positions and initial velocities):

 Subroutine DYNSYM returns: Found  2 space group operations
 (whereof  2 operations were pure point group operations)
 out of a pool of  2 trial space group operations
 (whereof  2 operations were pure point group operations)
 and found also     1 'primitive' translations


The dynamic configuration has the point symmetry C_1h.

Analysis of constrained symmetry for selective dynamics:

 Subroutine DYNSYM returns: Found  2 space group operations
 (whereof  2 operations were pure point group operations)
 out of a pool of  2 trial space group operations
 (whereof  2 operations were pure point group operations)
 and found also     1 'primitive' translations


The constrained configuration has the point symmetry C_1h.
 
 KPOINTS: Automatic kpoint scheme                 

Automatic generation of k-mesh.
 
 Subroutine IBZKPT returns following result:
 ===========================================
 
 Found      2 irreducible k-points:
 
[...]
  in kB      -2.92279    18.39733    -2.92265     0.00000     0.00000     2.59530
  external pressure =        4.18 kB  Pullay stress =        0.00 kB


 VOLUME and BASIS-vectors are now :
 -----------------------------------------------------------------------------
  energy-cutoff  :      300.00
  volume of cell :      528.90
      direct lattice vectors                 reciprocal lattice vectors
     8.087054000  0.000000000  0.000000000     0.123654423  0.000000000  0.000000000
     0.000000000  8.087054000  0.000000000     0.000000000  0.123654423  0.000000000
     0.000000000  0.000000000  8.087054000     0.000000000  0.000000000  0.123654423

  length of vectors
     8.087054000  8.087054000  8.087054000     0.123654423  0.123654423  0.123654423


 FORCES acting on ions
    electron-ion (+dipol)            ewald-force                    non-local-force                 convergence-correction
 -----------------------------------------------------------------------------------------------
   0.183E+00 -.700E-13 -.271E+00   -.149E+00 0.192E-14 0.248E+00   -.789E-01 0.000E+00 0.529E-01   0.546E-04 -.748E-04 -.237E-03
   -.222E+01 0.168E-12 -.222E+01   0.209E+01 -.333E-14 0.208E+01   0.124E+00 0.000E+00 0.124E+00   -.436E-05 0.882E-04 0.142E-03
   -.205E+01 -.565E-14 -.207E+01   0.191E+01 -.705E-14 0.193E+01   0.160E+00 0.000E+00 0.163E+00   0.707E-04 0.117E-03 -.171E-03
   -.239E+01 -.103E+02 -.723E+01   0.206E+01 0.103E+02 0.729E+01   0.374E+00 0.240E-01 -.247E-01   0.663E-04 -.310E-04 0.187E-03
   -.725E+01 -.103E+02 -.241E+01   0.732E+01 0.103E+02 0.209E+01   -.263E-01 0.234E-01 0.373E+00   -.368E-04 0.467E-04 -.149E-03
   0.144E+01 -.129E-13 -.224E+01   -.174E+01 0.305E-14 0.160E+01   0.322E+00 0.000E+00 0.695E+00   0.231E-04 0.101E-03 0.200E-03
   0.226E+01 0.114E-12 -.145E+01   -.161E+01 -.733E-13 0.175E+01   -.697E+00 0.000E+00 -.322E+00   -.787E-04 0.101E-03 -.128E-03
   0.193E+01 -.510E+01 -.192E+01   -.194E+01 0.504E+01 0.193E+01   -.284E-02 0.114E+00 0.302E-02   -.591E-04 0.679E-04 0.174E-03
   0.707E+01 -.123E+02 -.713E+01   -.694E+01 0.125E+02 0.700E+01   -.114E+00 -.193E+00 0.123E+00   0.242E-06 0.718E-04 -.132E-03
   -.747E+01 0.528E-12 -.746E+01   0.736E+01 0.409E-13 0.735E+01   0.145E+00 0.000E+00 0.148E+00   -.131E-03 -.883E-04 0.239E-03
   -.239E+01 0.103E+02 -.723E+01   0.206E+01 -.103E+02 0.729E+01   0.374E+00 -.240E-01 -.247E-01   0.531E-04 0.234E-04 0.172E-03
   -.725E+01 0.103E+02 -.241E+01   0.732E+01 -.103E+02 0.209E+01   -.263E-01 -.234E-01 0.373E+00   -.517E-04 -.544E-04 -.162E-03
   0.647E+01 0.127E-12 -.637E+01   -.682E+01 -.211E-13 0.640E+01   0.337E+00 0.000E+00 0.121E-01   0.867E-04 -.102E-03 0.193E-03
   0.643E+01 -.852E-13 -.653E+01   -.646E+01 -.845E-12 0.688E+01   -.225E-01 0.000E+00 -.332E+00   -.387E-04 -.102E-03 -.221E-03
   0.193E+01 0.510E+01 -.192E+01   -.194E+01 -.504E+01 0.193E+01   -.284E-02 -.114E+00 0.302E-02   -.457E-04 -.648E-04 0.161E-03
   0.707E+01 0.123E+02 -.713E+01   -.694E+01 -.125E+02 0.700E+01   -.114E+00 0.193E+00 0.123E+00   0.147E-04 -.420E-04 -.147E-03
   -.226E+01 -.666E-13 0.144E+01   0.161E+01 -.649E-14 -.173E+01   0.694E+00 0.000E+00 0.323E+00   -.622E-04 0.101E-03 -.139E-03
   -.145E+01 -.353E-13 0.227E+01   0.174E+01 -.722E-14 -.163E+01   -.323E+00 0.000E+00 -.696E+00   0.350E-04 0.101E-03 0.185E-03
   -.715E+01 -.125E+02 0.709E+01   0.701E+01 0.126E+02 -.695E+01   0.147E+00 -.132E+00 -.138E+00   0.260E-04 -.281E-04 -.158E-03
   -.194E+01 -.511E+01 0.195E+01   0.195E+01 0.505E+01 -.196E+01   0.508E-02 0.117E+00 -.494E-02   -.328E-04 -.404E-04 0.147E-03
   0.207E+01 0.461E-14 0.204E+01   -.192E+01 -.450E-14 -.190E+01   -.164E+00 0.000E+00 -.161E+00   0.545E-04 0.117E-03 -.189E-03
   0.223E+01 -.102E-12 0.224E+01   -.209E+01 -.749E-14 -.210E+01   -.124E+00 0.000E+00 -.125E+00   -.166E-04 0.882E-04 0.128E-03
   0.728E+01 -.103E+02 0.238E+01   -.735E+01 0.103E+02 -.206E+01   0.264E-01 0.233E-01 -.372E+00   -.620E-04 -.333E-04 -.175E-03
   0.241E+01 -.103E+02 0.730E+01   -.209E+01 0.104E+02 -.738E+01   -.371E+00 0.226E-01 0.281E-01   0.391E-04 0.450E-04 0.163E-03
   -.650E+01 0.838E-13 0.648E+01   0.652E+01 -.987E-13 -.683E+01   0.348E-01 0.000E+00 0.330E+00   -.306E-04 -.102E-03 -.230E-03
   -.654E+01 -.102E-12 0.657E+01   0.688E+01 -.865E-12 -.658E+01   -.326E+00 0.000E+00 -.442E-01   0.970E-04 -.102E-03 0.185E-03
   -.715E+01 0.125E+02 0.709E+01   0.701E+01 -.126E+02 -.695E+01   0.147E+00 0.132E+00 -.138E+00   0.116E-04 0.578E-04 -.144E-03
   -.194E+01 0.511E+01 0.195E+01   0.195E+01 -.505E+01 -.196E+01   0.508E-02 -.117E+00 -.494E-02   -.462E-04 0.435E-04 0.160E-03
   0.750E+01 0.176E-12 0.751E+01   -.738E+01 0.279E-13 -.739E+01   -.147E+00 0.000E+00 -.145E+00   -.140E-03 -.883E-04 0.229E-03
   0.728E+01 0.103E+02 0.238E+01   -.735E+01 -.103E+02 -.206E+01   0.264E-01 -.233E-01 -.372E+00   -.471E-04 0.257E-04 -.161E-03
   0.241E+01 0.103E+02 0.730E+01   -.209E+01 -.104E+02 -.738E+01   -.371E+00 -.226E-01 0.281E-01   0.524E-04 -.526E-04 0.178E-03
 -----------------------------------------------------------------------------------------------
   -.123E-01 -.967E-14 0.114E-02   0.107E-13 -.355E-13 0.266E-13   0.125E-01 -.694E-17 -.140E-02   -.198E-03 0.191E-03 0.301E-03
 
 
 POSITION                                       TOTAL-FORCE (eV/Angst)
 -----------------------------------------------------------------------------------
      3.03264      4.04353      3.01764        -0.044026      0.000000      0.029006
      0.00719      0.00000      0.00719        -0.015707      0.000000     -0.014681
      1.99643      0.00000      1.99643         0.020000      0.000000      0.019073
      2.01749      2.06657      0.03920         0.048134      0.071112      0.044108
      0.03920      2.06657      2.01749         0.043619      0.071948      0.049036
      4.04538      0.00000      7.97591         0.025435      0.000000      0.047830
      6.17644      0.00000      2.01992        -0.047023      0.000000     -0.025943
      6.09403      1.99970      8.05830        -0.013326      0.054813      0.014438
      4.13603      1.84461      1.92927         0.007402     -0.039919     -0.003300
      8.08681      4.04353      8.08681         0.030453      0.000000      0.030673
      2.01749      6.02049      0.03920         0.048134     -0.071112      0.044108
      0.03920      6.02049      2.01749         0.043619     -0.071948      0.049036
      4.03359      4.04353      0.02598        -0.015869      0.000000      0.044673
      6.03929      4.04353      2.03173        -0.047436      0.000000      0.017996
      6.09403      6.08735      8.05830        -0.013326     -0.054813      0.014438
      4.13603      6.24245      1.92927         0.007402      0.039919     -0.003300
      7.97591      0.00000      4.04538         0.049402      0.000000      0.026116
      2.01992      0.00000      6.17644        -0.026658      0.000000     -0.048592
      1.92927      1.84461      4.13603         0.008462     -0.006483     -0.004599
      8.05830      1.99970      6.09403         0.015354      0.055944     -0.014238
      4.06886      0.00000      4.06886        -0.019564      0.000000     -0.020531
      6.05809      0.00000      6.05809         0.015154      0.000000      0.016195
      6.02609      2.06657      4.04781        -0.044308      0.071455     -0.049129
      4.04781      2.06657      6.02609        -0.050011      0.072305     -0.043790
      0.02598      4.04353      4.03359         0.053963      0.000000     -0.020027
      2.03173      4.04353      6.03929         0.021969      0.000000     -0.056314
      1.92927      6.24245      4.13603         0.008462      0.006483     -0.004599
      8.05830      6.08735      6.09403         0.015354     -0.055944     -0.014238
      6.06555      4.04353      6.06555        -0.030748      0.000000     -0.030525
      6.02609      6.02049      4.04781        -0.044308     -0.071455     -0.049129
      4.04781      6.02049      6.02609        -0.050011     -0.072305     -0.043790
 -----------------------------------------------------------------------------------
    total drift:                                0.000015      0.000191      0.000038
 d Force =-0.7430234E-06[-0.870E-03, 0.869E-03]  d Energy = 0.3510465E-06-0.109E-05
 d Force = 0.4323315E-05[-0.743E-02, 0.744E-02]  d Ewald  = 0.4323055E-05 0.261E-09


--------------------------------------------------------------------------------------------------------


    POTLOK:  cpu time    2.06: real time    1.93


--------------------------------------------------------------------------------------------------------


  FORCES: max atom, RMS     0.052723    0.009469
  FORCE total and by dimension    0.052723    0.044026
 Finite differences progress:
  Degree of freedom:   3/  3
  Displacement:        2/  2
  Total:               6/  6
 
 SECOND DERIVATIVES (NOT SYMMETRIZED)
 ------------------------------------
               1X          1Y          1Z 
  1X    -1.935139    0.000000    2.932690
  1Y     0.000000   -8.361818    0.000000
  1Z     2.931597    0.000000   -1.932109
 
 
 Eigenvectors and eigenvalues of the dynamical matrix
 ----------------------------------------------------
 
 
   1 f  =    9.169661 THz    57.614676 2PiTHz  305.866942 cm-1    37.922681 meV
             X         Y         Z           dx          dy          dz
      3.032637  4.043527  3.032637     0.000000   -1.000000    0.000000  
      0.007189  0.000000  0.007189            0           0           0  
      1.996427  0.000000  1.996427            0           0           0  
      2.017485  2.066566  0.039198            0           0           0  
      0.039198  2.066566  2.017485            0           0           0  
      4.045379  0.000000  7.975906            0           0           0  
      6.176439  0.000000  2.019920            0           0           0  
      6.094032  1.999702  8.058305            0           0           0  
      4.136027  1.844608  1.929272            0           0           0  
      8.086811  4.043527  8.086811            0           0           0  
      2.017485  6.020488  0.039198            0           0           0  
      0.039198  6.020488  2.017485            0           0           0  
      4.033588  4.043527  0.025984            0           0           0  
      6.039291  4.043527  2.031727            0           0           0  
      6.094032  6.087352  8.058305            0           0           0  
      4.136027  6.242446  1.929272            0           0           0  
      7.975906  0.000000  4.045379            0           0           0  
      2.019920  0.000000  6.176439            0           0           0  
      1.929272  1.844608  4.136027            0           0           0  
      8.058305  1.999702  6.094032            0           0           0  
      4.068864  0.000000  4.068864            0           0           0  
      6.058093  0.000000  6.058093            0           0           0  
      6.026093  2.066566  4.047805            0           0           0  
      4.047805  2.066566  6.026093            0           0           0  
      0.025984  4.043527  4.033588            0           0           0  
      2.031727  4.043527  6.039291            0           0           0  
      1.929272  6.242446  4.136027            0           0           0  
      8.058305  6.087352  6.094032            0           0           0  
      6.065549  4.043527  6.065549            0           0           0  
      6.026093  6.020488  4.047805            0           0           0  
      4.047805  6.020488  6.026093            0           0           0  
 
   2 f  =    6.994853 THz    43.949958 2PiTHz  233.323175 cm-1    28.928397 meV
             X         Y         Z           dx          dy          dz
      3.032637  4.043527  3.032637     0.707289    0.000000   -0.706924  
      0.007189  0.000000  0.007189            0           0           0  
      1.996427  0.000000  1.996427            0           0           0  
      2.017485  2.066566  0.039198            0           0           0  
      0.039198  2.066566  2.017485            0           0           0  
      4.045379  0.000000  7.975906            0           0           0  
      6.176439  0.000000  2.019920            0           0           0  
      6.094032  1.999702  8.058305            0           0           0  
      4.136027  1.844608  1.929272            0           0           0  
      8.086811  4.043527  8.086811            0           0           0  
      2.017485  6.020488  0.039198            0           0           0  
      0.039198  6.020488  2.017485            0           0           0  
      4.033588  4.043527  0.025984            0           0           0  
      6.039291  4.043527  2.031727            0           0           0  
      6.094032  6.087352  8.058305            0           0           0  
      4.136027  6.242446  1.929272            0           0           0  
      7.975906  0.000000  4.045379            0           0           0  
      2.019920  0.000000  6.176439            0           0           0  
      1.929272  1.844608  4.136027            0           0           0  
      8.058305  1.999702  6.094032            0           0           0  
      4.068864  0.000000  4.068864            0           0           0  
      6.058093  0.000000  6.058093            0           0           0  
      6.026093  2.066566  4.047805            0           0           0  
      4.047805  2.066566  6.026093            0           0           0  
      0.025984  4.043527  4.033588            0           0           0  
      2.031727  4.043527  6.039291            0           0           0  
      1.929272  6.242446  4.136027            0           0           0  
      8.058305  6.087352  6.094032            0           0           0  
      6.065549  4.043527  6.065549            0           0           0  
      6.026093  6.020488  4.047805            0           0           0  
      4.047805  6.020488  6.026093            0           0           0  
 
   3 f/i=    3.168700 THz    19.909531 2PiTHz  105.696462 cm-1    13.104696 meV
             X         Y         Z           dx          dy          dz
      3.032637  4.043527  3.032637    -0.706924    0.000000   -0.707289  
      0.007189  0.000000  0.007189            0           0           0  
      1.996427  0.000000  1.996427            0           0           0  
      2.017485  2.066566  0.039198            0           0           0  
      0.039198  2.066566  2.017485            0           0           0  
      4.045379  0.000000  7.975906            0           0           0  
      6.176439  0.000000  2.019920            0           0           0  
      6.094032  1.999702  8.058305            0           0           0  
      4.136027  1.844608  1.929272            0           0           0  
      8.086811  4.043527  8.086811            0           0           0  
      2.017485  6.020488  0.039198            0           0           0  
      0.039198  6.020488  2.017485            0           0           0  
      4.033588  4.043527  0.025984            0           0           0  
      6.039291  4.043527  2.031727            0           0           0  
      6.094032  6.087352  8.058305            0           0           0  
      4.136027  6.242446  1.929272            0           0           0  
      7.975906  0.000000  4.045379            0           0           0  
      2.019920  0.000000  6.176439            0           0           0  
      1.929272  1.844608  4.136027            0           0           0  
      8.058305  1.999702  6.094032            0           0           0  
      4.068864  0.000000  4.068864            0           0           0  
      6.058093  0.000000  6.058093            0           0           0  
      6.026093  2.066566  4.047805            0           0           0  
      4.047805  2.066566  6.026093            0           0           0  
      0.025984  4.043527  4.033588            0           0           0  
      2.031727  4.043527  6.039291            0           0           0  
      1.929272  6.242446  4.136027            0           0           0  
      8.058305  6.087352  6.094032            0           0           0  
      6.065549  4.043527  6.065549            0           0           0  
      6.026093  6.020488  4.047805            0           0           0  
      4.047805  6.020488  6.026093            0           0           0  
 
 Finite differences POTIM=  1.500000000000000E-002
  LATTYP: Found a simple cubic cell.
 ALAT       =     8.0870540000
  
  Lattice vectors:
  
 A1 = (   8.0870540000,   0.0000000000,   0.0000000000)
 A2 = (   0.0000000000,   8.0870540000,   0.0000000000)
 A3 = (   0.0000000000,   0.0000000000,   8.0870540000)
 Subroutine PRICEL returns:
 Original cell was already a primitive cell.
 

Analysis of symmetry for initial positions (statically):

 Routine SETGRP: Setting up the symmetry group for a 
 simple cubic supercell.


 Subroutine GETGRP returns: Found  8 space group operations
 (whereof  4 operations were pure point group operations)
 out of a pool of 48 trial point group operations.


The static configuration has the point symmetry C_2v.
 The point group associated with its full space group is D_2h.

Analysis of symmetry for dynamics (positions and initial velocities):

 Subroutine DYNSYM returns: Found  8 space group operations
 (whereof  4 operations were pure point group operations)
 out of a pool of  8 trial space group operations
 (whereof  4 operations were pure point group operations)
 and found also     1 'primitive' translations


The dynamic configuration has the point symmetry C_2v.
 The point group associated with its full space group is D_2h.

Analysis of constrained symmetry for selective dynamics:

 Subroutine DYNSYM returns: Found  8 space group operations
 (whereof  4 operations were pure point group operations)
 out of a pool of  8 trial space group operations
 (whereof  4 operations were pure point group operations)
 and found also     1 'primitive' translations


The constrained configuration has the point symmetry C_2v.
 The point group associated with its full space group is D_2h.
 
 KPOINTS: Automatic kpoint scheme                 

Automatic generation of k-mesh.
 
 Subroutine IBZKPT returns following result:
 ===========================================
 
 Found      2 irreducible k-points:
 
 Following reciprocal coordinates:
            Coordinates               Weight
  0.250000  0.250000  0.250000      4.000000
 -0.250000  0.250000  0.250000      4.000000
 
 Following cartesian coordinates:
            Coordinates               Weight
  0.030914  0.030914  0.030914      4.000000
 -0.030914  0.030914  0.030914      4.000000
 
     LOOP+:  cpu time  331.16: real time  129.32
    4ORBIT:  cpu time    0.00: real time    0.00

 total amount of memory used by VASP on root node 133132. kBytes
========================================================================

   base      :    30000. kBytes
   nonl-proj :     4690. kBytes
   fftplans  :    30736. kBytes
   grid      :    54743. kBytes
   one-center:       95. kBytes
   wavefun   :    12868. kBytes
 
  
  
 General timing and accounting informations for this job:
 ========================================================
  
                  Total CPU time used (sec):     2803.448
                            User time (sec):     2778.148
                          System time (sec):       25.300
                         Elapsed time (sec):     1069.588
  
                   Maximum memory used (kb):           0.
                   Average memory used (kb):           0.
  
                          Minor page faults:       620543
                          Major page faults:            0
                 Voluntary context switches:        16263
