<?xml version="1.0" encoding="ISO-8859-1"?>
<modeling>
 <generator>
  <i name="program" type="string">vasp </i>
  <i name="version" type="string">5.2.2  </i>
  <i name="subversion" type="string">15Apr09 complex  parallel </i>
  <i name="platform" type="string">LinuxIFC </i>
  <i name="date" type="string">2014 04 24 </i>
  <i name="time" type="string">13:16:14 </i>
 </generator>
 <incar>
  <i type="string" name="PREC">accurate</i>
  <i type="int" name="IALGO">    48</i>
  <i type="int" name="IBRION">     5</i>
  <i name="EDIFFG">      0.05000000</i>
  <i type="int" name="NSW">   191</i>
  <i type="int" name="ISIF">     2</i>
  <i name="ENCUT">    300.00000000</i>
  <i name="NELECT">     92.00000000</i>
  <i type="int" name="ISMEAR">     1</i>
  <i name="SIGMA">      0.20000000</i>
  <i type="logical" name="LWAVE"> F  </i>
  <i type="logical" name="LCHARG"> F  </i>
  <i type="logical" name="LPEAD"> F  </i>
  <i type="logical" name="LCALCPOL"> F  </i>
  <i type="logical" name="LCALCEPS"> F  </i>
  <v name="EFIELD_PEAD">      0.00000000      0.00000000      0.00000000</v>
  <i type="logical" name="LEFG"> F  </i>
 </incar>
 <kpoints>
  <generation param="Monkhorst-Pack">
   <v type="int" name="divisions">       2        2        2 </v>
   <v name="usershift">      0.00000000       0.00000000       0.00000000 </v>
   <v name="genvec1">      0.50000000       0.00000000       0.00000000 </v>
   <v name="genvec2">      0.00000000       0.50000000       0.00000000 </v>
   <v name="genvec3">      0.00000000       0.00000000       0.50000000 </v>
   <v name="shift">      0.50000000       0.50000000       0.50000000 </v>
  </generation>
  <varray name="kpointlist" >
   <v>       0.25000000       0.25000000       0.25000000 </v>
   <v>      -0.25000000       0.25000000       0.25000000 </v>
  </varray>
  <varray name="weights" >
   <v>       0.50000000 </v>
   <v>       0.50000000 </v>
  </varray>
 </kpoints>
 <parameters>
  <separator name="general" >
   <i type="string" name="SYSTEM">unknown system</i>
   <i type="logical" name="LCOMPAT"> F  </i>
  </separator>
  <separator name="electronic" >
   <i type="string" name="PREC">accura</i>
   <i name="ENMAX">    300.00000000</i>
   <i name="ENAUG">    291.05200000</i>
   <i name="EDIFF">      0.00000100</i>
   <i type="int" name="IALGO">    48</i>
   <i type="int" name="IWAVPR">    11</i>
   <i type="int" name="NBANDS">    62</i>
   <i name="NELECT">     92.00000000</i>
   <separator name="electronic smearing" >
    <i type="int" name="ISMEAR">     1</i>
    <i name="SIGMA">      0.20000000</i>
   </separator>
   <separator name="electronic projectors" >
    <i type="logical" name="LREAL"> F  </i>
    <v name="ROPT">      0.00000000      0.00000000</v>
    <i type="int" name="LMAXPAW">  -100</i>
    <i type="int" name="LMAXMIX">     2</i>
   </separator>
   <separator name="electronic startup" >
    <i type="int" name="ISTART">     0</i>
    <i type="int" name="ICHARG">     2</i>
    <i type="int" name="INIWAV">     1</i>
   </separator>
   <separator name="electronic spin" >
    <i type="int" name="ISPIN">     1</i>
    <i type="logical" name="LNONCOLLINEAR"> F  </i>
    <v name="MAGMOM">      1.00000000      1.00000000      1.00000000      1.00000000      1.00000000      1.00000000      1.00000000      1.00000000      1.00000000      1.00000000      1.00000000      1.00000000      1.00000000      1.00000000      1.00000000      1.00000000      1.00000000      1.00000000      1.00000000      1.00000000
      1.00000000      1.00000000      1.00000000      1.00000000      1.00000000      1.00000000      1.00000000      1.00000000      1.00000000      1.00000000      1.00000000</v>
    <i name="NUPDOWN">     -1.00000000</i>
    <i type="logical" name="LSORBIT"> F  </i>
    <v name="SAXIS">      0.00000000      0.00000000      1.00000000</v>
    <i type="logical" name="LSPIRAL"> F  </i>
    <v name="QSPIRAL">      0.00000000      0.00000000      0.00000000</v>
    <i type="logical" name="LZEROZ"> F  </i>
   </separator>
   <separator name="electronic exchange-correlation" >
    <i type="logical" name="LASPH"> F  </i>
    <i type="logical" name="LMETAGGA"> F  </i>
   </separator>
   <separator name="electronic convergence" >
    <i type="int" name="NELM">    60</i>
    <i type="int" name="NELMDL">     0</i>
    <i type="int" name="NELMIN">     2</i>
    <i name="ENINI">    300.00000000</i>
    <separator name="electronic convergence detail" >
     <i type="logical" name="LDIAG"> T  </i>
     <i name="WEIMIN">      0.00100000</i>
     <i name="EBREAK">      0.00000000</i>
     <i name="DEPER">      0.30000000</i>
     <i type="int" name="NRMM">     4</i>
     <i name="TIME">      0.40000000</i>
    </separator>
   </separator>
   <separator name="electronic mixer" >
    <i name="AMIX">      0.40000000</i>
    <i name="BMIX">      1.00000000</i>
    <i name="AMIN">      0.10000000</i>
    <i name="AMIX_MAG">      1.60000000</i>
    <i name="BMIX_MAG">      1.00000000</i>
    <separator name="electronic mixer details" >
     <i type="int" name="IMIX">     4</i>
     <i type="int" name="MAXMIX">   -45</i>
     <i name="WC">    100.00000000</i>
     <i type="int" name="INIMIX">     1</i>
     <i type="int" name="MIXPRE">     1</i>
     <i type="int" name="MREMOVE">     5</i>
    </separator>
   </separator>
   <separator name="electronic dipolcorrection" >
    <i type="logical" name="LDIPOL"> F  </i>
    <i type="logical" name="LMONO"> F  </i>
    <i type="int" name="IDIPOL">     0</i>
    <i name="EPSILON">      1.00000000</i>
    <v name="DIPOL">   -100.00000000   -100.00000000   -100.00000000</v>
    <i name="EFIELD">      0.00000000</i>
   </separator>
  </separator>
  <separator name="grids" >
   <i type="int" name="NGX">    48</i>
   <i type="int" name="NGY">    48</i>
   <i type="int" name="NGZ">    48</i>
   <i type="int" name="NGXF">    96</i>
   <i type="int" name="NGYF">    96</i>
   <i type="int" name="NGZF">    96</i>
   <i type="logical" name="ADDGRID"> F  </i>
  </separator>
  <separator name="ionic" >
   <i type="int" name="NSW">   382</i>
   <i type="int" name="IBRION">     5</i>
   <i type="int" name="ISIF">     2</i>
   <i name="PSTRESS">      0.00000000</i>
   <i name="EDIFFG">      0.05000000</i>
   <i type="int" name="NFREE">     2</i>
   <i name="POTIM">      0.50000000</i>
   <i name="SMASS">     -3.00000000</i>
  </separator>
  <separator name="ionic md" >
   <i name="TEBEG">      0.00010000</i>
   <i name="TEEND">      0.00010000</i>
   <i type="int" name="NBLOCK">     1</i>
   <i type="int" name="KBLOCK">   191</i>
   <i type="int" name="NPACO">   256</i>
   <i name="APACO">     16.00000000</i>
  </separator>
  <separator name="symmetry" >
   <i type="int" name="ISYM">     2</i>
   <i name="SYMPREC">      0.00001000</i>
  </separator>
  <separator name="dos" >
   <i type="logical" name="LORBIT"> F  </i>
   <v name="RWIGS">     -1.00000000     -1.00000000</v>
   <i type="int" name="NEDOS">   301</i>
   <i name="EMIN">     10.00000000</i>
   <i name="EMAX">    -10.00000000</i>
   <i name="EFERMI">      0.00000000</i>
  </separator>
  <separator name="writing" >
   <i type="int" name="NWRITE">     2</i>
   <i type="logical" name="LWAVE"> F  </i>
   <i type="logical" name="LCHARG"> F  </i>
   <i type="logical" name="LPARD"> F  </i>
   <i type="logical" name="LVTOT"> F  </i>
   <i type="logical" name="LELF"> F  </i>
   <i type="logical" name="LOPTICS"> F  </i>
   <v name="STM">      0.00000000      0.00000000      0.00000000      0.00000000      0.00000000</v>
  </separator>
  <separator name="performance" >
   <i type="int" name="NPAR">     1</i>
   <i type="int" name="NSIM">     4</i>
   <i type="int" name="NBLK">    32</i>
   <i type="logical" name="LPLANE"> T  </i>
   <i type="logical" name="LSCALAPACK"> F  </i>
   <i type="logical" name="LSCAAWARE"> F  </i>
   <i type="logical" name="LSCALU"> F  </i>
   <i type="logical" name="LASYNC"> F  </i>
  </separator>
  <separator name="miscellaneous" >
   <i type="int" name="IDIOT">     3</i>
   <i type="logical" name="LMUSIC"> F  </i>
   <v name="POMASS">     24.30500000     26.98200000</v>
   <i type="logical" name="LCORR"> T  </i>
  </separator>
  <i type="logical" name="LREAL_COMPAT"> F  </i>
  <i type="logical" name="GGA_COMPAT"> T  </i>
  <i type="logical" name="LBERRY"> F  </i>
  <i type="int" name="ICORELEVEL">     0</i>
  <i type="logical" name="LDAU"> F  </i>
  <i type="int" name="I_CONSTRAINED_M">     0</i>
  <separator name="electronic exchange-correlation" >
   <i type="string" name="GGA">--</i>
   <i type="int" name="VOSKOWN">     0</i>
   <i type="logical" name="LHFCALC"> F  </i>
   <i type="logical" name="LHFONE"> F  </i>
   <i type="logical" name="LRHFCALC"> F  </i>
   <i type="logical" name="LTHOMAS"> F  </i>
   <i type="logical" name="LMODELHF"> F  </i>
   <i name="ENCUTFOCK">      0.00000000</i>
   <i name="ENCUT4O">     -1.00000000</i>
   <i type="int" name="EXXOEP">     0</i>
   <i type="int" name="FOURORBIT">     0</i>
   <i name="AEXX">      0.00000000</i>
   <i name="HFALPHA">      0.00000000</i>
   <i name="ALDAX">      1.00000000</i>
   <i name="AGGAX">      1.00000000</i>
   <i name="ALDAC">      1.00000000</i>
   <i name="AGGAC">      1.00000000</i>
   <i type="int" name="NKREDX">     1</i>
   <i type="int" name="NKREDY">     1</i>
   <i type="int" name="NKREDZ">     1</i>
   <i type="logical" name="SHIFTRED"> F  </i>
   <i type="logical" name="ODDONLY"> F  </i>
   <i type="logical" name="EVENONLY"> F  </i>
   <i type="int" name="LMAXFOCK">     0</i>
   <i type="int" name="NMAXFOCKAE">     0</i>
   <i name="HFSCREEN">      0.00000000</i>
   <i name="HFSCREENC">      0.00000000</i>
  </separator>
  <separator name="model GW" >
   <i type="int" name="MODEL_GW">     0</i>
   <i name="MODEL_EPS0">     10.23671437</i>
   <i name="MODEL_ALPHA">      1.00000000</i>
  </separator>
  <separator name="linear response parameters" >
   <i type="logical" name="LEPSILON"> F  </i>
   <i type="logical" name="LRPA"> F  </i>
   <i type="logical" name="LNABLA"> F  </i>
   <i type="logical" name="LVEL"> F  </i>
   <i type="int" name="KINTER">     0</i>
   <i name="CSHIFT">      0.10000000</i>
   <i name="OMEGAMAX">     -1.00000000</i>
  </separator>
  <separator name="orbital magnetization" >
   <i type="logical" name="ORBITALMAG"> F  </i>
   <i type="logical" name="LMAGBLOCH"> F  </i>
   <i type="logical" name="LCHIMAG"> F  </i>
   <i type="logical" name="LGAUGE"> T  </i>
   <i type="int" name="MAGATOM">     0</i>
   <v name="MAGDIPOL">      0.00000000      0.00000000      0.00000000</v>
   <v name="AVECCONST">      0.00000000      0.00000000      0.00000000</v>
  </separator>
  <separator name="response functions" >
   <i type="logical" name="LRPA"> T  </i>
   <i type="logical" name="LTCTE"> F  </i>
   <i type="logical" name="LTETE"> F  </i>
   <i type="logical" name="L2ORDER"> F  </i>
   <i type="logical" name="LGWLF"> F  </i>
   <i name="ENCUTGW">    200.00000000</i>
   <i name="ENCUTGWSOFT">     -2.00000000</i>
   <i name="ENCUTLF">     -1.00000000</i>
   <i type="int" name="LMAXMP2">    -1</i>
   <i name="SCISSOR">      0.00000000</i>
   <i type="int" name="NOMEGA">     0</i>
   <i type="int" name="NOMEGAR">     0</i>
   <i type="int" name="NBANDSGW">    -1</i>
   <i type="int" name="NBANDSLF">    -1</i>
   <i type="int" name="NELM">     1</i>
   <i type="int" name="DIM">     3</i>
   <i type="int" name="ANTIRES">     0</i>
   <i type="logical" name="LUSEW"> F  </i>
   <i name="OMEGAMAX">    -30.00000000</i>
   <i name="OMEGATL">   -200.00000000</i>
   <i type="int" name="OMEGAGRID">     0</i>
   <i name="CSHIFT">     -0.10000000</i>
   <i type="logical" name="SELFENERGY"> F  </i>
   <i type="logical" name="LSPECTRAL"> F  </i>
   <i type="logical" name="ODDONLYGW"> F  </i>
   <i type="logical" name="EVENONLYGW"> F  </i>
   <i type="int" name="NKREDLFX">     1</i>
   <i type="int" name="NKREDLFY">     1</i>
   <i type="int" name="NKREDLFZ">     1</i>
   <i type="int" name="MAXMEM">  1024</i>
   <i type="int" name="TELESCOPE">     0</i>
  </separator>
 </parameters>
 <atominfo>
  <atoms>      31 </atoms>
  <types>       2 </types>
  <array name="atoms" >
   <dimension dim="1">ion</dimension>
   <field type="string">element</field>
   <field type="int">atomtype</field>
   <set>
    <rc><c>Mg</c><c>   1</c></rc>
    <rc><c>Al</c><c>   2</c></rc>
    <rc><c>Al</c><c>   2</c></rc>
    <rc><c>Al</c><c>   2</c></rc>
    <rc><c>Al</c><c>   2</c></rc>
    <rc><c>Al</c><c>   2</c></rc>
    <rc><c>Al</c><c>   2</c></rc>
    <rc><c>Al</c><c>   2</c></rc>
    <rc><c>Al</c><c>   2</c></rc>
    <rc><c>Al</c><c>   2</c></rc>
    <rc><c>Al</c><c>   2</c></rc>
    <rc><c>Al</c><c>   2</c></rc>
    <rc><c>Al</c><c>   2</c></rc>
    <rc><c>Al</c><c>   2</c></rc>
    <rc><c>Al</c><c>   2</c></rc>
    <rc><c>Al</c><c>   2</c></rc>
    <rc><c>Al</c><c>   2</c></rc>
    <rc><c>Al</c><c>   2</c></rc>
    <rc><c>Al</c><c>   2</c></rc>
    <rc><c>Al</c><c>   2</c></rc>
    <rc><c>Al</c><c>   2</c></rc>
    <rc><c>Al</c><c>   2</c></rc>
    <rc><c>Al</c><c>   2</c></rc>
    <rc><c>Al</c><c>   2</c></rc>
    <rc><c>Al</c><c>   2</c></rc>
    <rc><c>Al</c><c>   2</c></rc>
    <rc><c>Al</c><c>   2</c></rc>
    <rc><c>Al</c><c>   2</c></rc>
    <rc><c>Al</c><c>   2</c></rc>
    <rc><c>Al</c><c>   2</c></rc>
    <rc><c>Al</c><c>   2</c></rc>
   </set>
  </array>
  <array name="atomtypes" >
   <dimension dim="1">type</dimension>
   <field type="int">atomspertype</field>
   <field type="string">element</field>
   <field>mass</field>
   <field>valence</field>
   <field type="string">pseudopotential</field>
   <set>
    <rc><c>   1</c><c>Mg</c><c>     24.30500000</c><c>      2.00000000</c><c> PAW_PBE Mg 05Jan2001                   </c></rc>
    <rc><c>  30</c><c>Al</c><c>     26.98200000</c><c>      3.00000000</c><c> PAW_PBE Al 04Jan2001                   </c></rc>
   </set>
  </array>
 </atominfo>
 <structure name="initialpos" >
  <crystal>
   <varray name="basis" >
    <v>       8.08705400       0.00000000       0.00000000 </v>
    <v>       0.00000000       8.08705400       0.00000000 </v>
    <v>       0.00000000       0.00000000       8.08705400 </v>
   </varray>
   <i name="volume">    528.89690930 </i>
   <varray name="rec_basis" >
    <v>       0.12365442       0.00000000       0.00000000 </v>
    <v>       0.00000000       0.12365442       0.00000000 </v>
    <v>       0.00000000       0.00000000       0.12365442 </v>
   </varray>
  </crystal>
  <varray name="positions" >
   <v>       0.37499900       0.50000000       0.37499900 </v>
   <v>       0.00088900       0.00000000       0.00088900 </v>
   <v>       0.24686700       0.00000000       0.24686700 </v>
   <v>       0.24947100       0.25554000       0.00484700 </v>
   <v>       0.00484700       0.25554000       0.24947100 </v>
   <v>       0.50022900       0.00000000       0.98625600 </v>
   <v>       0.76374400       0.00000000       0.24977200 </v>
   <v>       0.75355400       0.24727200       0.99644500 </v>
   <v>       0.51143800       0.22809400       0.23856300 </v>
   <v>       0.99997000       0.50000000       0.99997000 </v>
   <v>       0.24947100       0.74446000       0.00484700 </v>
   <v>       0.00484700       0.74446000       0.24947100 </v>
   <v>       0.49877100       0.50000000       0.00321300 </v>
   <v>       0.74678500       0.50000000       0.25123200 </v>
   <v>       0.75355400       0.75272800       0.99644500 </v>
   <v>       0.51143800       0.77190600       0.23856300 </v>
   <v>       0.98625600       0.00000000       0.50022900 </v>
   <v>       0.24977200       0.00000000       0.76374400 </v>
   <v>       0.23856300       0.22809400       0.51143800 </v>
   <v>       0.99644500       0.24727200       0.75355400 </v>
   <v>       0.50313300       0.00000000       0.50313300 </v>
   <v>       0.74911000       0.00000000       0.74911000 </v>
   <v>       0.74515300       0.25554000       0.50052900 </v>
   <v>       0.50052900       0.25554000       0.74515300 </v>
   <v>       0.00321300       0.50000000       0.49877100 </v>
   <v>       0.25123200       0.50000000       0.74678500 </v>
   <v>       0.23856300       0.77190600       0.51143800 </v>
   <v>       0.99644500       0.75272800       0.75355400 </v>
   <v>       0.75003200       0.50000000       0.75003200 </v>
   <v>       0.74515300       0.74446000       0.50052900 </v>
   <v>       0.50052900       0.74446000       0.74515300 </v>
  </varray>
  <varray name="selective"  type="logical" >
   <v type="logical" >  T  T  T </v>
   <v type="logical" >  F  F  F </v>
   <v type="logical" >  F  F  F </v>
   <v type="logical" >  F  F  F </v>
   <v type="logical" >  F  F  F </v>
   <v type="logical" >  F  F  F </v>
   <v type="logical" >  F  F  F </v>
   <v type="logical" >  F  F  F </v>
   <v type="logical" >  F  F  F </v>
   <v type="logical" >  F  F  F </v>
   <v type="logical" >  F  F  F </v>
   <v type="logical" >  F  F  F </v>
   <v type="logical" >  F  F  F </v>
   <v type="logical" >  F  F  F </v>
   <v type="logical" >  F  F  F </v>
   <v type="logical" >  F  F  F </v>
   <v type="logical" >  F  F  F </v>
   <v type="logical" >  F  F  F </v>
   <v type="logical" >  F  F  F </v>
   <v type="logical" >  F  F  F </v>
   <v type="logical" >  F  F  F </v>
   <v type="logical" >  F  F  F </v>
   <v type="logical" >  F  F  F </v>
   <v type="logical" >  F  F  F </v>
   <v type="logical" >  F  F  F </v>
   <v type="logical" >  F  F  F </v>
   <v type="logical" >  F  F  F </v>
   <v type="logical" >  F  F  F </v>
   <v type="logical" >  F  F  F </v>
   <v type="logical" >  F  F  F </v>
   <v type="logical" >  F  F  F </v>
  </varray>
  <nose>
   <v>      -3.00000000       0.00000000       0.00010000       0.00010000 </v>
  </nose>
 </structure>
 <calculation>
  <scstep>
   <time name="diag">    4.66    2.97</time>
   <time name="diis">   21.39    6.82</time>
   <time name="orth">    0.33    0.08</time>
   <time name="total">   28.35   11.80</time>
   <energy>
    <i name="alphaZ">     -7.38312591 </i>
    <i name="ewald">  -2176.44036747 </i>
    <i name="hartreedc">    -27.67285033 </i>
    <i name="XCdc">   -796.31408595 </i>
    <i name="pawpsdc">   1078.21717227 </i>
    <i name="pawaedc">   -108.50372521 </i>
    <i name="eentropy">     -0.03220614 </i>
    <i name="bandstr">    707.72078163 </i>
    <i name="atom">   1629.13144109 </i>
    <i name="e_fr_energy">    298.72303398 </i>
    <i name="e_wo_entrp">    298.75524013 </i>
    <i name="e_0_energy">    298.73376936 </i>
   </energy>
  </scstep>
  <scstep>
   <time name="diag">    4.59    2.95</time>
   <time name="diis">   21.27    6.81</time>
   <time name="orth">    0.33    0.08</time>
   <time name="total">   26.20    9.84</time>
   <energy>
    <i name="e_fr_energy">    -10.34592777 </i>
    <i name="e_wo_entrp">    -10.30896405 </i>
    <i name="e_0_energy">    -10.33360653 </i>
   </energy>
  </scstep>
  <scstep>
   <time name="diag">    4.59    2.95</time>
   <time name="diis">   21.75    6.85</time>
   <time name="orth">    0.33    0.08</time>
   <time name="total">   26.69    9.88</time>
   <energy>
    <i name="e_fr_energy">    -82.60932380 </i>
    <i name="e_wo_entrp">    -82.57570658 </i>
    <i name="e_0_energy">    -82.59811806 </i>
   </energy>
  </scstep>
  <scstep>
   <time name="diag">    4.66    2.95</time>
   <time name="diis">   21.60    6.83</time>
   <time name="orth">    0.33    0.08</time>
   <time name="total">   26.62    9.88</time>
   <energy>
    <i name="e_fr_energy">   -101.58207006 </i>
    <i name="e_wo_entrp">   -101.58081370 </i>
    <i name="e_0_energy">   -101.58165128 </i>
   </energy>
  </scstep>
  <scstep>
   <time name="diag">    4.51    2.94</time>
   <time name="diis">   21.48    6.83</time>
   <time name="orth">    0.33    0.08</time>
   <time name="total">   26.34    9.85</time>
   <energy>
    <i name="e_fr_energy">   -108.51147157 </i>
    <i name="e_wo_entrp">   -108.50964868 </i>
    <i name="e_0_energy">   -108.51086394 </i>
   </energy>
  </scstep>
  <scstep>
   <time name="diag">    4.53    2.94</time>
   <time name="diis">   21.36    6.81</time>
   <time name="orth">    0.33    0.08</time>
   <time name="total">   26.23    9.84</time>
   <energy>
    <i name="e_fr_energy">   -111.12359319 </i>
    <i name="e_wo_entrp">   -111.13689082 </i>
    <i name="e_0_energy">   -111.12802574 </i>
   </energy>
  </scstep>
  <scstep>
   <time name="diag">    4.58    2.95</time>
   <time name="diis">   21.82    6.85</time>
   <time name="orth">    0.33    0.08</time>
   <time name="total">   26.76    9.89</time>
   <energy>
    <i name="e_fr_energy">   -112.23961023 </i>
    <i name="e_wo_entrp">   -112.24608637 </i>
    <i name="e_0_energy">   -112.24176894 </i>
   </energy>
  </scstep>
  <scstep>
   <time name="diag">    4.59    2.95</time>
   <time name="diis">   21.69    6.85</time>
   <time name="orth">    0.33    0.08</time>
   <time name="total">   26.63    9.88</time>
   <energy>
    <i name="e_fr_energy">   -112.74043664 </i>
    <i name="e_wo_entrp">   -112.74403846 </i>
    <i name="e_0_energy">   -112.74163725 </i>
   </energy>
  </scstep>
  <scstep>
   <time name="diag">    4.87    3.33</time>
   <time name="diis">   50.49   14.28</time>
   <time name="orth">    0.33    0.08</time>
   <time name="total">   55.70   17.71</time>
   <energy>
    <i name="e_fr_energy">   -113.15832391 </i>
    <i name="e_wo_entrp">   -113.15278496 </i>
    <i name="e_0_energy">   -113.15647760 </i>
   </energy>
  </scstep>
  <scstep>
   <time name="diag">    4.60    2.97</time>
   <time name="diis">   51.66   14.46</time>
   <time name="orth">    0.33    0.08</time>
   <time name="total">   56.61   17.52</time>
   <energy>
    <i name="e_fr_energy">   -113.23714072 </i>
    <i name="e_wo_entrp">   -113.22866195 </i>
    <i name="e_0_energy">   -113.23431446 </i>
   </energy>
  </scstep>
  <scstep>
   <time name="diag">    4.48    2.93</time>
   <time name="diis">   48.02   13.59</time>
   <time name="orth">    0.33    0.08</time>
   <time name="total">   52.85   16.61</time>
   <energy>
    <i name="e_fr_energy">   -113.24319647 </i>
    <i name="e_wo_entrp">   -113.23571029 </i>
    <i name="e_0_energy">   -113.24070107 </i>
   </energy>
  </scstep>
  <scstep>
   <time name="diag">    4.66    2.95</time>
   <time name="diis">   41.60   11.82</time>
   <time name="orth">    0.33    0.08</time>
   <time name="total">   48.42   16.58</time>
   <energy>
    <i name="e_fr_energy">   -113.24316934 </i>
    <i name="e_wo_entrp">   -113.23612343 </i>
    <i name="e_0_energy">   -113.24082071 </i>
   </energy>
  </scstep>
  <scstep>
   <time name="diag">    4.66    2.97</time>
   <time name="diis">   41.40   12.14</time>
   <time name="orth">    0.33    0.08</time>
   <time name="total">   50.14   18.83</time>
   <energy>
    <i name="e_fr_energy">   -112.41031845 </i>
    <i name="e_wo_entrp">   -112.40705190 </i>
    <i name="e_0_energy">   -112.40922960 </i>
   </energy>
  </scstep>
  <scstep>
   <time name="diag">    4.68    2.99</time>
   <time name="diis">   43.28   12.62</time>
   <time name="orth">    0.33    0.08</time>
   <time name="total">   52.10   19.39</time>
   <energy>
    <i name="e_fr_energy">   -112.17044578 </i>
    <i name="e_wo_entrp">   -112.16403787 </i>
    <i name="e_0_energy">   -112.16830981 </i>
   </energy>
  </scstep>
  <scstep>
   <time name="diag">    4.67    2.97</time>
   <time name="diis">   43.36   12.59</time>
   <time name="orth">    0.33    0.08</time>
   <time name="total">   52.29   19.39</time>
   <energy>
    <i name="e_fr_energy">   -112.11051097 </i>
    <i name="e_wo_entrp">   -112.10475800 </i>
    <i name="e_0_energy">   -112.10859332 </i>
   </energy>
  </scstep>
  <scstep>
   <time name="diag">    4.66    2.97</time>
   <time name="diis">   44.53   12.89</time>
   <time name="orth">    0.37    0.10</time>
   <time name="total">   53.55   19.70</time>
   <energy>
    <i name="e_fr_energy">   -112.10884894 </i>
    <i name="e_wo_entrp">   -112.10301518 </i>
    <i name="e_0_energy">   -112.10690435 </i>
   </energy>
  </scstep>
  <scstep>
   <time name="diag">    4.66    2.97</time>
   <time name="diis">   42.49   12.37</time>
   <time name="orth">    0.33    0.08</time>
   <time name="total">   51.41   19.08</time>
   <energy>
    <i name="e_fr_energy">   -112.10871379 </i>
    <i name="e_wo_entrp">   -112.10331297 </i>
    <i name="e_0_energy">   -112.10691352 </i>
   </energy>
  </scstep>
  <scstep>
   <time name="diag">    4.67    2.97</time>
   <time name="diis">   46.54   13.19</time>
   <time name="orth">    0.33    0.08</time>
   <time name="total">   55.44   19.87</time>
   <energy>
    <i name="e_fr_energy">   -112.10871876 </i>
    <i name="e_wo_entrp">   -112.10327445 </i>
    <i name="e_0_energy">   -112.10690399 </i>
   </energy>
  </scstep>
  <scstep>
   <time name="diag">    4.66    2.96</time>
   <time name="diis">   41.59   11.93</time>
   <time name="orth">    0.33    0.08</time>
   <time name="total">   50.50   18.62</time>
   <energy>
    <i name="e_fr_energy">   -112.10872374 </i>
    <i name="e_wo_entrp">   -112.10322460 </i>
    <i name="e_0_energy">   -112.10689069 </i>
   </energy>
  </scstep>
  <scstep>
   <time name="diag">    4.65    2.96</time>
   <time name="diis">   35.48   10.36</time>
   <time name="orth">    0.33    0.08</time>
   <time name="total">   42.54   15.35</time>
   <energy>
    <i name="alphaZ">     -7.38312591 </i>
    <i name="ewald">  -2176.44036747 </i>
    <i name="hartreedc">    -32.08274028 </i>
    <i name="XCdc">   -792.79989155 </i>
    <i name="pawpsdc">   1084.36316965 </i>
    <i name="pawaedc">   -115.13983900 </i>
    <i name="eentropy">     -0.00546687 </i>
    <i name="bandstr">    298.24809596 </i>
    <i name="atom">   1629.13144109 </i>
    <i name="e_fr_energy">   -112.10872437 </i>
    <i name="e_wo_entrp">   -112.10325751 </i>
    <i name="e_0_energy">   -112.10690208 </i>
   </energy>
  </scstep>
  <structure>
   <crystal>
    <varray name="basis" >
     <v>       8.08705400       0.00000000       0.00000000 </v>
     <v>       0.00000000       8.08705400       0.00000000 </v>
     <v>       0.00000000       0.00000000       8.08705400 </v>
    </varray>
    <i name="volume">    528.89690930 </i>
    <varray name="rec_basis" >
     <v>       0.12365442       0.00000000       0.00000000 </v>
     <v>       0.00000000       0.12365442       0.00000000 </v>
     <v>       0.00000000       0.00000000       0.12365442 </v>
    </varray>
   </crystal>
   <varray name="positions" >
    <v>       0.37499900       0.50000000       0.37499900 </v>
    <v>       0.00088900       0.00000000       0.00088900 </v>
    <v>       0.24686700       0.00000000       0.24686700 </v>
    <v>       0.24947100       0.25554000       0.00484700 </v>
    <v>       0.00484700       0.25554000       0.24947100 </v>
    <v>       0.50022900       0.00000000       0.98625600 </v>
    <v>       0.76374400       0.00000000       0.24977200 </v>
    <v>       0.75355400       0.24727200       0.99644500 </v>
    <v>       0.51143800       0.22809400       0.23856300 </v>
    <v>       0.99997000       0.50000000       0.99997000 </v>
    <v>       0.24947100       0.74446000       0.00484700 </v>
    <v>       0.00484700       0.74446000       0.24947100 </v>
    <v>       0.49877100       0.50000000       0.00321300 </v>
    <v>       0.74678500       0.50000000       0.25123200 </v>
    <v>       0.75355400       0.75272800       0.99644500 </v>
    <v>       0.51143800       0.77190600       0.23856300 </v>
    <v>       0.98625600       0.00000000       0.50022900 </v>
    <v>       0.24977200       0.00000000       0.76374400 </v>
    <v>       0.23856300       0.22809400       0.51143800 </v>
    <v>       0.99644500       0.24727200       0.75355400 </v>
    <v>       0.50313300       0.00000000       0.50313300 </v>
    <v>       0.74911000       0.00000000       0.74911000 </v>
    <v>       0.74515300       0.25554000       0.50052900 </v>
    <v>       0.50052900       0.25554000       0.74515300 </v>
    <v>       0.00321300       0.50000000       0.49877100 </v>
    <v>       0.25123200       0.50000000       0.74678500 </v>
    <v>       0.23856300       0.77190600       0.51143800 </v>
    <v>       0.99644500       0.75272800       0.75355400 </v>
    <v>       0.75003200       0.50000000       0.75003200 </v>
    <v>       0.74515300       0.74446000       0.50052900 </v>
    <v>       0.50052900       0.74446000       0.74515300 </v>
   </varray>
  </structure>
  <varray name="forces" >
   <v>       0.00000000       0.00000000       0.00000000 </v>
   <v>      -0.01543404       0.00000000      -0.01543404 </v>
   <v>       0.01975610       0.00000000       0.01975610 </v>
   <v>       0.04907100       0.07166672       0.04393258 </v>
   <v>       0.04393258       0.07166672       0.04907100 </v>
   <v>       0.02602005       0.00000000       0.04819002 </v>
   <v>      -0.04819002       0.00000000      -0.02602005 </v>
   <v>      -0.01434505       0.05537004       0.01434505 </v>
   <v>      -0.00052502      -0.02318312       0.00052502 </v>
   <v>       0.03057596       0.00000000       0.03057596 </v>
   <v>       0.04907100      -0.07166672       0.04393258 </v>
   <v>       0.04393258      -0.07166672       0.04907100 </v>
   <v>      -0.01898979       0.00000000       0.05066860 </v>
   <v>      -0.05066860       0.00000000       0.01898979 </v>
   <v>      -0.01434505      -0.05537004       0.01434505 </v>
   <v>      -0.00052502       0.02318312       0.00052502 </v>
   <v>       0.04819002       0.00000000       0.02602005 </v>
   <v>      -0.02602005       0.00000000      -0.04819002 </v>
   <v>       0.00052502      -0.02318312      -0.00052502 </v>
   <v>       0.01434505       0.05537004      -0.01434505 </v>
   <v>      -0.01975610       0.00000000      -0.01975610 </v>
   <v>       0.01543404       0.00000000       0.01543404 </v>
   <v>      -0.04393258       0.07166672      -0.04907100 </v>
   <v>      -0.04907100       0.07166672      -0.04393258 </v>
   <v>       0.05066860       0.00000000      -0.01898979 </v>
   <v>       0.01898979       0.00000000      -0.05066860 </v>
   <v>       0.00052502       0.02318312      -0.00052502 </v>
   <v>       0.01434505      -0.05537004      -0.01434505 </v>
   <v>      -0.03057596       0.00000000      -0.03057596 </v>
   <v>      -0.04393258      -0.07166672      -0.04907100 </v>
   <v>      -0.04907100      -0.07166672      -0.04393258 </v>
  </varray>
  <varray name="stress" >
   <v>      -2.92043884       0.00000000       2.59495091 </v>
   <v>       0.00000000      18.39869785       0.00000000 </v>
   <v>       2.59495091       0.00000000      -2.92043884 </v>
  </varray>
  <energy>
   <i name="e_fr_energy">   -112.10872437 </i>
   <i name="e_wo_entrp">   -112.10690208 </i>
   <i name="e_0_energy">     -0.00546687 </i>
  </energy>
  <kpoints>
   <generation param="Monkhorst-Pack">
    <v type="int" name="divisions">       2        2        2 </v>
    <v name="usershift">      0.00000000       0.00000000       0.00000000 </v>
    <v name="genvec1">      0.50000000       0.00000000       0.00000000 </v>
    <v name="genvec2">      0.00000000       0.50000000       0.00000000 </v>
    <v name="genvec3">      0.00000000       0.00000000       0.50000000 </v>
    <v name="shift">      0.50000000       0.50000000       0.50000000 </v>
   </generation>
   <varray name="kpointlist" >
    <v>       0.25000000       0.25000000       0.25000000 </v>
    <v>      -0.25000000       0.25000000       0.25000000 </v>
   </varray>
   <varray name="weights" >
    <v>       0.50000000 </v>
    <v>       0.50000000 </v>
   </varray>
  </kpoints>
  <time name="totalsc">  893.76  326.01</time>
 </calculation>
 <calculation>
  <scstep>
   <time name="diag">    4.66    2.96</time>
   <time name="diis">   41.77   12.20</time>
   <time name="orth">    0.33    0.08</time>
   <time name="total">   50.57   18.84</time>
   <energy>
    <i name="alphaZ">     -7.38312591 </i>
    <i name="ewald">  -2176.43850747 </i>
    <i name="hartreedc">    -32.08499930 </i>
    <i name="XCdc">   -792.79974157 </i>
    <i name="pawpsdc">   1084.35815599 </i>
    <i name="pawaedc">   -115.13483671 </i>
    <i name="eentropy">     -0.00547581 </i>
    <i name="bandstr">    298.24858601 </i>
    <i name="atom">   1629.13144109 </i>
    <i name="e_fr_energy">   -112.10850367 </i>
    <i name="e_wo_entrp">   -112.10302787 </i>
    <i name="e_0_energy">   -112.10667840 </i>
   </energy>
  </scstep>
  <scstep>
   <time name="diag">    4.65    2.95</time>
   <time name="diis">   47.68   13.54</time>
   <time name="orth">    0.33    0.08</time>
   <time name="total">   56.37   20.19</time>
   <energy>
    <i name="e_fr_energy">   -112.10850648 </i>
    <i name="e_wo_entrp">   -112.10303028 </i>
    <i name="e_0_energy">   -112.10668108 </i>
   </energy>
  </scstep>
  <scstep>
   <time name="diag">    4.65    2.95</time>
   <time name="diis">   41.08   12.04</time>
   <time name="orth">    0.33    0.08</time>
   <time name="total">   49.79   18.69</time>
   <energy>
    <i name="e_fr_energy">   -112.10850673 </i>
    <i name="e_wo_entrp">   -112.10303171 </i>
    <i name="e_0_energy">   -112.10668172 </i>
   </energy>
  </scstep>
  <scstep>
   <time name="diag">    4.65    2.95</time>
   <time name="diis">   30.04    8.93</time>
   <time name="orth">    0.33    0.08</time>
   <time name="total">   37.01   13.90</time>
   <energy>
    <i name="alphaZ">     -7.38312591 </i>
    <i name="ewald">  -2176.43850747 </i>
    <i name="hartreedc">    -32.08540914 </i>
    <i name="XCdc">   -792.79981904 </i>
    <i name="pawpsdc">   1084.35475109 </i>
    <i name="pawaedc">   -115.13136512 </i>
    <i name="eentropy">     -0.00547584 </i>
    <i name="bandstr">    298.24900335 </i>
    <i name="atom">   1629.13144109 </i>
    <i name="e_fr_energy">   -112.10850701 </i>
    <i name="e_wo_entrp">   -112.10303117 </i>
    <i name="e_0_energy">   -112.10668173 </i>
   </energy>
  </scstep>
  <structure>
   <crystal>
    <varray name="basis" >
     <v>       8.08705400       0.00000000       0.00000000 </v>
     <v>       0.00000000       8.08705400       0.00000000 </v>
     <v>       0.00000000       0.00000000       8.08705400 </v>
    </varray>
    <i name="volume">    528.89690930 </i>
    <varray name="rec_basis" >
     <v>       0.12365442       0.00000000       0.00000000 </v>
     <v>       0.00000000       0.12365442       0.00000000 </v>
     <v>       0.00000000       0.00000000       0.12365442 </v>
    </varray>
   </crystal>
   <varray name="positions" >
    <v>       0.37685382       0.50000000       0.37499900 </v>
    <v>       0.00088900       0.00000000       0.00088900 </v>
    <v>       0.24686700       0.00000000       0.24686700 </v>
    <v>       0.24947100       0.25554000       0.00484700 </v>
    <v>       0.00484700       0.25554000       0.24947100 </v>
    <v>       0.50022900       0.00000000       0.98625600 </v>
    <v>       0.76374400       0.00000000       0.24977200 </v>
    <v>       0.75355400       0.24727200       0.99644500 </v>
    <v>       0.51143800       0.22809400       0.23856300 </v>
    <v>       0.99997000       0.50000000       0.99997000 </v>
    <v>       0.24947100       0.74446000       0.00484700 </v>
    <v>       0.00484700       0.74446000       0.24947100 </v>
    <v>       0.49877100       0.50000000       0.00321300 </v>
    <v>       0.74678500       0.50000000       0.25123200 </v>
    <v>       0.75355400       0.75272800       0.99644500 </v>
    <v>       0.51143800       0.77190600       0.23856300 </v>
    <v>       0.98625600       0.00000000       0.50022900 </v>
    <v>       0.24977200       0.00000000       0.76374400 </v>
    <v>       0.23856300       0.22809400       0.51143800 </v>
    <v>       0.99644500       0.24727200       0.75355400 </v>
    <v>       0.50313300       0.00000000       0.50313300 </v>
    <v>       0.74911000       0.00000000       0.74911000 </v>
    <v>       0.74515300       0.25554000       0.50052900 </v>
    <v>       0.50052900       0.25554000       0.74515300 </v>
    <v>       0.00321300       0.50000000       0.49877100 </v>
    <v>       0.25123200       0.50000000       0.74678500 </v>
    <v>       0.23856300       0.77190600       0.51143800 </v>
    <v>       0.99644500       0.75272800       0.75355400 </v>
    <v>       0.75003200       0.50000000       0.75003200 </v>
    <v>       0.74515300       0.74446000       0.50052900 </v>
    <v>       0.50052900       0.74446000       0.74515300 </v>
   </varray>
  </structure>
  <varray name="forces" >
   <v>      -0.02904954       0.00000000       0.04395296 </v>
   <v>      -0.01614924       0.00000000      -0.01515964 </v>
   <v>       0.02054946       0.00000000       0.01953436 </v>
   <v>       0.04915817       0.07143732       0.04430465 </v>
   <v>       0.04377488       0.07231972       0.05002480 </v>
   <v>       0.02588533       0.00000000       0.04705761 </v>
   <v>      -0.04778669       0.00000000      -0.02546506 </v>
   <v>      -0.01437270       0.05483397       0.01336579 </v>
   <v>       0.00327122      -0.03985512      -0.00740336 </v>
   <v>       0.03045363       0.00000000       0.03075228 </v>
   <v>       0.04915817      -0.07143732       0.04430465 </v>
   <v>       0.04377488      -0.07231972       0.05002480 </v>
   <v>      -0.01803310       0.00000000       0.04748589 </v>
   <v>      -0.04468535       0.00000000       0.01576269 </v>
   <v>      -0.01437270      -0.05483397       0.01336579 </v>
   <v>       0.00327122       0.03985512      -0.00740336 </v>
   <v>       0.04862817       0.00000000       0.02662807 </v>
   <v>      -0.02617755       0.00000000      -0.04936760 </v>
   <v>       0.00457306      -0.00654507      -0.00846065 </v>
   <v>       0.01430377       0.05591992      -0.01531165 </v>
   <v>      -0.01905948       0.00000000      -0.02003318 </v>
   <v>       0.01472781       0.00000000       0.01570956 </v>
   <v>      -0.04412405       0.07109801      -0.04811894 </v>
   <v>      -0.04901119       0.07197555      -0.04361929 </v>
   <v>       0.05630978       0.00000000      -0.02206921 </v>
   <v>       0.01999360       0.00000000      -0.05390855 </v>
   <v>       0.00457306       0.00654507      -0.00846065 </v>
   <v>       0.01430377      -0.05591992      -0.01531165 </v>
   <v>      -0.03075317       0.00000000      -0.03044288 </v>
   <v>      -0.04412405      -0.07109801      -0.04811894 </v>
   <v>      -0.04901119      -0.07197555      -0.04361929 </v>
  </varray>
  <varray name="stress" >
   <v>      -2.92245997       0.00000000       2.59528249 </v>
   <v>       0.00000000      18.39751558       0.00000000 </v>
   <v>       2.59527720       0.00000000      -2.92257951 </v>
  </varray>
  <energy>
   <i name="e_fr_energy">   -112.10850701 </i>
   <i name="e_wo_entrp">   -112.10668173 </i>
   <i name="e_0_energy">     -0.00547584 </i>
  </energy>
  <kpoints>
   <generation param="Monkhorst-Pack">
    <v type="int" name="divisions">       2        2        2 </v>
    <v name="usershift">      0.00000000       0.00000000       0.00000000 </v>
    <v name="genvec1">      0.50000000       0.00000000       0.00000000 </v>
    <v name="genvec2">      0.00000000       0.50000000       0.00000000 </v>
    <v name="genvec3">      0.00000000       0.00000000       0.50000000 </v>
    <v name="shift">      0.50000000       0.50000000       0.50000000 </v>
   </generation>
   <varray name="kpointlist" >
    <v>       0.25000000       0.25000000       0.25000000 </v>
    <v>      -0.25000000       0.25000000       0.25000000 </v>
   </varray>
   <varray name="weights" >
    <v>       0.50000000 </v>
    <v>       0.50000000 </v>
   </varray>
  </kpoints>
  <time name="totalsc">  251.95   98.04</time>
 </calculation>
 <calculation>
  <scstep>
   <time name="diag">    4.66    2.97</time>
   <time name="diis">   41.56   12.19</time>
   <time name="orth">    0.33    0.08</time>
   <time name="total">   50.38   18.87</time>
   <energy>
    <i name="alphaZ">     -7.38312591 </i>
    <i name="ewald">  -2176.43851179 </i>
    <i name="hartreedc">    -32.08520940 </i>
    <i name="XCdc">   -792.79979732 </i>
    <i name="pawpsdc">   1084.35412707 </i>
    <i name="pawaedc">   -115.13073004 </i>
    <i name="eentropy">     -0.00547951 </i>
    <i name="bandstr">    298.24878946 </i>
    <i name="atom">   1629.13144109 </i>
    <i name="e_fr_energy">   -112.10849636 </i>
    <i name="e_wo_entrp">   -112.10301685 </i>
    <i name="e_0_energy">   -112.10666985 </i>
   </energy>
  </scstep>
  <scstep>
   <time name="diag">    4.66    2.96</time>
   <time name="diis">   48.00   13.62</time>
   <time name="orth">    0.33    0.08</time>
   <time name="total">   56.72   20.30</time>
   <energy>
    <i name="e_fr_energy">   -112.10850508 </i>
    <i name="e_wo_entrp">   -112.10302152 </i>
    <i name="e_0_energy">   -112.10667723 </i>
   </energy>
  </scstep>
  <scstep>
   <time name="diag">    4.66    2.97</time>
   <time name="diis">   41.41   12.11</time>
   <time name="orth">    0.33    0.08</time>
   <time name="total">   50.13   18.77</time>
   <energy>
    <i name="e_fr_energy">   -112.10850558 </i>
    <i name="e_wo_entrp">   -112.10303326 </i>
    <i name="e_0_energy">   -112.10668147 </i>
   </energy>
  </scstep>
  <scstep>
   <time name="diag">    4.66    2.96</time>
   <time name="diis">   42.13   12.07</time>
   <time name="orth">    0.33    0.08</time>
   <time name="total">   50.93   18.75</time>
   <energy>
    <i name="e_fr_energy">   -112.10850647 </i>
    <i name="e_wo_entrp">   -112.10302972 </i>
    <i name="e_0_energy">   -112.10668089 </i>
   </energy>
  </scstep>
  <scstep>
   <time name="diag">    4.66    2.96</time>
   <time name="diis">   29.65    8.88</time>
   <time name="orth">    0.33    0.08</time>
   <time name="total">   38.52   15.56</time>
   <energy>
    <i name="e_fr_energy">   -112.10850795 </i>
    <i name="e_wo_entrp">   -112.10303299 </i>
    <i name="e_0_energy">   -112.10668296 </i>
   </energy>
  </scstep>
  <scstep>
   <time name="diag">    4.66    2.96</time>
   <time name="diis">   24.20    7.47</time>
   <time name="orth">    0.33    0.08</time>
   <time name="total">   31.26   12.45</time>
   <energy>
    <i name="alphaZ">     -7.38312591 </i>
    <i name="ewald">  -2176.43851179 </i>
    <i name="hartreedc">    -32.08539689 </i>
    <i name="XCdc">   -792.79983533 </i>
    <i name="pawpsdc">   1084.35397836 </i>
    <i name="pawaedc">   -115.13057944 </i>
    <i name="eentropy">     -0.00547567 </i>
    <i name="bandstr">    298.24899771 </i>
    <i name="atom">   1629.13144109 </i>
    <i name="e_fr_energy">   -112.10850788 </i>
    <i name="e_wo_entrp">   -112.10303221 </i>
    <i name="e_0_energy">   -112.10668266 </i>
   </energy>
  </scstep>
  <structure>
   <crystal>
    <varray name="basis" >
     <v>       8.08705400       0.00000000       0.00000000 </v>
     <v>       0.00000000       8.08705400       0.00000000 </v>
     <v>       0.00000000       0.00000000       8.08705400 </v>
    </varray>
    <i name="volume">    528.89690930 </i>
    <varray name="rec_basis" >
     <v>       0.12365442       0.00000000       0.00000000 </v>
     <v>       0.00000000       0.12365442       0.00000000 </v>
     <v>       0.00000000       0.00000000       0.12365442 </v>
    </varray>
   </crystal>
   <varray name="positions" >
    <v>       0.37314418       0.50000000       0.37499900 </v>
    <v>       0.00088900       0.00000000       0.00088900 </v>
    <v>       0.24686700       0.00000000       0.24686700 </v>
    <v>       0.24947100       0.25554000       0.00484700 </v>
    <v>       0.00484700       0.25554000       0.24947100 </v>
    <v>       0.50022900       0.00000000       0.98625600 </v>
    <v>       0.76374400       0.00000000       0.24977200 </v>
    <v>       0.75355400       0.24727200       0.99644500 </v>
    <v>       0.51143800       0.22809400       0.23856300 </v>
    <v>       0.99997000       0.50000000       0.99997000 </v>
    <v>       0.24947100       0.74446000       0.00484700 </v>
    <v>       0.00484700       0.74446000       0.24947100 </v>
    <v>       0.49877100       0.50000000       0.00321300 </v>
    <v>       0.74678500       0.50000000       0.25123200 </v>
    <v>       0.75355400       0.75272800       0.99644500 </v>
    <v>       0.51143800       0.77190600       0.23856300 </v>
    <v>       0.98625600       0.00000000       0.50022900 </v>
    <v>       0.24977200       0.00000000       0.76374400 </v>
    <v>       0.23856300       0.22809400       0.51143800 </v>
    <v>       0.99644500       0.24727200       0.75355400 </v>
    <v>       0.50313300       0.00000000       0.50313300 </v>
    <v>       0.74911000       0.00000000       0.74911000 </v>
    <v>       0.74515300       0.25554000       0.50052900 </v>
    <v>       0.50052900       0.25554000       0.74515300 </v>
    <v>       0.00321300       0.50000000       0.49877100 </v>
    <v>       0.25123200       0.50000000       0.74678500 </v>
    <v>       0.23856300       0.77190600       0.51143800 </v>
    <v>       0.99644500       0.75272800       0.75355400 </v>
    <v>       0.75003200       0.50000000       0.75003200 </v>
    <v>       0.74515300       0.74446000       0.50052900 </v>
    <v>       0.50052900       0.74446000       0.74515300 </v>
   </varray>
  </structure>
  <varray name="forces" >
   <v>       0.02900464       0.00000000      -0.04402774 </v>
   <v>      -0.01468488       0.00000000      -0.01570837 </v>
   <v>       0.01907534       0.00000000       0.01999854 </v>
   <v>       0.04903645       0.07194806       0.04361859 </v>
   <v>       0.04410707       0.07111123       0.04813400 </v>
   <v>       0.02611663       0.00000000       0.04940148 </v>
   <v>      -0.04859524       0.00000000      -0.02665818 </v>
   <v>      -0.01423731       0.05594188       0.01535585 </v>
   <v>      -0.00459741      -0.00648374       0.00846109 </v>
   <v>       0.03067538       0.00000000       0.03045153 </v>
   <v>       0.04903645      -0.07194806       0.04361859 </v>
   <v>       0.04410707      -0.07111123       0.04813400 </v>
   <v>      -0.02002663       0.00000000       0.05396490 </v>
   <v>      -0.05631594       0.00000000       0.02197096 </v>
   <v>      -0.01423731      -0.05594188       0.01535585 </v>
   <v>      -0.00459741       0.00648374       0.00846109 </v>
   <v>       0.04782754       0.00000000       0.02543627 </v>
   <v>      -0.02594333       0.00000000      -0.04702388 </v>
   <v>      -0.00330143      -0.03991760       0.00740391 </v>
   <v>       0.01444092       0.05481402      -0.01332546 </v>
   <v>      -0.02052851       0.00000000      -0.01956433 </v>
   <v>       0.01619364       0.00000000       0.01515472 </v>
   <v>      -0.04378995       0.07230625      -0.05001193 </v>
   <v>      -0.04912918       0.07145357      -0.04430703 </v>
   <v>       0.04467238       0.00000000      -0.01586941 </v>
   <v>       0.01799407       0.00000000      -0.04743480 </v>
   <v>      -0.00330143       0.03991760       0.00740391 </v>
   <v>       0.01444092      -0.05481402      -0.01332546 </v>
   <v>      -0.03052340       0.00000000      -0.03074972 </v>
   <v>      -0.04378995      -0.07230625      -0.05001193 </v>
   <v>      -0.04912918      -0.07145357      -0.04430703 </v>
  </varray>
  <varray name="stress" >
   <v>      -2.92262295       0.00000000       2.59528624 </v>
   <v>       0.00000000      18.39734904       0.00000000 </v>
   <v>       2.59527929       0.00000000      -2.92274002 </v>
  </varray>
  <energy>
   <i name="e_fr_energy">   -112.10850788 </i>
   <i name="e_wo_entrp">   -112.10668266 </i>
   <i name="e_0_energy">     -0.00547567 </i>
  </energy>
  <kpoints>
   <generation param="Monkhorst-Pack">
    <v type="int" name="divisions">       2        2        2 </v>
    <v name="usershift">      0.00000000       0.00000000       0.00000000 </v>
    <v name="genvec1">      0.50000000       0.00000000       0.00000000 </v>
    <v name="genvec2">      0.00000000       0.50000000       0.00000000 </v>
    <v name="genvec3">      0.00000000       0.00000000       0.50000000 </v>
    <v name="shift">      0.50000000       0.50000000       0.50000000 </v>
   </generation>
   <varray name="kpointlist" >
    <v>       0.25000000       0.25000000       0.25000000 </v>
    <v>      -0.25000000       0.25000000       0.25000000 </v>
   </varray>
   <varray name="weights" >
    <v>       0.50000000 </v>
    <v>       0.50000000 </v>
   </varray>
  </kpoints>
  <time name="totalsc">  336.05  131.08</time>
 </calculation>
 <calculation>
  <scstep>
   <time name="diag">    4.66    2.96</time>
   <time name="diis">   41.58   12.18</time>
   <time name="orth">    0.33    0.08</time>
   <time name="total">   50.36   18.84</time>
   <energy>
    <i name="alphaZ">     -7.38312591 </i>
    <i name="ewald">  -2176.43715496 </i>
    <i name="hartreedc">    -32.08567551 </i>
    <i name="XCdc">   -792.79986823 </i>
    <i name="pawpsdc">   1084.35397906 </i>
    <i name="pawaedc">   -115.13057972 </i>
    <i name="eentropy">     -0.00549148 </i>
    <i name="bandstr">    298.24867050 </i>
    <i name="atom">   1629.13144109 </i>
    <i name="e_fr_energy">   -112.10780516 </i>
    <i name="e_wo_entrp">   -112.10231368 </i>
    <i name="e_0_energy">   -112.10597467 </i>
   </energy>
  </scstep>
  <scstep>
   <time name="diag">    4.66    2.96</time>
   <time name="diis">   47.94   13.49</time>
   <time name="orth">    0.33    0.08</time>
   <time name="total">   56.67   20.17</time>
   <energy>
    <i name="e_fr_energy">   -112.10780230 </i>
    <i name="e_wo_entrp">   -112.10231448 </i>
    <i name="e_0_energy">   -112.10597302 </i>
   </energy>
  </scstep>
  <scstep>
   <time name="diag">    4.66    2.96</time>
   <time name="diis">   41.58   12.13</time>
   <time name="orth">    0.33    0.08</time>
   <time name="total">   50.34   18.84</time>
   <energy>
    <i name="e_fr_energy">   -112.10779102 </i>
    <i name="e_wo_entrp">   -112.10231294 </i>
    <i name="e_0_energy">   -112.10596499 </i>
   </energy>
  </scstep>
  <scstep>
   <time name="diag">    4.65    2.96</time>
   <time name="diis">   39.17   11.35</time>
   <time name="orth">    0.33    0.08</time>
   <time name="total">   47.95   18.02</time>
   <energy>
    <i name="e_fr_energy">   -112.10778831 </i>
    <i name="e_wo_entrp">   -112.10230659 </i>
    <i name="e_0_energy">   -112.10596107 </i>
   </energy>
  </scstep>
  <scstep>
   <time name="diag">    4.66    2.96</time>
   <time name="diis">   33.00    9.79</time>
   <time name="orth">    0.33    0.08</time>
   <time name="total">   41.86   16.47</time>
   <energy>
    <i name="e_fr_energy">   -112.10778617 </i>
    <i name="e_wo_entrp">   -112.10230607 </i>
    <i name="e_0_energy">   -112.10595947 </i>
   </energy>
  </scstep>
  <scstep>
   <time name="diag">    4.66    2.97</time>
   <time name="diis">   24.89    7.64</time>
   <time name="orth">    0.33    0.08</time>
   <time name="total">   31.97   12.63</time>
   <energy>
    <i name="alphaZ">     -7.38312591 </i>
    <i name="ewald">  -2176.43715496 </i>
    <i name="hartreedc">    -32.08600379 </i>
    <i name="XCdc">   -792.79982659 </i>
    <i name="pawpsdc">   1084.35448290 </i>
    <i name="pawaedc">   -115.13112332 </i>
    <i name="eentropy">     -0.00548108 </i>
    <i name="bandstr">    298.24900610 </i>
    <i name="atom">   1629.13144109 </i>
    <i name="e_fr_energy">   -112.10778557 </i>
    <i name="e_wo_entrp">   -112.10230449 </i>
    <i name="e_0_energy">   -112.10595854 </i>
   </energy>
  </scstep>
  <structure>
   <crystal>
    <varray name="basis" >
     <v>       8.08705400       0.00000000       0.00000000 </v>
     <v>       0.00000000       8.08705400       0.00000000 </v>
     <v>       0.00000000       0.00000000       8.08705400 </v>
    </varray>
    <i name="volume">    528.89690930 </i>
    <varray name="rec_basis" >
     <v>       0.12365442       0.00000000       0.00000000 </v>
     <v>       0.00000000       0.12365442       0.00000000 </v>
     <v>       0.00000000       0.00000000       0.12365442 </v>
    </varray>
   </crystal>
   <varray name="positions" >
    <v>       0.37499900       0.50185482       0.37499900 </v>
    <v>       0.00088900       0.00000000       0.00088900 </v>
    <v>       0.24686700       0.00000000       0.24686700 </v>
    <v>       0.24947100       0.25554000       0.00484700 </v>
    <v>       0.00484700       0.25554000       0.24947100 </v>
    <v>       0.50022900       0.00000000       0.98625600 </v>
    <v>       0.76374400       0.00000000       0.24977200 </v>
    <v>       0.75355400       0.24727200       0.99644500 </v>
    <v>       0.51143800       0.22809400       0.23856300 </v>
    <v>       0.99997000       0.50000000       0.99997000 </v>
    <v>       0.24947100       0.74446000       0.00484700 </v>
    <v>       0.00484700       0.74446000       0.24947100 </v>
    <v>       0.49877100       0.50000000       0.00321300 </v>
    <v>       0.74678500       0.50000000       0.25123200 </v>
    <v>       0.75355400       0.75272800       0.99644500 </v>
    <v>       0.51143800       0.77190600       0.23856300 </v>
    <v>       0.98625600       0.00000000       0.50022900 </v>
    <v>       0.24977200       0.00000000       0.76374400 </v>
    <v>       0.23856300       0.22809400       0.51143800 </v>
    <v>       0.99644500       0.24727200       0.75355400 </v>
    <v>       0.50313300       0.00000000       0.50313300 </v>
    <v>       0.74911000       0.00000000       0.74911000 </v>
    <v>       0.74515300       0.25554000       0.50052900 </v>
    <v>       0.50052900       0.25554000       0.74515300 </v>
    <v>       0.00321300       0.50000000       0.49877100 </v>
    <v>       0.25123200       0.50000000       0.74678500 </v>
    <v>       0.23856300       0.77190600       0.51143800 </v>
    <v>       0.99644500       0.75272800       0.75355400 </v>
    <v>       0.75003200       0.50000000       0.75003200 </v>
    <v>       0.74515300       0.74446000       0.50052900 </v>
    <v>       0.50052900       0.74446000       0.74515300 </v>
   </varray>
  </structure>
  <varray name="forces" >
   <v>       0.00000000      -0.12521712       0.00000000 </v>
   <v>      -0.01543728      -0.00155882      -0.01543728 </v>
   <v>       0.01977138       0.00236382       0.01977138 </v>
   <v>       0.04877457       0.07231787       0.04423069 </v>
   <v>       0.04423069       0.07231787       0.04877457 </v>
   <v>       0.02603614      -0.00070545       0.04820790 </v>
   <v>      -0.04820790      -0.00070545      -0.02603614 </v>
   <v>      -0.01514858       0.05645210       0.01514858 </v>
   <v>      -0.01799354       0.00738827       0.01799354 </v>
   <v>       0.03061399      -0.00176786       0.03061399 </v>
   <v>       0.04935119      -0.07110863       0.04369053 </v>
   <v>       0.04369053      -0.07110863       0.04935119 </v>
   <v>      -0.01900018      -0.00081455       0.05071458 </v>
   <v>      -0.05071458      -0.00081455       0.01900018 </v>
   <v>      -0.01353568      -0.05433203       0.01353568 </v>
   <v>       0.01760235       0.05468460      -0.01760235 </v>
   <v>       0.04820790      -0.00070545       0.02603614 </v>
   <v>      -0.02603614      -0.00070545      -0.04820790 </v>
   <v>       0.01799354       0.00738827      -0.01799354 </v>
   <v>       0.01514858       0.05645210      -0.01514858 </v>
   <v>      -0.01977138       0.00236382      -0.01977138 </v>
   <v>       0.01543728      -0.00155882       0.01543728 </v>
   <v>      -0.04423069       0.07231787      -0.04877457 </v>
   <v>      -0.04877457       0.07231787      -0.04423069 </v>
   <v>       0.05071458      -0.00081455      -0.01900018 </v>
   <v>       0.01900018      -0.00081455      -0.05071458 </v>
   <v>      -0.01760235       0.05468460       0.01760235 </v>
   <v>       0.01353568      -0.05433203      -0.01353568 </v>
   <v>      -0.03061399      -0.00176786      -0.03061399 </v>
   <v>      -0.04369053      -0.07110863      -0.04935119 </v>
   <v>      -0.04935119      -0.07110863      -0.04369053 </v>
  </varray>
  <varray name="stress" >
   <v>      -2.91898395       0.00000000       2.58826594 </v>
   <v>       0.00000000      18.40268171       0.00000000 </v>
   <v>       2.58826594       0.00000000      -2.91898395 </v>
  </varray>
  <energy>
   <i name="e_fr_energy">   -112.10778557 </i>
   <i name="e_wo_entrp">   -112.10595854 </i>
   <i name="e_0_energy">     -0.00548108 </i>
  </energy>
  <kpoints>
   <generation param="Monkhorst-Pack">
    <v type="int" name="divisions">       2        2        2 </v>
    <v name="usershift">      0.00000000       0.00000000       0.00000000 </v>
    <v name="genvec1">      0.50000000       0.00000000       0.00000000 </v>
    <v name="genvec2">      0.00000000       0.50000000       0.00000000 </v>
    <v name="genvec3">      0.00000000       0.00000000       0.50000000 </v>
    <v name="shift">      0.50000000       0.50000000       0.50000000 </v>
   </generation>
   <varray name="kpointlist" >
    <v>       0.25000000       0.25000000       0.25000000 </v>
    <v>      -0.25000000       0.25000000       0.25000000 </v>
   </varray>
   <varray name="weights" >
    <v>       0.50000000 </v>
    <v>       0.50000000 </v>
   </varray>
  </kpoints>
  <time name="totalsc">  337.65  131.47</time>
 </calculation>
 <calculation>
  <scstep>
   <time name="diag">    4.66    2.96</time>
   <time name="diis">   41.66   12.14</time>
   <time name="orth">    0.33    0.08</time>
   <time name="total">   50.70   18.98</time>
   <energy>
    <i name="alphaZ">     -7.38312591 </i>
    <i name="ewald">  -2176.43715496 </i>
    <i name="hartreedc">    -32.08562252 </i>
    <i name="XCdc">   -792.79989314 </i>
    <i name="pawpsdc">   1084.35447754 </i>
    <i name="pawaedc">   -115.13111747 </i>
    <i name="eentropy">     -0.00549245 </i>
    <i name="bandstr">    298.24860195 </i>
    <i name="atom">   1629.13144109 </i>
    <i name="e_fr_energy">   -112.10788588 </i>
    <i name="e_wo_entrp">   -112.10239343 </i>
    <i name="e_0_energy">   -112.10605506 </i>
   </energy>
  </scstep>
  <scstep>
   <time name="diag">    4.66    2.96</time>
   <time name="diis">   45.62   13.02</time>
   <time name="orth">    0.33    0.08</time>
   <time name="total">   54.58   19.93</time>
   <energy>
    <i name="e_fr_energy">   -112.10780313 </i>
    <i name="e_wo_entrp">   -112.10231206 </i>
    <i name="e_0_energy">   -112.10597278 </i>
   </energy>
  </scstep>
  <scstep>
   <time name="diag">    4.65    2.96</time>
   <time name="diis">   41.52   12.12</time>
   <time name="orth">    0.33    0.08</time>
   <time name="total">   50.25   18.80</time>
   <energy>
    <i name="e_fr_energy">   -112.10778377 </i>
    <i name="e_wo_entrp">   -112.10230726 </i>
    <i name="e_0_energy">   -112.10595827 </i>
   </energy>
  </scstep>
  <scstep>
   <time name="diag">    4.65    2.96</time>
   <time name="diis">   42.94   12.25</time>
   <time name="orth">    0.33    0.08</time>
   <time name="total">   51.74   18.93</time>
   <energy>
    <i name="e_fr_energy">   -112.10778503 </i>
    <i name="e_wo_entrp">   -112.10230312 </i>
    <i name="e_0_energy">   -112.10595773 </i>
   </energy>
  </scstep>
  <scstep>
   <time name="diag">    4.65    2.96</time>
   <time name="diis">   29.67    8.80</time>
   <time name="orth">    0.33    0.08</time>
   <time name="total">   36.74   13.80</time>
   <energy>
    <i name="alphaZ">     -7.38312591 </i>
    <i name="ewald">  -2176.43715496 </i>
    <i name="hartreedc">    -32.08595664 </i>
    <i name="XCdc">   -792.79982808 </i>
    <i name="pawpsdc">   1084.35446744 </i>
    <i name="pawaedc">   -115.13110865 </i>
    <i name="eentropy">     -0.00547967 </i>
    <i name="bandstr">    298.24895957 </i>
    <i name="atom">   1629.13144109 </i>
    <i name="e_fr_energy">   -112.10778582 </i>
    <i name="e_wo_entrp">   -112.10230615 </i>
    <i name="e_0_energy">   -112.10595927 </i>
   </energy>
  </scstep>
  <structure>
   <crystal>
    <varray name="basis" >
     <v>       8.08705400       0.00000000       0.00000000 </v>
     <v>       0.00000000       8.08705400       0.00000000 </v>
     <v>       0.00000000       0.00000000       8.08705400 </v>
    </varray>
    <i name="volume">    528.89690930 </i>
    <varray name="rec_basis" >
     <v>       0.12365442       0.00000000       0.00000000 </v>
     <v>       0.00000000       0.12365442       0.00000000 </v>
     <v>       0.00000000       0.00000000       0.12365442 </v>
    </varray>
   </crystal>
   <varray name="positions" >
    <v>       0.37499900       0.49814518       0.37499900 </v>
    <v>       0.00088900       0.00000000       0.00088900 </v>
    <v>       0.24686700       0.00000000       0.24686700 </v>
    <v>       0.24947100       0.25554000       0.00484700 </v>
    <v>       0.00484700       0.25554000       0.24947100 </v>
    <v>       0.50022900       0.00000000       0.98625600 </v>
    <v>       0.76374400       0.00000000       0.24977200 </v>
    <v>       0.75355400       0.24727200       0.99644500 </v>
    <v>       0.51143800       0.22809400       0.23856300 </v>
    <v>       0.99997000       0.50000000       0.99997000 </v>
    <v>       0.24947100       0.74446000       0.00484700 </v>
    <v>       0.00484700       0.74446000       0.24947100 </v>
    <v>       0.49877100       0.50000000       0.00321300 </v>
    <v>       0.74678500       0.50000000       0.25123200 </v>
    <v>       0.75355400       0.75272800       0.99644500 </v>
    <v>       0.51143800       0.77190600       0.23856300 </v>
    <v>       0.98625600       0.00000000       0.50022900 </v>
    <v>       0.24977200       0.00000000       0.76374400 </v>
    <v>       0.23856300       0.22809400       0.51143800 </v>
    <v>       0.99644500       0.24727200       0.75355400 </v>
    <v>       0.50313300       0.00000000       0.50313300 </v>
    <v>       0.74911000       0.00000000       0.74911000 </v>
    <v>       0.74515300       0.25554000       0.50052900 </v>
    <v>       0.50052900       0.25554000       0.74515300 </v>
    <v>       0.00321300       0.50000000       0.49877100 </v>
    <v>       0.25123200       0.50000000       0.74678500 </v>
    <v>       0.23856300       0.77190600       0.51143800 </v>
    <v>       0.99644500       0.75272800       0.75355400 </v>
    <v>       0.75003200       0.50000000       0.75003200 </v>
    <v>       0.74515300       0.74446000       0.50052900 </v>
    <v>       0.50052900       0.74446000       0.74515300 </v>
   </varray>
  </structure>
  <varray name="forces" >
   <v>       0.00000000       0.12563742       0.00000000 </v>
   <v>      -0.01543986       0.00149530      -0.01543986 </v>
   <v>       0.01976919      -0.00242085       0.01976919 </v>
   <v>       0.04935917       0.07110022       0.04363038 </v>
   <v>       0.04363038       0.07110022       0.04935917 </v>
   <v>       0.02603511       0.00073557       0.04820593 </v>
   <v>      -0.04820593       0.00073557      -0.02603511 </v>
   <v>      -0.01356475       0.05436850       0.01356475 </v>
   <v>       0.01771610      -0.05480009      -0.01771610 </v>
   <v>       0.03061524       0.00174077       0.03061524 </v>
   <v>       0.04876441      -0.07232380       0.04428890 </v>
   <v>       0.04428890      -0.07232380       0.04876441 </v>
   <v>      -0.01900015       0.00084063       0.05071050 </v>
   <v>      -0.05071050       0.00084063       0.01900015 </v>
   <v>      -0.01511773      -0.05641318       0.01511773 </v>
   <v>      -0.01809920      -0.00749441       0.01809920 </v>
   <v>       0.04820593       0.00073557       0.02603511 </v>
   <v>      -0.02603511       0.00073557      -0.04820593 </v>
   <v>      -0.01771610      -0.05480009       0.01771610 </v>
   <v>       0.01356475       0.05436850      -0.01356475 </v>
   <v>      -0.01976919      -0.00242085      -0.01976919 </v>
   <v>       0.01543986       0.00149530       0.01543986 </v>
   <v>      -0.04363038       0.07110022      -0.04935917 </v>
   <v>      -0.04935917       0.07110022      -0.04363038 </v>
   <v>       0.05071050       0.00084063      -0.01900015 </v>
   <v>       0.01900015       0.00084063      -0.05071050 </v>
   <v>       0.01809920      -0.00749441      -0.01809920 </v>
   <v>       0.01511773      -0.05641318      -0.01511773 </v>
   <v>      -0.03061524       0.00174077      -0.03061524 </v>
   <v>      -0.04428890      -0.07232380      -0.04876441 </v>
   <v>      -0.04876441      -0.07232380      -0.04428890 </v>
  </varray>
  <varray name="stress" >
   <v>      -2.91890464       0.00000000       2.58825950 </v>
   <v>       0.00000000      18.40265806       0.00000000 </v>
   <v>       2.58825950       0.00000000      -2.91890464 </v>
  </varray>
  <energy>
   <i name="e_fr_energy">   -112.10778582 </i>
   <i name="e_wo_entrp">   -112.10595927 </i>
   <i name="e_0_energy">     -0.00547967 </i>
  </energy>
  <kpoints>
   <generation param="Monkhorst-Pack">
    <v type="int" name="divisions">       2        2        2 </v>
    <v name="usershift">      0.00000000       0.00000000       0.00000000 </v>
    <v name="genvec1">      0.50000000       0.00000000       0.00000000 </v>
    <v name="genvec2">      0.00000000       0.50000000       0.00000000 </v>
    <v name="genvec3">      0.00000000       0.00000000       0.50000000 </v>
    <v name="shift">      0.50000000       0.50000000       0.50000000 </v>
   </generation>
   <varray name="kpointlist" >
    <v>       0.25000000       0.25000000       0.25000000 </v>
    <v>      -0.25000000       0.25000000       0.25000000 </v>
   </varray>
   <varray name="weights" >
    <v>       0.50000000 </v>
    <v>       0.50000000 </v>
   </varray>
  </kpoints>
  <time name="totalsc">  302.44  116.92</time>
 </calculation>
 <calculation>
  <scstep>
   <time name="diag">    4.68    2.99</time>
   <time name="diis">   41.94   12.23</time>
   <time name="orth">    0.33    0.08</time>
   <time name="total">   50.84   18.93</time>
   <energy>
    <i name="alphaZ">     -7.38312591 </i>
    <i name="ewald">  -2176.43850747 </i>
    <i name="hartreedc">    -32.08545501 </i>
    <i name="XCdc">   -792.79980870 </i>
    <i name="pawpsdc">   1084.35447465 </i>
    <i name="pawaedc">   -115.13111469 </i>
    <i name="eentropy">     -0.00547288 </i>
    <i name="bandstr">    298.24905025 </i>
    <i name="atom">   1629.13144109 </i>
    <i name="e_fr_energy">   -112.10851867 </i>
    <i name="e_wo_entrp">   -112.10304578 </i>
    <i name="e_0_energy">   -112.10669437 </i>
   </energy>
  </scstep>
  <scstep>
   <time name="diag">    4.66    2.97</time>
   <time name="diis">   48.01   13.57</time>
   <time name="orth">    0.33    0.08</time>
   <time name="total">   56.73   20.26</time>
   <energy>
    <i name="e_fr_energy">   -112.10853107 </i>
    <i name="e_wo_entrp">   -112.10304984 </i>
    <i name="e_0_energy">   -112.10670399 </i>
   </energy>
  </scstep>
  <scstep>
   <time name="diag">    4.66    2.97</time>
   <time name="diis">   41.25   12.09</time>
   <time name="orth">    0.33    0.08</time>
   <time name="total">   49.97   18.78</time>
   <energy>
    <i name="e_fr_energy">   -112.10851393 </i>
    <i name="e_wo_entrp">   -112.10304147 </i>
    <i name="e_0_energy">   -112.10668978 </i>
   </energy>
  </scstep>
  <scstep>
   <time name="diag">    4.66    2.97</time>
   <time name="diis">   38.92   11.26</time>
   <time name="orth">    0.33    0.08</time>
   <time name="total">   47.81   18.04</time>
   <energy>
    <i name="e_fr_energy">   -112.10850998 </i>
    <i name="e_wo_entrp">   -112.10303414 </i>
    <i name="e_0_energy">   -112.10668470 </i>
   </energy>
  </scstep>
  <scstep>
   <time name="diag">    4.67    2.97</time>
   <time name="diis">   34.60   10.15</time>
   <time name="orth">    0.33    0.08</time>
   <time name="total">   43.49   16.85</time>
   <energy>
    <i name="e_fr_energy">   -112.10850802 </i>
    <i name="e_wo_entrp">   -112.10303286 </i>
    <i name="e_0_energy">   -112.10668297 </i>
   </energy>
  </scstep>
  <scstep>
   <time name="diag">    4.66    2.97</time>
   <time name="diis">   28.28    8.48</time>
   <time name="orth">    0.33    0.08</time>
   <time name="total">   35.36   13.48</time>
   <energy>
    <i name="alphaZ">     -7.38312591 </i>
    <i name="ewald">  -2176.43850747 </i>
    <i name="hartreedc">    -32.08540268 </i>
    <i name="XCdc">   -792.79983536 </i>
    <i name="pawpsdc">   1084.35398207 </i>
    <i name="pawaedc">   -115.13058269 </i>
    <i name="eentropy">     -0.00547583 </i>
    <i name="bandstr">    298.24899924 </i>
    <i name="atom">   1629.13144109 </i>
    <i name="e_fr_energy">   -112.10850755 </i>
    <i name="e_wo_entrp">   -112.10303172 </i>
    <i name="e_0_energy">   -112.10668227 </i>
   </energy>
  </scstep>
  <structure>
   <crystal>
    <varray name="basis" >
     <v>       8.08705400       0.00000000       0.00000000 </v>
     <v>       0.00000000       8.08705400       0.00000000 </v>
     <v>       0.00000000       0.00000000       8.08705400 </v>
    </varray>
    <i name="volume">    528.89690930 </i>
    <varray name="rec_basis" >
     <v>       0.12365442       0.00000000       0.00000000 </v>
     <v>       0.00000000       0.12365442       0.00000000 </v>
     <v>       0.00000000       0.00000000       0.12365442 </v>
    </varray>
   </crystal>
   <varray name="positions" >
    <v>       0.37499900       0.50000000       0.37685382 </v>
    <v>       0.00088900       0.00000000       0.00088900 </v>
    <v>       0.24686700       0.00000000       0.24686700 </v>
    <v>       0.24947100       0.25554000       0.00484700 </v>
    <v>       0.00484700       0.25554000       0.24947100 </v>
    <v>       0.50022900       0.00000000       0.98625600 </v>
    <v>       0.76374400       0.00000000       0.24977200 </v>
    <v>       0.75355400       0.24727200       0.99644500 </v>
    <v>       0.51143800       0.22809400       0.23856300 </v>
    <v>       0.99997000       0.50000000       0.99997000 </v>
    <v>       0.24947100       0.74446000       0.00484700 </v>
    <v>       0.00484700       0.74446000       0.24947100 </v>
    <v>       0.49877100       0.50000000       0.00321300 </v>
    <v>       0.74678500       0.50000000       0.25123200 </v>
    <v>       0.75355400       0.75272800       0.99644500 </v>
    <v>       0.51143800       0.77190600       0.23856300 </v>
    <v>       0.98625600       0.00000000       0.50022900 </v>
    <v>       0.24977200       0.00000000       0.76374400 </v>
    <v>       0.23856300       0.22809400       0.51143800 </v>
    <v>       0.99644500       0.24727200       0.75355400 </v>
    <v>       0.50313300       0.00000000       0.50313300 </v>
    <v>       0.74911000       0.00000000       0.74911000 </v>
    <v>       0.74515300       0.25554000       0.50052900 </v>
    <v>       0.50052900       0.25554000       0.74515300 </v>
    <v>       0.00321300       0.50000000       0.49877100 </v>
    <v>       0.25123200       0.50000000       0.74678500 </v>
    <v>       0.23856300       0.77190600       0.51143800 </v>
    <v>       0.99644500       0.75272800       0.75355400 </v>
    <v>       0.75003200       0.50000000       0.75003200 </v>
    <v>       0.74515300       0.74446000       0.50052900 </v>
    <v>       0.50052900       0.74446000       0.74515300 </v>
   </varray>
  </structure>
  <varray name="forces" >
   <v>       0.04392153       0.00000000      -0.02895687 </v>
   <v>      -0.01509887       0.00000000      -0.01616920 </v>
   <v>       0.01954854       0.00000000       0.02051916 </v>
   <v>       0.05001878       0.07231788       0.04377007 </v>
   <v>       0.04431561       0.07145327       0.04915325 </v>
   <v>       0.02660266       0.00000000       0.04863407 </v>
   <v>      -0.04936451       0.00000000      -0.02614229 </v>
   <v>      -0.01529273       0.05594381       0.01427660 </v>
   <v>      -0.00849267      -0.00649631       0.00457368 </v>
   <v>       0.03073291       0.00000000       0.03046599 </v>
   <v>       0.05001878      -0.07231788       0.04377007 </v>
   <v>       0.04431561      -0.07145327       0.04915325 </v>
   <v>      -0.02206308       0.00000000       0.05637417 </v>
   <v>      -0.05391664       0.00000000       0.01994966 </v>
   <v>      -0.01529273      -0.05594381       0.01427660 </v>
   <v>      -0.00849267       0.00649631       0.00457368 </v>
   <v>       0.04706472       0.00000000       0.02591522 </v>
   <v>      -0.02548826       0.00000000      -0.04778936 </v>
   <v>      -0.00743080      -0.03990329       0.00327008 </v>
   <v>       0.01338827       0.05481462      -0.01440045 </v>
   <v>      -0.02001584       0.00000000      -0.01908503 </v>
   <v>       0.01576061       0.00000000       0.01470174 </v>
   <v>      -0.04361380       0.07195196      -0.04901337 </v>
   <v>      -0.04812933       0.07110132      -0.04412649 </v>
   <v>       0.04748186       0.00000000      -0.01807482 </v>
   <v>       0.01577502       0.00000000      -0.04461452 </v>
   <v>      -0.00743080       0.03990329       0.00327008 </v>
   <v>       0.01338827      -0.05481462      -0.01440045 </v>
   <v>      -0.03046730       0.00000000      -0.03073467 </v>
   <v>      -0.04361380      -0.07195196      -0.04901337 </v>
   <v>      -0.04812933      -0.07110132      -0.04412649 </v>
  </varray>
  <varray name="stress" >
   <v>      -2.92278059       0.00000000       2.59529951 </v>
   <v>       0.00000000      18.39737499       0.00000000 </v>
   <v>       2.59529610       0.00000000      -2.92259017 </v>
  </varray>
  <energy>
   <i name="e_fr_energy">   -112.10850755 </i>
   <i name="e_wo_entrp">   -112.10668227 </i>
   <i name="e_0_energy">     -0.00547583 </i>
  </energy>
  <kpoints>
   <generation param="Monkhorst-Pack">
    <v type="int" name="divisions">       2        2        2 </v>
    <v name="usershift">      0.00000000       0.00000000       0.00000000 </v>
    <v name="genvec1">      0.50000000       0.00000000       0.00000000 </v>
    <v name="genvec2">      0.00000000       0.50000000       0.00000000 </v>
    <v name="genvec3">      0.00000000       0.00000000       0.50000000 </v>
    <v name="shift">      0.50000000       0.50000000       0.50000000 </v>
   </generation>
   <varray name="kpointlist" >
    <v>       0.25000000       0.25000000       0.25000000 </v>
    <v>      -0.25000000       0.25000000       0.25000000 </v>
   </varray>
   <varray name="weights" >
    <v>       0.50000000 </v>
    <v>       0.50000000 </v>
   </varray>
  </kpoints>
  <time name="totalsc">  342.81  132.87</time>
 </calculation>
 <calculation>
  <scstep>
   <time name="diag">    4.67    2.97</time>
   <time name="diis">   41.93   12.23</time>
   <time name="orth">    0.33    0.08</time>
   <time name="total">   50.81   18.91</time>
   <energy>
    <i name="alphaZ">     -7.38312591 </i>
    <i name="ewald">  -2176.43851179 </i>
    <i name="hartreedc">    -32.08521822 </i>
    <i name="XCdc">   -792.79980055 </i>
    <i name="pawpsdc">   1084.35398486 </i>
    <i name="pawaedc">   -115.13058557 </i>
    <i name="eentropy">     -0.00547957 </i>
    <i name="bandstr">    298.24880512 </i>
    <i name="atom">   1629.13144109 </i>
    <i name="e_fr_energy">   -112.10849055 </i>
    <i name="e_wo_entrp">   -112.10301098 </i>
    <i name="e_0_energy">   -112.10666403 </i>
   </energy>
  </scstep>
  <scstep>
   <time name="diag">    4.66    2.97</time>
   <time name="diis">   47.82   13.57</time>
   <time name="orth">    0.33    0.08</time>
   <time name="total">   56.53   20.25</time>
   <energy>
    <i name="e_fr_energy">   -112.10850334 </i>
    <i name="e_wo_entrp">   -112.10302393 </i>
    <i name="e_0_energy">   -112.10667687 </i>
   </energy>
  </scstep>
  <scstep>
   <time name="diag">    4.66    2.97</time>
   <time name="diis">   41.37   12.12</time>
   <time name="orth">    0.33    0.08</time>
   <time name="total">   50.12   18.81</time>
   <energy>
    <i name="e_fr_energy">   -112.10850547 </i>
    <i name="e_wo_entrp">   -112.10303214 </i>
    <i name="e_0_energy">   -112.10668103 </i>
   </energy>
  </scstep>
  <scstep>
   <time name="diag">    4.66    2.97</time>
   <time name="diis">   41.82   12.00</time>
   <time name="orth">    0.33    0.08</time>
   <time name="total">   50.64   18.70</time>
   <energy>
    <i name="e_fr_energy">   -112.10850652 </i>
    <i name="e_wo_entrp">   -112.10303013 </i>
    <i name="e_0_energy">   -112.10668106 </i>
   </energy>
  </scstep>
  <scstep>
   <time name="diag">    4.76    3.05</time>
   <time name="diis">   30.45    9.12</time>
   <time name="orth">    0.33    0.08</time>
   <time name="total">   39.45   15.91</time>
   <energy>
    <i name="e_fr_energy">   -112.10850801 </i>
    <i name="e_wo_entrp">   -112.10303285 </i>
    <i name="e_0_energy">   -112.10668296 </i>
   </energy>
  </scstep>
  <scstep>
   <time name="diag">    4.67    2.97</time>
   <time name="diis">   24.37    7.49</time>
   <time name="orth">    0.33    0.08</time>
   <time name="total">   31.44   12.47</time>
   <energy>
    <i name="alphaZ">     -7.38312591 </i>
    <i name="ewald">  -2176.43851179 </i>
    <i name="hartreedc">    -32.08539722 </i>
    <i name="XCdc">   -792.79983534 </i>
    <i name="pawpsdc">   1084.35397727 </i>
    <i name="pawaedc">   -115.13057834 </i>
    <i name="eentropy">     -0.00547564 </i>
    <i name="bandstr">    298.24899798 </i>
    <i name="atom">   1629.13144109 </i>
    <i name="e_fr_energy">   -112.10850790 </i>
    <i name="e_wo_entrp">   -112.10303226 </i>
    <i name="e_0_energy">   -112.10668269 </i>
   </energy>
  </scstep>
  <structure>
   <crystal>
    <varray name="basis" >
     <v>       8.08705400       0.00000000       0.00000000 </v>
     <v>       0.00000000       8.08705400       0.00000000 </v>
     <v>       0.00000000       0.00000000       8.08705400 </v>
    </varray>
    <i name="volume">    528.89690930 </i>
    <varray name="rec_basis" >
     <v>       0.12365442       0.00000000       0.00000000 </v>
     <v>       0.00000000       0.12365442       0.00000000 </v>
     <v>       0.00000000       0.00000000       0.12365442 </v>
    </varray>
   </crystal>
   <varray name="positions" >
    <v>       0.37499900       0.50000000       0.37314418 </v>
    <v>       0.00088900       0.00000000       0.00088900 </v>
    <v>       0.24686700       0.00000000       0.24686700 </v>
    <v>       0.24947100       0.25554000       0.00484700 </v>
    <v>       0.00484700       0.25554000       0.24947100 </v>
    <v>       0.50022900       0.00000000       0.98625600 </v>
    <v>       0.76374400       0.00000000       0.24977200 </v>
    <v>       0.75355400       0.24727200       0.99644500 </v>
    <v>       0.51143800       0.22809400       0.23856300 </v>
    <v>       0.99997000       0.50000000       0.99997000 </v>
    <v>       0.24947100       0.74446000       0.00484700 </v>
    <v>       0.00484700       0.74446000       0.24947100 </v>
    <v>       0.49877100       0.50000000       0.00321300 </v>
    <v>       0.74678500       0.50000000       0.25123200 </v>
    <v>       0.75355400       0.75272800       0.99644500 </v>
    <v>       0.51143800       0.77190600       0.23856300 </v>
    <v>       0.98625600       0.00000000       0.50022900 </v>
    <v>       0.24977200       0.00000000       0.76374400 </v>
    <v>       0.23856300       0.22809400       0.51143800 </v>
[...]
       <r>    8.5366    0.0000 </r>
       <r>    9.0567    0.0000 </r>
       <r>    9.1373    0.0000 </r>
       <r>    9.1880    0.0000 </r>
       <r>    9.3544    0.0000 </r>
       <r>    9.3720    0.0000 </r>
       <r>    9.5132    0.0000 </r>
       <r>    9.9789    0.0000 </r>
       <r>    9.9855    0.0000 </r>
      </set>
      <set comment="kpoint 2">
       <r>   -2.9860    1.0000 </r>
       <r>   -1.9507    1.0000 </r>
       <r>   -1.8153    1.0000 </r>
       <r>   -1.7222    1.0000 </r>
       <r>   -0.8255    1.0000 </r>
       <r>   -0.6092    1.0000 </r>
       <r>   -0.5487    1.0000 </r>
       <r>    0.2615    1.0000 </r>
       <r>    0.3988    1.0000 </r>
       <r>    0.4415    1.0000 </r>
       <r>    0.6991    1.0000 </r>
       <r>    1.3935    1.0000 </r>
       <r>    1.4282    1.0000 </r>
       <r>    1.4924    1.0000 </r>
       <r>    1.4939    1.0000 </r>
       <r>    1.7681    1.0000 </r>
       <r>    1.8428    1.0000 </r>
       <r>    2.6213    1.0000 </r>
       <r>    2.7730    1.0000 </r>
       <r>    2.8395    1.0000 </r>
       <r>    3.5378    1.0000 </r>
       <r>    3.5881    1.0000 </r>
       <r>    3.6343    1.0000 </r>
       <r>    3.6813    1.0000 </r>
       <r>    3.8120    1.0000 </r>
       <r>    3.9633    1.0000 </r>
       <r>    4.5981    1.0000 </r>
       <r>    4.6515    1.0000 </r>
       <r>    4.6779    1.0000 </r>
       <r>    4.6991    1.0000 </r>
       <r>    4.7162    1.0000 </r>
       <r>    4.9495    1.0000 </r>
       <r>    4.9735    1.0000 </r>
       <r>    5.0595    1.0000 </r>
       <r>    5.1750    1.0000 </r>
       <r>    5.7462    1.0000 </r>
       <r>    6.1174    1.0000 </r>
       <r>    6.1776    1.0000 </r>
       <r>    6.7064    1.0000 </r>
       <r>    6.7469    1.0000 </r>
       <r>    6.9178    1.0000 </r>
       <r>    7.0237    1.0000 </r>
       <r>    7.0331    1.0000 </r>
       <r>    7.0706    1.0000 </r>
       <r>    7.1413    1.0000 </r>
       <r>    7.8378    0.6436 </r>
       <r>    7.9567    0.1758 </r>
       <r>    7.9948    0.0744 </r>
       <r>    8.0668   -0.0221 </r>
       <r>    8.1493   -0.0323 </r>
       <r>    8.1719   -0.0277 </r>
       <r>    8.1881   -0.0240 </r>
       <r>    8.2170   -0.0175 </r>
       <r>    8.2643   -0.0091 </r>
       <r>    9.0955    0.0000 </r>
       <r>    9.1468    0.0000 </r>
       <r>    9.2728    0.0000 </r>
       <r>    9.3780    0.0000 </r>
       <r>    9.4082    0.0000 </r>
       <r>    9.4879    0.0000 </r>
       <r>    9.9798    0.0000 </r>
       <r>    9.9898    0.0000 </r>
      </set>
     </set>
    </set>
   </array>
  </eigenvalues>
  <separator name="orbital magnetization" >
   <v name="MAGDIPOLOUT">      0.00000000      0.00000000      0.00000000</v>
  </separator>
  <dos>
   <i name="efermi">      7.87229920 </i>
   <total>
    <array>
     <dimension dim="1">gridpoints</dimension>
     <dimension dim="2">spin</dimension>
     <field>energy</field>
     <field>total</field>
     <field>integrated</field>
     <set>
      <set comment="spin 1">
       <r>  -4.9860   0.0000   0.0000 </r>
       <r>  -4.9294   0.0000   0.0000 </r>
       <r>  -4.8728   0.0000   0.0000 </r>
       <r>  -4.8162   0.0000   0.0000 </r>
       <r>  -4.7596   0.0000   0.0000 </r>
       <r>  -4.7030   0.0000   0.0000 </r>
       <r>  -4.6465   0.0000   0.0000 </r>
       <r>  -4.5899   0.0000   0.0000 </r>
       <r>  -4.5333   0.0000   0.0000 </r>
       <r>  -4.4767   0.0000   0.0000 </r>
       <r>  -4.4201   0.0000   0.0000 </r>
       <r>  -4.3635   0.0000   0.0000 </r>
       <r>  -4.3069   0.0000   0.0000 </r>
       <r>  -4.2504   0.0000   0.0000 </r>
       <r>  -4.1938   0.0000   0.0000 </r>
       <r>  -4.1372   0.0000   0.0000 </r>
       <r>  -4.0806   0.0000   0.0000 </r>
       <r>  -4.0240   0.0000   0.0000 </r>
       <r>  -3.9674   0.0000   0.0000 </r>
       <r>  -3.9108   0.0000   0.0000 </r>
       <r>  -3.8543   0.0000   0.0000 </r>
       <r>  -3.7977   0.0000   0.0000 </r>
       <r>  -3.7411   0.0000   0.0000 </r>
       <r>  -3.6845  -0.0001   0.0000 </r>
       <r>  -3.6279  -0.0008  -0.0001 </r>
       <r>  -3.5713  -0.0038  -0.0003 </r>
       <r>  -3.5147  -0.0155  -0.0011 </r>
       <r>  -3.4582  -0.0520  -0.0041 </r>
       <r>  -3.4016  -0.1402  -0.0120 </r>
       <r>  -3.3450  -0.2944  -0.0287 </r>
       <r>  -3.2884  -0.4394  -0.0535 </r>
       <r>  -3.2318  -0.3059  -0.0709 </r>
       <r>  -3.1752   0.5593  -0.0392 </r>
       <r>  -3.1186   2.4883   0.1016 </r>
       <r>  -3.0621   5.1891   0.3952 </r>
       <r>  -3.0055   7.5708   0.8236 </r>
       <r>  -2.9489   8.3504   1.2961 </r>
       <r>  -2.8923   7.0632   1.6958 </r>
       <r>  -2.8357   4.4657   1.9485 </r>
       <r>  -2.7791   1.8882   2.0554 </r>
       <r>  -2.7225   0.2397   2.0689 </r>
       <r>  -2.6660  -0.3910   2.0468 </r>
       <r>  -2.6094  -0.4142   2.0234 </r>
       <r>  -2.5528  -0.2528   2.0091 </r>
       <r>  -2.4962  -0.1241   2.0020 </r>
       <r>  -2.4396  -0.0857   1.9972 </r>
       <r>  -2.3830  -0.1474   1.9888 </r>
       <r>  -2.3264  -0.3206   1.9707 </r>
       <r>  -2.2698  -0.5674   1.9386 </r>
       <r>  -2.2133  -0.6689   1.9007 </r>
       <r>  -2.1567  -0.1300   1.8934 </r>
       <r>  -2.1001   1.6675   1.9877 </r>
       <r>  -2.0435   4.9806   2.2696 </r>
       <r>  -1.9869   9.2294   2.7918 </r>
       <r>  -1.9303  13.1072   3.5335 </r>
       <r>  -1.8737  15.3776   4.4037 </r>
       <r>  -1.8172  15.6572   5.2897 </r>
       <r>  -1.7606  14.4179   6.1055 </r>
       <r>  -1.7040  12.3268   6.8030 </r>
       <r>  -1.6474   9.7467   7.3546 </r>
       <r>  -1.5908   6.8532   7.7423 </r>
       <r>  -1.5342   3.9835   7.9678 </r>
       <r>  -1.4776   1.6488   8.0611 </r>
       <r>  -1.4211   0.2041   8.0726 </r>
       <r>  -1.3645  -0.3892   8.0506 </r>
       <r>  -1.3079  -0.4678   8.0241 </r>
       <r>  -1.2513  -0.4060   8.0011 </r>
       <r>  -1.1947  -0.4378   7.9764 </r>
       <r>  -1.1381  -0.5938   7.9428 </r>
       <r>  -1.0815  -0.6450   7.9063 </r>
       <r>  -1.0250  -0.0701   7.9023 </r>
       <r>  -0.9684   1.7424   8.0009 </r>
       <r>  -0.9118   4.9571   8.2814 </r>
       <r>  -0.8552   8.8178   8.7804 </r>
       <r>  -0.7986  11.9085   9.4542 </r>
       <r>  -0.7420  13.1695  10.1994 </r>
       <r>  -0.6854  12.6736  10.9166 </r>
       <r>  -0.6289  11.3017  11.5561 </r>
       <r>  -0.5723   9.8056  12.1110 </r>
       <r>  -0.5157   8.4070  12.5867 </r>
       <r>  -0.4591   7.1118  12.9891 </r>
       <r>  -0.4025   5.9660  13.3267 </r>
       <r>  -0.3459   4.9206  13.6051 </r>
       <r>  -0.2893   3.7734  13.8186 </r>
       <r>  -0.2328   2.4268  13.9560 </r>
       <r>  -0.1762   1.0645  14.0162 </r>
       <r>  -0.1196  -0.0339  14.0143 </r>
       <r>  -0.0630  -0.7360  13.9726 </r>
       <r>  -0.0064  -0.9835  13.9170 </r>
       <r>   0.0502  -0.5105  13.8881 </r>
       <r>   0.1068   1.2044  13.9563 </r>
       <r>   0.1633   4.5078  14.2113 </r>
       <r>   0.2199   8.9868  14.7199 </r>
       <r>   0.2765  13.3963  15.4779 </r>
       <r>   0.3331  16.3563  16.4034 </r>
       <r>   0.3897  17.2461  17.3793 </r>
       <r>   0.4463  16.4772  18.3117 </r>
       <r>   0.5029  14.9800  19.1594 </r>
       <r>   0.5595  13.4523  19.9206 </r>
       <r>   0.6160  11.9729  20.5981 </r>
       <r>   0.6726  10.1804  21.1741 </r>
       <r>   0.7292   7.7935  21.6151 </r>
       <r>   0.7858   5.0070  21.8985 </r>
       <r>   0.8424   2.4097  22.0348 </r>
       <r>   0.8990   0.5264  22.0646 </r>
       <r>   0.9556  -0.5547  22.0332 </r>
       <r>   1.0121  -1.1299  21.9693 </r>
       <r>   1.0687  -1.4590  21.8867 </r>
       <r>   1.1253  -1.2895  21.8138 </r>
       <r>   1.1819   0.3038  21.8310 </r>
       <r>   1.2385   4.4420  22.0823 </r>
       <r>   1.2951  11.3727  22.7258 </r>
       <r>   1.3517  19.5603  23.8327 </r>
       <r>   1.4082  25.9824  25.3029 </r>
       <r>   1.4648  27.8283  26.8776 </r>
       <r>   1.5214  24.4244  28.2597 </r>
       <r>   1.5780  17.8388  29.2691 </r>
       <r>   1.6346  11.6387  29.9277 </r>
       <r>   1.6912   8.6613  30.4178 </r>
       <r>   1.7478   9.3503  30.9469 </r>
       <r>   1.8043  11.7967  31.6144 </r>
       <r>   1.8609  13.3548  32.3701 </r>
       <r>   1.9175  12.4836  33.0765 </r>
       <r>   1.9741   9.4397  33.6107 </r>
       <r>   2.0307   5.6130  33.9283 </r>
       <r>   2.0873   2.3781  34.0629 </r>
       <r>   2.1439   0.3789  34.0843 </r>
       <r>   2.2004  -0.4984  34.0561 </r>
       <r>   2.2570  -0.7456  34.0139 </r>
       <r>   2.3136  -0.8130  33.9679 </r>
       <r>   2.3702  -0.8374  33.9205 </r>
       <r>   2.4268  -0.5413  33.8899 </r>
       <r>   2.4834   0.6710  33.9279 </r>
       <r>   2.5400   3.3597  34.1180 </r>
       <r>   2.5965   7.5292  34.5440 </r>
       <r>   2.6531  12.3216  35.2412 </r>
       <r>   2.7097  16.2918  36.1631 </r>
       <r>   2.7663  18.1543  37.1904 </r>
       <r>   2.8229  17.4185  38.1761 </r>
       <r>   2.8795  14.4842  38.9957 </r>
       <r>   2.9361  10.3156  39.5794 </r>
       <r>   2.9926   6.0338  39.9208 </r>
       <r>   3.0492   2.5554  40.0654 </r>
       <r>   3.1058   0.2997  40.0824 </r>
       <r>   3.1624  -0.8914  40.0319 </r>
       <r>   3.2190  -1.4809  39.9481 </r>
       <r>   3.2756  -1.7118  39.8513 </r>
       <r>   3.3322  -1.1502  39.7862 </r>
       <r>   3.3888   1.3183  39.8608 </r>
       <r>   3.4453   6.7792  40.2444 </r>
       <r>   3.5019  15.1069  41.0992 </r>
       <r>   3.5585  24.2412  42.4709 </r>
       <r>   3.6151  30.8746  44.2180 </r>
       <r>   3.6717  32.3834  46.0504 </r>
       <r>   3.7283  28.5410  47.6655 </r>
       <r>   3.7849  21.5948  48.8874 </r>
       <r>   3.8414  14.7161  49.7202 </r>
       <r>   3.8980  10.1071  50.2921 </r>
       <r>   3.9546   8.0639  50.7484 </r>
       <r>   4.0112   7.3795  51.1660 </r>
       <r>   4.0678   6.5511  51.5367 </r>
       <r>   4.1244   4.8401  51.8105 </r>
       <r>   4.1810   2.5012  51.9521 </r>
       <r>   4.2375   0.2840  51.9681 </r>
       <r>   4.2941  -1.0924  51.9063 </r>
       <r>   4.3507  -1.0004  51.8497 </r>
       <r>   4.4073   1.2462  51.9202 </r>
       <r>   4.4639   6.1627  52.2690 </r>
       <r>   4.5205  13.4012  53.0273 </r>
       <r>   4.5771  21.2899  54.2320 </r>
       <r>   4.6336  27.3989  55.7824 </r>
       <r>   4.6902  30.0303  57.4817 </r>
       <r>   4.7468  29.4114  59.1460 </r>
       <r>   4.8034  27.3506  60.6936 </r>
       <r>   4.8600  25.5886  62.1416 </r>
       <r>   4.9166  24.5237  63.5293 </r>
       <r>   4.9732  23.5068  64.8594 </r>
       <r>   5.0297  21.9813  66.1033 </r>
       <r>   5.0863  19.9427  67.2317 </r>
       <r>   5.1429  17.4519  68.2193 </r>
       <r>   5.1995  14.2729  69.0269 </r>
       <r>   5.2561  10.2737  69.6083 </r>
       <r>   5.3127   5.9417  69.9445 </r>
       <r>   5.3693   2.2122  70.0697 </r>
       <r>   5.4258  -0.1800  70.0595 </r>
       <r>   5.4824  -1.0222  70.0016 </r>
       <r>   5.5390  -0.3949  69.9793 </r>
       <r>   5.5956   1.5665  70.0679 </r>
       <r>   5.6522   4.4928  70.3222 </r>
       <r>   5.7088   7.5088  70.7470 </r>
       <r>   5.7654   9.4645  71.2826 </r>
       <r>   5.8219   9.6491  71.8286 </r>
       <r>   5.8785   8.3120  72.2990 </r>
       <r>   5.9351   6.5076  72.6672 </r>
       <r>   5.9917   5.4228  72.9740 </r>
       <r>   6.0483   5.6526  73.2939 </r>
       <r>   6.1049   6.8463  73.6813 </r>
       <r>   6.1615   8.0134  74.1348 </r>
       <r>   6.2181   8.3090  74.6049 </r>
       <r>   6.2746   7.5663  75.0331 </r>
       <r>   6.3312   6.1013  75.3783 </r>
       <r>   6.3878   4.2544  75.6191 </r>
       <r>   6.4444   2.4062  75.7552 </r>
       <r>   6.5010   1.3731  75.8329 </r>
       <r>   6.5576   2.3675  75.9669 </r>
       <r>   6.6142   6.1185  76.3131 </r>
       <r>   6.6707  11.8580  76.9841 </r>
       <r>   6.7273  17.4286  77.9703 </r>
       <r>   6.7839  20.8849  79.1521 </r>
       <r>   6.8405  22.1972  80.4082 </r>
       <r>   6.8971  23.1389  81.7175 </r>
       <r>   6.9537  25.2616  83.1470 </r>
       <r>   7.0103  28.0657  84.7351 </r>
       <r>   7.0668  29.2748  86.3916 </r>
       <r>   7.1234  26.8373  87.9102 </r>
       <r>   7.1800  20.6812  89.0805 </r>
       <r>   7.2366  12.7756  89.8034 </r>
       <r>   7.2932   5.7043  90.1262 </r>
       <r>   7.3498   1.0796  90.1873 </r>
       <r>   7.4064  -1.0352  90.1287 </r>
       <r>   7.4629  -1.5669  90.0401 </r>
       <r>   7.5195  -1.4642  89.9572 </r>
       <r>   7.5761  -1.0678  89.8968 </r>
       <r>   7.6327  -0.0700  89.8928 </r>
       <r>   7.6893   2.0738  90.0102 </r>
       <r>   7.7459   5.6031  90.3272 </r>
       <r>   7.8025  10.1823  90.9034 </r>
       <r>   7.8590  15.1307  91.7596 </r>
       <r>   7.9156  19.9382  92.8878 </r>
       <r>   7.9722  24.5895  94.2792 </r>
       <r>   8.0288  29.3693  95.9411 </r>
       <r>   8.0854  34.1683  97.8746 </r>
       <r>   8.1420  37.7837 100.0126 </r>
       <r>   8.1986  38.1507 102.1714 </r>
       <r>   8.2551  33.8809 104.0886 </r>
       <r>   8.3117  25.8351 105.5505 </r>
       <r>   8.3683  16.8950 106.5065 </r>
       <r>   8.4249   9.9371 107.0688 </r>
       <r>   8.4815   6.0093 107.4088 </r>
       <r>   8.5381   4.2689 107.6504 </r>
       <r>   8.5947   3.2605 107.8349 </r>
       <r>   8.6512   2.0989 107.9537 </r>
       <r>   8.7078   0.7260 107.9948 </r>
       <r>   8.7644  -0.4922 107.9669 </r>
       <r>   8.8210  -1.1135 107.9039 </r>
       <r>   8.8776  -0.6056 107.8696 </r>
       <r>   8.9342   1.6695 107.9641 </r>
       <r>   8.9908   6.0189 108.3047 </r>
       <r>   9.0474  11.7594 108.9701 </r>
       <r>   9.1039  17.2158 109.9443 </r>
       <r>   9.1605  20.8131 111.1220 </r>
       <r>   9.2171  22.3486 112.3866 </r>
       <r>   9.2737  22.9638 113.6860 </r>
       <r>   9.3303  23.6786 115.0259 </r>
       <r>   9.3869  24.1209 116.3908 </r>
       <r>   9.4435  22.8968 117.6865 </r>
       <r>   9.5000  19.0951 118.7670 </r>
       <r>   9.5566  13.2555 119.5171 </r>
       <r>   9.6132   7.0033 119.9134 </r>
       <r>   9.6698   2.0307 120.0283 </r>
       <r>   9.7264  -0.5287 119.9983 </r>
       <r>   9.7830  -0.0945 119.9930 </r>
       <r>   9.8396   3.3721 120.1838 </r>
       <r>   9.8961   8.9105 120.6880 </r>
       <r>   9.9527  14.2375 121.4937 </r>
       <r>  10.0093  16.6300 122.4347 </r>
       <r>  10.0659  14.7915 123.2717 </r>
       <r>  10.1225   9.8933 123.8315 </r>
       <r>  10.1791   4.5694 124.0901 </r>
       <r>  10.2357   0.8968 124.1408 </r>
       <r>  10.2922  -0.6743 124.1027 </r>
       <r>  10.3488  -0.8638 124.0538 </r>
       <r>  10.4054  -0.5590 124.0221 </r>
       <r>  10.4620  -0.2603 124.0074 </r>
       <r>  10.5186  -0.0948 124.0021 </r>
       <r>  10.5752  -0.0279 124.0005 </r>
       <r>  10.6318  -0.0068 124.0001 </r>
       <r>  10.6883  -0.0014 124.0000 </r>
       <r>  10.7449  -0.0002 124.0000 </r>
       <r>  10.8015   0.0000 124.0000 </r>
       <r>  10.8581   0.0000 124.0000 </r>
       <r>  10.9147   0.0000 124.0000 </r>
       <r>  10.9713   0.0000 124.0000 </r>
       <r>  11.0279   0.0000 124.0000 </r>
       <r>  11.0844   0.0000 124.0000 </r>
       <r>  11.1410   0.0000 124.0000 </r>
       <r>  11.1976   0.0000 124.0000 </r>
       <r>  11.2542   0.0000 124.0000 </r>
       <r>  11.3108   0.0000 124.0000 </r>
       <r>  11.3674   0.0000 124.0000 </r>
       <r>  11.4240   0.0000 124.0000 </r>
       <r>  11.4805   0.0000 124.0000 </r>
       <r>  11.5371   0.0000 124.0000 </r>
       <r>  11.5937   0.0000 124.0000 </r>
       <r>  11.6503   0.0000 124.0000 </r>
       <r>  11.7069   0.0000 124.0000 </r>
       <r>  11.7635   0.0000 124.0000 </r>
       <r>  11.8201   0.0000 124.0000 </r>
       <r>  11.8767   0.0000 124.0000 </r>
       <r>  11.9332   0.0000 124.0000 </r>
       <r>  11.9898   0.0000 124.0000 </r>
      </set>
     </set>
    </array>
   </total>
  </dos>
 </calculation>
 <structure name="finalpos" >
  <crystal>
   <varray name="basis" >
    <v>       8.08705400       0.00000000       0.00000000 </v>
    <v>       0.00000000       8.08705400       0.00000000 </v>
    <v>       0.00000000       0.00000000       8.08705400 </v>
   </varray>
   <i name="volume">    528.89690930 </i>
   <varray name="rec_basis" >
    <v>       0.12365442       0.00000000       0.00000000 </v>
    <v>       0.00000000       0.12365442       0.00000000 </v>
    <v>       0.00000000       0.00000000       0.12365442 </v>
   </varray>
  </crystal>
  <varray name="positions" >
   <v>       0.37499900       0.50000000       0.37314418 </v>
   <v>       0.00088900       0.00000000       0.00088900 </v>
   <v>       0.24686700       0.00000000       0.24686700 </v>
   <v>       0.24947100       0.25554000       0.00484700 </v>
   <v>       0.00484700       0.25554000       0.24947100 </v>
   <v>       0.50022900       0.00000000       0.98625600 </v>
   <v>       0.76374400       0.00000000       0.24977200 </v>
   <v>       0.75355400       0.24727200       0.99644500 </v>
   <v>       0.51143800       0.22809400       0.23856300 </v>
   <v>       0.99997000       0.50000000       0.99997000 </v>
   <v>       0.24947100       0.74446000       0.00484700 </v>
   <v>       0.00484700       0.74446000       0.24947100 </v>
   <v>       0.49877100       0.50000000       0.00321300 </v>
   <v>       0.74678500       0.50000000       0.25123200 </v>
   <v>       0.75355400       0.75272800       0.99644500 </v>
   <v>       0.51143800       0.77190600       0.23856300 </v>
   <v>       0.98625600       0.00000000       0.50022900 </v>
   <v>       0.24977200       0.00000000       0.76374400 </v>
   <v>       0.23856300       0.22809400       0.51143800 </v>
   <v>       0.99644500       0.24727200       0.75355400 </v>
   <v>       0.50313300       0.00000000       0.50313300 </v>
   <v>       0.74911000       0.00000000       0.74911000 </v>
   <v>       0.74515300       0.25554000       0.50052900 </v>
   <v>       0.50052900       0.25554000       0.74515300 </v>
   <v>       0.00321300       0.50000000       0.49877100 </v>
   <v>       0.25123200       0.50000000       0.74678500 </v>
   <v>       0.23856300       0.77190600       0.51143800 </v>
   <v>       0.99644500       0.75272800       0.75355400 </v>
   <v>       0.75003200       0.50000000       0.75003200 </v>
   <v>       0.74515300       0.74446000       0.50052900 </v>
   <v>       0.50052900       0.74446000       0.74515300 </v>
  </varray>
  <varray name="selective"  type="logical" >
   <v type="logical" >  T  T  T </v>
   <v type="logical" >  F  F  F </v>
   <v type="logical" >  F  F  F </v>
   <v type="logical" >  F  F  F </v>
   <v type="logical" >  F  F  F </v>
   <v type="logical" >  F  F  F </v>
   <v type="logical" >  F  F  F </v>
   <v type="logical" >  F  F  F </v>
   <v type="logical" >  F  F  F </v>
   <v type="logical" >  F  F  F </v>
   <v type="logical" >  F  F  F </v>
   <v type="logical" >  F  F  F </v>
   <v type="logical" >  F  F  F </v>
   <v type="logical" >  F  F  F </v>
   <v type="logical" >  F  F  F </v>
   <v type="logical" >  F  F  F </v>
   <v type="logical" >  F  F  F </v>
   <v type="logical" >  F  F  F </v>
   <v type="logical" >  F  F  F </v>
   <v type="logical" >  F  F  F </v>
   <v type="logical" >  F  F  F </v>
   <v type="logical" >  F  F  F </v>
   <v type="logical" >  F  F  F </v>
   <v type="logical" >  F  F  F </v>
   <v type="logical" >  F  F  F </v>
   <v type="logical" >  F  F  F </v>
   <v type="logical" >  F  F  F </v>
   <v type="logical" >  F  F  F </v>
   <v type="logical" >  F  F  F </v>
   <v type="logical" >  F  F  F </v>
   <v type="logical" >  F  F  F </v>
  </varray>
  <nose>
   <v>      -3.00000000       0.00000000       0.00010000       0.00010000 </v>
  </nose>
 </structure>
</modeling>
