  32  32   0   0
  0.1593309E+02  0.7988833E-09  0.7988833E-09  0.7988833E-09  0.5000000E-15
  1.000000000000000E-004
  CAR 
 unknown system                          
     13.24311696     -4.71324643  301      8.12800925      1.00000000
     -4.713  0.0000E+00  0.0000E+00
     -4.653  0.0000E+00  0.0000E+00
     -4.594  0.0000E+00  0.0000E+00
     -4.534  0.0000E+00  0.0000E+00
     -4.474  0.0000E+00  0.0000E+00
     -4.414  0.0000E+00  0.0000E+00
     -4.354 -0.2368E-29 -0.1417E-30
     -4.294 -0.2807E-27 -0.1694E-28
     -4.234 -0.2798E-25 -0.1691E-26
     -4.175 -0.2326E-23 -0.1409E-24
     -4.115 -0.1614E-21 -0.9801E-23
     -4.055 -0.9338E-20 -0.5687E-21
     -3.995 -0.4506E-18 -0.2754E-19
     -3.935 -0.1812E-16 -0.1112E-17
     -3.875 -0.5879E-15 -0.3630E-16
     -3.815 -0.1640E-13 -0.1018E-14
     -3.756 -0.3796E-12 -0.2374E-13
     -3.696 -0.7303E-11 -0.4609E-12
     -3.636 -0.1167E-09 -0.7446E-11
     -3.576 -0.1547E-08 -0.1000E-09
     -3.516 -0.1698E-07 -0.1116E-08
     -3.456 -0.1540E-06 -0.1033E-07
     -3.396 -0.1151E-05 -0.7920E-07
     -3.337 -0.7058E-05 -0.5017E-06
     -3.277 -0.3533E-04 -0.2616E-05
     -3.217 -0.1430E-03 -0.1117E-04
     -3.157 -0.4610E-03 -0.3877E-04
     -3.097 -0.1150E-02 -0.1076E-03
     -3.037 -0.2073E-02 -0.2317E-03
     -2.977 -0.2113E-02 -0.3582E-03
     -2.918  0.1218E-02 -0.2853E-03
     -2.858  0.1045E-01  0.3403E-03
     -2.798  0.2491E-01  0.1831E-02
     -2.738  0.3867E-01  0.4146E-02
     -2.678  0.4372E-01  0.6763E-02
     -2.618  0.3673E-01  0.8961E-02
     -2.558  0.2226E-01  0.1029E-01
     -2.499  0.8415E-02  0.1080E-01
     -2.439  0.2781E-03  0.1081E-01
     -2.379 -0.2263E-02  0.1068E-01
     -2.319 -0.1930E-02  0.1056E-01
     -2.259 -0.1009E-02  0.1050E-01
     -2.199 -0.4144E-03  0.1048E-01
     -2.140 -0.2612E-03  0.1046E-01
     -2.080 -0.5935E-03  0.1043E-01
     -2.020 -0.1736E-02  0.1032E-01
     -1.960 -0.4054E-02  0.1008E-01
     -1.900 -0.6675E-02  0.9681E-02
     -1.840 -0.5328E-02  0.9362E-02
     -1.780  0.8073E-02  0.9845E-02
     -1.721  0.3993E-01  0.1224E-01
     -1.661  0.8487E-01  0.1731E-01
     -1.601  0.1223E+00  0.2463E-01
     -1.541  0.1295E+00  0.3239E-01
     -1.481  0.1017E+00  0.3848E-01
     -1.421  0.5671E-01  0.4187E-01
     -1.361  0.1820E-01  0.4296E-01
     -1.302 -0.2041E-02  0.4284E-01
     -1.242 -0.7007E-02  0.4242E-01
     -1.182 -0.5176E-02  0.4211E-01
     -1.122 -0.2505E-02  0.4196E-01
     -1.062 -0.9556E-03  0.4190E-01
     -1.002 -0.5008E-03  0.4187E-01
     -0.942 -0.9320E-03  0.4181E-01
     -0.883 -0.2449E-02  0.4167E-01
     -0.823 -0.5103E-02  0.4136E-01
     -0.763 -0.7010E-02  0.4094E-01
     -0.703 -0.2323E-02  0.4080E-01
     -0.643  0.1745E-01  0.4185E-01
     -0.583  0.5556E-01  0.4517E-01
     -0.523  0.1007E+00  0.5120E-01
     -0.464  0.1292E+00  0.5893E-01
     -0.404  0.1229E+00  0.6629E-01
     -0.344  0.8602E-01  0.7144E-01
     -0.284  0.4097E-01  0.7389E-01
     -0.224  0.8644E-02  0.7441E-01
     -0.164 -0.5175E-02  0.7410E-01
     -0.104 -0.6719E-02  0.7370E-01
     -0.045 -0.4131E-02  0.7345E-01
      0.015 -0.1809E-02  0.7334E-01
      0.075 -0.7502E-03  0.7330E-01
      0.135 -0.8083E-03  0.7325E-01
      0.195 -0.2093E-02  0.7312E-01
      0.255 -0.4991E-02  0.7283E-01
      0.315 -0.8614E-02  0.7231E-01
      0.374 -0.7883E-02  0.7184E-01
      0.434  0.7595E-02  0.7229E-01
      0.494  0.4726E-01  0.7512E-01
      0.554  0.1063E+00  0.8148E-01
      0.614  0.1590E+00  0.9100E-01
      0.674  0.1741E+00  0.1014E+00
      0.734  0.1416E+00  0.1099E+00
      0.793  0.8244E-01  0.1148E+00
      0.853  0.2892E-01  0.1166E+00
      0.913 -0.8910E-03  0.1165E+00
      0.973 -0.9253E-02  0.1160E+00
      1.033 -0.7329E-02  0.1155E+00
      1.093 -0.3696E-02  0.1153E+00
      1.152 -0.1511E-02  0.1152E+00
      1.212 -0.1027E-02  0.1151E+00
      1.272 -0.2241E-02  0.1150E+00
      1.332 -0.5732E-02  0.1147E+00
      1.392 -0.1124E-01  0.1140E+00
      1.452 -0.1378E-01  0.1132E+00
      1.512 -0.1337E-03  0.1132E+00
      1.571  0.4629E-01  0.1159E+00
      1.631  0.1278E+00  0.1236E+00
      1.691  0.2158E+00  0.1365E+00
      1.751  0.2617E+00  0.1522E+00
      1.811  0.2359E+00  0.1663E+00
      1.871  0.1553E+00  0.1756E+00
      1.931  0.6744E-01  0.1796E+00
      1.990  0.9637E-02  0.1802E+00
      2.050 -0.1221E-01  0.1795E+00
      2.110 -0.1273E-01  0.1787E+00
      2.170 -0.7245E-02  0.1783E+00
      2.230 -0.3007E-02  0.1781E+00
      2.290 -0.1174E-02  0.1780E+00
      2.350 -0.1101E-02  0.1779E+00
      2.409 -0.2472E-02  0.1778E+00
      2.469 -0.5091E-02  0.1775E+00
      2.529 -0.7011E-02  0.1771E+00
      2.589 -0.2389E-02  0.1769E+00
      2.649  0.1727E-01  0.1780E+00
      2.709  0.5529E-01  0.1813E+00
      2.769  0.1005E+00  0.1873E+00
      2.828  0.1291E+00  0.1950E+00
      2.888  0.1231E+00  0.2024E+00
      2.948  0.8630E-01  0.2075E+00
      3.008  0.4122E-01  0.2100E+00
      3.068  0.8783E-02  0.2105E+00
      3.128 -0.5138E-02  0.2102E+00
      3.188 -0.6734E-02  0.2098E+00
      3.247 -0.4179E-02  0.2096E+00
      3.307 -0.1970E-02  0.2095E+00
      3.367 -0.1339E-02  0.2094E+00
      3.427 -0.2601E-02  0.2092E+00
      3.487 -0.6248E-02  0.2088E+00
      3.547 -0.1156E-01  0.2082E+00
      3.607 -0.1277E-01  0.2074E+00
      3.666  0.3773E-02  0.2076E+00
      3.726  0.5346E-01  0.2108E+00
      3.786  0.1357E+00  0.2189E+00
      3.846  0.2199E+00  0.2321E+00
      3.906  0.2592E+00  0.2476E+00
      3.966  0.2284E+00  0.2613E+00
      4.026  0.1475E+00  0.2701E+00
      4.085  0.6263E-01  0.2739E+00
      4.145  0.8109E-02  0.2743E+00
      4.205 -0.1199E-01  0.2736E+00
      4.265 -0.1217E-01  0.2729E+00
      4.325 -0.6948E-02  0.2725E+00
      4.385 -0.3179E-02  0.2723E+00
      4.444 -0.2334E-02  0.2722E+00
      4.504 -0.4668E-02  0.2719E+00
      4.564 -0.1058E-01  0.2712E+00
      4.624 -0.1789E-01  0.2702E+00
      4.684 -0.1606E-01  0.2692E+00
      4.744  0.1606E-01  0.2702E+00
      4.804  0.9796E-01  0.2760E+00
      4.863  0.2215E+00  0.2893E+00
      4.923  0.3370E+00  0.3095E+00
      4.983  0.3798E+00  0.3322E+00
      5.043  0.3235E+00  0.3516E+00
      5.103  0.2034E+00  0.3637E+00
      5.163  0.8447E-01  0.3688E+00
      5.223  0.1024E-01  0.3694E+00
      5.282 -0.1665E-01  0.3684E+00
      5.342 -0.1675E-01  0.3674E+00
      5.402 -0.9577E-02  0.3668E+00
      5.462 -0.4107E-02  0.3666E+00
      5.522 -0.1839E-02  0.3665E+00
      5.582 -0.2038E-02  0.3664E+00
      5.642 -0.4081E-02  0.3661E+00
      5.701 -0.6661E-02  0.3657E+00
      5.761 -0.5417E-02  0.3654E+00
      5.821  0.7738E-02  0.3658E+00
      5.881  0.3932E-01  0.3682E+00
      5.941  0.8418E-01  0.3732E+00
      6.001  0.1219E+00  0.3805E+00
      6.061  0.1297E+00  0.3883E+00
      6.120  0.1024E+00  0.3944E+00
      6.180  0.5739E-01  0.3979E+00
      6.240  0.1866E-01  0.3990E+00
      6.300 -0.1869E-02  0.3989E+00
      6.360 -0.7007E-02  0.3984E+00
      6.420 -0.5244E-02  0.3981E+00
      6.480 -0.2668E-02  0.3980E+00
      6.539 -0.1524E-02  0.3979E+00
      6.599 -0.2378E-02  0.3977E+00
      6.659 -0.5843E-02  0.3974E+00
      6.719 -0.1183E-01  0.3967E+00
      6.779 -0.1568E-01  0.3957E+00
      6.839 -0.3893E-02  0.3955E+00
      6.899  0.4239E-01  0.3980E+00
      6.958  0.1296E+00  0.4058E+00
      7.018  0.2316E+00  0.4197E+00
      7.078  0.2958E+00  0.4374E+00
      7.138  0.2824E+00  0.4543E+00
      7.198  0.2004E+00  0.4663E+00
      7.258  0.9890E-01  0.4722E+00
      7.318  0.2421E-01  0.4736E+00
      7.377 -0.9509E-02  0.4731E+00
      7.437 -0.1485E-01  0.4722E+00
      7.497 -0.9752E-02  0.4716E+00
      7.557 -0.4605E-02  0.4713E+00
      7.617 -0.2333E-02  0.4712E+00
      7.677 -0.3032E-02  0.4710E+00
      7.736 -0.6712E-02  0.4706E+00
      7.796 -0.1228E-01  0.4699E+00
      7.856 -0.1347E-01  0.4691E+00
      7.916  0.3919E-02  0.4693E+00
      7.976  0.5505E-01  0.4726E+00
      8.036  0.1379E+00  0.4808E+00
      8.096  0.2219E+00  0.4941E+00
      8.155  0.2659E+00  0.5100E+00
      8.215  0.2553E+00  0.5253E+00
      8.275  0.2130E+00  0.5381E+00
      8.335  0.1701E+00  0.5482E+00
      8.395  0.1346E+00  0.5563E+00
      8.455  0.9737E-01  0.5621E+00
      8.515  0.5556E-01  0.5655E+00
      8.574  0.1942E-01  0.5666E+00
      8.634 -0.1405E-02  0.5665E+00
      8.694 -0.7502E-02  0.5661E+00
      8.754 -0.6008E-02  0.5657E+00
      8.814 -0.3113E-02  0.5655E+00
      8.874 -0.1347E-02  0.5655E+00
      8.934 -0.1070E-02  0.5654E+00
      8.993 -0.2481E-02  0.5652E+00
      9.053 -0.6221E-02  0.5649E+00
      9.113 -0.1177E-01  0.5642E+00
      9.173 -0.1343E-01  0.5634E+00
      9.233  0.2801E-02  0.5635E+00
      9.293  0.5305E-01  0.5667E+00
      9.353  0.1370E+00  0.5749E+00
      9.412  0.2230E+00  0.5883E+00
      9.472  0.2625E+00  0.6040E+00
      9.532  0.2296E+00  0.6177E+00
      9.592  0.1460E+00  0.6265E+00
      9.652  0.5974E-01  0.6300E+00
      9.712  0.5055E-02  0.6303E+00
      9.772 -0.1588E-01  0.6294E+00
      9.831 -0.1947E-01  0.6282E+00
      9.891 -0.1931E-01  0.6271E+00
      9.951 -0.1467E-01  0.6262E+00
     10.011  0.8706E-02  0.6267E+00
     10.071  0.6577E-01  0.6306E+00
     10.131  0.1509E+00  0.6397E+00
     10.191  0.2282E+00  0.6533E+00
     10.250  0.2538E+00  0.6685E+00
     10.310  0.2177E+00  0.6816E+00
     10.370  0.1565E+00  0.6909E+00
     10.430  0.1176E+00  0.6980E+00
     10.490  0.1134E+00  0.7047E+00
     10.550  0.1178E+00  0.7118E+00
     10.610  0.1025E+00  0.7179E+00
     10.669  0.6566E-01  0.7219E+00
     10.729  0.2614E-01  0.7234E+00
     10.789  0.1902E-03  0.7234E+00
     10.849 -0.1056E-01  0.7228E+00
     10.909 -0.1255E-01  0.7221E+00
     10.969 -0.8751E-02  0.7215E+00
     11.028  0.5603E-02  0.7219E+00
     11.088  0.3685E-01  0.7241E+00
     11.148  0.8116E-01  0.7289E+00
     11.208  0.1195E+00  0.7361E+00
     11.268  0.1293E+00  0.7438E+00
     11.328  0.1043E+00  0.7501E+00
     11.388  0.6032E-01  0.7537E+00
     11.447  0.2103E-01  0.7549E+00
     11.507 -0.7115E-03  0.7549E+00
     11.567 -0.6782E-02  0.7545E+00
     11.627 -0.5369E-02  0.7542E+00
     11.687 -0.2697E-02  0.7540E+00
     11.747 -0.1008E-02  0.7539E+00
     11.807 -0.2950E-03  0.7539E+00
     11.866 -0.6927E-04  0.7539E+00
     11.926 -0.1321E-04  0.7539E+00
     11.986 -0.2065E-05  0.7539E+00
     12.046 -0.2655E-06  0.7539E+00
     12.106 -0.2822E-07  0.7539E+00
     12.166 -0.2484E-08  0.7539E+00
     12.226 -0.1814E-09  0.7539E+00
     12.285 -0.1101E-10  0.7539E+00
     12.345 -0.5564E-12  0.7539E+00
     12.405 -0.2335E-13  0.7539E+00
     12.465 -0.8546E-15  0.7539E+00
     12.525  0.0000E+00  0.7539E+00
     12.585  0.0000E+00  0.7539E+00
     12.645  0.0000E+00  0.7539E+00
     12.704  0.0000E+00  0.7539E+00
     12.764  0.0000E+00  0.7539E+00
     12.824  0.0000E+00  0.7539E+00
     12.884  0.0000E+00  0.7539E+00
     12.944  0.0000E+00  0.7539E+00
     13.004  0.0000E+00  0.7539E+00
     13.064  0.0000E+00  0.7539E+00
     13.123  0.0000E+00  0.7539E+00
     13.183  0.0000E+00  0.7539E+00
     13.243  0.0000E+00  0.7539E+00
