   32   32  191    1
  0.1593309E+02  0.7988833E-09  0.7988833E-09  0.7988833E-09  0.5000000E-15
  1.000000000000000E-004
  CAR 
 unknown system                          
   96    1   72
 
  0.2500000E+00  0.2500000E+00  0.2500000E+00  0.1000000E+01
   1       -2.713246
   2       -1.589175
   3       -1.589175
   4       -1.589175
   5       -0.473688
   6       -0.473688
   7       -0.473688
   8        0.631829
   9        0.631829
  10        0.631829
  11        0.633251
  12        1.729993
  13        1.729993
  14        1.729993
  15        1.729993
  16        1.729993
  17        1.729993
  18        2.818676
  19        2.818676
  20        2.818676
  21        3.862397
  22        3.862397
  23        3.862397
  24        3.897126
  25        3.897126
  26        3.897126
  27        4.928681
  28        4.928681
  29        4.928681
  30        4.928681
  31        4.928681
  32        4.928681
  33        4.991399
  34        4.991399
  35        4.991399
  36        6.013261
  37        6.013261
  38        6.013261
  39        7.060245
  40        7.060245
  41        7.060245
  42        7.060245
  43        7.060245
  44        7.060245
  45        7.122543
  46        8.123893
  47        8.123893
  48        8.123893
  49        8.123893
  50        8.123893
  51        8.123893
  52        8.360688
  53        8.360688
  54        8.360688
  55        9.445258
  56        9.445258
  57        9.445258
  58        9.445258
  59        9.445258
  60        9.445258
  61       10.200861
  62       10.200861
  63       10.200861
  64       10.223623
  65       10.223623
  66       10.223624
  67       10.520818
  68       10.520818
  69       10.520844
  70       11.213929
  71       11.215865
  72       11.243117
