       N       E                     dE             d eps       ncg     rms          rms(c)
RMM:   1     0.267234594299E+03    0.26723E+03   -0.16672E+04    72   0.562E+02
RMM:   2    -0.299927396331E+02   -0.29723E+03   -0.28564E+03    72   0.117E+02
RMM:   3    -0.966865596231E+02   -0.66694E+02   -0.65554E+02    72   0.391E+01
RMM:   4    -0.111227756278E+03   -0.14541E+02   -0.13439E+02    72   0.209E+01
RMM:   5    -0.116213178539E+03   -0.49854E+01   -0.38525E+01    72   0.102E+01
RMM:   6    -0.117816580963E+03   -0.16034E+01   -0.11586E+01    72   0.535E+00
RMM:   7    -0.118352592511E+03   -0.53601E+00   -0.38456E+00    72   0.279E+00
RMM:   8    -0.118538797801E+03   -0.18621E+00   -0.14615E+00    72   0.150E+00
RMM:   9    -0.118647883974E+03   -0.10909E+00   -0.91245E-01   143   0.829E-01
RMM:  10    -0.118662628680E+03   -0.14745E-01   -0.89048E-02   120   0.194E-01
RMM:  11    -0.118663209850E+03   -0.58117E-03   -0.28288E-03   114   0.394E-02
RMM:  12    -0.118663217559E+03   -0.77092E-05   -0.50901E-05    79   0.126E-02    0.547E+00
RMM:  13    -0.118255861311E+03    0.40736E+00   -0.36181E-02   144   0.548E-01    0.341E+00
RMM:  14    -0.117949777432E+03    0.30608E+00   -0.12544E-01   144   0.951E-01    0.135E-01
RMM:  15    -0.117950128748E+03   -0.35132E-03   -0.17508E-03   144   0.136E-01    0.353E-02
RMM:  16    -0.117950145276E+03   -0.16527E-04   -0.33640E-05    90   0.166E-02
   1 F= -.11795015E+03 E0= -.11786262E+03  d E =-.117950E+03
       N       E                     dE             d eps       ncg     rms          rms(c)
RMM:   1    -0.118146740711E+03   -0.19661E+00   -0.28204E+00   144   0.430E+00    0.803E-01
RMM:   2    -0.118134315009E+03    0.12426E-01   -0.26217E-02   144   0.325E-01    0.519E-01
RMM:   3    -0.118124063945E+03    0.10251E-01   -0.51006E-03   144   0.167E-01    0.379E-02
RMM:   4    -0.118124084323E+03   -0.20377E-04   -0.13587E-04    90   0.455E-02
   2 F= -.11812408E+03 E0= -.11803608E+03  d E =-.173939E+00
       N       E                     dE             d eps       ncg     rms          rms(c)
RMM:   1    -0.118137325175E+03   -0.13261E-01   -0.12711E-01   144   0.913E-01    0.171E-01
RMM:   2    -0.118136799703E+03    0.52547E-03   -0.10207E-03   118   0.646E-02    0.109E-01
RMM:   3    -0.118136393883E+03    0.40582E-03   -0.20369E-04    85   0.375E-02    0.649E-03
RMM:   4    -0.118136396484E+03   -0.26006E-05   -0.25586E-05    76   0.195E-02
   3 F= -.11813640E+03 E0= -.11804858E+03  d E =-.186251E+00
