<?xml version="1.0" encoding="ISO-8859-1"?>
<modeling>
 <generator>
  <i name="program" type="string">vasp </i>
  <i name="version" type="string">5.2.2  </i>
  <i name="subversion" type="string">15Apr09 complex  parallel </i>
  <i name="platform" type="string">LinuxIFC </i>
  <i name="date" type="string">2017 03 17 </i>
  <i name="time" type="string">11:20:04 </i>
 </generator>
 <incar>
  <i type="string" name="PREC">accurate</i>
  <i type="int" name="IALGO">    48</i>
  <i type="int" name="IBRION">     2</i>
  <i name="EDIFFG">      0.05000000</i>
  <i type="int" name="NSW">   191</i>
  <i type="int" name="ISIF">     3</i>
  <i name="ENCUT">    300.00000000</i>
  <i type="int" name="ISMEAR">     1</i>
  <i name="SIGMA">      0.20000000</i>
  <i type="logical" name="LWAVE"> F  </i>
  <i type="logical" name="LCHARG"> F  </i>
  <i type="logical" name="LPEAD"> F  </i>
  <i type="logical" name="LCALCPOL"> F  </i>
  <i type="logical" name="LCALCEPS"> F  </i>
  <v name="EFIELD_PEAD">      0.00000000      0.00000000      0.00000000</v>
  <i type="logical" name="LEFG"> F  </i>
 </incar>
 <kpoints>
  <generation param="Monkhorst-Pack">
   <v type="int" name="divisions">       2        2        2 </v>
   <v name="usershift">      0.00000000       0.00000000       0.00000000 </v>
   <v name="genvec1">      0.50000000       0.00000000       0.00000000 </v>
   <v name="genvec2">      0.00000000       0.50000000       0.00000000 </v>
   <v name="genvec3">      0.00000000       0.00000000       0.50000000 </v>
   <v name="shift">      0.50000000       0.50000000       0.50000000 </v>
  </generation>
  <varray name="kpointlist" >
   <v>       0.25000000       0.25000000       0.25000000 </v>
  </varray>
  <varray name="weights" >
   <v>       1.00000000 </v>
  </varray>
 </kpoints>
 <parameters>
  <separator name="general" >
   <i type="string" name="SYSTEM">unknown system</i>
   <i type="logical" name="LCOMPAT"> F  </i>
  </separator>
  <separator name="electronic" >
   <i type="string" name="PREC">accura</i>
   <i name="ENMAX">    300.00000000</i>
   <i name="ENAUG">    291.05200000</i>
   <i name="EDIFF">      0.00010000</i>
   <i type="int" name="IALGO">    48</i>
   <i type="int" name="IWAVPR">    11</i>
   <i type="int" name="NBANDS">    72</i>
   <i name="NELECT">     96.00000000</i>
   <separator name="electronic smearing" >
    <i type="int" name="ISMEAR">     1</i>
    <i name="SIGMA">      0.20000000</i>
   </separator>
   <separator name="electronic projectors" >
    <i type="logical" name="LREAL"> F  </i>
    <v name="ROPT">      0.00000000</v>
    <i type="int" name="LMAXPAW">  -100</i>
    <i type="int" name="LMAXMIX">     2</i>
   </separator>
   <separator name="electronic startup" >
    <i type="int" name="ISTART">     0</i>
    <i type="int" name="ICHARG">     2</i>
    <i type="int" name="INIWAV">     1</i>
   </separator>
   <separator name="electronic spin" >
    <i type="int" name="ISPIN">     1</i>
    <i type="logical" name="LNONCOLLINEAR"> F  </i>
    <v name="MAGMOM">      1.00000000      1.00000000      1.00000000      1.00000000      1.00000000      1.00000000      1.00000000      1.00000000      1.00000000      1.00000000      1.00000000      1.00000000      1.00000000      1.00000000      1.00000000      1.00000000      1.00000000      1.00000000      1.00000000      1.00000000
      1.00000000      1.00000000      1.00000000      1.00000000      1.00000000      1.00000000      1.00000000      1.00000000      1.00000000      1.00000000      1.00000000      1.00000000</v>
    <i name="NUPDOWN">     -1.00000000</i>
    <i type="logical" name="LSORBIT"> F  </i>
    <v name="SAXIS">      0.00000000      0.00000000      1.00000000</v>
    <i type="logical" name="LSPIRAL"> F  </i>
    <v name="QSPIRAL">      0.00000000      0.00000000      0.00000000</v>
    <i type="logical" name="LZEROZ"> F  </i>
   </separator>
   <separator name="electronic exchange-correlation" >
    <i type="logical" name="LASPH"> F  </i>
    <i type="logical" name="LMETAGGA"> F  </i>
   </separator>
   <separator name="electronic convergence" >
    <i type="int" name="NELM">    60</i>
    <i type="int" name="NELMDL">   -12</i>
    <i type="int" name="NELMIN">     2</i>
    <i name="ENINI">    300.00000000</i>
    <separator name="electronic convergence detail" >
     <i type="logical" name="LDIAG"> T  </i>
     <i name="WEIMIN">      0.00100000</i>
     <i name="EBREAK">      0.00000038</i>
     <i name="DEPER">      0.30000000</i>
     <i type="int" name="NRMM">     4</i>
     <i name="TIME">      0.40000000</i>
    </separator>
   </separator>
   <separator name="electronic mixer" >
    <i name="AMIX">      0.40000000</i>
    <i name="BMIX">      1.00000000</i>
    <i name="AMIN">      0.10000000</i>
    <i name="AMIX_MAG">      1.60000000</i>
    <i name="BMIX_MAG">      1.00000000</i>
    <separator name="electronic mixer details" >
     <i type="int" name="IMIX">     4</i>
     <i type="int" name="MAXMIX">   -45</i>
     <i name="WC">    100.00000000</i>
     <i type="int" name="INIMIX">     1</i>
     <i type="int" name="MIXPRE">     1</i>
     <i type="int" name="MREMOVE">     5</i>
    </separator>
   </separator>
   <separator name="electronic dipolcorrection" >
    <i type="logical" name="LDIPOL"> F  </i>
    <i type="logical" name="LMONO"> F  </i>
    <i type="int" name="IDIPOL">     0</i>
    <i name="EPSILON">      1.00000000</i>
    <v name="DIPOL">   -100.00000000   -100.00000000   -100.00000000</v>
    <i name="EFIELD">      0.00000000</i>
   </separator>
  </separator>
  <separator name="grids" >
   <i type="int" name="NGX">    48</i>
   <i type="int" name="NGY">    48</i>
   <i type="int" name="NGZ">    48</i>
   <i type="int" name="NGXF">    96</i>
   <i type="int" name="NGYF">    96</i>
   <i type="int" name="NGZF">    96</i>
   <i type="logical" name="ADDGRID"> F  </i>
  </separator>
  <separator name="ionic" >
   <i type="int" name="NSW">   191</i>
   <i type="int" name="IBRION">     2</i>
   <i type="int" name="ISIF">     3</i>
   <i name="PSTRESS">      0.00000000</i>
   <i name="EDIFFG">      0.05000000</i>
   <i type="int" name="NFREE">     1</i>
   <i name="POTIM">      0.50000000</i>
   <i name="SMASS">     -3.00000000</i>
  </separator>
  <separator name="ionic md" >
   <i name="TEBEG">      0.00010000</i>
   <i name="TEEND">      0.00010000</i>
   <i type="int" name="NBLOCK">     1</i>
   <i type="int" name="KBLOCK">   191</i>
   <i type="int" name="NPACO">   256</i>
   <i name="APACO">     16.00000000</i>
  </separator>
  <separator name="symmetry" >
   <i type="int" name="ISYM">     2</i>
   <i name="SYMPREC">      0.00001000</i>
  </separator>
  <separator name="dos" >
   <i type="logical" name="LORBIT"> F  </i>
   <v name="RWIGS">     -1.00000000</v>
   <i type="int" name="NEDOS">   301</i>
   <i name="EMIN">     10.00000000</i>
   <i name="EMAX">    -10.00000000</i>
   <i name="EFERMI">      0.00000000</i>
  </separator>
  <separator name="writing" >
   <i type="int" name="NWRITE">     2</i>
   <i type="logical" name="LWAVE"> F  </i>
   <i type="logical" name="LCHARG"> F  </i>
   <i type="logical" name="LPARD"> F  </i>
   <i type="logical" name="LVTOT"> F  </i>
   <i type="logical" name="LELF"> F  </i>
   <i type="logical" name="LOPTICS"> F  </i>
   <v name="STM">      0.00000000      0.00000000      0.00000000      0.00000000      0.00000000</v>
  </separator>
  <separator name="performance" >
   <i type="int" name="NPAR">    12</i>
   <i type="int" name="NSIM">     4</i>
   <i type="int" name="NBLK">    32</i>
   <i type="logical" name="LPLANE"> T  </i>
   <i type="logical" name="LSCALAPACK"> F  </i>
   <i type="logical" name="LSCAAWARE"> F  </i>
   <i type="logical" name="LSCALU"> F  </i>
   <i type="logical" name="LASYNC"> F  </i>
  </separator>
  <separator name="miscellaneous" >
   <i type="int" name="IDIOT">     3</i>
   <i type="logical" name="LMUSIC"> F  </i>
   <v name="POMASS">     26.98200000</v>
   <i type="logical" name="LCORR"> T  </i>
  </separator>
  <i type="logical" name="LREAL_COMPAT"> F  </i>
  <i type="logical" name="GGA_COMPAT"> T  </i>
  <i type="logical" name="LBERRY"> F  </i>
  <i type="int" name="ICORELEVEL">     0</i>
  <i type="logical" name="LDAU"> F  </i>
  <i type="int" name="I_CONSTRAINED_M">     0</i>
  <separator name="electronic exchange-correlation" >
   <i type="string" name="GGA">--</i>
   <i type="int" name="VOSKOWN">     0</i>
   <i type="logical" name="LHFCALC"> F  </i>
   <i type="logical" name="LHFONE"> F  </i>
   <i type="logical" name="LRHFCALC"> F  </i>
   <i type="logical" name="LTHOMAS"> F  </i>
   <i type="logical" name="LMODELHF"> F  </i>
   <i name="ENCUTFOCK">      0.00000000</i>
   <i name="ENCUT4O">     -1.00000000</i>
   <i type="int" name="EXXOEP">     0</i>
   <i type="int" name="FOURORBIT">     0</i>
   <i name="AEXX">      0.00000000</i>
   <i name="HFALPHA">      0.00000000</i>
   <i name="ALDAX">      1.00000000</i>
   <i name="AGGAX">      1.00000000</i>
   <i name="ALDAC">      1.00000000</i>
   <i name="AGGAC">      1.00000000</i>
   <i type="int" name="NKREDX">     1</i>
   <i type="int" name="NKREDY">     1</i>
   <i type="int" name="NKREDZ">     1</i>
   <i type="logical" name="SHIFTRED"> F  </i>
   <i type="logical" name="ODDONLY"> F  </i>
   <i type="logical" name="EVENONLY"> F  </i>
   <i type="int" name="LMAXFOCK">     0</i>
   <i type="int" name="NMAXFOCKAE">     0</i>
   <i name="HFSCREEN">      0.00000000</i>
   <i name="HFSCREENC">      0.00000000</i>
  </separator>
  <separator name="model GW" >
   <i type="int" name="MODEL_GW">     0</i>
   <i name="MODEL_EPS0">      9.55985489</i>
   <i name="MODEL_ALPHA">      1.00000000</i>
  </separator>
  <separator name="linear response parameters" >
   <i type="logical" name="LEPSILON"> F  </i>
   <i type="logical" name="LRPA"> F  </i>
   <i type="logical" name="LNABLA"> F  </i>
   <i type="logical" name="LVEL"> F  </i>
   <i type="int" name="KINTER">     0</i>
   <i name="CSHIFT">      0.10000000</i>
   <i name="OMEGAMAX">     -1.00000000</i>
  </separator>
  <separator name="orbital magnetization" >
   <i type="logical" name="ORBITALMAG"> F  </i>
   <i type="logical" name="LMAGBLOCH"> F  </i>
   <i type="logical" name="LCHIMAG"> F  </i>
   <i type="logical" name="LGAUGE"> T  </i>
   <i type="int" name="MAGATOM">     0</i>
   <v name="MAGDIPOL">      0.00000000      0.00000000      0.00000000</v>
   <v name="AVECCONST">      0.00000000      0.00000000      0.00000000</v>
  </separator>
  <separator name="response functions" >
   <i type="logical" name="LRPA"> T  </i>
   <i type="logical" name="LTCTE"> F  </i>
   <i type="logical" name="LTETE"> F  </i>
   <i type="logical" name="L2ORDER"> F  </i>
   <i type="logical" name="LGWLF"> F  </i>
   <i name="ENCUTGW">    200.00000000</i>
   <i name="ENCUTGWSOFT">     -2.00000000</i>
   <i name="ENCUTLF">     -1.00000000</i>
   <i type="int" name="LMAXMP2">    -1</i>
   <i name="SCISSOR">      0.00000000</i>
   <i type="int" name="NOMEGA">     0</i>
   <i type="int" name="NOMEGAR">     0</i>
   <i type="int" name="NBANDSGW">    -1</i>
   <i type="int" name="NBANDSLF">    -1</i>
   <i type="int" name="NELM">     1</i>
   <i type="int" name="DIM">     3</i>
   <i type="int" name="ANTIRES">     0</i>
   <i type="logical" name="LUSEW"> F  </i>
   <i name="OMEGAMAX">    -30.00000000</i>
   <i name="OMEGATL">   -200.00000000</i>
   <i type="int" name="OMEGAGRID">     0</i>
   <i name="CSHIFT">     -0.10000000</i>
   <i type="logical" name="SELFENERGY"> F  </i>
   <i type="logical" name="LSPECTRAL"> F  </i>
   <i type="logical" name="ODDONLYGW"> F  </i>
   <i type="logical" name="EVENONLYGW"> F  </i>
   <i type="int" name="NKREDLFX">     1</i>
   <i type="int" name="NKREDLFY">     1</i>
   <i type="int" name="NKREDLFZ">     1</i>
   <i type="int" name="MAXMEM">  1024</i>
   <i type="int" name="TELESCOPE">     0</i>
  </separator>
 </parameters>
 <atominfo>
  <atoms>      32 </atoms>
  <types>       1 </types>
  <array name="atoms" >
   <dimension dim="1">ion</dimension>
   <field type="string">element</field>
   <field type="int">atomtype</field>
   <set>
    <rc><c>Al</c><c>   1</c></rc>
    <rc><c>Al</c><c>   1</c></rc>
    <rc><c>Al</c><c>   1</c></rc>
    <rc><c>Al</c><c>   1</c></rc>
    <rc><c>Al</c><c>   1</c></rc>
    <rc><c>Al</c><c>   1</c></rc>
    <rc><c>Al</c><c>   1</c></rc>
    <rc><c>Al</c><c>   1</c></rc>
    <rc><c>Al</c><c>   1</c></rc>
    <rc><c>Al</c><c>   1</c></rc>
    <rc><c>Al</c><c>   1</c></rc>
    <rc><c>Al</c><c>   1</c></rc>
    <rc><c>Al</c><c>   1</c></rc>
    <rc><c>Al</c><c>   1</c></rc>
    <rc><c>Al</c><c>   1</c></rc>
    <rc><c>Al</c><c>   1</c></rc>
    <rc><c>Al</c><c>   1</c></rc>
    <rc><c>Al</c><c>   1</c></rc>
    <rc><c>Al</c><c>   1</c></rc>
    <rc><c>Al</c><c>   1</c></rc>
    <rc><c>Al</c><c>   1</c></rc>
    <rc><c>Al</c><c>   1</c></rc>
    <rc><c>Al</c><c>   1</c></rc>
    <rc><c>Al</c><c>   1</c></rc>
    <rc><c>Al</c><c>   1</c></rc>
    <rc><c>Al</c><c>   1</c></rc>
    <rc><c>Al</c><c>   1</c></rc>
    <rc><c>Al</c><c>   1</c></rc>
    <rc><c>Al</c><c>   1</c></rc>
    <rc><c>Al</c><c>   1</c></rc>
    <rc><c>Al</c><c>   1</c></rc>
    <rc><c>Al</c><c>   1</c></rc>
   </set>
  </array>
  <array name="atomtypes" >
   <dimension dim="1">type</dimension>
   <field type="int">atomspertype</field>
   <field type="string">element</field>
   <field>mass</field>
   <field>valence</field>
   <field type="string">pseudopotential</field>
   <set>
    <rc><c>  32</c><c>Al</c><c>     26.98200000</c><c>      3.00000000</c><c> PAW_PBE Al 04Jan2001                   </c></rc>
   </set>
  </array>
 </atominfo>
 <structure name="initialpos" >
  <crystal>
   <varray name="basis" >
    <v>       7.98883300       0.00000000       0.00000000 </v>
    <v>       0.00000000       7.98883300       0.00000000 </v>
    <v>       0.00000000       0.00000000       7.98883300 </v>
   </varray>
   <i name="volume">    509.85892745 </i>
   <varray name="rec_basis" >
    <v>       0.12517473       0.00000000       0.00000000 </v>
    <v>       0.00000000       0.12517473       0.00000000 </v>
    <v>       0.00000000       0.00000000       0.12517473 </v>
   </varray>
  </crystal>
  <varray name="positions" >
   <v>       0.00000000       0.00000000       0.00000000 </v>
   <v>       0.25000000       0.00000000       0.25000000 </v>
   <v>       0.25000000       0.25000000       0.00000000 </v>
   <v>       0.00000000       0.25000000       0.25000000 </v>
   <v>       0.50000000       0.00000000       0.00000000 </v>
   <v>       0.75000000       0.00000000       0.25000000 </v>
   <v>       0.75000000       0.25000000       0.00000000 </v>
   <v>       0.50000000       0.25000000       0.25000000 </v>
   <v>       0.00000000       0.50000000       0.00000000 </v>
   <v>       0.25000000       0.50000000       0.25000000 </v>
   <v>       0.25000000       0.75000000       0.00000000 </v>
   <v>       0.00000000       0.75000000       0.25000000 </v>
   <v>       0.50000000       0.50000000       0.00000000 </v>
   <v>       0.75000000       0.50000000       0.25000000 </v>
   <v>       0.75000000       0.75000000       0.00000000 </v>
   <v>       0.50000000       0.75000000       0.25000000 </v>
   <v>       0.00000000       0.00000000       0.50000000 </v>
   <v>       0.25000000       0.00000000       0.75000000 </v>
   <v>       0.25000000       0.25000000       0.50000000 </v>
   <v>       0.00000000       0.25000000       0.75000000 </v>
   <v>       0.50000000       0.00000000       0.50000000 </v>
   <v>       0.75000000       0.00000000       0.75000000 </v>
   <v>       0.75000000       0.25000000       0.50000000 </v>
   <v>       0.50000000       0.25000000       0.75000000 </v>
   <v>       0.00000000       0.50000000       0.50000000 </v>
   <v>       0.25000000       0.50000000       0.75000000 </v>
   <v>       0.25000000       0.75000000       0.50000000 </v>
   <v>       0.00000000       0.75000000       0.75000000 </v>
   <v>       0.50000000       0.50000000       0.50000000 </v>
   <v>       0.75000000       0.50000000       0.75000000 </v>
   <v>       0.75000000       0.75000000       0.50000000 </v>
   <v>       0.50000000       0.75000000       0.75000000 </v>
  </varray>
 </structure>
 <calculation>
  <scstep>
   <time name="diag">    0.15    0.15</time>
   <time name="diis">    0.34    0.34</time>
   <time name="orth">    0.01    0.01</time>
   <time name="total">    0.67    0.67</time>
   <energy>
    <i name="alphaZ">     -6.74583361 </i>
    <i name="ewald">  -2380.07994468 </i>
    <i name="hartreedc">     -2.86682645 </i>
    <i name="XCdc">   -837.64434751 </i>
    <i name="pawpsdc">   1137.73615723 </i>
    <i name="pawaedc">   -115.16745734 </i>
    <i name="eentropy">     -0.11785346 </i>
    <i name="bandstr">    758.91673205 </i>
    <i name="atom">   1713.20396807 </i>
    <i name="e_fr_energy">    267.23459430 </i>
    <i name="e_wo_entrp">    267.35244776 </i>
    <i name="e_0_energy">    267.27387879 </i>
   </energy>
  </scstep>
  <scstep>
   <time name="diag">    0.15    0.15</time>
   <time name="diis">    0.34    0.34</time>
   <time name="orth">    0.01    0.01</time>
   <time name="total">    0.50    0.50</time>
   <energy>
    <i name="e_fr_energy">    -29.99273963 </i>
    <i name="e_wo_entrp">    -29.93544157 </i>
    <i name="e_0_energy">    -29.97364028 </i>
   </energy>
  </scstep>
  <scstep>
   <time name="diag">    0.15    0.15</time>
   <time name="diis">    0.34    0.34</time>
   <time name="orth">    0.01    0.01</time>
   <time name="total">    0.50    0.50</time>
   <energy>
    <i name="e_fr_energy">    -96.68655962 </i>
    <i name="e_wo_entrp">    -96.76604698 </i>
    <i name="e_0_energy">    -96.71305541 </i>
   </energy>
  </scstep>
  <scstep>
   <time name="diag">    0.15    0.15</time>
   <time name="diis">    0.34    0.34</time>
   <time name="orth">    0.01    0.01</time>
   <time name="total">    0.51    0.51</time>
   <energy>
    <i name="e_fr_energy">   -111.22775628 </i>
    <i name="e_wo_entrp">   -111.13805478 </i>
    <i name="e_0_energy">   -111.19785578 </i>
   </energy>
  </scstep>
  <scstep>
   <time name="diag">    0.15    0.15</time>
   <time name="diis">    0.34    0.34</time>
   <time name="orth">    0.01    0.01</time>
   <time name="total">    0.50    0.50</time>
   <energy>
    <i name="e_fr_energy">   -116.21317854 </i>
    <i name="e_wo_entrp">   -116.15961033 </i>
    <i name="e_0_energy">   -116.19532247 </i>
   </energy>
  </scstep>
  <scstep>
   <time name="diag">    0.15    0.15</time>
   <time name="diis">    0.34    0.34</time>
   <time name="orth">    0.01    0.01</time>
   <time name="total">    0.50    0.50</time>
   <energy>
    <i name="e_fr_energy">   -117.81658096 </i>
    <i name="e_wo_entrp">   -117.64757959 </i>
    <i name="e_0_energy">   -117.76024717 </i>
   </energy>
  </scstep>
  <scstep>
   <time name="diag">    0.15    0.15</time>
   <time name="diis">    0.34    0.34</time>
   <time name="orth">    0.01    0.01</time>
   <time name="total">    0.50    0.50</time>
   <energy>
    <i name="e_fr_energy">   -118.35259251 </i>
    <i name="e_wo_entrp">   -118.12037079 </i>
    <i name="e_0_energy">   -118.27518527 </i>
   </energy>
  </scstep>
  <scstep>
   <time name="diag">    0.15    0.15</time>
   <time name="diis">    0.34    0.34</time>
   <time name="orth">    0.01    0.01</time>
   <time name="total">    0.50    0.50</time>
   <energy>
    <i name="e_fr_energy">   -118.53879780 </i>
    <i name="e_wo_entrp">   -118.28367972 </i>
    <i name="e_0_energy">   -118.45375844 </i>
   </energy>
  </scstep>
  <scstep>
   <time name="diag">    0.15    0.15</time>
   <time name="diis">    0.62    0.62</time>
   <time name="orth">    0.01    0.01</time>
   <time name="total">    0.78    0.78</time>
   <energy>
    <i name="e_fr_energy">   -118.64788397 </i>
    <i name="e_wo_entrp">   -118.38469903 </i>
    <i name="e_0_energy">   -118.56015566 </i>
   </energy>
  </scstep>
  <scstep>
   <time name="diag">    0.15    0.15</time>
   <time name="diis">    0.52    0.52</time>
   <time name="orth">    0.01    0.01</time>
   <time name="total">    0.68    0.68</time>
   <energy>
    <i name="e_fr_energy">   -118.66262868 </i>
    <i name="e_wo_entrp">   -118.39958893 </i>
    <i name="e_0_energy">   -118.57494876 </i>
   </energy>
  </scstep>
  <scstep>
   <time name="diag">    0.15    0.15</time>
   <time name="diis">    0.50    0.50</time>
   <time name="orth">    0.01    0.01</time>
   <time name="total">    0.66    0.66</time>
   <energy>
    <i name="e_fr_energy">   -118.66320985 </i>
    <i name="e_wo_entrp">   -118.40017041 </i>
    <i name="e_0_energy">   -118.57553004 </i>
   </energy>
  </scstep>
  <scstep>
   <time name="diag">    0.15    0.15</time>
   <time name="diis">    0.41    0.42</time>
   <time name="orth">    0.01    0.01</time>
   <time name="total">    0.88    0.88</time>
   <energy>
    <i name="e_fr_energy">   -118.66321756 </i>
    <i name="e_wo_entrp">   -118.40017812 </i>
    <i name="e_0_energy">   -118.57553775 </i>
   </energy>
  </scstep>
  <scstep>
   <time name="diag">    0.16    0.16</time>
   <time name="diis">    0.61    0.61</time>
   <time name="orth">    0.01    0.01</time>
   <time name="total">    1.24    1.25</time>
   <energy>
    <i name="e_fr_energy">   -118.25586131 </i>
    <i name="e_wo_entrp">   -117.99311920 </i>
    <i name="e_0_energy">   -118.16828061 </i>
   </energy>
  </scstep>
  <scstep>
   <time name="diag">    0.15    0.15</time>
   <time name="diis">    0.60    0.63</time>
   <time name="orth">    0.01    0.01</time>
   <time name="total">    1.23    1.26</time>
   <energy>
    <i name="e_fr_energy">   -117.94977743 </i>
    <i name="e_wo_entrp">   -117.68721224 </i>
    <i name="e_0_energy">   -117.86225570 </i>
   </energy>
  </scstep>
  <scstep>
   <time name="diag">    0.15    0.15</time>
   <time name="diis">    0.60    0.60</time>
   <time name="orth">    0.01    0.01</time>
   <time name="total">    1.22    1.22</time>
   <energy>
    <i name="e_fr_energy">   -117.95012875 </i>
    <i name="e_wo_entrp">   -117.68755867 </i>
    <i name="e_0_energy">   -117.86260539 </i>
   </energy>
  </scstep>
  <scstep>
   <time name="diag">    0.15    0.15</time>
   <time name="diis">    0.42    0.42</time>
   <time name="orth">    0.01    0.01</time>
   <time name="total">    0.73    0.74</time>
   <energy>
    <i name="alphaZ">     -6.74583361 </i>
    <i name="ewald">  -2380.07994468 </i>
    <i name="hartreedc">     -3.80417956 </i>
    <i name="XCdc">   -833.85676815 </i>
    <i name="pawpsdc">   1146.89455431 </i>
    <i name="pawaedc">   -124.98480550 </i>
    <i name="eentropy">     -0.26257101 </i>
    <i name="bandstr">    371.68543484 </i>
    <i name="atom">   1713.20396807 </i>
    <i name="e_fr_energy">   -117.95014528 </i>
    <i name="e_wo_entrp">   -117.68757427 </i>
    <i name="e_0_energy">   -117.86262161 </i>
   </energy>
  </scstep>
  <structure>
   <crystal>
    <varray name="basis" >
     <v>       7.98883300       0.00000000       0.00000000 </v>
     <v>       0.00000000       7.98883300       0.00000000 </v>
     <v>       0.00000000       0.00000000       7.98883300 </v>
    </varray>
    <i name="volume">    509.85892745 </i>
    <varray name="rec_basis" >
     <v>       0.12517473       0.00000000       0.00000000 </v>
     <v>       0.00000000       0.12517473       0.00000000 </v>
     <v>       0.00000000       0.00000000       0.12517473 </v>
    </varray>
   </crystal>
   <varray name="positions" >
    <v>       0.00000000       0.00000000       0.00000000 </v>
    <v>       0.25000000       0.00000000       0.25000000 </v>
    <v>       0.25000000       0.25000000       0.00000000 </v>
    <v>       0.00000000       0.25000000       0.25000000 </v>
    <v>       0.50000000       0.00000000       0.00000000 </v>
    <v>       0.75000000       0.00000000       0.25000000 </v>
    <v>       0.75000000       0.25000000       0.00000000 </v>
    <v>       0.50000000       0.25000000       0.25000000 </v>
    <v>       0.00000000       0.50000000       0.00000000 </v>
    <v>       0.25000000       0.50000000       0.25000000 </v>
    <v>       0.25000000       0.75000000       0.00000000 </v>
    <v>       0.00000000       0.75000000       0.25000000 </v>
    <v>       0.50000000       0.50000000       0.00000000 </v>
    <v>       0.75000000       0.50000000       0.25000000 </v>
    <v>       0.75000000       0.75000000       0.00000000 </v>
    <v>       0.50000000       0.75000000       0.25000000 </v>
    <v>       0.00000000       0.00000000       0.50000000 </v>
    <v>       0.25000000       0.00000000       0.75000000 </v>
    <v>       0.25000000       0.25000000       0.50000000 </v>
    <v>       0.00000000       0.25000000       0.75000000 </v>
    <v>       0.50000000       0.00000000       0.50000000 </v>
    <v>       0.75000000       0.00000000       0.75000000 </v>
    <v>       0.75000000       0.25000000       0.50000000 </v>
    <v>       0.50000000       0.25000000       0.75000000 </v>
    <v>       0.00000000       0.50000000       0.50000000 </v>
    <v>       0.25000000       0.50000000       0.75000000 </v>
    <v>       0.25000000       0.75000000       0.50000000 </v>
    <v>       0.00000000       0.75000000       0.75000000 </v>
    <v>       0.50000000       0.50000000       0.50000000 </v>
    <v>       0.75000000       0.50000000       0.75000000 </v>
    <v>       0.75000000       0.75000000       0.50000000 </v>
    <v>       0.50000000       0.75000000       0.75000000 </v>
   </varray>
  </structure>
  <varray name="forces" >
   <v>       0.00000000       0.00000000       0.00000000 </v>
   <v>       0.00000000       0.00000000       0.00000000 </v>
   <v>       0.00000000       0.00000000       0.00000000 </v>
   <v>       0.00000000       0.00000000       0.00000000 </v>
   <v>       0.00000000       0.00000000       0.00000000 </v>
   <v>       0.00000000       0.00000000       0.00000000 </v>
   <v>       0.00000000       0.00000000       0.00000000 </v>
   <v>       0.00000000       0.00000000       0.00000000 </v>
   <v>       0.00000000       0.00000000       0.00000000 </v>
   <v>       0.00000000       0.00000000       0.00000000 </v>
   <v>       0.00000000       0.00000000       0.00000000 </v>
   <v>       0.00000000       0.00000000       0.00000000 </v>
   <v>       0.00000000       0.00000000       0.00000000 </v>
   <v>       0.00000000       0.00000000       0.00000000 </v>
   <v>       0.00000000       0.00000000       0.00000000 </v>
   <v>       0.00000000       0.00000000       0.00000000 </v>
   <v>       0.00000000       0.00000000       0.00000000 </v>
   <v>       0.00000000       0.00000000       0.00000000 </v>
   <v>       0.00000000       0.00000000       0.00000000 </v>
   <v>       0.00000000       0.00000000       0.00000000 </v>
   <v>       0.00000000       0.00000000       0.00000000 </v>
   <v>       0.00000000       0.00000000       0.00000000 </v>
   <v>       0.00000000       0.00000000       0.00000000 </v>
   <v>       0.00000000       0.00000000       0.00000000 </v>
   <v>       0.00000000       0.00000000       0.00000000 </v>
   <v>       0.00000000       0.00000000       0.00000000 </v>
   <v>       0.00000000       0.00000000       0.00000000 </v>
   <v>       0.00000000       0.00000000       0.00000000 </v>
   <v>       0.00000000       0.00000000       0.00000000 </v>
   <v>       0.00000000       0.00000000       0.00000000 </v>
   <v>       0.00000000       0.00000000       0.00000000 </v>
   <v>       0.00000000       0.00000000       0.00000000 </v>
  </varray>
  <varray name="stress" >
   <v>      32.43526425       0.00000000       0.00000000 </v>
   <v>       0.00000000      32.43526425       0.00000000 </v>
   <v>       0.00000000       0.00000000      32.43526425 </v>
  </varray>
  <energy>
   <i name="e_fr_energy">   -117.95014528 </i>
   <i name="e_wo_entrp">   -117.86262161 </i>
   <i name="e_0_energy">     -0.26257101 </i>
  </energy>
  <time name="totalsc">   13.11   13.16</time>
 </calculation>
 <calculation>
  <scstep>
   <time name="diag">    0.15    0.15</time>
   <time name="diis">    0.61    0.61</time>
   <time name="orth">    0.01    0.01</time>
   <time name="total">    1.23    1.23</time>
   <energy>
    <i name="alphaZ">     -6.44046988 </i>
    <i name="ewald">  -2343.61096425 </i>
    <i name="hartreedc">     -3.74671872 </i>
    <i name="XCdc">   -836.28088792 </i>
    <i name="pawpsdc">   1146.81207723 </i>
    <i name="pawaedc">   -124.90183948 </i>
    <i name="eentropy">     -0.26383738 </i>
    <i name="bandstr">    337.08193163 </i>
    <i name="atom">   1713.20396807 </i>
    <i name="e_fr_energy">   -118.14674071 </i>
    <i name="e_wo_entrp">   -117.88290333 </i>
    <i name="e_0_energy">   -118.05879492 </i>
   </energy>
  </scstep>
  <scstep>
   <time name="diag">    0.15    0.15</time>
   <time name="diis">    0.59    0.59</time>
   <time name="orth">    0.01    0.01</time>
   <time name="total">    1.21    1.21</time>
   <energy>
    <i name="e_fr_energy">   -118.13431501 </i>
    <i name="e_wo_entrp">   -117.87041019 </i>
    <i name="e_0_energy">   -118.04634674 </i>
   </energy>
  </scstep>
  <scstep>
   <time name="diag">    0.15    0.15</time>
   <time name="diis">    0.60    0.60</time>
   <time name="orth">    0.01    0.01</time>
   <time name="total">    1.22    1.22</time>
   <energy>
    <i name="e_fr_energy">   -118.12406395 </i>
    <i name="e_wo_entrp">   -117.86003461 </i>
    <i name="e_0_energy">   -118.03605417 </i>
   </energy>
  </scstep>
  <scstep>
   <time name="diag">    0.15    0.15</time>
   <time name="diis">    0.41    0.41</time>
   <time name="orth">    0.01    0.01</time>
   <time name="total">    0.73    0.73</time>
   <energy>
    <i name="alphaZ">     -6.44046988 </i>
    <i name="ewald">  -2343.61096425 </i>
    <i name="hartreedc">     -3.55642852 </i>
    <i name="XCdc">   -836.85384149 </i>
    <i name="pawpsdc">   1141.77206981 </i>
    <i name="pawaedc">   -119.60386492 </i>
    <i name="eentropy">     -0.26401971 </i>
    <i name="bandstr">    337.22946657 </i>
    <i name="atom">   1713.20396807 </i>
    <i name="e_fr_energy">   -118.12408432 </i>
    <i name="e_wo_entrp">   -117.86006461 </i>
    <i name="e_0_energy">   -118.03607775 </i>
   </energy>
  </scstep>
  <structure>
   <crystal>
    <varray name="basis" >
     <v>       8.11314740       0.00000000       0.00000000 </v>
     <v>       0.00000000       8.11314740       0.00000000 </v>
     <v>       0.00000000       0.00000000       8.11314740 </v>
    </varray>
    <i name="volume">    534.03300566 </i>
    <varray name="rec_basis" >
     <v>       0.12325673       0.00000000       0.00000000 </v>
     <v>       0.00000000       0.12325673       0.00000000 </v>
     <v>       0.00000000       0.00000000       0.12325673 </v>
    </varray>
   </crystal>
   <varray name="positions" >
    <v>       0.00000000       0.00000000       0.00000000 </v>
    <v>       0.25000000       0.00000000       0.25000000 </v>
    <v>       0.25000000       0.25000000       0.00000000 </v>
    <v>       0.00000000       0.25000000       0.25000000 </v>
    <v>       0.50000000       0.00000000       0.00000000 </v>
    <v>       0.75000000       0.00000000       0.25000000 </v>
    <v>       0.75000000       0.25000000       0.00000000 </v>
    <v>       0.50000000       0.25000000       0.25000000 </v>
    <v>       0.00000000       0.50000000       0.00000000 </v>
    <v>       0.25000000       0.50000000       0.25000000 </v>
    <v>       0.25000000       0.75000000       0.00000000 </v>
    <v>       0.00000000       0.75000000       0.25000000 </v>
    <v>       0.50000000       0.50000000       0.00000000 </v>
    <v>       0.75000000       0.50000000       0.25000000 </v>
    <v>       0.75000000       0.75000000       0.00000000 </v>
    <v>       0.50000000       0.75000000       0.25000000 </v>
    <v>       0.00000000       0.00000000       0.50000000 </v>
    <v>       0.25000000       0.00000000       0.75000000 </v>
    <v>       0.25000000       0.25000000       0.50000000 </v>
    <v>       0.00000000       0.25000000       0.75000000 </v>
    <v>       0.50000000       0.00000000       0.50000000 </v>
    <v>       0.75000000       0.00000000       0.75000000 </v>
    <v>       0.75000000       0.25000000       0.50000000 </v>
    <v>       0.50000000       0.25000000       0.75000000 </v>
    <v>       0.00000000       0.50000000       0.50000000 </v>
    <v>       0.25000000       0.50000000       0.75000000 </v>
    <v>       0.25000000       0.75000000       0.50000000 </v>
    <v>       0.00000000       0.75000000       0.75000000 </v>
    <v>       0.50000000       0.50000000       0.50000000 </v>
    <v>       0.75000000       0.50000000       0.75000000 </v>
    <v>       0.75000000       0.75000000       0.50000000 </v>
    <v>       0.50000000       0.75000000       0.75000000 </v>
   </varray>
  </structure>
  <varray name="forces" >
   <v>       0.00000000       0.00000000       0.00000000 </v>
   <v>       0.00000000       0.00000000       0.00000000 </v>
   <v>       0.00000000       0.00000000       0.00000000 </v>
   <v>       0.00000000       0.00000000       0.00000000 </v>
   <v>       0.00000000       0.00000000       0.00000000 </v>
   <v>       0.00000000       0.00000000       0.00000000 </v>
   <v>       0.00000000       0.00000000       0.00000000 </v>
   <v>       0.00000000       0.00000000       0.00000000 </v>
   <v>       0.00000000       0.00000000       0.00000000 </v>
   <v>       0.00000000       0.00000000       0.00000000 </v>
   <v>       0.00000000       0.00000000       0.00000000 </v>
   <v>       0.00000000       0.00000000       0.00000000 </v>
   <v>       0.00000000       0.00000000       0.00000000 </v>
   <v>       0.00000000       0.00000000       0.00000000 </v>
   <v>       0.00000000       0.00000000       0.00000000 </v>
   <v>       0.00000000       0.00000000       0.00000000 </v>
   <v>       0.00000000       0.00000000       0.00000000 </v>
   <v>       0.00000000       0.00000000       0.00000000 </v>
   <v>       0.00000000       0.00000000       0.00000000 </v>
   <v>       0.00000000       0.00000000       0.00000000 </v>
   <v>       0.00000000       0.00000000       0.00000000 </v>
   <v>       0.00000000       0.00000000       0.00000000 </v>
   <v>       0.00000000       0.00000000       0.00000000 </v>
   <v>       0.00000000       0.00000000       0.00000000 </v>
   <v>       0.00000000       0.00000000       0.00000000 </v>
   <v>       0.00000000       0.00000000       0.00000000 </v>
   <v>       0.00000000       0.00000000       0.00000000 </v>
   <v>       0.00000000       0.00000000       0.00000000 </v>
   <v>       0.00000000       0.00000000       0.00000000 </v>
   <v>       0.00000000       0.00000000       0.00000000 </v>
   <v>       0.00000000       0.00000000       0.00000000 </v>
   <v>       0.00000000       0.00000000       0.00000000 </v>
  </varray>
  <varray name="stress" >
   <v>      -7.57650327       0.00000000       0.00000000 </v>
   <v>       0.00000000      -7.57650327       0.00000000 </v>
   <v>       0.00000000       0.00000000      -7.57650327 </v>
  </varray>
  <energy>
   <i name="e_fr_energy">   -118.12408432 </i>
   <i name="e_wo_entrp">   -118.03607775 </i>
   <i name="e_0_energy">     -0.26401971 </i>
  </energy>
  <time name="totalsc">    5.87    5.89</time>
 </calculation>
 <calculation>
  <scstep>
   <time name="diag">    0.15    0.15</time>
   <time name="diis">    0.59    0.59</time>
   <time name="orth">    0.01    0.01</time>
   <time name="total">    1.21    1.21</time>
   <energy>
    <i name="alphaZ">     -6.50301759 </i>
    <i name="ewald">  -2351.17332681 </i>
    <i name="hartreedc">     -3.56237565 </i>
    <i name="XCdc">   -836.36412977 </i>
    <i name="pawpsdc">   1141.85758096 </i>
    <i name="pawaedc">   -119.68763327 </i>
    <i name="eentropy">     -0.26348006 </i>
    <i name="bandstr">    344.35508895 </i>
    <i name="atom">   1713.20396807 </i>
    <i name="e_fr_energy">   -118.13732517 </i>
    <i name="e_wo_entrp">   -117.87384511 </i>
    <i name="e_0_energy">   -118.04949849 </i>
   </energy>
  </scstep>
  <scstep>
   <time name="diag">    0.15    0.15</time>
   <time name="diis">    0.49    0.49</time>
   <time name="orth">    0.01    0.01</time>
   <time name="total">    1.11    1.11</time>
   <energy>
    <i name="e_fr_energy">   -118.13679970 </i>
    <i name="e_wo_entrp">   -117.87333293 </i>
    <i name="e_0_energy">   -118.04897745 </i>
   </energy>
  </scstep>
  <scstep>
   <time name="diag">    0.15    0.15</time>
   <time name="diis">    0.42    0.42</time>
   <time name="orth">    0.01    0.01</time>
   <time name="total">    1.03    1.04</time>
   <energy>
    <i name="e_fr_energy">   -118.13639388 </i>
    <i name="e_wo_entrp">   -117.87294974 </i>
    <i name="e_0_energy">   -118.04857917 </i>
   </energy>
  </scstep>
  <scstep>
   <time name="diag">    0.15    0.15</time>
   <time name="diis">    0.37    0.37</time>
   <time name="orth">    0.01    0.01</time>
   <time name="total">    0.68    0.68</time>
   <energy>
    <i name="alphaZ">     -6.50301759 </i>
    <i name="ewald">  -2351.17332681 </i>
    <i name="hartreedc">     -3.59401296 </i>
    <i name="XCdc">   -836.24282236 </i>
    <i name="pawpsdc">   1142.89003117 </i>
    <i name="pawaedc">   -120.77071256 </i>
    <i name="eentropy">     -0.26344557 </i>
    <i name="bandstr">    344.31694214 </i>
    <i name="atom">   1713.20396807 </i>
    <i name="e_fr_energy">   -118.13639648 </i>
    <i name="e_wo_entrp">   -117.87295091 </i>
    <i name="e_0_energy">   -118.04858129 </i>
   </energy>
  </scstep>
  <structure>
   <crystal>
    <varray name="basis" >
     <v>       8.08705211       0.00000000       0.00000000 </v>
     <v>       0.00000000       8.08705211       0.00000000 </v>
     <v>       0.00000000       0.00000000       8.08705211 </v>
    </varray>
    <i name="volume">    528.89653774 </i>
    <varray name="rec_basis" >
     <v>       0.12365445       0.00000000       0.00000000 </v>
     <v>       0.00000000       0.12365445       0.00000000 </v>
     <v>       0.00000000       0.00000000       0.12365445 </v>
    </varray>
   </crystal>
   <varray name="positions" >
    <v>       0.00000000       0.00000000       0.00000000 </v>
    <v>       0.25000000       0.00000000       0.25000000 </v>
    <v>       0.25000000       0.25000000       0.00000000 </v>
    <v>       0.00000000       0.25000000       0.25000000 </v>
    <v>       0.50000000       0.00000000       0.00000000 </v>
    <v>       0.75000000       0.00000000       0.25000000 </v>
    <v>       0.75000000       0.25000000       0.00000000 </v>
    <v>       0.50000000       0.25000000       0.25000000 </v>
    <v>       0.00000000       0.50000000       0.00000000 </v>
    <v>       0.25000000       0.50000000       0.25000000 </v>
    <v>       0.25000000       0.75000000       0.00000000 </v>
    <v>       0.00000000       0.75000000       0.25000000 </v>
    <v>       0.50000000       0.50000000       0.00000000 </v>
    <v>       0.75000000       0.50000000       0.25000000 </v>
    <v>       0.75000000       0.75000000       0.00000000 </v>
    <v>       0.50000000       0.75000000       0.25000000 </v>
    <v>       0.00000000       0.00000000       0.50000000 </v>
    <v>       0.25000000       0.00000000       0.75000000 </v>
    <v>       0.25000000       0.25000000       0.50000000 </v>
    <v>       0.00000000       0.25000000       0.75000000 </v>
    <v>       0.50000000       0.00000000       0.50000000 </v>
    <v>       0.75000000       0.00000000       0.75000000 </v>
    <v>       0.75000000       0.25000000       0.50000000 </v>
    <v>       0.50000000       0.25000000       0.75000000 </v>
    <v>       0.00000000       0.50000000       0.50000000 </v>
    <v>       0.25000000       0.50000000       0.75000000 </v>
    <v>       0.25000000       0.75000000       0.50000000 </v>
    <v>       0.00000000       0.75000000       0.75000000 </v>
    <v>       0.50000000       0.50000000       0.50000000 </v>
    <v>       0.75000000       0.50000000       0.75000000 </v>
    <v>       0.75000000       0.75000000       0.50000000 </v>
    <v>       0.50000000       0.75000000       0.75000000 </v>
   </varray>
  </structure>
  <varray name="forces" >
   <v>       0.00000000       0.00000000       0.00000000 </v>
   <v>       0.00000000       0.00000000       0.00000000 </v>
   <v>       0.00000000       0.00000000       0.00000000 </v>
   <v>       0.00000000       0.00000000       0.00000000 </v>
   <v>       0.00000000       0.00000000       0.00000000 </v>
   <v>       0.00000000       0.00000000       0.00000000 </v>
   <v>       0.00000000       0.00000000       0.00000000 </v>
   <v>       0.00000000       0.00000000       0.00000000 </v>
   <v>       0.00000000       0.00000000       0.00000000 </v>
   <v>       0.00000000       0.00000000       0.00000000 </v>
   <v>       0.00000000       0.00000000       0.00000000 </v>
   <v>       0.00000000       0.00000000       0.00000000 </v>
   <v>       0.00000000       0.00000000       0.00000000 </v>
   <v>       0.00000000       0.00000000       0.00000000 </v>
   <v>       0.00000000       0.00000000       0.00000000 </v>
   <v>       0.00000000       0.00000000       0.00000000 </v>
   <v>       0.00000000       0.00000000       0.00000000 </v>
   <v>       0.00000000       0.00000000       0.00000000 </v>
   <v>       0.00000000       0.00000000       0.00000000 </v>
   <v>       0.00000000       0.00000000       0.00000000 </v>
   <v>       0.00000000       0.00000000       0.00000000 </v>
   <v>       0.00000000       0.00000000       0.00000000 </v>
   <v>       0.00000000       0.00000000       0.00000000 </v>
   <v>       0.00000000       0.00000000       0.00000000 </v>
   <v>       0.00000000       0.00000000       0.00000000 </v>
   <v>       0.00000000       0.00000000       0.00000000 </v>
   <v>       0.00000000       0.00000000       0.00000000 </v>
   <v>       0.00000000       0.00000000       0.00000000 </v>
   <v>       0.00000000       0.00000000       0.00000000 </v>
   <v>       0.00000000       0.00000000       0.00000000 </v>
   <v>       0.00000000       0.00000000       0.00000000 </v>
   <v>       0.00000000       0.00000000       0.00000000 </v>
  </varray>
  <varray name="stress" >
   <v>       0.02462493       0.00000000       0.00000000 </v>
   <v>       0.00000000       0.02462493       0.00000000 </v>
   <v>       0.00000000       0.00000000       0.02462493 </v>
  </varray>
  <energy>
   <i name="e_fr_energy">   -118.13639648 </i>
   <i name="e_wo_entrp">   -118.04858129 </i>
   <i name="e_0_energy">     -0.26344557 </i>
  </energy>
  <time name="totalsc">    5.41    5.43</time>
  <eigenvalues>
   <array>
    <dimension dim="1">band</dimension>
    <dimension dim="2">kpoint</dimension>
    <dimension dim="3">spin</dimension>
    <field>eigene</field>
    <field>occ</field>
    <set>
     <set comment="spin 1">
      <set comment="kpoint 1">
       <r>   -2.7132    1.0000 </r>
       <r>   -1.5892    1.0000 </r>
       <r>   -1.5892    1.0000 </r>
       <r>   -1.5892    1.0000 </r>
       <r>   -0.4737    1.0000 </r>
       <r>   -0.4737    1.0000 </r>
       <r>   -0.4737    1.0000 </r>
       <r>    0.6318    1.0000 </r>
       <r>    0.6318    1.0000 </r>
       <r>    0.6318    1.0000 </r>
       <r>    0.6333    1.0000 </r>
       <r>    1.7300    1.0000 </r>
       <r>    1.7300    1.0000 </r>
       <r>    1.7300    1.0000 </r>
       <r>    1.7300    1.0000 </r>
       <r>    1.7300    1.0000 </r>
       <r>    1.7300    1.0000 </r>
       <r>    2.8187    1.0000 </r>
       <r>    2.8187    1.0000 </r>
       <r>    2.8187    1.0000 </r>
       <r>    3.8624    1.0000 </r>
       <r>    3.8624    1.0000 </r>
       <r>    3.8624    1.0000 </r>
       <r>    3.8971    1.0000 </r>
       <r>    3.8971    1.0000 </r>
       <r>    3.8971    1.0000 </r>
       <r>    4.9287    1.0000 </r>
       <r>    4.9287    1.0000 </r>
       <r>    4.9287    1.0000 </r>
       <r>    4.9287    1.0000 </r>
       <r>    4.9287    1.0000 </r>
       <r>    4.9287    1.0000 </r>
       <r>    4.9914    1.0000 </r>
       <r>    4.9914    1.0000 </r>
       <r>    4.9914    1.0000 </r>
       <r>    6.0133    1.0000 </r>
       <r>    6.0133    1.0000 </r>
       <r>    6.0133    1.0000 </r>
       <r>    7.0602    1.0000 </r>
       <r>    7.0602    1.0000 </r>
       <r>    7.0602    1.0000 </r>
       <r>    7.0602    1.0000 </r>
       <r>    7.0602    1.0000 </r>
       <r>    7.0602    1.0000 </r>
       <r>    7.1225    1.0000 </r>
       <r>    8.1239    0.5174 </r>
       <r>    8.1239    0.5174 </r>
       <r>    8.1239    0.5174 </r>
       <r>    8.1239    0.5174 </r>
       <r>    8.1239    0.5174 </r>
       <r>    8.1239    0.5174 </r>
       <r>    8.3607   -0.0348 </r>
       <r>    8.3607   -0.0348 </r>
       <r>    8.3607   -0.0348 </r>
       <r>    9.4453    0.0000 </r>
       <r>    9.4453    0.0000 </r>
       <r>    9.4453    0.0000 </r>
       <r>    9.4453    0.0000 </r>
       <r>    9.4453    0.0000 </r>
       <r>    9.4453    0.0000 </r>
       <r>   10.2009    0.0000 </r>
       <r>   10.2009    0.0000 </r>
       <r>   10.2009    0.0000 </r>
       <r>   10.2236    0.0000 </r>
       <r>   10.2236    0.0000 </r>
       <r>   10.2236    0.0000 </r>
       <r>   10.5208    0.0000 </r>
       <r>   10.5208    0.0000 </r>
       <r>   10.5208    0.0000 </r>
       <r>   11.2139    0.0000 </r>
       <r>   11.2159    0.0000 </r>
       <r>   11.2431    0.0000 </r>
      </set>
     </set>
    </set>
   </array>
  </eigenvalues>
  <separator name="orbital magnetization" >
   <v name="MAGDIPOLOUT">      0.00000000      0.00000000      0.00000000</v>
  </separator>
  <dos>
   <i name="efermi">      8.12800925 </i>
   <total>
    <array>
     <dimension dim="1">gridpoints</dimension>
     <dimension dim="2">spin</dimension>
     <field>energy</field>
     <field>total</field>
     <field>integrated</field>
     <set>
      <set comment="spin 1">
       <r>  -4.7132   0.0000   0.0000 </r>
       <r>  -4.6534   0.0000   0.0000 </r>
       <r>  -4.5935   0.0000   0.0000 </r>
       <r>  -4.5337   0.0000   0.0000 </r>
       <r>  -4.4738   0.0000   0.0000 </r>
       <r>  -4.4140   0.0000   0.0000 </r>
       <r>  -4.3541   0.0000   0.0000 </r>
       <r>  -4.2943   0.0000   0.0000 </r>
       <r>  -4.2344   0.0000   0.0000 </r>
       <r>  -4.1746   0.0000   0.0000 </r>
       <r>  -4.1147   0.0000   0.0000 </r>
       <r>  -4.0548   0.0000   0.0000 </r>
       <r>  -3.9950   0.0000   0.0000 </r>
       <r>  -3.9351   0.0000   0.0000 </r>
       <r>  -3.8753   0.0000   0.0000 </r>
       <r>  -3.8154   0.0000   0.0000 </r>
       <r>  -3.7556   0.0000   0.0000 </r>
       <r>  -3.6957   0.0000   0.0000 </r>
       <r>  -3.6359   0.0000   0.0000 </r>
       <r>  -3.5760   0.0000   0.0000 </r>
       <r>  -3.5162   0.0000   0.0000 </r>
       <r>  -3.4563   0.0000   0.0000 </r>
       <r>  -3.3964  -0.0002   0.0000 </r>
       <r>  -3.3366  -0.0013  -0.0001 </r>
       <r>  -3.2767  -0.0067  -0.0005 </r>
       <r>  -3.2169  -0.0273  -0.0021 </r>
       <r>  -3.1570  -0.0880  -0.0074 </r>
       <r>  -3.0972  -0.2196  -0.0205 </r>
       <r>  -3.0373  -0.3960  -0.0443 </r>
       <r>  -2.9775  -0.4037  -0.0684 </r>
       <r>  -2.9176   0.2326  -0.0545 </r>
       <r>  -2.8578   1.9964   0.0650 </r>
       <r>  -2.7979   4.7582   0.3498 </r>
       <r>  -2.7380   7.3862   0.7919 </r>
       <r>  -2.6782   8.3496   1.2917 </r>
       <r>  -2.6183   7.0159   1.7116 </r>
       <r>  -2.5585   4.2518   1.9661 </r>
       <r>  -2.4986   1.6073   2.0623 </r>
       <r>  -2.4388   0.0531   2.0655 </r>
       <r>  -2.3789  -0.4322   2.0396 </r>
       <r>  -2.3191  -0.3686   2.0175 </r>
       <r>  -2.2592  -0.1926   2.0060 </r>
       <r>  -2.1994  -0.0792   2.0013 </r>
       <r>  -2.1395  -0.0499   1.9983 </r>
       <r>  -2.0796  -0.1134   1.9915 </r>
       <r>  -2.0198  -0.3316   1.9716 </r>
       <r>  -1.9599  -0.7744   1.9253 </r>
       <r>  -1.9001  -1.2750   1.8490 </r>
       <r>  -1.8402  -1.0176   1.7881 </r>
       <r>  -1.7804   1.5420   1.8804 </r>
       <r>  -1.7205   7.6275   2.3369 </r>
       <r>  -1.6607  16.2100   3.3072 </r>
       <r>  -1.6008  23.3564   4.7051 </r>
       <r>  -1.5410  24.7346   6.1856 </r>
       <r>  -1.4811  19.4325   7.3488 </r>
       <r>  -1.4212  10.8309   7.9970 </r>
       <r>  -1.3614   3.4764   8.2051 </r>
       <r>  -1.3015  -0.3898   8.1818 </r>
       <r>  -1.2417  -1.3383   8.1017 </r>
       <r>  -1.1818  -0.9886   8.0425 </r>
       <r>  -1.1220  -0.4784   8.0139 </r>
       <r>  -1.0621  -0.1825   8.0029 </r>
       <r>  -1.0023  -0.0957   7.9972 </r>
       <r>  -0.9424  -0.1780   7.9866 </r>
       <r>  -0.8826  -0.4678   7.9586 </r>
       <r>  -0.8227  -0.9746   7.9002 </r>
       <r>  -0.7628  -1.3390   7.8201 </r>
       <r>  -0.7030  -0.4436   7.7935 </r>
       <r>  -0.6431   3.3325   7.9930 </r>
       <r>  -0.5833  10.6123   8.6282 </r>
       <r>  -0.5234  19.2343   9.7795 </r>
       <r>  -0.4636  24.6759  11.2564 </r>
       <r>  -0.4037  23.4766  12.6616 </r>
       <r>  -0.3439  16.4303  13.6450 </r>
       <r>  -0.2840   7.8260  14.1135 </r>
       <r>  -0.2242   1.6511  14.2123 </r>
       <r>  -0.1643  -0.9884  14.1531 </r>
       <r>  -0.1044  -1.2833  14.0763 </r>
       <r>  -0.0446  -0.7890  14.0291 </r>
       <r>   0.0153  -0.3455  14.0084 </r>
       <r>   0.0751  -0.1433  13.9998 </r>
       <r>   0.1350  -0.1544  13.9906 </r>
       <r>   0.1948  -0.3997  13.9667 </r>
       <r>   0.2547  -0.9533  13.9096 </r>
       <r>   0.3145  -1.6452  13.8111 </r>
       <r>   0.3744  -1.5057  13.7210 </r>
       <r>   0.4342   1.4506  13.8078 </r>
       <r>   0.4941   9.0271  14.3481 </r>
       <r>   0.5540  20.2985  15.5631 </r>
       <r>   0.6138  30.3695  17.3808 </r>
       <r>   0.6737  33.2518  19.3711 </r>
       <r>   0.7335  27.0444  20.9898 </r>
       <r>   0.7934  15.7470  21.9324 </r>
       <r>   0.8532   5.5245  22.2630 </r>
       <r>   0.9131  -0.1702  22.2529 </r>
       <r>   0.9729  -1.7674  22.1471 </r>
       <r>   1.0328  -1.3999  22.0633 </r>
       <r>   1.0926  -0.7060  22.0210 </r>
       <r>   1.1525  -0.2887  22.0037 </r>
       <r>   1.2124  -0.1962  21.9920 </r>
       <r>   1.2722  -0.4281  21.9664 </r>
       <r>   1.3321  -1.0948  21.9009 </r>
       <r>   1.3919  -2.1464  21.7724 </r>
       <r>   1.4518  -2.6312  21.6149 </r>
       <r>   1.5116  -0.0255  21.6134 </r>
       <r>   1.5715   8.8415  22.1426 </r>
       <r>   1.6313  24.4054  23.6033 </r>
       <r>   1.6912  41.2154  26.0703 </r>
       <r>   1.7510  49.9900  29.0624 </r>
       <r>   1.8109  45.0547  31.7591 </r>
       <r>   1.8708  29.6587  33.5343 </r>
       <r>   1.9306  12.8810  34.3053 </r>
       <r>   1.9905   1.8406  34.4155 </r>
       <r>   2.0503  -2.3324  34.2759 </r>
       <r>   2.1102  -2.4312  34.1304 </r>
       <r>   2.1700  -1.3838  34.0475 </r>
       <r>   2.2299  -0.5744  34.0132 </r>
       <r>   2.2897  -0.2241  33.9998 </r>
       <r>   2.3496  -0.2103  33.9872 </r>
       <r>   2.4094  -0.4722  33.9589 </r>
       <r>   2.4693  -0.9725  33.9007 </r>
       <r>   2.5292  -1.3392  33.8205 </r>
       <r>   2.5890  -0.4563  33.7932 </r>
       <r>   2.6489   3.2984  33.9907 </r>
       <r>   2.7087  10.5602  34.6227 </r>
       <r>   2.7686  19.1865  35.7711 </r>
       <r>   2.8284  24.6612  37.2472 </r>
       <r>   2.8883  23.5048  38.6541 </r>
       <r>   2.9481  16.4830  39.6407 </r>
       <r>   3.0080   7.8738  40.1119 </r>
       <r>   3.0678   1.6775  40.2123 </r>
       <r>   3.1277  -0.9813  40.1536 </r>
       <r>   3.1876  -1.2862  40.0766 </r>
       <r>   3.2474  -0.7983  40.0288 </r>
       <r>   3.3073  -0.3762  40.0063 </r>
       <r>   3.3671  -0.2558  39.9910 </r>
       <r>   3.4270  -0.4968  39.9613 </r>
       <r>   3.4868  -1.1933  39.8899 </r>
       <r>   3.5467  -2.2086  39.7577 </r>
       <r>   3.6065  -2.4391  39.6117 </r>
       <r>   3.6664   0.7207  39.6548 </r>
       <r>   3.7262  10.2114  40.2660 </r>
       <r>   3.7861  25.9155  41.8172 </r>
       <r>   3.8460  41.9967  44.3309 </r>
       <r>   3.9058  49.5064  47.2940 </r>
       <r>   3.9657  43.6304  49.9055 </r>
       <r>   4.0255  28.1647  51.5913 </r>
       <r>   4.0854  11.9616  52.3073 </r>
       <r>   4.1452   1.5489  52.4000 </r>
       <r>   4.2051  -2.2908  52.2629 </r>
       <r>   4.2649  -2.3249  52.1237 </r>
       <r>   4.3248  -1.3271  52.0443 </r>
       <r>   4.3846  -0.6072  52.0079 </r>
       <r>   4.4445  -0.4458  51.9812 </r>
       <r>   4.5044  -0.8915  51.9279 </r>
       <r>   4.5642  -2.0215  51.8069 </r>
       <r>   4.6241  -3.4179  51.6023 </r>
       <r>   4.6839  -3.0666  51.4188 </r>
       <r>   4.7438   3.0673  51.6024 </r>
       <r>   4.8036  18.7096  52.7222 </r>
       <r>   4.8635  42.3056  55.2544 </r>
       <r>   4.9233  64.3591  59.1066 </r>
       <r>   4.9832  72.5466  63.4488 </r>
       <r>   5.0430  61.7951  67.1475 </r>
       <r>   5.1029  38.8512  69.4730 </r>
       <r>   5.1628  16.1345  70.4387 </r>
       <r>   5.2226   1.9557  70.5557 </r>
       <r>   5.2825  -3.1804  70.3654 </r>
       <r>   5.3423  -3.2002  70.1738 </r>
       <r>   5.4022  -1.8293  70.0644 </r>
       <r>   5.4620  -0.7845  70.0174 </r>
       <r>   5.5219  -0.3512  69.9964 </r>
       <r>   5.5817  -0.3893  69.9731 </r>
       <r>   5.6416  -0.7795  69.9264 </r>
       <r>   5.7014  -1.2722  69.8503 </r>
       <r>   5.7613  -1.0346  69.7883 </r>
       <r>   5.8212   1.4780  69.8768 </r>
       <r>   5.8810   7.5099  70.3263 </r>
       <r>   5.9409  16.0780  71.2886 </r>
       <r>   6.0007  23.2828  72.6822 </r>
       <r>   6.0606  24.7675  74.1647 </r>
       <r>   6.1204  19.5499  75.3348 </r>
       <r>   6.1803  10.9619  75.9909 </r>
       <r>   6.2401   3.5635  76.2042 </r>
       <r>   6.3000  -0.3569  76.1829 </r>
       <r>   6.3598  -1.3383  76.1028 </r>
       <r>   6.4197  -1.0016  76.0428 </r>
       <r>   6.4796  -0.5096  76.0123 </r>
       <r>   6.5394  -0.2911  75.9949 </r>
       <r>   6.5993  -0.4541  75.9677 </r>
       <r>   6.6591  -1.1160  75.9009 </r>
       <r>   6.7190  -2.2592  75.7657 </r>
       <r>   6.7788  -2.9954  75.5864 </r>
       <r>   6.8387  -0.7435  75.5419 </r>
       <r>   6.8985   8.0971  76.0265 </r>
       <r>   6.9584  24.7489  77.5079 </r>
       <r>   7.0182  44.2310  80.1553 </r>
       <r>   7.0781  56.4915  83.5366 </r>
       <r>   7.1380  53.9366  86.7649 </r>
       <r>   7.1978  38.2820  89.0563 </r>
       <r>   7.2577  18.8903  90.1869 </r>
       <r>   7.3175   4.6234  90.4637 </r>
       <r>   7.3774  -1.8163  90.3550 </r>
       <r>   7.4372  -2.8369  90.1852 </r>
       <r>   7.4971  -1.8625  90.0737 </r>
       <r>   7.5569  -0.8795  90.0210 </r>
       <r>   7.6168  -0.4456  89.9944 </r>
       <r>   7.6766  -0.5790  89.9597 </r>
       <r>   7.7365  -1.2819  89.8830 </r>
       <r>   7.7964  -2.3458  89.7426 </r>
       <r>   7.8562  -2.5725  89.5886 </r>
       <r>   7.9161   0.7486  89.6334 </r>
       <r>   7.9759  10.5150  90.2628 </r>
       <r>   8.0358  26.3398  91.8393 </r>
       <r>   8.0956  42.3783  94.3759 </r>
       <r>   8.1555  50.7954  97.4162 </r>
       <r>   8.2153  48.7678 100.3352 </r>
       <r>   8.2752  40.6865 102.7705 </r>
       <r>   8.3350  32.4831 104.7147 </r>
       <r>   8.3949  25.7171 106.2540 </r>
       <r>   8.4548  18.5977 107.3672 </r>
       <r>   8.5146  10.6111 108.0023 </r>
       <r>   8.5745   3.7088 108.2243 </r>
       <r>   8.6343  -0.2684 108.2082 </r>
       <r>   8.6942  -1.4329 108.1224 </r>
       <r>   8.7540  -1.1476 108.0537 </r>
       <r>   8.8139  -0.5946 108.0181 </r>
       <r>   8.8737  -0.2573 108.0027 </r>
       <r>   8.9336  -0.2045 107.9905 </r>
       <r>   8.9934  -0.4738 107.9621 </r>
       <r>   9.0533  -1.1882 107.8910 </r>
       <r>   9.1132  -2.2487 107.7564 </r>
       <r>   9.1730  -2.5647 107.6029 </r>
       <r>   9.2329   0.5351 107.6349 </r>
       <r>   9.2927  10.1326 108.2414 </r>
       <r>   9.3526  26.1683 109.8077 </r>
       <r>   9.4124  42.6010 112.3576 </r>
       <r>   9.4723  50.1338 115.3583 </r>
       <r>   9.5321  43.8586 117.9835 </r>
       <r>   9.5920  27.8811 119.6523 </r>
       <r>   9.6518  11.4101 120.3352 </r>
       <r>   9.7117   0.9654 120.3930 </r>
       <r>   9.7716  -3.0338 120.2114 </r>
       <r>   9.8314  -3.7192 119.9888 </r>
       <r>   9.8913  -3.6877 119.7681 </r>
       <r>   9.9511  -2.8019 119.6004 </r>
       <r>  10.0110   1.6628 119.6999 </r>
       <r>  10.0708  12.5613 120.4518 </r>
       <r>  10.1307  28.8312 122.1774 </r>
       <r>  10.1905  43.5914 124.7866 </r>
       <r>  10.2504  48.4806 127.6884 </r>
       <r>  10.3102  41.5780 130.1770 </r>
       <r>  10.3701  29.8951 131.9663 </r>
       <r>  10.4300  22.4627 133.3108 </r>
       <r>  10.4898  21.6521 134.6068 </r>
       <r>  10.5497  22.5032 135.9537 </r>
       <r>  10.6095  19.5838 137.1259 </r>
       <r>  10.6694  12.5407 137.8765 </r>
       <r>  10.7292   4.9937 138.1754 </r>
       <r>  10.7891   0.0363 138.1776 </r>
       <r>  10.8489  -2.0177 138.0568 </r>
       <r>  10.9088  -2.3970 137.9134 </r>
       <r>  10.9686  -1.6715 137.8133 </r>
       <r>  11.0285   1.0703 137.8774 </r>
       <r>  11.0884   7.0389 138.2987 </r>
       <r>  11.1482  15.5013 139.2265 </r>
       <r>  11.2081  22.8264 140.5928 </r>
       <r>  11.2679  24.7044 142.0714 </r>
       <r>  11.3278  19.9190 143.2637 </r>
       <r>  11.3876  11.5215 143.9533 </r>
       <r>  11.4475   4.0171 144.1937 </r>
       <r>  11.5073  -0.1359 144.1856 </r>
       <r>  11.5672  -1.2953 144.1081 </r>
       <r>  11.6270  -1.0254 144.0467 </r>
       <r>  11.6869  -0.5152 144.0159 </r>
       <r>  11.7468  -0.1925 144.0043 </r>
       <r>  11.8066  -0.0564 144.0010 </r>
       <r>  11.8665  -0.0132 144.0002 </r>
       <r>  11.9263  -0.0025 144.0000 </r>
       <r>  11.9862  -0.0004 144.0000 </r>
       <r>  12.0460  -0.0001 144.0000 </r>
       <r>  12.1059   0.0000 144.0000 </r>
       <r>  12.1657   0.0000 144.0000 </r>
       <r>  12.2256   0.0000 144.0000 </r>
       <r>  12.2854   0.0000 144.0000 </r>
       <r>  12.3453   0.0000 144.0000 </r>
       <r>  12.4052   0.0000 144.0000 </r>
       <r>  12.4650   0.0000 144.0000 </r>
       <r>  12.5249   0.0000 144.0000 </r>
       <r>  12.5847   0.0000 144.0000 </r>
       <r>  12.6446   0.0000 144.0000 </r>
       <r>  12.7044   0.0000 144.0000 </r>
       <r>  12.7643   0.0000 144.0000 </r>
       <r>  12.8241   0.0000 144.0000 </r>
       <r>  12.8840   0.0000 144.0000 </r>
       <r>  12.9438   0.0000 144.0000 </r>
       <r>  13.0037   0.0000 144.0000 </r>
       <r>  13.0636   0.0000 144.0000 </r>
       <r>  13.1234   0.0000 144.0000 </r>
       <r>  13.1833   0.0000 144.0000 </r>
       <r>  13.2431   0.0000 144.0000 </r>
      </set>
     </set>
    </array>
   </total>
  </dos>
 </calculation>
 <structure name="finalpos" >
  <crystal>
   <varray name="basis" >
    <v>       8.08705211       0.00000000       0.00000000 </v>
    <v>       0.00000000       8.08705211       0.00000000 </v>
    <v>       0.00000000       0.00000000       8.08705211 </v>
   </varray>
   <i name="volume">    528.89653774 </i>
   <varray name="rec_basis" >
    <v>       0.12365445       0.00000000       0.00000000 </v>
    <v>       0.00000000       0.12365445       0.00000000 </v>
    <v>       0.00000000       0.00000000       0.12365445 </v>
   </varray>
  </crystal>
  <varray name="positions" >
   <v>       0.00000000       0.00000000       0.00000000 </v>
   <v>       0.25000000       0.00000000       0.25000000 </v>
   <v>       0.25000000       0.25000000       0.00000000 </v>
   <v>       0.00000000       0.25000000       0.25000000 </v>
   <v>       0.50000000       0.00000000       0.00000000 </v>
   <v>       0.75000000       0.00000000       0.25000000 </v>
   <v>       0.75000000       0.25000000       0.00000000 </v>
   <v>       0.50000000       0.25000000       0.25000000 </v>
   <v>       0.00000000       0.50000000       0.00000000 </v>
   <v>       0.25000000       0.50000000       0.25000000 </v>
   <v>       0.25000000       0.75000000       0.00000000 </v>
   <v>       0.00000000       0.75000000       0.25000000 </v>
   <v>       0.50000000       0.50000000       0.00000000 </v>
   <v>       0.75000000       0.50000000       0.25000000 </v>
   <v>       0.75000000       0.75000000       0.00000000 </v>
   <v>       0.50000000       0.75000000       0.25000000 </v>
   <v>       0.00000000       0.00000000       0.50000000 </v>
   <v>       0.25000000       0.00000000       0.75000000 </v>
   <v>       0.25000000       0.25000000       0.50000000 </v>
   <v>       0.00000000       0.25000000       0.75000000 </v>
   <v>       0.50000000       0.00000000       0.50000000 </v>
   <v>       0.75000000       0.00000000       0.75000000 </v>
   <v>       0.75000000       0.25000000       0.50000000 </v>
   <v>       0.50000000       0.25000000       0.75000000 </v>
   <v>       0.00000000       0.50000000       0.50000000 </v>
   <v>       0.25000000       0.50000000       0.75000000 </v>
   <v>       0.25000000       0.75000000       0.50000000 </v>
   <v>       0.00000000       0.75000000       0.75000000 </v>
   <v>       0.50000000       0.50000000       0.50000000 </v>
   <v>       0.75000000       0.50000000       0.75000000 </v>
   <v>       0.75000000       0.75000000       0.50000000 </v>
   <v>       0.50000000       0.75000000       0.75000000 </v>
  </varray>
 </structure>
</modeling>
