   7   7   0   0
  0.2544720E+02  0.5626600E-09  0.5626600E-09  0.5626600E-09  0.5000000E-15
  1.000000000000000E-004
  CAR 
 unknown system                          
     10.74774935    -14.51325801  301      2.74766404      1.00000000
    -14.513  0.0000E+00  0.0000E+00  0.0000E+00  0.0000E+00
    -14.429  0.0000E+00  0.0000E+00  0.0000E+00  0.0000E+00
    -14.345  0.0000E+00  0.0000E+00  0.0000E+00  0.0000E+00
    -14.261  0.0000E+00  0.0000E+00  0.0000E+00  0.0000E+00
    -14.176 -0.2481E-28 -0.2579E-28 -0.2089E-29 -0.2172E-29
    -14.092 -0.2838E-25 -0.2946E-25 -0.2392E-26 -0.2483E-26
    -14.008 -0.1789E-22 -0.1853E-22 -0.1509E-23 -0.1563E-23
    -13.924 -0.7910E-20 -0.8178E-20 -0.6676E-21 -0.6902E-21
    -13.840 -0.2453E-17 -0.2531E-17 -0.2072E-18 -0.2138E-18
    -13.755 -0.5337E-15 -0.5496E-15 -0.4515E-16 -0.4649E-16
    -13.671 -0.7882E-13 -0.8107E-13 -0.6682E-14 -0.6873E-14
    -13.587 -0.8431E-11 -0.8647E-11 -0.7166E-12 -0.7350E-12
    -13.503 -0.6292E-09 -0.6441E-09 -0.5370E-10 -0.5497E-10
    -13.419 -0.3290E-07 -0.3361E-07 -0.2824E-08 -0.2885E-08
    -13.334 -0.1203E-05 -0.1227E-05 -0.1042E-06 -0.1062E-06
    -13.250 -0.3077E-04 -0.3130E-04 -0.2695E-05 -0.2742E-05
    -13.166 -0.5483E-03 -0.5567E-03 -0.4886E-04 -0.4962E-04
    -13.082 -0.6779E-02 -0.6870E-02 -0.6197E-03 -0.6281E-03
    -12.998 -0.5763E-01 -0.5828E-01 -0.5472E-02 -0.5535E-02
    -12.913 -0.3303E+00 -0.3332E+00 -0.3328E-01 -0.3359E-01
    -12.829 -0.1216E+01 -0.1224E+01 -0.1357E+00 -0.1366E+00
    -12.745 -0.2467E+01 -0.2471E+01 -0.3435E+00 -0.3447E+00
    -12.661 -0.4045E+00 -0.3687E+00 -0.3775E+00 -0.3758E+00
    -12.577  0.1257E+02  0.1268E+02  0.6806E+00  0.6922E+00
    -12.492  0.3737E+02  0.3753E+02  0.3828E+01  0.3852E+01
    -12.408  0.5671E+02  0.5676E+02  0.8602E+01  0.8631E+01
    -12.324  0.5084E+02  0.5073E+02  0.1288E+02  0.1290E+02
    -12.240  0.2581E+02  0.2566E+02  0.1506E+02  0.1506E+02
    -12.156  0.4726E+01  0.4644E+01  0.1545E+02  0.1545E+02
    -12.071 -0.2491E+01 -0.2502E+01  0.1525E+02  0.1524E+02
    -11.987 -0.2049E+01 -0.2040E+01  0.1507E+02  0.1507E+02
    -11.903 -0.6990E+00 -0.6935E+00  0.1501E+02  0.1501E+02
    -11.819 -0.1426E+00 -0.1411E+00  0.1500E+02  0.1500E+02
    -11.735 -0.1891E-01 -0.1866E-01  0.1500E+02  0.1500E+02
    -11.650 -0.1686E-02 -0.1660E-02  0.1500E+02  0.1500E+02
    -11.566 -0.1026E-03 -0.1008E-03  0.1500E+02  0.1500E+02
    -11.482 -0.4306E-05 -0.4222E-05  0.1500E+02  0.1500E+02
    -11.398 -0.1252E-06 -0.1225E-06  0.1500E+02  0.1500E+02
    -11.314 -0.2533E-08 -0.2472E-08  0.1500E+02  0.1500E+02
    -11.229 -0.3572E-10 -0.3478E-10  0.1500E+02  0.1500E+02
    -11.145 -0.3586E-12 -0.3454E-12  0.1500E+02  0.1500E+02
    -11.061  0.0000E+00  0.0000E+00  0.1500E+02  0.1500E+02
    -10.977  0.0000E+00  0.0000E+00  0.1500E+02  0.1500E+02
    -10.893  0.0000E+00  0.0000E+00  0.1500E+02  0.1500E+02
    -10.808  0.0000E+00  0.0000E+00  0.1500E+02  0.1500E+02
    -10.724 -0.1291E-27 -0.1289E-27  0.1500E+02  0.1500E+02
    -10.640 -0.1037E-24 -0.1035E-24  0.1500E+02  0.1500E+02
    -10.556 -0.5830E-22 -0.5820E-22  0.1500E+02  0.1500E+02
    -10.471 -0.2291E-19 -0.2288E-19  0.1500E+02  0.1500E+02
    -10.387 -0.6292E-17 -0.6283E-17  0.1500E+02  0.1500E+02
    -10.303 -0.1206E-14 -0.1205E-14  0.1500E+02  0.1500E+02
    -10.219 -0.1561E-12 -0.1566E-12  0.1500E+02  0.1500E+02
    -10.135 -0.1452E-10 -0.1450E-10  0.1500E+02  0.1500E+02
    -10.050 -0.9360E-09 -0.9350E-09  0.1500E+02  0.1500E+02
     -9.966 -0.4184E-07 -0.4180E-07  0.1500E+02  0.1500E+02
     -9.882 -0.1293E-05 -0.1292E-05  0.1500E+02  0.1500E+02
     -9.798 -0.2745E-04 -0.2743E-04  0.1500E+02  0.1500E+02
     -9.714 -0.3977E-03 -0.3974E-03  0.1500E+02  0.1500E+02
     -9.629 -0.3879E-02 -0.3877E-02  0.1500E+02  0.1500E+02
     -9.545 -0.2486E-01 -0.2485E-01  0.1500E+02  0.1500E+02
     -9.461 -0.9925E-01 -0.9922E-01  0.1499E+02  0.1499E+02
     -9.377 -0.2097E+00 -0.2096E+00  0.1497E+02  0.1497E+02
     -9.293 -0.2202E-01 -0.2217E-01  0.1497E+02  0.1497E+02
     -9.208  0.1109E+01  0.1108E+01  0.1506E+02  0.1506E+02
     -9.124  0.3050E+01  0.3050E+01  0.1532E+02  0.1532E+02
     -9.040  0.4129E+01  0.4129E+01  0.1567E+02  0.1567E+02
     -8.956  0.3120E+01  0.3121E+01  0.1593E+02  0.1593E+02
     -8.872  0.1174E+01  0.1174E+01  0.1603E+02  0.1603E+02
     -8.787 -0.5036E-05  0.1528E-03  0.1603E+02  0.1603E+02
     -8.703 -0.2117E+00 -0.2117E+00  0.1601E+02  0.1601E+02
     -8.619 -0.1035E+00 -0.1035E+00  0.1600E+02  0.1600E+02
     -8.535 -0.2654E-01 -0.2655E-01  0.1600E+02  0.1600E+02
     -8.451 -0.5584E-02 -0.5584E-02  0.1600E+02  0.1600E+02
     -8.366 -0.1278E-01 -0.1276E-01  0.1600E+02  0.1600E+02
     -8.282 -0.7146E-01 -0.7140E-01  0.1599E+02  0.1599E+02
     -8.198 -0.2522E+00 -0.2521E+00  0.1597E+02  0.1597E+02
     -8.114 -0.4320E+00 -0.4320E+00  0.1594E+02  0.1594E+02
     -8.030  0.2549E+00  0.2539E+00  0.1596E+02  0.1596E+02
     -7.945  0.2978E+01  0.2976E+01  0.1621E+02  0.1621E+02
     -7.861  0.6717E+01  0.6716E+01  0.1677E+02  0.1677E+02
     -7.777  0.8000E+01  0.8000E+01  0.1745E+02  0.1745E+02
     -7.693  0.5977E+01  0.5978E+01  0.1795E+02  0.1795E+02
     -7.609  0.4021E+01  0.4021E+01  0.1829E+02  0.1829E+02
     -7.524  0.3770E+01  0.3770E+01  0.1861E+02  0.1861E+02
     -7.440  0.3256E+01  0.3257E+01  0.1888E+02  0.1888E+02
     -7.356  0.1618E+01  0.1619E+01  0.1902E+02  0.1902E+02
     -7.272  0.2145E+00  0.2152E+00  0.1903E+02  0.1903E+02
     -7.188 -0.2142E+00 -0.2141E+00  0.1902E+02  0.1902E+02
     -7.103 -0.1427E+00 -0.1428E+00  0.1900E+02  0.1900E+02
     -7.019 -0.4346E-01 -0.4351E-01  0.1900E+02  0.1900E+02
     -6.935 -0.7967E-02 -0.7979E-02  0.1900E+02  0.1900E+02
     -6.851 -0.9467E-03 -0.9485E-03  0.1900E+02  0.1900E+02
     -6.767 -0.7522E-04 -0.7538E-04  0.1900E+02  0.1900E+02
     -6.682 -0.4061E-05 -0.4071E-05  0.1900E+02  0.1900E+02
     -6.598 -0.1503E-06 -0.1508E-06  0.1900E+02  0.1900E+02
     -6.514 -0.3840E-08 -0.3852E-08  0.1900E+02  0.1900E+02
     -6.430 -0.6794E-10 -0.6817E-10  0.1900E+02  0.1900E+02
     -6.346 -0.8333E-12 -0.8386E-12  0.1900E+02  0.1900E+02
     -6.261 -0.7911E-14 -0.7911E-14  0.1900E+02  0.1900E+02
     -6.177  0.0000E+00  0.0000E+00  0.1900E+02  0.1900E+02
     -6.093  0.0000E+00  0.0000E+00  0.1900E+02  0.1900E+02
     -6.009  0.0000E+00  0.0000E+00  0.1900E+02  0.1900E+02
     -5.925  0.0000E+00  0.0000E+00  0.1900E+02  0.1900E+02
     -5.840  0.0000E+00  0.0000E+00  0.1900E+02  0.1900E+02
     -5.756  0.0000E+00  0.0000E+00  0.1900E+02  0.1900E+02
     -5.672  0.0000E+00  0.0000E+00  0.1900E+02  0.1900E+02
     -5.588  0.0000E+00  0.0000E+00  0.1900E+02  0.1900E+02
     -5.503  0.0000E+00  0.0000E+00  0.1900E+02  0.1900E+02
     -5.419  0.0000E+00  0.0000E+00  0.1900E+02  0.1900E+02
     -5.335 -0.2366E-28 -0.2384E-28  0.1900E+02  0.1900E+02
     -5.251 -0.2150E-25 -0.2165E-25  0.1900E+02  0.1900E+02
     -5.167 -0.1367E-22 -0.1377E-22  0.1900E+02  0.1900E+02
     -5.082 -0.6081E-20 -0.6119E-20  0.1900E+02  0.1900E+02
     -4.998 -0.1890E-17 -0.1901E-17  0.1900E+02  0.1900E+02
     -4.914 -0.4101E-15 -0.4124E-15  0.1900E+02  0.1900E+02
     -4.830 -0.6081E-13 -0.6113E-13  0.1900E+02  0.1900E+02
     -4.746 -0.6341E-11 -0.6372E-11  0.1900E+02  0.1900E+02
     -4.661 -0.4637E-09 -0.4657E-09  0.1900E+02  0.1900E+02
     -4.577 -0.2353E-07 -0.2362E-07  0.1900E+02  0.1900E+02
     -4.493 -0.8259E-06 -0.8289E-06  0.1900E+02  0.1900E+02
     -4.409 -0.1998E-04 -0.2004E-04  0.1900E+02  0.1900E+02
     -4.325 -0.3306E-03 -0.3315E-03  0.1900E+02  0.1900E+02
     -4.240 -0.3703E-02 -0.3711E-02  0.1900E+02  0.1900E+02
     -4.156 -0.2753E-01 -0.2759E-01  0.1900E+02  0.1900E+02
     -4.072 -0.1307E+00 -0.1308E+00  0.1899E+02  0.1899E+02
     -3.988 -0.3564E+00 -0.3566E+00  0.1896E+02  0.1896E+02
     -3.904 -0.3222E+00 -0.3217E+00  0.1893E+02  0.1893E+02
     -3.819  0.1173E+01  0.1176E+01  0.1903E+02  0.1903E+02
     -3.735  0.4742E+01  0.4747E+01  0.1943E+02  0.1943E+02
     -3.651  0.7952E+01  0.7954E+01  0.2010E+02  0.2010E+02
     -3.567  0.7352E+01  0.7349E+01  0.2072E+02  0.2072E+02
     -3.483  0.3641E+01  0.3637E+01  0.2102E+02  0.2102E+02
     -3.398  0.5448E+00  0.5427E+00  0.2107E+02  0.2107E+02
     -3.314 -0.4143E+00 -0.4145E+00  0.2103E+02  0.2103E+02
     -3.230 -0.2901E+00 -0.2898E+00  0.2101E+02  0.2101E+02
     -3.146 -0.8973E-01 -0.8959E-01  0.2100E+02  0.2100E+02
     -3.062 -0.1663E-01 -0.1660E-01  0.2100E+02  0.2100E+02
     -2.977 -0.2001E-02 -0.1997E-02  0.2100E+02  0.2100E+02
     -2.893 -0.2772E-03 -0.2769E-03  0.2100E+02  0.2100E+02
     -2.809 -0.1393E-02 -0.1394E-02  0.2100E+02  0.2100E+02
     -2.725 -0.1087E-01 -0.1088E-01  0.2100E+02  0.2100E+02
     -2.641 -0.5488E-01 -0.5492E-01  0.2099E+02  0.2099E+02
     -2.556 -0.1627E+00 -0.1628E+00  0.2098E+02  0.2098E+02
     -2.472 -0.1889E+00 -0.1888E+00  0.2096E+02  0.2096E+02
     -2.388  0.4255E+00  0.4262E+00  0.2100E+02  0.2100E+02
     -2.304  0.2107E+01  0.2108E+01  0.2118E+02  0.2118E+02
     -2.220  0.3851E+01  0.3852E+01  0.2150E+02  0.2150E+02
     -2.135  0.3837E+01  0.3836E+01  0.2183E+02  0.2183E+02
     -2.051  0.2081E+01  0.2080E+01  0.2200E+02  0.2200E+02
     -1.967  0.4108E+00  0.4102E+00  0.2204E+02  0.2204E+02
     -1.883 -0.1910E+00 -0.1911E+00  0.2202E+02  0.2202E+02
     -1.799 -0.1612E+00 -0.1611E+00  0.2201E+02  0.2201E+02
     -1.714 -0.5392E-01 -0.5388E-01  0.2200E+02  0.2200E+02
     -1.630 -0.1062E-01 -0.1061E-01  0.2200E+02  0.2200E+02
     -1.546 -0.1344E-02 -0.1343E-02  0.2200E+02  0.2200E+02
     -1.462 -0.1162E-03 -0.1161E-03  0.2200E+02  0.2200E+02
     -1.378 -0.6563E-04 -0.6583E-04  0.2200E+02  0.2200E+02
     -1.293 -0.8487E-03 -0.8514E-03  0.2200E+02  0.2200E+02
     -1.209 -0.8196E-02 -0.8218E-02  0.2200E+02  0.2200E+02
     -1.125 -0.5205E-01 -0.5216E-01  0.2199E+02  0.2199E+02
     -1.041 -0.2064E+00 -0.2067E+00  0.2198E+02  0.2198E+02
     -0.957 -0.4379E+00 -0.4381E+00  0.2194E+02  0.2194E+02
     -0.872 -0.8641E-01 -0.8487E-01  0.2193E+02  0.2193E+02
     -0.788  0.2120E+01  0.2124E+01  0.2211E+02  0.2211E+02
     -0.704  0.6058E+01  0.6062E+01  0.2262E+02  0.2262E+02
     -0.620  0.8949E+01  0.8949E+01  0.2338E+02  0.2338E+02
     -0.536  0.8672E+01  0.8667E+01  0.2411E+02  0.2411E+02
     -0.451  0.6292E+01  0.6288E+01  0.2464E+02  0.2464E+02
     -0.367  0.3537E+01  0.3535E+01  0.2493E+02  0.2493E+02
     -0.283  0.1249E+01  0.1249E+01  0.2504E+02  0.2504E+02
     -0.199 -0.1264E-02 -0.8839E-03  0.2504E+02  0.2504E+02
     -0.114 -0.2635E+00 -0.2634E+00  0.2502E+02  0.2502E+02
     -0.030 -0.1471E+00 -0.1471E+00  0.2500E+02  0.2500E+02
      0.054 -0.6508E-01 -0.6513E-01  0.2500E+02  0.2500E+02
      0.138 -0.1088E+00 -0.1089E+00  0.2499E+02  0.2499E+02
      0.222 -0.2436E+00 -0.2437E+00  0.2497E+02  0.2497E+02
      0.307 -0.1655E+00 -0.1649E+00  0.2495E+02  0.2495E+02
      0.391  0.8364E+00  0.8383E+00  0.2503E+02  0.2503E+02
      0.475  0.3114E+01  0.3116E+01  0.2529E+02  0.2529E+02
      0.559  0.5631E+01  0.5631E+01  0.2576E+02  0.2576E+02
      0.643  0.6615E+01  0.6613E+01  0.2632E+02  0.2632E+02
      0.728  0.5308E+01  0.5306E+01  0.2677E+02  0.2677E+02
      0.812  0.2672E+01  0.2671E+01  0.2699E+02  0.2699E+02
      0.896  0.4097E+00  0.4097E+00  0.2702E+02  0.2702E+02
      0.980 -0.6323E+00 -0.6322E+00  0.2697E+02  0.2697E+02
      1.064 -0.2936E+00 -0.2930E+00  0.2695E+02  0.2695E+02
      1.149  0.2053E+01  0.2054E+01  0.2712E+02  0.2712E+02
      1.233  0.5993E+01  0.5995E+01  0.2762E+02  0.2762E+02
      1.317  0.8251E+01  0.8251E+01  0.2832E+02  0.2832E+02
      1.401  0.6327E+01  0.6325E+01  0.2885E+02  0.2885E+02
      1.485  0.2431E+01  0.2429E+01  0.2906E+02  0.2906E+02
      1.570  0.2918E-01  0.2855E-01  0.2906E+02  0.2906E+02
      1.654 -0.4255E+00 -0.4254E+00  0.2902E+02  0.2902E+02
      1.738 -0.2124E+00 -0.2122E+00  0.2901E+02  0.2901E+02
      1.822 -0.5495E-01 -0.5490E-01  0.2900E+02  0.2900E+02
      1.906 -0.9045E-02 -0.9035E-02  0.2900E+02  0.2900E+02
      1.991 -0.3711E-02 -0.3705E-02  0.2900E+02  0.2900E+02
      2.075 -0.2191E-01 -0.2189E-01  0.2900E+02  0.2900E+02
      2.159 -0.1102E+00 -0.1101E+00  0.2899E+02  0.2899E+02
      2.243 -0.3261E+00 -0.3260E+00  0.2896E+02  0.2896E+02
      2.327 -0.3769E+00 -0.3771E+00  0.2893E+02  0.2893E+02
      2.412  0.8573E+00  0.8558E+00  0.2900E+02  0.2900E+02
      2.496  0.4225E+01  0.4223E+01  0.2936E+02  0.2936E+02
      2.580  0.7708E+01  0.7707E+01  0.3001E+02  0.3001E+02
      2.664  0.7668E+01  0.7670E+01  0.3065E+02  0.3065E+02
      2.748  0.4152E+01  0.4154E+01  0.3100E+02  0.3100E+02
      2.833  0.8155E+00  0.8170E+00  0.3107E+02  0.3107E+02
      2.917 -0.3829E+00 -0.3827E+00  0.3104E+02  0.3104E+02
      3.001 -0.3217E+00 -0.3218E+00  0.3101E+02  0.3101E+02
      3.085 -0.1074E+00 -0.1075E+00  0.3100E+02  0.3100E+02
      3.169 -0.2113E-01 -0.2115E-01  0.3100E+02  0.3100E+02
      3.254 -0.2672E-02 -0.2676E-02  0.3100E+02  0.3100E+02
      3.338 -0.2252E-03 -0.2256E-03  0.3100E+02  0.3100E+02
      3.422 -0.1291E-04 -0.1294E-04  0.3100E+02  0.3100E+02
      3.506 -0.1689E-05 -0.1692E-05  0.3100E+02  0.3100E+02
      3.590 -0.2543E-04 -0.2547E-04  0.3100E+02  0.3100E+02
      3.675 -0.3721E-03 -0.3726E-03  0.3100E+02  0.3100E+02
      3.759 -0.3669E-02 -0.3673E-02  0.3100E+02  0.3100E+02
      3.843 -0.2380E-01 -0.2382E-01  0.3100E+02  0.3100E+02
      3.927 -0.9659E-01 -0.9665E-01  0.3099E+02  0.3099E+02
      4.011 -0.2112E+00 -0.2112E+00  0.3097E+02  0.3097E+02
      4.096 -0.6096E-01 -0.6075E-01  0.3097E+02  0.3097E+02
      4.180  0.9447E+00  0.9453E+00  0.3105E+02  0.3105E+02
      4.264  0.2660E+01  0.2661E+01  0.3127E+02  0.3127E+02
      4.348  0.3771E+01  0.3772E+01  0.3159E+02  0.3159E+02
      4.432  0.4162E+01  0.4165E+01  0.3194E+02  0.3194E+02
      4.517  0.5676E+01  0.5682E+01  0.3242E+02  0.3242E+02
      4.601  0.7842E+01  0.7844E+01  0.3308E+02  0.3308E+02
      4.685  0.7322E+01  0.7318E+01  0.3369E+02  0.3369E+02
      4.769  0.3817E+01  0.3810E+01  0.3401E+02  0.3401E+02
      4.854  0.6625E+00  0.6591E+00  0.3407E+02  0.3407E+02
      4.938 -0.4036E+00 -0.4040E+00  0.3404E+02  0.3404E+02
      5.022 -0.3081E+00 -0.3077E+00  0.3401E+02  0.3401E+02
      5.106 -0.9929E-01 -0.9906E-01  0.3400E+02  0.3400E+02
      5.190 -0.1902E-01 -0.1896E-01  0.3400E+02  0.3400E+02
      5.275 -0.2572E-02 -0.2565E-02  0.3400E+02  0.3400E+02
      5.359 -0.2592E-02 -0.2601E-02  0.3400E+02  0.3400E+02
      5.443 -0.1697E-01 -0.1702E-01  0.3400E+02  0.3400E+02
      5.527 -0.7596E-01 -0.7614E-01  0.3399E+02  0.3399E+02
      5.611 -0.1910E+00 -0.1912E+00  0.3398E+02  0.3398E+02
      5.696 -0.1250E+00 -0.1244E+00  0.3397E+02  0.3397E+02
      5.780  0.7502E+00  0.7529E+00  0.3403E+02  0.3403E+02
      5.864  0.2610E+01  0.2614E+01  0.3425E+02  0.3425E+02
      5.948  0.4059E+01  0.4060E+01  0.3459E+02  0.3459E+02
      6.032  0.3505E+01  0.3502E+01  0.3489E+02  0.3489E+02
      6.117  0.1590E+01  0.1586E+01  0.3502E+02  0.3502E+02
      6.201  0.1639E+00  0.1623E+00  0.3503E+02  0.3503E+02
      6.285 -0.2142E+00 -0.2143E+00  0.3501E+02  0.3501E+02
      6.369 -0.1311E+00 -0.1308E+00  0.3500E+02  0.3500E+02
      6.453 -0.4474E-01 -0.4465E-01  0.3500E+02  0.3500E+02
      6.538 -0.5280E-01 -0.5286E-01  0.3500E+02  0.3500E+02
      6.622 -0.1895E+00 -0.1897E+00  0.3498E+02  0.3498E+02
      6.706 -0.4137E+00 -0.4138E+00  0.3494E+02  0.3494E+02
      6.790 -0.9243E-01 -0.9137E-01  0.3494E+02  0.3494E+02
      6.874  0.2066E+01  0.2070E+01  0.3511E+02  0.3511E+02
      6.959  0.5920E+01  0.5924E+01  0.3561E+02  0.3561E+02
      7.043  0.8175E+01  0.8175E+01  0.3630E+02  0.3630E+02
      7.127  0.6144E+01  0.6140E+01  0.3682E+02  0.3682E+02
      7.211  0.2076E+01  0.2073E+01  0.3699E+02  0.3699E+02
      7.295  0.3662E+00  0.3680E+00  0.3702E+02  0.3702E+02
      7.380  0.2713E+01  0.2720E+01  0.3725E+02  0.3725E+02
      7.464  0.6760E+01  0.6766E+01  0.3782E+02  0.3782E+02
      7.548  0.8072E+01  0.8070E+01  0.3850E+02  0.3850E+02
      7.632  0.5252E+01  0.5244E+01  0.3894E+02  0.3894E+02
      7.716  0.1525E+01  0.1520E+01  0.3907E+02  0.3907E+02
      7.801 -0.2689E+00 -0.2702E+00  0.3905E+02  0.3905E+02
      7.885 -0.4868E+00 -0.4864E+00  0.3901E+02  0.3901E+02
      7.969 -0.3652E+00 -0.3648E+00  0.3897E+02  0.3897E+02
      8.053 -0.3887E-01 -0.3875E-01  0.3897E+02  0.3897E+02
      8.137  0.1156E+01  0.1156E+01  0.3907E+02  0.3907E+02
      8.222  0.3100E+01  0.3100E+01  0.3933E+02  0.3933E+02
      8.306  0.4091E+01  0.4091E+01  0.3967E+02  0.3967E+02
      8.390  0.2933E+01  0.2932E+01  0.3992E+02  0.3992E+02
      8.474  0.9071E+00  0.9072E+00  0.4000E+02  0.4000E+02
      8.558  0.1513E+00  0.1541E+00  0.4001E+02  0.4001E+02
      8.643  0.1392E+01  0.1398E+01  0.4013E+02  0.4013E+02
      8.727  0.3414E+01  0.3419E+01  0.4041E+02  0.4042E+02
      8.811  0.4030E+01  0.4028E+01  0.4075E+02  0.4075E+02
      8.895  0.2593E+01  0.2587E+01  0.4097E+02  0.4097E+02
      8.979  0.7406E+00  0.7359E+00  0.4103E+02  0.4103E+02
      9.064 -0.1273E+00 -0.1284E+00  0.4102E+02  0.4102E+02
      9.148 -0.1904E+00 -0.1900E+00  0.4101E+02  0.4101E+02
      9.232 -0.7536E-01 -0.7506E-01  0.4100E+02  0.4100E+02
      9.316 -0.1677E-01 -0.1668E-01  0.4100E+02  0.4100E+02
      9.400 -0.2365E-02 -0.2349E-02  0.4100E+02  0.4100E+02
      9.485 -0.2208E-03 -0.2190E-03  0.4100E+02  0.4100E+02
      9.569 -0.1393E-04 -0.1380E-04  0.4100E+02  0.4100E+02
      9.653 -0.6007E-06 -0.5943E-06  0.4100E+02  0.4100E+02
      9.737 -0.1783E-07 -0.1762E-07  0.4100E+02  0.4100E+02
      9.822 -0.3662E-09 -0.3614E-09  0.4100E+02  0.4100E+02
      9.906 -0.5216E-11 -0.5142E-11  0.4100E+02  0.4100E+02
      9.990 -0.5274E-13 -0.5274E-13  0.4100E+02  0.4100E+02
     10.074  0.0000E+00  0.0000E+00  0.4100E+02  0.4100E+02
     10.158  0.0000E+00  0.0000E+00  0.4100E+02  0.4100E+02
     10.243  0.0000E+00  0.0000E+00  0.4100E+02  0.4100E+02
     10.327  0.0000E+00  0.0000E+00  0.4100E+02  0.4100E+02
     10.411  0.0000E+00  0.0000E+00  0.4100E+02  0.4100E+02
     10.495  0.0000E+00  0.0000E+00  0.4100E+02  0.4100E+02
     10.579  0.0000E+00  0.0000E+00  0.4100E+02  0.4100E+02
     10.664  0.0000E+00  0.0000E+00  0.4100E+02  0.4100E+02
     10.748  0.0000E+00  0.0000E+00  0.4100E+02  0.4100E+02
