    7    7    1    2
  0.2544720E+02  0.5626600E-09  0.5626600E-09  0.5626600E-09  0.5000000E-15
  1.000000000000000E-004
  CAR 
 unknown system                          
   62    1   41
 
  0.2500000E+00  0.2500000E+00  0.2500000E+00  0.1000000E+01
   1      -12.512786    -12.513258
   2      -12.488056    -12.488536
   3      -12.488056    -12.488536
   4      -12.461931    -12.462417
   5      -12.438936    -12.439424
   6      -12.438936    -12.439423
   7      -12.417301    -12.417793
   8      -12.417300    -12.417792
   9      -12.412215    -12.412709
  10      -12.401066    -12.401547
  11      -12.401065    -12.401546
  12      -12.391461    -12.391971
  13      -12.387974    -12.388453
  14      -12.377746    -12.378258
  15      -12.377745    -12.378256
  16       -9.080547     -9.080525
  17       -7.836804     -7.836755
  18       -7.836804     -7.836755
  19       -7.537733     -7.537664
  20       -3.662494     -3.662583
  21       -3.662493     -3.662583
  22       -2.220105     -2.220152
  23       -0.662389     -0.662498
  24       -0.662389     -0.662498
  25       -0.469237     -0.469229
  26        0.521499      0.521404
  27        0.668507      0.668512
  28        1.278471      1.278428
  29        1.278471      1.278428
  30        2.579260      2.579315
  31        2.579260      2.579315
  32        4.310042      4.309998
  33        4.595371      4.595236
  34        4.595371      4.595237
  35        5.926746      5.926588
  36        7.006059      7.005973
  37        7.006059      7.005973
  38        7.486101      7.485944
  39        7.486101      7.485944
  40        8.262759      8.262758
  41        8.747749      8.747477
