<?xml version="1.0" encoding="ISO-8859-1"?>
<modeling>
 <generator>
  <i name="program" type="string">vasp </i>
  <i name="version" type="string">5.2.2  </i>
  <i name="subversion" type="string">15Apr09 complex  parallel </i>
  <i name="platform" type="string">LinuxIFC </i>
  <i name="date" type="string">2013 11 25 </i>
  <i name="time" type="string">22:24:53 </i>
 </generator>
 <incar>
  <i type="string" name="PREC">normal</i>
  <i type="int" name="ISPIN">     2</i>
  <i type="int" name="IBRION">    -1</i>
  <i type="int" name="NSW">     0</i>
  <i name="ENCUT">    313.00000000</i>
  <i name="NELECT">     62.00000000</i>
  <i type="logical" name="LWAVE"> F  </i>
  <i type="logical" name="LCHARG"> F  </i>
  <i type="logical" name="LPEAD"> F  </i>
  <i type="logical" name="LCALCPOL"> F  </i>
  <i type="logical" name="LCALCEPS"> F  </i>
  <v name="EFIELD_PEAD">      0.00000000      0.00000000      0.00000000</v>
  <i type="logical" name="LEFG"> F  </i>
 </incar>
 <kpoints>
  <generation param="Monkhorst-Pack">
   <v type="int" name="divisions">       2        2        2 </v>
   <v name="usershift">      0.00000000       0.00000000       0.00000000 </v>
   <v name="genvec1">      0.50000000       0.00000000       0.00000000 </v>
   <v name="genvec2">      0.00000000       0.50000000       0.00000000 </v>
   <v name="genvec3">      0.00000000       0.00000000       0.50000000 </v>
   <v name="shift">      0.50000000       0.50000000       0.50000000 </v>
  </generation>
  <varray name="kpointlist" >
   <v>       0.25000000       0.25000000       0.25000000 </v>
  </varray>
  <varray name="weights" >
   <v>       1.00000000 </v>
  </varray>
 </kpoints>
 <parameters>
  <separator name="general" >
   <i type="string" name="SYSTEM">unknown system</i>
   <i type="logical" name="LCOMPAT"> F  </i>
  </separator>
  <separator name="electronic" >
   <i type="string" name="PREC">normal</i>
   <i name="ENMAX">    313.00000000</i>
   <i name="ENAUG">    490.69000000</i>
   <i name="EDIFF">      0.00010000</i>
   <i type="int" name="IALGO">    38</i>
   <i type="int" name="IWAVPR">    10</i>
   <i type="int" name="NBANDS">    41</i>
   <i name="NELECT">     62.00000000</i>
   <separator name="electronic smearing" >
    <i type="int" name="ISMEAR">     1</i>
    <i name="SIGMA">      0.20000000</i>
   </separator>
   <separator name="electronic projectors" >
    <i type="logical" name="LREAL"> F  </i>
    <v name="ROPT">      0.00000000      0.00000000</v>
    <i type="int" name="LMAXPAW">  -100</i>
    <i type="int" name="LMAXMIX">     2</i>
   </separator>
   <separator name="electronic startup" >
    <i type="int" name="ISTART">     0</i>
    <i type="int" name="ICHARG">     2</i>
    <i type="int" name="INIWAV">     1</i>
   </separator>
   <separator name="electronic spin" >
    <i type="int" name="ISPIN">     2</i>
    <i type="logical" name="LNONCOLLINEAR"> F  </i>
    <v name="MAGMOM">      1.00000000      1.00000000      1.00000000      1.00000000      1.00000000      1.00000000      1.00000000</v>
    <i name="NUPDOWN">     -1.00000000</i>
    <i type="logical" name="LSORBIT"> F  </i>
    <v name="SAXIS">      0.00000000      0.00000000      1.00000000</v>
    <i type="logical" name="LSPIRAL"> F  </i>
    <v name="QSPIRAL">      0.00000000      0.00000000      0.00000000</v>
    <i type="logical" name="LZEROZ"> F  </i>
   </separator>
   <separator name="electronic exchange-correlation" >
    <i type="logical" name="LASPH"> F  </i>
    <i type="logical" name="LMETAGGA"> F  </i>
   </separator>
   <separator name="electronic convergence" >
    <i type="int" name="NELM">    60</i>
    <i type="int" name="NELMDL">    -5</i>
    <i type="int" name="NELMIN">     2</i>
    <i name="ENINI">    313.00000000</i>
    <separator name="electronic convergence detail" >
     <i type="logical" name="LDIAG"> T  </i>
     <i name="WEIMIN">      0.00000000</i>
     <i name="EBREAK">      0.00000061</i>
     <i name="DEPER">      0.30000000</i>
     <i type="int" name="NRMM">     4</i>
     <i name="TIME">      0.40000000</i>
    </separator>
   </separator>
   <separator name="electronic mixer" >
    <i name="AMIX">      0.40000000</i>
    <i name="BMIX">      1.00000000</i>
    <i name="AMIN">      0.10000000</i>
    <i name="AMIX_MAG">      1.60000000</i>
    <i name="BMIX_MAG">      1.00000000</i>
    <separator name="electronic mixer details" >
     <i type="int" name="IMIX">     4</i>
     <i type="int" name="MAXMIX">   -45</i>
     <i name="WC">    100.00000000</i>
     <i type="int" name="INIMIX">     1</i>
     <i type="int" name="MIXPRE">     1</i>
     <i type="int" name="MREMOVE">     5</i>
    </separator>
   </separator>
   <separator name="electronic dipolcorrection" >
    <i type="logical" name="LDIPOL"> F  </i>
    <i type="logical" name="LMONO"> F  </i>
    <i type="int" name="IDIPOL">     0</i>
    <i name="EPSILON">      1.00000000</i>
    <v name="DIPOL">   -100.00000000   -100.00000000   -100.00000000</v>
    <i name="EFIELD">      0.00000000</i>
   </separator>
  </separator>
  <separator name="grids" >
   <i type="int" name="NGX">    24</i>
   <i type="int" name="NGY">    24</i>
   <i type="int" name="NGZ">    24</i>
   <i type="int" name="NGXF">    48</i>
   <i type="int" name="NGYF">    48</i>
   <i type="int" name="NGZF">    48</i>
   <i type="logical" name="ADDGRID"> F  </i>
  </separator>
  <separator name="ionic" >
   <i type="int" name="NSW">     0</i>
   <i type="int" name="IBRION">    -1</i>
   <i type="int" name="ISIF">     2</i>
   <i name="PSTRESS">      0.00000000</i>
   <i name="EDIFFG">      0.00100000</i>
   <i type="int" name="NFREE">     0</i>
   <i name="POTIM">      0.50000000</i>
   <i name="SMASS">     -3.00000000</i>
  </separator>
  <separator name="ionic md" >
   <i name="TEBEG">      0.00010000</i>
   <i name="TEEND">      0.00010000</i>
   <i type="int" name="NBLOCK">     1</i>
   <i type="int" name="KBLOCK">     1</i>
   <i type="int" name="NPACO">   256</i>
   <i name="APACO">     16.00000000</i>
  </separator>
  <separator name="symmetry" >
   <i type="int" name="ISYM">     2</i>
   <i name="SYMPREC">      0.00001000</i>
  </separator>
  <separator name="dos" >
   <i type="logical" name="LORBIT"> F  </i>
   <v name="RWIGS">     -1.00000000     -1.00000000</v>
   <i type="int" name="NEDOS">   301</i>
   <i name="EMIN">     10.00000000</i>
   <i name="EMAX">    -10.00000000</i>
   <i name="EFERMI">      0.00000000</i>
  </separator>
  <separator name="writing" >
   <i type="int" name="NWRITE">     2</i>
   <i type="logical" name="LWAVE"> F  </i>
   <i type="logical" name="LCHARG"> F  </i>
   <i type="logical" name="LPARD"> F  </i>
   <i type="logical" name="LVTOT"> F  </i>
   <i type="logical" name="LELF"> F  </i>
   <i type="logical" name="LOPTICS"> F  </i>
   <v name="STM">      0.00000000      0.00000000      0.00000000      0.00000000      0.00000000</v>
  </separator>
  <separator name="performance" >
   <i type="int" name="NPAR">     1</i>
   <i type="int" name="NSIM">     4</i>
   <i type="int" name="NBLK">    32</i>
   <i type="logical" name="LPLANE"> T  </i>
   <i type="logical" name="LSCALAPACK"> F  </i>
   <i type="logical" name="LSCAAWARE"> F  </i>
   <i type="logical" name="LSCALU"> F  </i>
   <i type="logical" name="LASYNC"> F  </i>
  </separator>
  <separator name="miscellaneous" >
   <i type="int" name="IDIOT">     3</i>
   <i type="logical" name="LMUSIC"> F  </i>
   <v name="POMASS">     69.72300000     74.92200000</v>
   <i type="logical" name="LCORR"> T  </i>
  </separator>
  <i type="logical" name="LREAL_COMPAT"> F  </i>
  <i type="logical" name="GGA_COMPAT"> T  </i>
  <i type="logical" name="LBERRY"> F  </i>
  <i type="int" name="ICORELEVEL">     0</i>
  <i type="logical" name="LDAU"> F  </i>
  <i type="int" name="I_CONSTRAINED_M">     0</i>
  <separator name="electronic exchange-correlation" >
   <i type="string" name="GGA">--</i>
   <i type="int" name="VOSKOWN">     0</i>
   <i type="logical" name="LHFCALC"> F  </i>
   <i type="logical" name="LHFONE"> F  </i>
   <i type="logical" name="LRHFCALC"> F  </i>
   <i type="logical" name="LTHOMAS"> F  </i>
   <i type="logical" name="LMODELHF"> F  </i>
   <i name="ENCUTFOCK">      0.00000000</i>
   <i name="ENCUT4O">     -1.00000000</i>
   <i type="int" name="EXXOEP">     0</i>
   <i type="int" name="FOURORBIT">     0</i>
   <i name="AEXX">      0.00000000</i>
   <i name="HFALPHA">      0.00000000</i>
   <i name="ALDAX">      1.00000000</i>
   <i name="AGGAX">      1.00000000</i>
   <i name="ALDAC">      1.00000000</i>
   <i name="AGGAC">      1.00000000</i>
   <i type="int" name="NKREDX">     1</i>
   <i type="int" name="NKREDY">     1</i>
   <i type="int" name="NKREDZ">     1</i>
   <i type="logical" name="SHIFTRED"> F  </i>
   <i type="logical" name="ODDONLY"> F  </i>
   <i type="logical" name="EVENONLY"> F  </i>
   <i type="int" name="LMAXFOCK">     0</i>
   <i type="int" name="NMAXFOCKAE">     0</i>
   <i name="HFSCREEN">      0.00000000</i>
   <i name="HFSCREENC">      0.00000000</i>
  </separator>
  <separator name="model GW" >
   <i type="int" name="MODEL_GW">     0</i>
   <i name="MODEL_EPS0">     15.26832290</i>
   <i name="MODEL_ALPHA">      1.00000000</i>
  </separator>
  <separator name="linear response parameters" >
   <i type="logical" name="LEPSILON"> F  </i>
   <i type="logical" name="LRPA"> F  </i>
   <i type="logical" name="LNABLA"> F  </i>
   <i type="logical" name="LVEL"> F  </i>
   <i type="int" name="KINTER">     0</i>
   <i name="CSHIFT">      0.10000000</i>
   <i name="OMEGAMAX">     -1.00000000</i>
  </separator>
  <separator name="orbital magnetization" >
   <i type="logical" name="ORBITALMAG"> F  </i>
   <i type="logical" name="LMAGBLOCH"> F  </i>
   <i type="logical" name="LCHIMAG"> F  </i>
   <i type="logical" name="LGAUGE"> T  </i>
   <i type="int" name="MAGATOM">     0</i>
   <v name="MAGDIPOL">      0.00000000      0.00000000      0.00000000</v>
   <v name="AVECCONST">      0.00000000      0.00000000      0.00000000</v>
  </separator>
  <separator name="response functions" >
   <i type="logical" name="LRPA"> T  </i>
   <i type="logical" name="LTCTE"> F  </i>
   <i type="logical" name="LTETE"> F  </i>
   <i type="logical" name="L2ORDER"> F  </i>
   <i type="logical" name="LGWLF"> F  </i>
   <i name="ENCUTGW">    208.66666667</i>
   <i name="ENCUTGWSOFT">     -2.00000000</i>
   <i name="ENCUTLF">     -1.00000000</i>
   <i type="int" name="LMAXMP2">    -1</i>
   <i name="SCISSOR">      0.00000000</i>
   <i type="int" name="NOMEGA">     0</i>
   <i type="int" name="NOMEGAR">     0</i>
   <i type="int" name="NBANDSGW">    -1</i>
   <i type="int" name="NBANDSLF">    -1</i>
   <i type="int" name="NELM">     1</i>
   <i type="int" name="DIM">     3</i>
   <i type="int" name="ANTIRES">     0</i>
   <i type="logical" name="LUSEW"> F  </i>
   <i name="OMEGAMAX">    -30.00000000</i>
   <i name="OMEGATL">   -200.00000000</i>
   <i type="int" name="OMEGAGRID">     0</i>
   <i name="CSHIFT">     -0.10000000</i>
   <i type="logical" name="SELFENERGY"> F  </i>
   <i type="logical" name="LSPECTRAL"> F  </i>
   <i type="logical" name="ODDONLYGW"> F  </i>
   <i type="logical" name="EVENONLYGW"> F  </i>
   <i type="int" name="NKREDLFX">     1</i>
   <i type="int" name="NKREDLFY">     1</i>
   <i type="int" name="NKREDLFZ">     1</i>
   <i type="int" name="MAXMEM">  1024</i>
   <i type="int" name="TELESCOPE">     0</i>
  </separator>
 </parameters>
 <atominfo>
  <atoms>       7 </atoms>
  <types>       2 </types>
  <array name="atoms" >
   <dimension dim="1">ion</dimension>
   <field type="string">element</field>
   <field type="int">atomtype</field>
   <set>
    <rc><c>Ga</c><c>   1</c></rc>
    <rc><c>Ga</c><c>   1</c></rc>
    <rc><c>Ga</c><c>   1</c></rc>
    <rc><c>As</c><c>   2</c></rc>
    <rc><c>As</c><c>   2</c></rc>
    <rc><c>As</c><c>   2</c></rc>
    <rc><c>As</c><c>   2</c></rc>
   </set>
  </array>
  <array name="atomtypes" >
   <dimension dim="1">type</dimension>
   <field type="int">atomspertype</field>
   <field type="string">element</field>
   <field>mass</field>
   <field>valence</field>
   <field type="string">pseudopotential</field>
   <set>
    <rc><c>   3</c><c>Ga</c><c>     69.72300000</c><c>     13.00000000</c><c> PAW_PBE Ga_d 06Sep2000                 </c></rc>
    <rc><c>   4</c><c>As</c><c>     74.92200000</c><c>      5.00000000</c><c> PAW_PBE As 06Sep2000                   </c></rc>
   </set>
  </array>
 </atominfo>
 <structure name="initialpos" >
  <crystal>
   <varray name="basis" >
    <v>       5.62660000       0.00000000       0.00000000 </v>
    <v>       0.00000000       5.62660000       0.00000000 </v>
    <v>       0.00000000       0.00000000       5.62660000 </v>
   </varray>
   <i name="volume">    178.13043383 </i>
   <varray name="rec_basis" >
    <v>       0.17772722       0.00000000       0.00000000 </v>
    <v>       0.00000000       0.17772722       0.00000000 </v>
    <v>       0.00000000       0.00000000       0.17772722 </v>
   </varray>
  </crystal>
  <varray name="positions" >
   <v>       0.50000000       0.50000000       0.00000000 </v>
   <v>       0.00000000       0.50000000       0.50000000 </v>
   <v>       0.50000000       0.00000000       0.50000000 </v>
   <v>       0.22945800       0.22945800       0.22945800 </v>
   <v>       0.77054200       0.77054200       0.22945800 </v>
   <v>       0.22945800       0.77054200       0.77054200 </v>
   <v>       0.77054200       0.22945800       0.77054200 </v>
  </varray>
 </structure>
 <calculation>
  <scstep>
   <time name="dav">    5.64    1.42</time>
   <time name="total">    6.49    2.09</time>
   <energy>
    <i name="alphaZ">    204.23112898 </i>
    <i name="ewald">  -3677.39161705 </i>
    <i name="hartreedc">  -2407.59899574 </i>
    <i name="XCdc">    140.53929893 </i>
    <i name="pawpsdc">   4537.24972380 </i>
    <i name="pawaedc">  -5510.40829286 </i>
    <i name="eentropy">      0.00623923 </i>
    <i name="bandstr">     28.91962669 </i>
    <i name="atom">   7127.40138498 </i>
    <i name="e_fr_energy">    442.94849695 </i>
    <i name="e_wo_entrp">    442.94225772 </i>
    <i name="e_0_energy">    442.94641721 </i>
   </energy>
  </scstep>
  <scstep>
   <time name="dav">    4.94    1.24</time>
   <time name="total">    4.94    1.24</time>
   <energy>
    <i name="e_fr_energy">     52.14398935 </i>
    <i name="e_wo_entrp">     52.12988909 </i>
    <i name="e_0_energy">     52.13928926 </i>
   </energy>
  </scstep>
  <scstep>
   <time name="dav">    5.40    1.37</time>
   <time name="total">    5.40    1.37</time>
   <energy>
    <i name="e_fr_energy">    -15.93701473 </i>
    <i name="e_wo_entrp">    -15.94840003 </i>
    <i name="e_0_energy">    -15.94080983 </i>
   </energy>
  </scstep>
  <scstep>
   <time name="dav">    5.43    1.38</time>
   <time name="total">    5.44    1.38</time>
   <energy>
    <i name="e_fr_energy">    -19.33643806 </i>
    <i name="e_wo_entrp">    -19.34804331 </i>
    <i name="e_0_energy">    -19.34030648 </i>
   </energy>
  </scstep>
  <scstep>
   <time name="dav">    5.29    1.34</time>
   <time name="total">    5.53    1.47</time>
   <energy>
    <i name="e_fr_energy">    -19.40138298 </i>
    <i name="e_wo_entrp">    -19.41297882 </i>
    <i name="e_0_energy">    -19.40524826 </i>
   </energy>
  </scstep>
  <scstep>
   <time name="dav">    6.16    1.57</time>
   <time name="total">    7.02    2.33</time>
   <energy>
    <i name="e_fr_energy">    -19.61500809 </i>
    <i name="e_wo_entrp">    -19.64077576 </i>
    <i name="e_0_energy">    -19.62359731 </i>
   </energy>
  </scstep>
  <scstep>
   <time name="dav">    5.84    1.48</time>
   <time name="total">    6.70    2.24</time>
   <energy>
    <i name="e_fr_energy">    -19.72560584 </i>
    <i name="e_wo_entrp">    -19.74884458 </i>
    <i name="e_0_energy">    -19.73335209 </i>
   </energy>
  </scstep>
  <scstep>
   <time name="dav">    5.19    1.31</time>
   <time name="total">    6.10    2.07</time>
   <energy>
    <i name="e_fr_energy">    -19.71462361 </i>
    <i name="e_wo_entrp">    -19.73781599 </i>
    <i name="e_0_energy">    -19.72235440 </i>
   </energy>
  </scstep>
  <scstep>
   <time name="dav">    5.48    1.39</time>
   <time name="total">    6.42    2.16</time>
   <energy>
    <i name="e_fr_energy">    -19.71975407 </i>
    <i name="e_wo_entrp">    -19.74295234 </i>
    <i name="e_0_energy">    -19.72748683 </i>
   </energy>
  </scstep>
  <scstep>
   <time name="dav">    5.34    1.35</time>
   <time name="total">    6.32    2.11</time>
   <energy>
    <i name="e_fr_energy">    -19.72154011 </i>
    <i name="e_wo_entrp">    -19.74473300 </i>
    <i name="e_0_energy">    -19.72927107 </i>
   </energy>
  </scstep>
  <scstep>
   <time name="dav">    5.48    1.40</time>
   <time name="total">    6.46    2.16</time>
   <energy>
    <i name="e_fr_energy">    -19.72189250 </i>
    <i name="e_wo_entrp">    -19.74508433 </i>
    <i name="e_0_energy">    -19.72962311 </i>
   </energy>
  </scstep>
  <scstep>
   <time name="dav">    4.59    1.17</time>
   <time name="total">    5.65    1.98</time>
   <energy>
    <i name="e_fr_energy">    -19.72208442 </i>
    <i name="e_wo_entrp">    -19.74527612 </i>
    <i name="e_0_energy">    -19.72981499 </i>
   </energy>
  </scstep>
  <scstep>
   <time name="dav">    4.43    1.16</time>
   <time name="total">    5.14    1.78</time>
   <energy>
    <i name="alphaZ">    204.23112898 </i>
    <i name="ewald">  -3677.39161705 </i>
    <i name="hartreedc">  -2396.30355557 </i>
    <i name="XCdc">    149.09609635 </i>
    <i name="pawpsdc">   4786.96319800 </i>
    <i name="pawaedc">  -5771.45807258 </i>
    <i name="eentropy">      0.02319162 </i>
    <i name="bandstr">   -442.28386410 </i>
    <i name="atom">   7127.40138498 </i>
    <i name="e_fr_energy">    -19.72210937 </i>
    <i name="e_wo_entrp">    -19.74530099 </i>
    <i name="e_0_energy">    -19.72983991 </i>
   </energy>
  </scstep>
  <structure>
   <crystal>
    <varray name="basis" >
     <v>       5.62660000       0.00000000       0.00000000 </v>
     <v>       0.00000000       5.62660000       0.00000000 </v>
     <v>       0.00000000       0.00000000       5.62660000 </v>
    </varray>
    <i name="volume">    178.13043383 </i>
    <varray name="rec_basis" >
     <v>       0.17772722       0.00000000       0.00000000 </v>
     <v>       0.00000000       0.17772722       0.00000000 </v>
     <v>       0.00000000       0.00000000       0.17772722 </v>
    </varray>
   </crystal>
   <varray name="positions" >
    <v>       0.50000000       0.50000000       0.00000000 </v>
    <v>       0.00000000       0.50000000       0.50000000 </v>
    <v>       0.50000000       0.00000000       0.50000000 </v>
    <v>       0.22945800       0.22945800       0.22945800 </v>
    <v>       0.77054200       0.77054200       0.22945800 </v>
    <v>       0.22945800       0.77054200       0.77054200 </v>
    <v>       0.77054200       0.22945800       0.77054200 </v>
   </varray>
  </structure>
  <varray name="forces" >
   <v>       0.00000000       0.00000000       0.00000000 </v>
   <v>       0.00000000       0.00000000       0.00000000 </v>
   <v>       0.00000000       0.00000000       0.00000000 </v>
   <v>       0.01339765       0.01339765       0.01339765 </v>
   <v>      -0.01339765      -0.01339765       0.01339765 </v>
   <v>       0.01339765      -0.01339765      -0.01339765 </v>
   <v>      -0.01339765       0.01339765      -0.01339765 </v>
  </varray>
  <varray name="stress" >
   <v>     191.28123606       0.00000000       0.00000000 </v>
   <v>       0.00000000     191.28123606       0.00000000 </v>
   <v>       0.00000000       0.00000000     191.28123606 </v>
  </varray>
  <energy>
   <i name="e_fr_energy">    -19.72210937 </i>
   <i name="e_wo_entrp">    -19.72983991 </i>
   <i name="e_0_energy">      0.02319162 </i>
  </energy>
  <time name="totalsc">   82.55   27.42</time>
  <eigenvalues>
   <array>
    <dimension dim="1">band</dimension>
    <dimension dim="2">kpoint</dimension>
    <dimension dim="3">spin</dimension>
    <field>eigene</field>
    <field>occ</field>
    <set>
     <set comment="spin 1">
      <set comment="kpoint 1">
       <r>  -12.5128    1.0000 </r>
       <r>  -12.4881    1.0000 </r>
       <r>  -12.4881    1.0000 </r>
       <r>  -12.4619    1.0000 </r>
       <r>  -12.4389    1.0000 </r>
       <r>  -12.4389    1.0000 </r>
       <r>  -12.4173    1.0000 </r>
       <r>  -12.4173    1.0000 </r>
       <r>  -12.4122    1.0000 </r>
       <r>  -12.4011    1.0000 </r>
       <r>  -12.4011    1.0000 </r>
       <r>  -12.3915    1.0000 </r>
       <r>  -12.3880    1.0000 </r>
       <r>  -12.3777    1.0000 </r>
       <r>  -12.3777    1.0000 </r>
       <r>   -9.0805    1.0000 </r>
       <r>   -7.8368    1.0000 </r>
       <r>   -7.8368    1.0000 </r>
       <r>   -7.5377    1.0000 </r>
       <r>   -3.6625    1.0000 </r>
       <r>   -3.6625    1.0000 </r>
       <r>   -2.2201    1.0000 </r>
       <r>   -0.6624    1.0000 </r>
       <r>   -0.6624    1.0000 </r>
       <r>   -0.4692    1.0000 </r>
       <r>    0.5215    1.0000 </r>
       <r>    0.6685    1.0000 </r>
       <r>    1.2785    1.0000 </r>
       <r>    1.2785    1.0000 </r>
       <r>    2.5793    1.0000 </r>
       <r>    2.5793    1.0000 </r>
       <r>    4.3100    0.0000 </r>
       <r>    4.5954    0.0000 </r>
       <r>    4.5954    0.0000 </r>
       <r>    5.9267    0.0000 </r>
       <r>    7.0061    0.0000 </r>
       <r>    7.0061    0.0000 </r>
       <r>    7.4861    0.0000 </r>
       <r>    7.4861    0.0000 </r>
       <r>    8.2628    0.0000 </r>
       <r>    8.7477    0.0000 </r>
      </set>
     </set>
     <set comment="spin 2">
      <set comment="kpoint 1">
       <r>  -12.5133    1.0000 </r>
       <r>  -12.4885    1.0000 </r>
       <r>  -12.4885    1.0000 </r>
       <r>  -12.4624    1.0000 </r>
       <r>  -12.4394    1.0000 </r>
       <r>  -12.4394    1.0000 </r>
       <r>  -12.4178    1.0000 </r>
       <r>  -12.4178    1.0000 </r>
       <r>  -12.4127    1.0000 </r>
       <r>  -12.4015    1.0000 </r>
       <r>  -12.4015    1.0000 </r>
       <r>  -12.3920    1.0000 </r>
       <r>  -12.3885    1.0000 </r>
       <r>  -12.3783    1.0000 </r>
       <r>  -12.3783    1.0000 </r>
       <r>   -9.0805    1.0000 </r>
       <r>   -7.8368    1.0000 </r>
       <r>   -7.8368    1.0000 </r>
       <r>   -7.5377    1.0000 </r>
       <r>   -3.6626    1.0000 </r>
       <r>   -3.6626    1.0000 </r>
       <r>   -2.2202    1.0000 </r>
       <r>   -0.6625    1.0000 </r>
       <r>   -0.6625    1.0000 </r>
       <r>   -0.4692    1.0000 </r>
       <r>    0.5214    1.0000 </r>
       <r>    0.6685    1.0000 </r>
       <r>    1.2784    1.0000 </r>
       <r>    1.2784    1.0000 </r>
       <r>    2.5793    1.0000 </r>
       <r>    2.5793    1.0000 </r>
       <r>    4.3100    0.0000 </r>
       <r>    4.5952    0.0000 </r>
       <r>    4.5952    0.0000 </r>
       <r>    5.9266    0.0000 </r>
       <r>    7.0060    0.0000 </r>
       <r>    7.0060    0.0000 </r>
       <r>    7.4859    0.0000 </r>
       <r>    7.4859    0.0000 </r>
       <r>    8.2628    0.0000 </r>
       <r>    8.7475    0.0000 </r>
      </set>
     </set>
    </set>
   </array>
  </eigenvalues>
  <separator name="orbital magnetization" >
   <v name="MAGDIPOLOUT">      0.00000000      0.00000000      0.00000000</v>
  </separator>
  <dos>
   <i name="efermi">      2.74766404 </i>
   <total>
    <array>
     <dimension dim="1">gridpoints</dimension>
     <dimension dim="2">spin</dimension>
     <field>energy</field>
     <field>total</field>
     <field>integrated</field>
     <set>
      <set comment="spin 1">
       <r> -14.5133   0.0000   0.0000 </r>
       <r> -14.4291   0.0000   0.0000 </r>
       <r> -14.3449   0.0000   0.0000 </r>
       <r> -14.2606   0.0000   0.0000 </r>
       <r> -14.1764   0.0000   0.0000 </r>
       <r> -14.0922   0.0000   0.0000 </r>
       <r> -14.0080   0.0000   0.0000 </r>
       <r> -13.9238   0.0000   0.0000 </r>
       <r> -13.8396   0.0000   0.0000 </r>
       <r> -13.7554   0.0000   0.0000 </r>
       <r> -13.6712   0.0000   0.0000 </r>
       <r> -13.5870   0.0000   0.0000 </r>
       <r> -13.5028   0.0000   0.0000 </r>
       <r> -13.4186   0.0000   0.0000 </r>
       <r> -13.3344   0.0000   0.0000 </r>
       <r> -13.2502   0.0000   0.0000 </r>
       <r> -13.1660  -0.0005   0.0000 </r>
       <r> -13.0818  -0.0068  -0.0006 </r>
       <r> -12.9976  -0.0576  -0.0055 </r>
       <r> -12.9134  -0.3303  -0.0333 </r>
       <r> -12.8292  -1.2163  -0.1357 </r>
       <r> -12.7450  -2.4675  -0.3435 </r>
       <r> -12.6608  -0.4045  -0.3775 </r>
       <r> -12.5766  12.5666   0.6806 </r>
       <r> -12.4924  37.3729   3.8275 </r>
       <r> -12.4082  56.7068   8.6025 </r>
       <r> -12.3240  50.8442  12.8837 </r>
       <r> -12.2398  25.8104  15.0570 </r>
       <r> -12.1556   4.7258  15.4549 </r>
       <r> -12.0714  -2.4912  15.2452 </r>
       <r> -11.9872  -2.0495  15.0726 </r>
       <r> -11.9030  -0.6990  15.0137 </r>
       <r> -11.8188  -0.1426  15.0017 </r>
       <r> -11.7345  -0.0189  15.0002 </r>
       <r> -11.6503  -0.0017  15.0000 </r>
       <r> -11.5661  -0.0001  15.0000 </r>
       <r> -11.4819   0.0000  15.0000 </r>
       <r> -11.3977   0.0000  15.0000 </r>
       <r> -11.3135   0.0000  15.0000 </r>
       <r> -11.2293   0.0000  15.0000 </r>
       <r> -11.1451   0.0000  15.0000 </r>
       <r> -11.0609   0.0000  15.0000 </r>
       <r> -10.9767   0.0000  15.0000 </r>
       <r> -10.8925   0.0000  15.0000 </r>
       <r> -10.8083   0.0000  15.0000 </r>
       <r> -10.7241   0.0000  15.0000 </r>
       <r> -10.6399   0.0000  15.0000 </r>
       <r> -10.5557   0.0000  15.0000 </r>
       <r> -10.4715   0.0000  15.0000 </r>
       <r> -10.3873   0.0000  15.0000 </r>
       <r> -10.3031   0.0000  15.0000 </r>
       <r> -10.2189   0.0000  15.0000 </r>
       <r> -10.1347   0.0000  15.0000 </r>
       <r> -10.0505   0.0000  15.0000 </r>
       <r>  -9.9663   0.0000  15.0000 </r>
       <r>  -9.8821   0.0000  15.0000 </r>
       <r>  -9.7979   0.0000  15.0000 </r>
       <r>  -9.7137  -0.0004  15.0000 </r>
       <r>  -9.6295  -0.0039  14.9996 </r>
       <r>  -9.5453  -0.0249  14.9975 </r>
       <r>  -9.4611  -0.0992  14.9892 </r>
       <r>  -9.3769  -0.2097  14.9715 </r>
       <r>  -9.2926  -0.0220  14.9697 </r>
       <r>  -9.2084   1.1089  15.0630 </r>
       <r>  -9.1242   3.0505  15.3199 </r>
       <r>  -9.0400   4.1287  15.6676 </r>
       <r>  -8.9558   3.1203  15.9303 </r>
       <r>  -8.8716   1.1740  16.0292 </r>
       <r>  -8.7874   0.0000  16.0292 </r>
       <r>  -8.7032  -0.2117  16.0113 </r>
       <r>  -8.6190  -0.1035  16.0026 </r>
       <r>  -8.5348  -0.0265  16.0004 </r>
       <r>  -8.4506  -0.0056  15.9999 </r>
       <r>  -8.3664  -0.0128  15.9988 </r>
       <r>  -8.2822  -0.0715  15.9928 </r>
       <r>  -8.1980  -0.2522  15.9716 </r>
       <r>  -8.1138  -0.4320  15.9352 </r>
       <r>  -8.0296   0.2549  15.9567 </r>
       <r>  -7.9454   2.9777  16.2074 </r>
       <r>  -7.8612   6.7174  16.7730 </r>
       <r>  -7.7770   7.9998  17.4466 </r>
       <r>  -7.6928   5.9772  17.9499 </r>
       <r>  -7.6086   4.0214  18.2886 </r>
       <r>  -7.5244   3.7701  18.6060 </r>
       <r>  -7.4402   3.2563  18.8802 </r>
       <r>  -7.3560   1.6177  19.0164 </r>
       <r>  -7.2718   0.2145  19.0345 </r>
       <r>  -7.1876  -0.2142  19.0164 </r>
       <r>  -7.1034  -0.1427  19.0044 </r>
       <r>  -7.0192  -0.0435  19.0008 </r>
       <r>  -6.9350  -0.0080  19.0001 </r>
       <r>  -6.8508  -0.0009  19.0000 </r>
       <r>  -6.7665  -0.0001  19.0000 </r>
       <r>  -6.6823   0.0000  19.0000 </r>
       <r>  -6.5981   0.0000  19.0000 </r>
       <r>  -6.5139   0.0000  19.0000 </r>
       <r>  -6.4297   0.0000  19.0000 </r>
       <r>  -6.3455   0.0000  19.0000 </r>
       <r>  -6.2613   0.0000  19.0000 </r>
       <r>  -6.1771   0.0000  19.0000 </r>
       <r>  -6.0929   0.0000  19.0000 </r>
       <r>  -6.0087   0.0000  19.0000 </r>
       <r>  -5.9245   0.0000  19.0000 </r>
       <r>  -5.8403   0.0000  19.0000 </r>
       <r>  -5.7561   0.0000  19.0000 </r>
       <r>  -5.6719   0.0000  19.0000 </r>
       <r>  -5.5877   0.0000  19.0000 </r>
       <r>  -5.5035   0.0000  19.0000 </r>
       <r>  -5.4193   0.0000  19.0000 </r>
       <r>  -5.3351   0.0000  19.0000 </r>
       <r>  -5.2509   0.0000  19.0000 </r>
       <r>  -5.1667   0.0000  19.0000 </r>
       <r>  -5.0825   0.0000  19.0000 </r>
       <r>  -4.9983   0.0000  19.0000 </r>
       <r>  -4.9141   0.0000  19.0000 </r>
       <r>  -4.8299   0.0000  19.0000 </r>
       <r>  -4.7457   0.0000  19.0000 </r>
       <r>  -4.6615   0.0000  19.0000 </r>
       <r>  -4.5773   0.0000  19.0000 </r>
       <r>  -4.4931   0.0000  19.0000 </r>
       <r>  -4.4089   0.0000  19.0000 </r>
       <r>  -4.3247  -0.0003  19.0000 </r>
       <r>  -4.2404  -0.0037  18.9997 </r>
       <r>  -4.1562  -0.0275  18.9973 </r>
       <r>  -4.0720  -0.1307  18.9863 </r>
       <r>  -3.9878  -0.3564  18.9563 </r>
       <r>  -3.9036  -0.3222  18.9292 </r>
       <r>  -3.8194   1.1727  19.0279 </r>
       <r>  -3.7352   4.7424  19.4273 </r>
       <r>  -3.6510   7.9523  20.0969 </r>
       <r>  -3.5668   7.3522  20.7160 </r>
       <r>  -3.4826   3.6414  21.0226 </r>
       <r>  -3.3984   0.5448  21.0684 </r>
       <r>  -3.3142  -0.4143  21.0336 </r>
       <r>  -3.2300  -0.2901  21.0091 </r>
       <r>  -3.1458  -0.0897  21.0016 </r>
       <r>  -3.0616  -0.0166  21.0002 </r>
       <r>  -2.9774  -0.0020  21.0000 </r>
       <r>  -2.8932  -0.0003  21.0000 </r>
       <r>  -2.8090  -0.0014  20.9999 </r>
       <r>  -2.7248  -0.0109  20.9990 </r>
       <r>  -2.6406  -0.0549  20.9943 </r>
       <r>  -2.5564  -0.1627  20.9806 </r>
       <r>  -2.4722  -0.1889  20.9647 </r>
       <r>  -2.3880   0.4255  21.0006 </r>
       <r>  -2.3038   2.1072  21.1780 </r>
       <r>  -2.2196   3.8512  21.5023 </r>
       <r>  -2.1354   3.8370  21.8254 </r>
       <r>  -2.0512   2.0813  22.0006 </r>
       <r>  -1.9670   0.4108  22.0352 </r>
       <r>  -1.8828  -0.1910  22.0191 </r>
       <r>  -1.7986  -0.1612  22.0056 </r>
       <r>  -1.7143  -0.0539  22.0010 </r>
       <r>  -1.6301  -0.0106  22.0001 </r>
       <r>  -1.5459  -0.0013  22.0000 </r>
       <r>  -1.4617  -0.0001  22.0000 </r>
       <r>  -1.3775  -0.0001  22.0000 </r>
       <r>  -1.2933  -0.0008  21.9999 </r>
       <r>  -1.2091  -0.0082  21.9992 </r>
       <r>  -1.1249  -0.0521  21.9949 </r>
       <r>  -1.0407  -0.2064  21.9775 </r>
       <r>  -0.9565  -0.4379  21.9406 </r>
       <r>  -0.8723  -0.0864  21.9333 </r>
       <r>  -0.7881   2.1196  22.1118 </r>
       <r>  -0.7039   6.0577  22.6219 </r>
       <r>  -0.6197   8.9493  23.3754 </r>
       <r>  -0.5355   8.6725  24.1057 </r>
       <r>  -0.4513   6.2921  24.6355 </r>
       <r>  -0.3671   3.5366  24.9333 </r>
       <r>  -0.2829   1.2489  25.0385 </r>
       <r>  -0.1987  -0.0013  25.0384 </r>
       <r>  -0.1145  -0.2635  25.0162 </r>
       <r>  -0.0303  -0.1471  25.0038 </r>
       <r>   0.0539  -0.0651  24.9983 </r>
       <r>   0.1381  -0.1088  24.9891 </r>
       <r>   0.2223  -0.2436  24.9686 </r>
       <r>   0.3065  -0.1655  24.9547 </r>
       <r>   0.3907   0.8364  25.0251 </r>
       <r>   0.4749   3.1139  25.2873 </r>
       <r>   0.5591   5.6310  25.7615 </r>
       <r>   0.6433   6.6154  26.3185 </r>
       <r>   0.7275   5.3080  26.7655 </r>
       <r>   0.8118   2.6719  26.9905 </r>
       <r>   0.8960   0.4097  27.0250 </r>
       <r>   0.9802  -0.6323  26.9717 </r>
       <r>   1.0644  -0.2936  26.9470 </r>
       <r>   1.1486   2.0526  27.1198 </r>
       <r>   1.2328   5.9931  27.6245 </r>
       <r>   1.3170   8.2514  28.3193 </r>
       <r>   1.4012   6.3267  28.8520 </r>
       <r>   1.4854   2.4312  29.0567 </r>
       <r>   1.5696   0.0292  29.0592 </r>
       <r>   1.6538  -0.4255  29.0233 </r>
       <r>   1.7380  -0.2124  29.0055 </r>
       <r>   1.8222  -0.0549  29.0008 </r>
       <r>   1.9064  -0.0090  29.0001 </r>
       <r>   1.9906  -0.0037  28.9998 </r>
       <r>   2.0748  -0.0219  28.9979 </r>
       <r>   2.1590  -0.1102  28.9886 </r>
       <r>   2.2432  -0.3261  28.9612 </r>
       <r>   2.3274  -0.3769  28.9294 </r>
       <r>   2.4116   0.8573  29.0016 </r>
       <r>   2.4958   4.2253  29.3574 </r>
       <r>   2.5800   7.7082  30.0065 </r>
       <r>   2.6642   7.6681  30.6521 </r>
       <r>   2.7484   4.1518  31.0017 </r>
       <r>   2.8326   0.8155  31.0704 </r>
       <r>   2.9168  -0.3829  31.0382 </r>
       <r>   3.0010  -0.3217  31.0111 </r>
       <r>   3.0852  -0.1074  31.0020 </r>
       <r>   3.1694  -0.0211  31.0002 </r>
       <r>   3.2537  -0.0027  31.0000 </r>
       <r>   3.3379  -0.0002  31.0000 </r>
       <r>   3.4221   0.0000  31.0000 </r>
       <r>   3.5063   0.0000  31.0000 </r>
       <r>   3.5905   0.0000  31.0000 </r>
       <r>   3.6747  -0.0004  31.0000 </r>
       <r>   3.7589  -0.0037  30.9997 </r>
       <r>   3.8431  -0.0238  30.9977 </r>
       <r>   3.9273  -0.0966  30.9895 </r>
       <r>   4.0115  -0.2112  30.9717 </r>
       <r>   4.0957  -0.0610  30.9666 </r>
       <r>   4.1799   0.9447  31.0461 </r>
       <r>   4.2641   2.6605  31.2702 </r>
       <r>   4.3483   3.7714  31.5877 </r>
       <r>   4.4325   4.1619  31.9382 </r>
       <r>   4.5167   5.6764  32.4162 </r>
       <r>   4.6009   7.8416  33.0764 </r>
       <r>   4.6851   7.3218  33.6930 </r>
       <r>   4.7693   3.8166  34.0143 </r>
       <r>   4.8535   0.6625  34.0701 </r>
       <r>   4.9377  -0.4036  34.0361 </r>
       <r>   5.0219  -0.3081  34.0102 </r>
       <r>   5.1061  -0.0993  34.0018 </r>
       <r>   5.1903  -0.0190  34.0002 </r>
       <r>   5.2745  -0.0026  34.0000 </r>
       <r>   5.3587  -0.0026  33.9998 </r>
       <r>   5.4429  -0.0170  33.9984 </r>
       <r>   5.5271  -0.0760  33.9920 </r>
       <r>   5.6113  -0.1910  33.9759 </r>
       <r>   5.6955  -0.1250  33.9653 </r>
       <r>   5.7798   0.7502  34.0285 </r>
       <r>   5.8640   2.6099  34.2483 </r>
       <r>   5.9482   4.0588  34.5900 </r>
       <r>   6.0324   3.5046  34.8851 </r>
       <r>   6.1166   1.5899  35.0190 </r>
       <r>   6.2008   0.1639  35.0328 </r>
       <r>   6.2850  -0.2142  35.0148 </r>
       <r>   6.3692  -0.1311  35.0037 </r>
       <r>   6.4534  -0.0447  35.0000 </r>
       <r>   6.5376  -0.0528  34.9955 </r>
       <r>   6.6218  -0.1895  34.9796 </r>
       <r>   6.7060  -0.4137  34.9447 </r>
       <r>   6.7902  -0.0924  34.9369 </r>
       <r>   6.8744   2.0662  35.1109 </r>
       <r>   6.9586   5.9199  35.6094 </r>
       <r>   7.0428   8.1746  36.2977 </r>
       <r>   7.1270   6.1436  36.8150 </r>
       <r>   7.2112   2.0762  36.9899 </r>
       <r>   7.2954   0.3662  37.0207 </r>
       <r>   7.3796   2.7132  37.2492 </r>
       <r>   7.4638   6.7599  37.8184 </r>
       <r>   7.5480   8.0722  38.4981 </r>
       <r>   7.6322   5.2516  38.9403 </r>
       <r>   7.7164   1.5254  39.0687 </r>
       <r>   7.8006  -0.2689  39.0461 </r>
       <r>   7.8848  -0.4868  39.0051 </r>
       <r>   7.9690  -0.3652  38.9743 </r>
       <r>   8.0532  -0.0389  38.9711 </r>
       <r>   8.1374   1.1559  39.0684 </r>
       <r>   8.2216   3.1000  39.3294 </r>
       <r>   8.3059   4.0909  39.6739 </r>
       <r>   8.3901   2.9327  39.9208 </r>
       <r>   8.4743   0.9071  39.9972 </r>
       <r>   8.5585   0.1513  40.0100 </r>
       <r>   8.6427   1.3920  40.1272 </r>
       <r>   8.7269   3.4143  40.4147 </r>
       <r>   8.8111   4.0300  40.7540 </r>
       <r>   8.8953   2.5933  40.9724 </r>
       <r>   8.9795   0.7406  41.0347 </r>
       <r>   9.0637  -0.1273  41.0240 </r>
       <r>   9.1479  -0.1904  41.0080 </r>
       <r>   9.2321  -0.0754  41.0016 </r>
       <r>   9.3163  -0.0168  41.0002 </r>
       <r>   9.4005  -0.0024  41.0000 </r>
       <r>   9.4847  -0.0002  41.0000 </r>
       <r>   9.5689   0.0000  41.0000 </r>
       <r>   9.6531   0.0000  41.0000 </r>
       <r>   9.7373   0.0000  41.0000 </r>
       <r>   9.8215   0.0000  41.0000 </r>
       <r>   9.9057   0.0000  41.0000 </r>
       <r>   9.9899   0.0000  41.0000 </r>
       <r>  10.0741   0.0000  41.0000 </r>
       <r>  10.1583   0.0000  41.0000 </r>
       <r>  10.2425   0.0000  41.0000 </r>
       <r>  10.3267   0.0000  41.0000 </r>
       <r>  10.4109   0.0000  41.0000 </r>
       <r>  10.4951   0.0000  41.0000 </r>
       <r>  10.5793   0.0000  41.0000 </r>
       <r>  10.6635   0.0000  41.0000 </r>
       <r>  10.7477   0.0000  41.0000 </r>
      </set>
      <set comment="spin 2">
       <r> -14.5133   0.0000   0.0000 </r>
       <r> -14.4291   0.0000   0.0000 </r>
       <r> -14.3449   0.0000   0.0000 </r>
       <r> -14.2606   0.0000   0.0000 </r>
       <r> -14.1764   0.0000   0.0000 </r>
       <r> -14.0922   0.0000   0.0000 </r>
       <r> -14.0080   0.0000   0.0000 </r>
       <r> -13.9238   0.0000   0.0000 </r>
       <r> -13.8396   0.0000   0.0000 </r>
       <r> -13.7554   0.0000   0.0000 </r>
       <r> -13.6712   0.0000   0.0000 </r>
       <r> -13.5870   0.0000   0.0000 </r>
       <r> -13.5028   0.0000   0.0000 </r>
       <r> -13.4186   0.0000   0.0000 </r>
       <r> -13.3344   0.0000   0.0000 </r>
       <r> -13.2502   0.0000   0.0000 </r>
       <r> -13.1660  -0.0006   0.0000 </r>
       <r> -13.0818  -0.0069  -0.0006 </r>
       <r> -12.9976  -0.0583  -0.0055 </r>
       <r> -12.9134  -0.3332  -0.0336 </r>
       <r> -12.8292  -1.2237  -0.1366 </r>
       <r> -12.7450  -2.4714  -0.3447 </r>
       <r> -12.6608  -0.3687  -0.3758 </r>
       <r> -12.5766  12.6834   0.6922 </r>
       <r> -12.4924  37.5261   3.8520 </r>
       <r> -12.4082  56.7569   8.6312 </r>
       <r> -12.3240  50.7344  12.9032 </r>
       <r> -12.2398  25.6556  15.0634 </r>
       <r> -12.1556   4.6441  15.4545 </r>
       <r> -12.0714  -2.5022  15.2438 </r>
       <r> -11.9872  -2.0405  15.0720 </r>
       <r> -11.9030  -0.6935  15.0136 </r>
       <r> -11.8188  -0.1411  15.0017 </r>
       <r> -11.7345  -0.0187  15.0001 </r>
       <r> -11.6503  -0.0017  15.0000 </r>
       <r> -11.5661  -0.0001  15.0000 </r>
       <r> -11.4819   0.0000  15.0000 </r>
       <r> -11.3977   0.0000  15.0000 </r>
       <r> -11.3135   0.0000  15.0000 </r>
       <r> -11.2293   0.0000  15.0000 </r>
       <r> -11.1451   0.0000  15.0000 </r>
       <r> -11.0609   0.0000  15.0000 </r>
       <r> -10.9767   0.0000  15.0000 </r>
       <r> -10.8925   0.0000  15.0000 </r>
       <r> -10.8083   0.0000  15.0000 </r>
       <r> -10.7241   0.0000  15.0000 </r>
       <r> -10.6399   0.0000  15.0000 </r>
       <r> -10.5557   0.0000  15.0000 </r>
       <r> -10.4715   0.0000  15.0000 </r>
       <r> -10.3873   0.0000  15.0000 </r>
       <r> -10.3031   0.0000  15.0000 </r>
       <r> -10.2189   0.0000  15.0000 </r>
       <r> -10.1347   0.0000  15.0000 </r>
       <r> -10.0505   0.0000  15.0000 </r>
       <r>  -9.9663   0.0000  15.0000 </r>
       <r>  -9.8821   0.0000  15.0000 </r>
       <r>  -9.7979   0.0000  15.0000 </r>
       <r>  -9.7137  -0.0004  15.0000 </r>
       <r>  -9.6295  -0.0039  14.9996 </r>
       <r>  -9.5453  -0.0248  14.9975 </r>
       <r>  -9.4611  -0.0992  14.9892 </r>
       <r>  -9.3769  -0.2096  14.9715 </r>
       <r>  -9.2926  -0.0222  14.9697 </r>
       <r>  -9.2084   1.1084  15.0630 </r>
       <r>  -9.1242   3.0500  15.3198 </r>
       <r>  -9.0400   4.1287  15.6675 </r>
       <r>  -8.9558   3.1208  15.9303 </r>
       <r>  -8.8716   1.1744  16.0291 </r>
       <r>  -8.7874   0.0002  16.0292 </r>
       <r>  -8.7032  -0.2117  16.0113 </r>
       <r>  -8.6190  -0.1035  16.0026 </r>
       <r>  -8.5348  -0.0266  16.0004 </r>
       <r>  -8.4506  -0.0056  15.9999 </r>
       <r>  -8.3664  -0.0128  15.9988 </r>
       <r>  -8.2822  -0.0714  15.9928 </r>
       <r>  -8.1980  -0.2521  15.9716 </r>
       <r>  -8.1138  -0.4320  15.9352 </r>
       <r>  -8.0296   0.2539  15.9566 </r>
       <r>  -7.9454   2.9756  16.2072 </r>
       <r>  -7.8612   6.7156  16.7726 </r>
       <r>  -7.7770   8.0001  17.4463 </r>
       <r>  -7.6928   5.9784  17.9497 </r>
       <r>  -7.6086   4.0215  18.2883 </r>
       <r>  -7.5244   3.7699  18.6057 </r>
       <r>  -7.4402   3.2573  18.8800 </r>
       <r>  -7.3560   1.6192  19.0164 </r>
       <r>  -7.2718   0.2152  19.0345 </r>
       <r>  -7.1876  -0.2141  19.0164 </r>
       <r>  -7.1034  -0.1428  19.0044 </r>
       <r>  -7.0192  -0.0435  19.0008 </r>
       <r>  -6.9350  -0.0080  19.0001 </r>
       <r>  -6.8508  -0.0009  19.0000 </r>
       <r>  -6.7665  -0.0001  19.0000 </r>
       <r>  -6.6823   0.0000  19.0000 </r>
       <r>  -6.5981   0.0000  19.0000 </r>
       <r>  -6.5139   0.0000  19.0000 </r>
       <r>  -6.4297   0.0000  19.0000 </r>
       <r>  -6.3455   0.0000  19.0000 </r>
       <r>  -6.2613   0.0000  19.0000 </r>
       <r>  -6.1771   0.0000  19.0000 </r>
       <r>  -6.0929   0.0000  19.0000 </r>
       <r>  -6.0087   0.0000  19.0000 </r>
       <r>  -5.9245   0.0000  19.0000 </r>
       <r>  -5.8403   0.0000  19.0000 </r>
       <r>  -5.7561   0.0000  19.0000 </r>
       <r>  -5.6719   0.0000  19.0000 </r>
       <r>  -5.5877   0.0000  19.0000 </r>
       <r>  -5.5035   0.0000  19.0000 </r>
       <r>  -5.4193   0.0000  19.0000 </r>
       <r>  -5.3351   0.0000  19.0000 </r>
       <r>  -5.2509   0.0000  19.0000 </r>
       <r>  -5.1667   0.0000  19.0000 </r>
       <r>  -5.0825   0.0000  19.0000 </r>
       <r>  -4.9983   0.0000  19.0000 </r>
       <r>  -4.9141   0.0000  19.0000 </r>
       <r>  -4.8299   0.0000  19.0000 </r>
       <r>  -4.7457   0.0000  19.0000 </r>
       <r>  -4.6615   0.0000  19.0000 </r>
       <r>  -4.5773   0.0000  19.0000 </r>
       <r>  -4.4931   0.0000  19.0000 </r>
       <r>  -4.4089   0.0000  19.0000 </r>
       <r>  -4.3247  -0.0003  19.0000 </r>
       <r>  -4.2404  -0.0037  18.9997 </r>
       <r>  -4.1562  -0.0276  18.9973 </r>
       <r>  -4.0720  -0.1308  18.9863 </r>
       <r>  -3.9878  -0.3566  18.9563 </r>
       <r>  -3.9036  -0.3217  18.9292 </r>
       <r>  -3.8194   1.1755  19.0282 </r>
       <r>  -3.7352   4.7467  19.4279 </r>
       <r>  -3.6510   7.9540  20.0976 </r>
       <r>  -3.5668   7.3494  20.7165 </r>
       <r>  -3.4826   3.6372  21.0227 </r>
       <r>  -3.3984   0.5427  21.0684 </r>
       <r>  -3.3142  -0.4145  21.0335 </r>
       <r>  -3.2300  -0.2898  21.0091 </r>
       <r>  -3.1458  -0.0896  21.0016 </r>
       <r>  -3.0616  -0.0166  21.0002 </r>
       <r>  -2.9774  -0.0020  21.0000 </r>
       <r>  -2.8932  -0.0003  21.0000 </r>
       <r>  -2.8090  -0.0014  20.9999 </r>
       <r>  -2.7248  -0.0109  20.9990 </r>
       <r>  -2.6406  -0.0549  20.9943 </r>
       <r>  -2.5564  -0.1628  20.9806 </r>
       <r>  -2.4722  -0.1888  20.9647 </r>
       <r>  -2.3880   0.4262  21.0006 </r>
       <r>  -2.3038   2.1083  21.1781 </r>
       <r>  -2.2196   3.8518  21.5025 </r>
       <r>  -2.1354   3.8364  21.8255 </r>
       <r>  -2.0512   2.0802  22.0007 </r>
       <r>  -1.9670   0.4102  22.0352 </r>
       <r>  -1.8828  -0.1911  22.0191 </r>
       <r>  -1.7986  -0.1611  22.0056 </r>
       <r>  -1.7143  -0.0539  22.0010 </r>
       <r>  -1.6301  -0.0106  22.0001 </r>
       <r>  -1.5459  -0.0013  22.0000 </r>
       <r>  -1.4617  -0.0001  22.0000 </r>
       <r>  -1.3775  -0.0001  22.0000 </r>
       <r>  -1.2933  -0.0009  21.9999 </r>
       <r>  -1.2091  -0.0082  21.9992 </r>
       <r>  -1.1249  -0.0522  21.9948 </r>
       <r>  -1.0407  -0.2067  21.9774 </r>
       <r>  -0.9565  -0.4381  21.9405 </r>
       <r>  -0.8723  -0.0849  21.9334 </r>
       <r>  -0.7881   2.1241  22.1123 </r>
       <r>  -0.7039   6.0625  22.6227 </r>
       <r>  -0.6197   8.9491  23.3763 </r>
       <r>  -0.5355   8.6675  24.1061 </r>
       <r>  -0.4513   6.2876  24.6355 </r>
       <r>  -0.3671   3.5353  24.9332 </r>
       <r>  -0.2829   1.2493  25.0384 </r>
       <r>  -0.1987  -0.0009  25.0383 </r>
       <r>  -0.1145  -0.2634  25.0162 </r>
       <r>  -0.0303  -0.1471  25.0038 </r>
       <r>   0.0539  -0.0651  24.9983 </r>
       <r>   0.1381  -0.1089  24.9891 </r>
       <r>   0.2223  -0.2437  24.9686 </r>
       <r>   0.3065  -0.1649  24.9547 </r>
       <r>   0.3907   0.8383  25.0253 </r>
       <r>   0.4749   3.1160  25.2877 </r>
       <r>   0.5591   5.6310  25.7618 </r>
       <r>   0.6433   6.6133  26.3187 </r>
       <r>   0.7275   5.3061  26.7655 </r>
       <r>   0.8118   2.6713  26.9904 </r>
       <r>   0.8960   0.4097  27.0249 </r>
       <r>   0.9802  -0.6322  26.9717 </r>
       <r>   1.0644  -0.2930  26.9470 </r>
       <r>   1.1486   2.0543  27.1200 </r>
       <r>   1.2328   5.9950  27.6248 </r>
       <r>   1.3170   8.2515  28.3196 </r>
       <r>   1.4012   6.3249  28.8522 </r>
       <r>   1.4854   2.4294  29.0567 </r>
       <r>   1.5696   0.0286  29.0591 </r>
       <r>   1.6538  -0.4254  29.0233 </r>
       <r>   1.7380  -0.2122  29.0054 </r>
       <r>   1.8222  -0.0549  29.0008 </r>
       <r>   1.9064  -0.0090  29.0001 </r>
       <r>   1.9906  -0.0037  28.9998 </r>
       <r>   2.0748  -0.0219  28.9979 </r>
       <r>   2.1590  -0.1101  28.9886 </r>
       <r>   2.2432  -0.3260  28.9612 </r>
       <r>   2.3274  -0.3771  28.9294 </r>
       <r>   2.4116   0.8558  29.0015 </r>
       <r>   2.4958   4.2227  29.3571 </r>
       <r>   2.5800   7.7068  30.0060 </r>
       <r>   2.6642   7.6695  30.6518 </r>
       <r>   2.7484   4.1544  31.0016 </r>
       <r>   2.8326   0.8170  31.0704 </r>
       <r>   2.9168  -0.3827  31.0382 </r>
       <r>   3.0010  -0.3218  31.0111 </r>
       <r>   3.0852  -0.1075  31.0020 </r>
       <r>   3.1694  -0.0212  31.0002 </r>
       <r>   3.2537  -0.0027  31.0000 </r>
       <r>   3.3379  -0.0002  31.0000 </r>
       <r>   3.4221   0.0000  31.0000 </r>
       <r>   3.5063   0.0000  31.0000 </r>
       <r>   3.5905   0.0000  31.0000 </r>
       <r>   3.6747  -0.0004  31.0000 </r>
       <r>   3.7589  -0.0037  30.9997 </r>
       <r>   3.8431  -0.0238  30.9977 </r>
       <r>   3.9273  -0.0966  30.9895 </r>
       <r>   4.0115  -0.2112  30.9717 </r>
       <r>   4.0957  -0.0607  30.9666 </r>
       <r>   4.1799   0.9453  31.0462 </r>
       <r>   4.2641   2.6611  31.2703 </r>
       <r>   4.3483   3.7722  31.5879 </r>
       <r>   4.4325   4.1649  31.9386 </r>
       <r>   4.5167   5.6820  32.4170 </r>
       <r>   4.6009   7.8443  33.0776 </r>
       <r>   4.6851   7.3179  33.6938 </r>
       <r>   4.7693   3.8102  34.0146 </r>
       <r>   4.8535   0.6591  34.0701 </r>
       <r>   4.9377  -0.4040  34.0361 </r>
       <r>   5.0219  -0.3077  34.0102 </r>
       <r>   5.1061  -0.0991  34.0018 </r>
       <r>   5.1903  -0.0190  34.0002 </r>
       <r>   5.2745  -0.0026  34.0000 </r>
       <r>   5.3587  -0.0026  33.9998 </r>
       <r>   5.4429  -0.0170  33.9983 </r>
       <r>   5.5271  -0.0761  33.9919 </r>
       <r>   5.6113  -0.1912  33.9758 </r>
       <r>   5.6955  -0.1244  33.9654 </r>
       <r>   5.7798   0.7529  34.0288 </r>
       <r>   5.8640   2.6136  34.2488 </r>
       <r>   5.9482   4.0598  34.5907 </r>
       <r>   6.0324   3.5017  34.8855 </r>
       <r>   6.1166   1.5863  35.0191 </r>
       <r>   6.2008   0.1623  35.0328 </r>
       <r>   6.2850  -0.2143  35.0147 </r>
       <r>   6.3692  -0.1308  35.0037 </r>
       <r>   6.4534  -0.0447  35.0000 </r>
       <r>   6.5376  -0.0529  34.9955 </r>
       <r>   6.6218  -0.1897  34.9795 </r>
       <r>   6.7060  -0.4138  34.9447 </r>
       <r>   6.7902  -0.0914  34.9370 </r>
       <r>   6.8744   2.0695  35.1113 </r>
       <r>   6.9586   5.9237  35.6101 </r>
       <r>   7.0428   8.1747  36.2984 </r>
       <r>   7.1270   6.1395  36.8154 </r>
       <r>   7.2112   2.0727  36.9899 </r>
       <r>   7.2954   0.3680  37.0209 </r>
       <r>   7.3796   2.7204  37.2499 </r>
       <r>   7.4638   6.7660  37.8197 </r>
       <r>   7.5480   8.0702  38.4992 </r>
       <r>   7.6322   5.2441  38.9408 </r>
       <r>   7.7164   1.5200  39.0688 </r>
       <r>   7.8006  -0.2702  39.0460 </r>
       <r>   7.8848  -0.4864  39.0050 </r>
       <r>   7.9690  -0.3648  38.9743 </r>
       <r>   8.0532  -0.0387  38.9711 </r>
       <r>   8.1374   1.1559  39.0684 </r>
       <r>   8.2216   3.1000  39.3294 </r>
       <r>   8.3059   4.0907  39.6739 </r>
       <r>   8.3901   2.9322  39.9208 </r>
       <r>   8.4743   0.9072  39.9972 </r>
       <r>   8.5585   0.1541  40.0101 </r>
       <r>   8.6427   1.3982  40.1279 </r>
       <r>   8.7269   3.4192  40.4158 </r>
       <r>   8.8111   4.0281  40.7550 </r>
       <r>   8.8953   2.5868  40.9728 </r>
       <r>   8.9795   0.7359  41.0348 </r>
       <r>   9.0637  -0.1284  41.0239 </r>
       <r>   9.1479  -0.1900  41.0079 </r>
       <r>   9.2321  -0.0751  41.0016 </r>
       <r>   9.3163  -0.0167  41.0002 </r>
       <r>   9.4005  -0.0023  41.0000 </r>
       <r>   9.4847  -0.0002  41.0000 </r>
       <r>   9.5689   0.0000  41.0000 </r>
       <r>   9.6531   0.0000  41.0000 </r>
       <r>   9.7373   0.0000  41.0000 </r>
       <r>   9.8215   0.0000  41.0000 </r>
       <r>   9.9057   0.0000  41.0000 </r>
       <r>   9.9899   0.0000  41.0000 </r>
       <r>  10.0741   0.0000  41.0000 </r>
       <r>  10.1583   0.0000  41.0000 </r>
       <r>  10.2425   0.0000  41.0000 </r>
       <r>  10.3267   0.0000  41.0000 </r>
       <r>  10.4109   0.0000  41.0000 </r>
       <r>  10.4951   0.0000  41.0000 </r>
       <r>  10.5793   0.0000  41.0000 </r>
       <r>  10.6635   0.0000  41.0000 </r>
       <r>  10.7477   0.0000  41.0000 </r>
      </set>
     </set>
    </array>
   </total>
  </dos>
 </calculation>
 <structure name="finalpos" >
  <crystal>
   <varray name="basis" >
    <v>       5.62660000       0.00000000       0.00000000 </v>
    <v>       0.00000000       5.62660000       0.00000000 </v>
    <v>       0.00000000       0.00000000       5.62660000 </v>
   </varray>
   <i name="volume">    178.13043383 </i>
   <varray name="rec_basis" >
    <v>       0.17772722       0.00000000       0.00000000 </v>
    <v>       0.00000000       0.17772722       0.00000000 </v>
    <v>       0.00000000       0.00000000       0.17772722 </v>
   </varray>
  </crystal>
  <varray name="positions" >
   <v>       0.50000000       0.50000000       0.00000000 </v>
   <v>       0.00000000       0.50000000       0.50000000 </v>
   <v>       0.50000000       0.00000000       0.50000000 </v>
   <v>       0.22945800       0.22945800       0.22945800 </v>
   <v>       0.77054200       0.77054200       0.22945800 </v>
   <v>       0.22945800       0.77054200       0.77054200 </v>
   <v>       0.77054200       0.22945800       0.77054200 </v>
  </varray>
 </structure>
</modeling>
