  31  31   0   0
  0.1706110E+02  0.8087040E-09  0.8087040E-09  0.8087040E-09  0.5000000E-15
  1.000000000000000E-004
  CAR 
 unknown system                          
     11.50578154     -5.48938370  301      7.73579987      1.00000000
     -5.489  0.0000E+00  0.0000E+00
     -5.433  0.0000E+00  0.0000E+00
     -5.376  0.0000E+00  0.0000E+00
     -5.319  0.0000E+00  0.0000E+00
     -5.263  0.0000E+00  0.0000E+00
     -5.206  0.0000E+00  0.0000E+00
     -5.149  0.0000E+00  0.0000E+00
     -5.093 -0.5088E-28 -0.2882E-29
     -5.036 -0.4200E-26 -0.2408E-27
     -4.980 -0.2979E-24 -0.1712E-25
     -4.923 -0.1797E-22 -0.1035E-23
     -4.866 -0.9209E-21 -0.5321E-22
     -4.810 -0.4012E-19 -0.2326E-20
     -4.753 -0.1485E-17 -0.8644E-19
     -4.696 -0.4668E-16 -0.2731E-17
     -4.640 -0.1205E-14 -0.7100E-16
     -4.583 -0.2730E-13 -0.1618E-14
     -4.526 -0.5228E-12 -0.3123E-13
     -4.470 -0.8482E-11 -0.5117E-12
     -4.413 -0.1165E-09 -0.7111E-11
     -4.356 -0.1353E-08 -0.8377E-10
     -4.300 -0.1327E-07 -0.8357E-09
     -4.243 -0.1098E-06 -0.7054E-08
     -4.186 -0.7634E-06 -0.5030E-07
     -4.130 -0.4451E-05 -0.3025E-06
     -4.073 -0.2166E-04 -0.1530E-05
     -4.016 -0.8742E-04 -0.6482E-05
     -3.960 -0.2894E-03 -0.2288E-04
     -3.903 -0.7714E-03 -0.6658E-04
     -3.847 -0.1595E-02 -0.1569E-03
     -3.790 -0.2321E-02 -0.2884E-03
     -3.733 -0.1462E-02 -0.3712E-03
     -3.677  0.3386E-02 -0.1794E-03
     -3.620  0.1384E-01  0.6047E-03
     -3.563  0.2810E-01  0.2197E-02
     -3.507  0.4022E-01  0.4475E-02
     -3.450  0.4360E-01  0.6945E-02
     -3.393  0.3620E-01  0.8996E-02
     -3.337  0.2237E-01  0.1026E-01
     -3.280  0.9092E-02  0.1078E-01
     -3.223  0.8595E-03  0.1083E-01
     -3.167 -0.2132E-02  0.1071E-01
     -3.110 -0.2115E-02  0.1059E-01
     -3.053 -0.1242E-02  0.1052E-01
     -2.997 -0.5401E-03  0.1049E-01
     -2.940 -0.1856E-03  0.1047E-01
     -2.883 -0.5179E-04  0.1047E-01
     -2.827 -0.1191E-04  0.1047E-01
     -2.770 -0.2279E-05  0.1047E-01
     -2.714 -0.3646E-06  0.1047E-01
     -2.657 -0.4898E-07  0.1047E-01
     -2.600 -0.5538E-08  0.1047E-01
     -2.544 -0.5283E-09  0.1047E-01
     -2.487 -0.4261E-10  0.1047E-01
     -2.430 -0.3372E-11  0.1047E-01
     -2.374 -0.7881E-11  0.1047E-01
     -2.317 -0.1079E-09  0.1047E-01
     -2.260 -0.1279E-08  0.1047E-01
     -2.204 -0.1286E-07  0.1047E-01
     -2.147 -0.1095E-06  0.1047E-01
     -2.090 -0.7890E-06  0.1047E-01
     -2.034 -0.4806E-05  0.1047E-01
     -1.977 -0.2469E-04  0.1047E-01
     -1.920 -0.1067E-03  0.1046E-01
     -1.864 -0.3860E-03  0.1044E-01
     -1.807 -0.1158E-02  0.1038E-01
     -1.750 -0.2838E-02  0.1022E-01
     -1.694 -0.5478E-02  0.9905E-02
     -1.637 -0.7572E-02  0.9476E-02
     -1.580 -0.4620E-02  0.9214E-02
     -1.524  0.1065E-01  0.9817E-02
     -1.467  0.4423E-01  0.1232E-01
     -1.411  0.9392E-01  0.1764E-01
     -1.354  0.1454E+00  0.2588E-01
     -1.297  0.1778E+00  0.3595E-01
     -1.241  0.1765E+00  0.4595E-01
     -1.184  0.1442E+00  0.5412E-01
     -1.127  0.9831E-01  0.5969E-01
     -1.071  0.5978E-01  0.6308E-01
     -1.014  0.3999E-01  0.6534E-01
     -0.957  0.3643E-01  0.6740E-01
     -0.901  0.3790E-01  0.6955E-01
     -0.844  0.3449E-01  0.7151E-01
     -0.787  0.2421E-01  0.7288E-01
     -0.731  0.1175E-01  0.7354E-01
     -0.674  0.2481E-02  0.7368E-01
     -0.617 -0.1747E-02  0.7358E-01
     -0.561 -0.2356E-02  0.7345E-01
     -0.504 -0.1567E-02  0.7336E-01
     -0.447 -0.7454E-03  0.7332E-01
     -0.391 -0.2765E-03  0.7330E-01
     -0.334 -0.8274E-04  0.7330E-01
     -0.278 -0.2033E-04  0.7330E-01
     -0.221 -0.4145E-05  0.7330E-01
     -0.164 -0.7056E-06  0.7330E-01
     -0.108 -0.1031E-06  0.7330E-01
     -0.051 -0.3523E-07  0.7330E-01
      0.006 -0.1876E-06  0.7330E-01
      0.062 -0.1270E-05  0.7330E-01
      0.119 -0.7308E-05  0.7330E-01
      0.176 -0.3551E-04  0.7330E-01
      0.232 -0.1455E-03  0.7329E-01
      0.289 -0.5019E-03  0.7326E-01
      0.346 -0.1451E-02  0.7318E-01
      0.402 -0.3481E-02  0.7298E-01
      0.459 -0.6776E-02  0.7260E-01
      0.516 -0.1004E-01  0.7203E-01
      0.572 -0.8720E-02  0.7153E-01
      0.629  0.5960E-02  0.7187E-01
      0.686  0.4469E-01  0.7440E-01
      0.742  0.1125E+00  0.8078E-01
      0.799  0.1993E+00  0.9206E-01
      0.855  0.2780E+00  0.1078E+00
      0.912  0.3181E+00  0.1258E+00
      0.969  0.3054E+00  0.1431E+00
      1.025  0.2510E+00  0.1574E+00
      1.082  0.1797E+00  0.1675E+00
      1.139  0.1132E+00  0.1740E+00
      1.195  0.6352E-01  0.1776E+00
      1.252  0.3540E-01  0.1796E+00
      1.309  0.2764E-01  0.1811E+00
      1.365  0.3204E-01  0.1829E+00
      1.422  0.3658E-01  0.1850E+00
      1.479  0.3301E-01  0.1869E+00
      1.535  0.2156E-01  0.1881E+00
      1.592  0.8284E-02  0.1886E+00
      1.649 -0.7758E-03  0.1885E+00
      1.705 -0.2541E-02  0.1884E+00
      1.762  0.3643E-02  0.1886E+00
      1.819  0.1646E-01  0.1895E+00
      1.875  0.3160E-01  0.1913E+00
      1.932  0.4212E-01  0.1937E+00
      1.988  0.4238E-01  0.1961E+00
      2.045  0.3246E-01  0.1979E+00
      2.102  0.1811E-01  0.1990E+00
      2.158  0.6054E-02  0.1993E+00
      2.215 -0.4889E-03  0.1993E+00
      2.272 -0.2327E-02  0.1991E+00
      2.328 -0.1891E-02  0.1990E+00
      2.385 -0.1059E-02  0.1990E+00
      2.442 -0.6490E-03  0.1989E+00
      2.498 -0.9426E-03  0.1989E+00
      2.555 -0.2213E-02  0.1988E+00
      2.612 -0.4599E-02  0.1985E+00
      2.668 -0.7051E-02  0.1981E+00
      2.725 -0.5813E-02  0.1978E+00
      2.782  0.5615E-02  0.1981E+00
      2.838  0.3272E-01  0.1999E+00
      2.895  0.7373E-01  0.2041E+00
      2.952  0.1171E+00  0.2108E+00
      3.008  0.1482E+00  0.2192E+00
      3.065  0.1592E+00  0.2282E+00
      3.122  0.1533E+00  0.2369E+00
      3.178  0.1384E+00  0.2447E+00
      3.235  0.1199E+00  0.2515E+00
      3.291  0.1007E+00  0.2572E+00
      3.348  0.8318E-01  0.2619E+00
      3.405  0.7005E-01  0.2659E+00
      3.461  0.6232E-01  0.2694E+00
      3.518  0.5816E-01  0.2727E+00
      3.575  0.5391E-01  0.2758E+00
      3.631  0.4673E-01  0.2784E+00
      3.688  0.3767E-01  0.2805E+00
      3.745  0.3234E-01  0.2824E+00
      3.801  0.3691E-01  0.2845E+00
      3.858  0.5233E-01  0.2874E+00
      3.915  0.7320E-01  0.2916E+00
      3.971  0.9254E-01  0.2968E+00
      4.028  0.1061E+00  0.3028E+00
      4.085  0.1113E+00  0.3091E+00
      4.141  0.1049E+00  0.3151E+00
      4.198  0.8484E-01  0.3199E+00
      4.255  0.5631E-01  0.3231E+00
      4.311  0.3095E-01  0.3248E+00
      4.368  0.1900E-01  0.3259E+00
      4.424  0.2115E-01  0.3271E+00
      4.481  0.2914E-01  0.3288E+00
      4.538  0.3486E-01  0.3307E+00
      4.594  0.3923E-01  0.3330E+00
      4.651  0.5120E-01  0.3359E+00
      4.708  0.7634E-01  0.3402E+00
      4.764  0.1067E+00  0.3462E+00
      4.821  0.1240E+00  0.3532E+00
      4.878  0.1147E+00  0.3597E+00
      4.934  0.8205E-01  0.3644E+00
      4.991  0.4256E-01  0.3668E+00
      5.048  0.1233E-01  0.3675E+00
      5.104 -0.2777E-02  0.3673E+00
      5.161 -0.6333E-02  0.3670E+00
      5.218 -0.4762E-02  0.3667E+00
      5.274 -0.2461E-02  0.3666E+00
      5.331 -0.9833E-03  0.3665E+00
      5.388 -0.3171E-03  0.3665E+00
      5.444 -0.8729E-04  0.3665E+00
      5.501 -0.3710E-04  0.3665E+00
      5.557 -0.8679E-04  0.3665E+00
      5.614 -0.3084E-03  0.3665E+00
      5.671 -0.9262E-03  0.3664E+00
      5.727 -0.2215E-02  0.3663E+00
      5.784 -0.3985E-02  0.3661E+00
      5.841 -0.4536E-02  0.3658E+00
      5.897  0.7746E-04  0.3658E+00
      5.954  0.1447E-01  0.3666E+00
      6.011  0.3923E-01  0.3689E+00
      6.067  0.6672E-01  0.3726E+00
      6.124  0.8367E-01  0.3774E+00
      6.181  0.8134E-01  0.3820E+00
      6.237  0.6369E-01  0.3856E+00
      6.294  0.4384E-01  0.3881E+00
      6.351  0.3175E-01  0.3899E+00
      6.407  0.2747E-01  0.3914E+00
      6.464  0.2765E-01  0.3930E+00
      6.521  0.3666E-01  0.3951E+00
      6.577  0.6673E-01  0.3989E+00
      6.634  0.1242E+00  0.4059E+00
      6.690  0.1963E+00  0.4170E+00
      6.747  0.2555E+00  0.4315E+00
      6.804  0.2787E+00  0.4473E+00
      6.860  0.2612E+00  0.4621E+00
      6.917  0.2153E+00  0.4743E+00
      6.974  0.1592E+00  0.4833E+00
      7.030  0.1116E+00  0.4896E+00
      7.087  0.8759E-01  0.4946E+00
      7.144  0.9112E-01  0.4997E+00
      7.200  0.1088E+00  0.5059E+00
      7.257  0.1176E+00  0.5126E+00
      7.314  0.1026E+00  0.5184E+00
      7.370  0.6762E-01  0.5222E+00
      7.427  0.2954E-01  0.5239E+00
      7.484  0.3701E-02  0.5241E+00
      7.540 -0.4235E-02  0.5238E+00
      7.597  0.3050E-02  0.5240E+00
      7.654  0.1957E-01  0.5251E+00
      7.710  0.3987E-01  0.5274E+00
      7.767  0.6164E-01  0.5309E+00
      7.823  0.8649E-01  0.5358E+00
      7.880  0.1167E+00  0.5424E+00
      7.937  0.1490E+00  0.5508E+00
      7.993  0.1722E+00  0.5606E+00
      8.050  0.1724E+00  0.5703E+00
      8.107  0.1443E+00  0.5785E+00
      8.163  0.9659E-01  0.5840E+00
      8.220  0.4635E-01  0.5866E+00
      8.277  0.7921E-02  0.5871E+00
      8.333 -0.1355E-01  0.5863E+00
      8.390 -0.1837E-01  0.5853E+00
      8.447 -0.4610E-02  0.5850E+00
      8.503  0.3329E-01  0.5869E+00
      8.560  0.9595E-01  0.5923E+00
      8.617  0.1691E+00  0.6019E+00
      8.673  0.2264E+00  0.6147E+00
      8.730  0.2481E+00  0.6288E+00
      8.787  0.2384E+00  0.6423E+00
      8.843  0.2198E+00  0.6547E+00
      8.900  0.2096E+00  0.6666E+00
      8.957  0.2043E+00  0.6782E+00
      9.013  0.1898E+00  0.6889E+00
      9.070  0.1623E+00  0.6981E+00
      9.126  0.1330E+00  0.7057E+00
      9.183  0.1153E+00  0.7122E+00
      9.240  0.1116E+00  0.7185E+00
      9.296  0.1152E+00  0.7250E+00
      9.353  0.1182E+00  0.7317E+00
      9.410  0.1156E+00  0.7383E+00
      9.466  0.1046E+00  0.7442E+00
      9.523  0.8443E-01  0.7490E+00
      9.580  0.5773E-01  0.7523E+00
      9.636  0.3089E-01  0.7540E+00
      9.693  0.1046E-01  0.7546E+00
      9.750 -0.6988E-03  0.7546E+00
      9.806 -0.4196E-02  0.7543E+00
      9.863 -0.3667E-02  0.7541E+00
      9.920 -0.2120E-02  0.7540E+00
      9.976 -0.9376E-03  0.7540E+00
     10.033 -0.3329E-03  0.7539E+00
     10.090 -0.9689E-04  0.7539E+00
     10.146 -0.2339E-04  0.7539E+00
     10.203 -0.4716E-05  0.7539E+00
     10.259 -0.7976E-06  0.7539E+00
     10.316 -0.1135E-06  0.7539E+00
     10.373 -0.1362E-07  0.7539E+00
     10.429 -0.1380E-08  0.7539E+00
     10.486 -0.1183E-09  0.7539E+00
     10.543 -0.8580E-11  0.7539E+00
     10.599 -0.5275E-12  0.7539E+00
     10.656 -0.2746E-13  0.7539E+00
     10.713 -0.1231E-14  0.7539E+00
     10.769 -0.4104E-16  0.7539E+00
     10.826  0.0000E+00  0.7539E+00
     10.883  0.0000E+00  0.7539E+00
     10.939  0.0000E+00  0.7539E+00
     10.996  0.0000E+00  0.7539E+00
     11.053  0.0000E+00  0.7539E+00
     11.109  0.0000E+00  0.7539E+00
     11.166  0.0000E+00  0.7539E+00
     11.223  0.0000E+00  0.7539E+00
     11.279  0.0000E+00  0.7539E+00
     11.336  0.0000E+00  0.7539E+00
     11.392  0.0000E+00  0.7539E+00
     11.449  0.0000E+00  0.7539E+00
     11.506  0.0000E+00  0.7539E+00
