   31   31  191    1
  0.1706110E+02  0.8087040E-09  0.8087040E-09  0.8087040E-09  0.5000000E-15
  1.000000000000000E-004
  CAR 
 unknown system                          
  101    1   72
 
  0.0000000E+00  0.0000000E+00  0.0000000E+00  0.1000000E+01
   1       -3.489384
   2       -1.390586
   3       -1.309812
   4       -1.305867
   5       -1.281322
   6       -1.173190
   7       -0.920332
   8        0.745926
   9        0.844352
  10        0.853953
  11        0.881011
  12        0.895016
  13        0.897289
  14        0.911464
  15        0.972279
  16        1.084072
  17        1.084782
  18        1.392091
  19        1.932356
  20        2.957754
  21        2.963245
  22        3.008898
  23        3.125045
  24        3.182334
  25        3.272467
  26        3.430042
  27        3.607911
  28        3.884608
  29        3.975319
  30        4.122520
  31        4.142699
  32        4.497962
  33        4.766348
  34        4.804329
  35        4.840025
  36        6.110998
  37        6.120710
  38        6.418906
  39        6.685861
  40        6.708363
  41        6.711971
  42        6.759954
  43        6.764563
  44        6.800588
  45        6.899381
  46        6.925870
  47        6.950672
  48        7.185113
  49        7.233330
  50        7.256939
  51        7.724202
  52        7.866242
  53        7.962478
  54        7.990589
  55        8.054505
  56        8.079680
  57        8.611377
  58        8.639731
  59        8.678025
  60        8.700047
  61        8.719391
  62        8.725795
  63        8.890443
  64        8.908345
  65        8.958550
  66        8.977722
  67        9.004327
  68        9.166885
  69        9.226150
  70        9.324117
  71        9.416630
  72        9.505782
