       N       E                     dE             d eps       ncg     rms          rms(c)
RMM:   1     0.306072784725E+03    0.30607E+03   -0.18325E+04    72   0.610E+02
RMM:   2    -0.215370926521E+02   -0.32761E+03   -0.31873E+03    72   0.135E+02
RMM:   3    -0.729471208111E+02   -0.51410E+02   -0.54119E+02    72   0.467E+01
RMM:   4    -0.890102520145E+02   -0.16063E+02   -0.12502E+02    72   0.431E+01
RMM:   5    -0.972575183242E+02   -0.82473E+01   -0.63874E+01    72   0.231E+01
RMM:   6    -0.101201403362E+03   -0.39439E+01   -0.31797E+01    72   0.232E+01
RMM:   7    -0.103201383030E+03   -0.20000E+01   -0.18373E+01    72   0.121E+01
RMM:   8    -0.104358440812E+03   -0.11571E+01   -0.10175E+01    72   0.119E+01
RMM:   9    -0.105929342320E+03   -0.15709E+01   -0.15070E+01   187   0.639E+00
RMM:  10    -0.106053002751E+03   -0.12366E+00   -0.90790E-01   159   0.666E-01
RMM:  11    -0.106066279104E+03   -0.13276E-01   -0.87499E-02   140   0.173E-01
RMM:  12    -0.106067537865E+03   -0.12588E-02   -0.94838E-03   122   0.561E-02    0.296E+01
RMM:  13    -0.141140856872E+03   -0.35073E+02   -0.51695E+02   201   0.635E+01    0.244E+01
RMM:  14    -0.108379169903E+03    0.32762E+02   -0.80196E+01   144   0.246E+01    0.137E+01
RMM:  15    -0.101048078551E+03    0.73311E+01   -0.24760E+01   144   0.163E+01    0.492E+00
RMM:  16    -0.100951637591E+03    0.96441E-01   -0.92317E+00   144   0.839E+00    0.508E+00
RMM:  17    -0.100632518691E+03    0.31912E+00   -0.74505E-01   160   0.230E+00    0.158E+00
RMM:  18    -0.100600140619E+03    0.32378E-01   -0.87373E-01   145   0.287E+00    0.138E+00
RMM:  19    -0.100566439523E+03    0.33701E-01   -0.46347E-02   150   0.798E-01    0.657E-01
RMM:  20    -0.100559535211E+03    0.69043E-02   -0.55556E-02   148   0.663E-01    0.155E-01
RMM:  21    -0.100559184029E+03    0.35118E-03   -0.18093E-03   122   0.103E-01    0.998E-02
RMM:  22    -0.100559007777E+03    0.17625E-03   -0.14892E-03   111   0.127E-01    0.279E-02
RMM:  23    -0.100558999225E+03    0.85520E-05   -0.50260E-05    87   0.316E-02
   1 F= -.10055900E+03 E0= -.10055720E+03  d E =-.100559E+03
       N       E                     dE             d eps       ncg     rms          rms(c)
RMM:   1    -0.100628291813E+03   -0.69284E-01   -0.60409E-01   144   0.203E+00    0.263E-01
RMM:   2    -0.100622544628E+03    0.57472E-02   -0.21090E-02   144   0.353E-01    0.153E-01
RMM:   3    -0.100621838895E+03    0.70573E-03   -0.51845E-03   143   0.208E-01    0.106E-01
RMM:   4    -0.100621580748E+03    0.25815E-03   -0.13592E-03   115   0.122E-01    0.430E-02
RMM:   5    -0.100621544213E+03    0.36535E-04   -0.19105E-04    96   0.516E-02
   2 F= -.10062154E+03 E0= -.10061955E+03  d E =-.625450E-01
       N       E                     dE             d eps       ncg     rms          rms(c)
RMM:   1    -0.100705515941E+03   -0.83935E-01   -0.27159E+00   144   0.430E+00    0.548E-01
RMM:   2    -0.100676555301E+03    0.28961E-01   -0.93417E-02   144   0.744E-01    0.309E-01
RMM:   3    -0.100673565275E+03    0.29900E-02   -0.20872E-02   150   0.416E-01    0.220E-01
RMM:   4    -0.100672476707E+03    0.10886E-02   -0.63398E-03   141   0.256E-01    0.984E-02
RMM:   5    -0.100672279457E+03    0.19725E-03   -0.93632E-04   124   0.101E-01    0.317E-02
RMM:   6    -0.100672283785E+03   -0.43277E-05   -0.66231E-05    91   0.251E-02
   3 F= -.10067228E+03 E0= -.10067622E+03  d E =-.113285E+00
       N       E                     dE             d eps       ncg     rms          rms(c)
RMM:   1    -0.100696241227E+03   -0.23962E-01   -0.30774E-01   144   0.144E+00    0.190E-01
RMM:   2    -0.100692898628E+03    0.33426E-02   -0.11335E-02   144   0.253E-01    0.945E-02
RMM:   3    -0.100692674557E+03    0.22407E-03   -0.22098E-03   141   0.130E-01    0.691E-02
RMM:   4    -0.100692567640E+03    0.10692E-03   -0.65298E-04   105   0.881E-02    0.346E-02
RMM:   5    -0.100692552609E+03    0.15031E-04   -0.11244E-04    90   0.445E-02
   4 F= -.10069255E+03 E0= -.10069899E+03  d E =-.202688E-01
       N       E                     dE             d eps       ncg     rms          rms(c)
RMM:   1    -0.100707978388E+03   -0.15411E-01   -0.57082E-01   144   0.196E+00    0.246E-01
RMM:   2    -0.100702467450E+03    0.55109E-02   -0.19431E-02   144   0.337E-01    0.124E-01
RMM:   3    -0.100702102538E+03    0.36491E-03   -0.37713E-03   151   0.171E-01    0.896E-02
RMM:   4    -0.100701928798E+03    0.17374E-03   -0.11311E-03   113   0.111E-01    0.475E-02
RMM:   5    -0.100701900541E+03    0.28257E-04   -0.18767E-04    93   0.549E-02
   5 F= -.10070190E+03 E0= -.10070998E+03  d E =-.296168E-01
