 vasp.5.2.2 15Apr09 complex 
 executed on             LinuxIFC date 2017.01.11  13:31:29
 running on   12 nodes
 distr:  one band on    1 nodes,   12 groups


--------------------------------------------------------------------------------------------------------


 INCAR:
 POTCAR:   PAW_PBE Al 04Jan2001                   
 POTCAR:   PAW_PBE Cu 05Jan2001                   
 POTCAR:   PAW_PBE Al 04Jan2001                   
   VRHFIN =Al: s2p1                                                             
   LEXCH  = PE                                                                  
   EATOM  =    53.5387 eV,    3.9350 Ry                                         
                                                                                
   TITEL  = PAW_PBE Al 04Jan2001                                                
   LULTRA =        F    use ultrasoft PP ?                                      
   IUNSCR =        1    unscreen: 0-lin 1-nonlin 2-no                           
   RPACOR =    1.500    partial core radius                                     
   POMASS =   26.982; ZVAL   =    3.000    mass and valenz                      
   RCORE  =    1.900    outmost cutoff radius                                   
   RWIGS  =    2.650; RWIGS  =    1.402    wigner-seitz radius (au A)           
   ENMAX  =  240.300; ENMIN  =  180.225 eV                                      
   ICORE  =        2    local potential                                         
   LCOR   =        T    correct aug charges                                     
   LPAW   =        T    paw PP                                                  
   EAUG   =  291.052                                                            
   DEXC   =    -.041                                                            
   RMAX   =    2.974    core radius for proj-oper                               
   RAUG   =    1.300    factor for augmentation sphere                          
   RDEP   =    1.966    radius for radial grids                                 
   QCUT   =   -4.203; QGAM   =    8.405    optimization parameters              
                                                                                
   Description                                                                  
     l     E      TYP  RCUT    TYP  RCUT                                        
     0   .000     23  1.900                                                     
     0   .000     23  1.900                                                     
     1   .000     23  1.900                                                     
     1  1.000     23  1.900                                                     
     2   .000      7  1.900                                                     
  local pseudopotential read in
  partial core-charges read in
  atomic valenz-charges read in
  non local Contribution for L=           0  read in
    real space projection operators read in
  non local Contribution for L=           0  read in
    real space projection operators read in
  non local Contribution for L=           1  read in
    real space projection operators read in
  non local Contribution for L=           1  read in
    real space projection operators read in
    PAW grid and wavefunctions read in
 
   number of l-projection  operators is LMAX  =           4
   number of lm-projection operators is LMMAX =           8
 
 POTCAR:   PAW_PBE Cu 05Jan2001                   
   VRHFIN =Cu: d10 p1                                                           
   LEXCH  = PE                                                                  
   EATOM  =  1390.9800 eV,  102.2341 Ry                                         
                                                                                
   TITEL  = PAW_PBE Cu 05Jan2001                                                
   LULTRA =        F    use ultrasoft PP ?                                      
   IUNSCR =        1    unscreen: 0-lin 1-nonlin 2-no                           
   RPACOR =    2.000    partial core radius                                     
   POMASS =   63.546; ZVAL   =   11.000    mass and valenz                      
   RCORE  =    2.300    outmost cutoff radius                                   
   RWIGS  =    2.480; RWIGS  =    1.312    wigner-seitz radius (au A)           
   ENMAX  =  273.214; ENMIN  =  204.910 eV                                      
   RCLOC  =    1.712    cutoff for local pot                                    
   LCOR   =        T    correct aug charges                                     
   LPAW   =        T    paw PP                                                  
   EAUG   =  516.456                                                            
   DEXC   =    -.008                                                            
   RMAX   =    2.789    core radius for proj-oper                               
   RAUG   =    1.300    factor for augmentation sphere                          
   RDEP   =    2.302    radius for radial grids                                 
   QCUT   =   -4.481; QGAM   =    8.962    optimization parameters              
                                                                                
   Description                                                                  
     l     E      TYP  RCUT    TYP  RCUT                                        
     2   .000     23  2.300                                                     
     2   .000     23  2.300                                                     
     0   .000     23  2.300                                                     
     0   .000     23  2.300                                                     
     1  -.200     23  2.300                                                     
     1   .000     23  2.300                                                     
     3   .000      7   .000                                                     
  local pseudopotential read in
  partial core-charges read in
  atomic valenz-charges read in
  non local Contribution for L=           2  read in
    real space projection operators read in
  non local Contribution for L=           2  read in
    real space projection operators read in
  non local Contribution for L=           0  read in
    real space projection operators read in
  non local Contribution for L=           0  read in
    real space projection operators read in
  non local Contribution for L=           1  read in
    real space projection operators read in
  non local Contribution for L=           1  read in
    real space projection operators read in
    PAW grid and wavefunctions read in
 
   number of l-projection  operators is LMAX  =           6
   number of lm-projection operators is LMMAX =          18
 

 ----------------------------------------------------------------------------- 
|                                                                             |
|  ADVICE TO THIS USER RUNNING 'VASP/VAMP'   (HEAR YOUR MASTER'S VOICE ...):  |
|                                                                             |
|      You have a (more or less) 'large supercell' and for larger cells       |
|      it might be more efficient to use real space projection operators      |
|      So try LREAL= Auto  in the INCAR   file.                               |
|      Mind: If you want to do a very accurate calculations keep the          |
|      reciprocal projection scheme          (i.e. LREAL=.FALSE.)             |
|                                                                             |
 ----------------------------------------------------------------------------- 

 PAW_PBE Al 04Jan2001                   :
 energy of atom  1       EATOM=  -53.5387
 kinetic energy error for atom=    0.0011 (will be added to EATOM!!)
 PAW_PBE Cu 05Jan2001                   :
 energy of atom  2       EATOM=-1390.9800
 kinetic energy error for atom=    0.0323 (will be added to EATOM!!)
 
 
 POSCAR: Al30 Cu1                                
  positions in direct lattice
  velocities in cartesian coordinates
 exchange correlation table for  LEXCH =        8
   RHO(1)=    0.500       N(1)  =     2000
   RHO(2)=  100.500       N(2)  =     4000

 VTST: version 2.03d, (02/18/09)

 CHAIN: initializing optimizer
 
 OPT: Using VASP Conjugate-Gradient optimizer
 CHAIN: Read ICHAIN            0
 


--------------------------------------------------------------------------------------------------------


 ion  position               nearest neighbor table
   1  0.000  0.000  0.000-   2 2.86   3 2.86   4 2.86   6 2.86   7 2.86  10 2.86  11 2.86  14 2.86
                            17 2.86  18 2.86  20 2.86  26 2.86
   2  0.250  0.000  0.250-   1 2.86   3 2.86   4 2.86   5 2.86  10 2.86  11 2.86  15 2.86  16 2.86
                            19 2.86  25 2.86  31 2.86
   3  0.250  0.250  0.000-   1 2.86   2 2.86   4 2.86   5 2.86   8 2.86   9 2.86  12 2.86  17 2.86
                            18 2.86  22 2.86  24 2.86
   4  0.000  0.250  0.250-   1 2.86   2 2.86   3 2.86   6 2.86   7 2.86   8 2.86   9 2.86  13 2.86
                            16 2.86  21 2.86  23 2.86  31 2.86
   5  0.500  0.000  0.000-   2 2.86   3 2.86   6 2.86   7 2.86  10 2.86  14 2.86  15 2.86  17 2.86
                            20 2.86  22 2.86  30 2.86
   6  0.750  0.000  0.250-   1 2.86   4 2.86   5 2.86   7 2.86  11 2.86  14 2.86  15 2.86  16 2.86
                            19 2.86  21 2.86  29 2.86
   7  0.750  0.250  0.000-   1 2.86   4 2.86   5 2.86   6 2.86   8 2.86  12 2.86  13 2.86  18 2.86
                            20 2.86  22 2.86  28 2.86
   8  0.000  0.500  0.000-   3 2.86   4 2.86   7 2.86   9 2.86  10 2.86  11 2.86  13 2.86  14 2.86
                            18 2.86  24 2.86  26 2.86  28 2.86
   9  0.250  0.500  0.250-   3 2.86   4 2.86   8 2.86  10 2.86  11 2.86  12 2.86  15 2.86  23 2.86
                            25 2.86  27 2.86  31 2.86
  10  0.250  0.750  0.000-   1 2.86   2 2.86   5 2.86   8 2.86   9 2.86  11 2.86  12 2.86  15 2.86
                            17 2.86  24 2.86  26 2.86  30 2.86
  11  0.000  0.750  0.250-   1 2.86   2 2.86   6 2.86   8 2.86   9 2.86  10 2.86  13 2.86  14 2.86
                            16 2.86  23 2.86  25 2.86  29 2.86
  12  0.500  0.500  0.000-   3 2.86   7 2.86   9 2.86  10 2.86  13 2.86  14 2.86  15 2.86  22 2.86
                            24 2.86  28 2.86  30 2.86
  13  0.750  0.500  0.250-   4 2.86   7 2.86   8 2.86  11 2.86  12 2.86  14 2.86  15 2.86  21 2.86
                            23 2.86  27 2.86  29 2.86
  14  0.750  0.750  0.000-   1 2.86   5 2.86   6 2.86   8 2.86  11 2.86  12 2.86  13 2.86  15 2.86
                            20 2.86  26 2.86  28 2.86  30 2.86
  15  0.500  0.750  0.250-   2 2.86   5 2.86   6 2.86   9 2.86  10 2.86  12 2.86  13 2.86  14 2.86
                            19 2.86  25 2.86  27 2.86  29 2.86
  16  0.000  0.000  0.500-   2 2.86   4 2.86   6 2.86  11 2.86  17 2.86  18 2.86  20 2.86  21 2.86
                            25 2.86  26 2.86  29 2.86  31 2.86
  17  0.250  0.000  0.750-   1 2.86   3 2.86   5 2.86  10 2.86  16 2.86  18 2.86  19 2.86  22 2.86
                            25 2.86  26 2.86  30 2.86  31 2.86
  18  0.000  0.250  0.750-   1 2.86   3 2.86   7 2.86   8 2.86  16 2.86  17 2.86  20 2.86  21 2.86
                            23 2.86  24 2.86  28 2.86  31 2.86
  19  0.500  0.000  0.500-   2 2.86   6 2.86  15 2.86  17 2.86  20 2.86  21 2.86  22 2.86  25 2.86
                            29 2.86  30 2.86  31 2.86
  20  0.750  0.000  0.750-   1 2.86   5 2.86   7 2.86  14 2.86  16 2.86  18 2.86  19 2.86  21 2.86
                            22 2.86  26 2.86  29 2.86  30 2.86
  21  0.750  0.250  0.500-   4 2.86   6 2.86  13 2.86  16 2.86  18 2.86  19 2.86  20 2.86  22 2.86
                            23 2.86  27 2.86  28 2.86
  22  0.500  0.250  0.750-   3 2.86   5 2.86   7 2.86  12 2.86  17 2.86  19 2.86  20 2.86  21 2.86
                            24 2.86  27 2.86  28 2.86  31 2.86
  23  0.000  0.500  0.500-   4 2.86   9 2.86  11 2.86  13 2.86  18 2.86  21 2.86  24 2.86  25 2.86
                            26 2.86  28 2.86  29 2.86  31 2.86
  24  0.250  0.500  0.750-   3 2.86   8 2.86  10 2.86  12 2.86  18 2.86  22 2.86  23 2.86  25 2.86
                            26 2.86  27 2.86  30 2.86  31 2.86
  25  0.250  0.750  0.500-   2 2.86   9 2.86  11 2.86  15 2.86  16 2.86  17 2.86  19 2.86  23 2.86
                            24 2.86  26 2.86  27 2.86  30 2.86
  26  0.000  0.750  0.750-   1 2.86   8 2.86  10 2.86  14 2.86  16 2.86  17 2.86  20 2.86  23 2.86
                            24 2.86  25 2.86  28 2.86  29 2.86
  27  0.500  0.500  0.500-   9 2.86  13 2.86  15 2.86  21 2.86  22 2.86  24 2.86  25 2.86  28 2.86
                            29 2.86  30 2.86  31 2.86
  28  0.750  0.500  0.750-   7 2.86   8 2.86  12 2.86  14 2.86  18 2.86  21 2.86  22 2.86  23 2.86
                            26 2.86  27 2.86  29 2.86  30 2.86
  29  0.750  0.750  0.500-   6 2.86  11 2.86  13 2.86  15 2.86  16 2.86  19 2.86  20 2.86  23 2.86
                            26 2.86  27 2.86  28 2.86  30 2.86
  30  0.500  0.750  0.750-   5 2.86  10 2.86  12 2.86  14 2.86  17 2.86  19 2.86  20 2.86  24 2.86
                            25 2.86  27 2.86  28 2.86  29 2.86
  31  0.250  0.250  0.500-   2 2.86   4 2.86   9 2.86  16 2.86  17 2.86  18 2.86  19 2.86  22 2.86
                            23 2.86  24 2.86  27 2.86
 
  LATTYP: Found a simple cubic cell.
 ALAT       =     8.0870400000
  
  Lattice vectors:
  
 A1 = (   8.0870400000,   0.0000000000,   0.0000000000)
 A2 = (   0.0000000000,   8.0870400000,   0.0000000000)
 A3 = (   0.0000000000,   0.0000000000,   8.0870400000)
 Subroutine PRICEL returns:
 Original cell was already a primitive cell.
 

Analysis of symmetry for initial positions (statically):

 Routine SETGRP: Setting up the symmetry group for a 
 simple cubic supercell.


 Subroutine GETGRP returns: Found  4 space group operations
 (whereof  1 operations were pure point group operations)
 out of a pool of 48 trial point group operations.


The static configuration has the point symmetry C_1 .
 The point group associated with its full space group is C_2v.

Analysis of symmetry for dynamics (positions and initial velocities):

 Subroutine DYNSYM returns: Found  4 space group operations
 (whereof  1 operations were pure point group operations)
 out of a pool of  4 trial space group operations
 (whereof  1 operations were pure point group operations)
 and found also     1 'primitive' translations


The dynamic configuration has the point symmetry C_1 .
 The point group associated with its full space group is C_2v.
 
 
 KPOINTS: Automatic kpoint scheme                 

Automatic generation of k-mesh.
 
 Subroutine IBZKPT returns following result:
 ===========================================
 
 Found      1 irreducible k-points:
 
 Following reciprocal coordinates:
            Coordinates               Weight
  0.000000  0.000000  0.000000      1.000000
 
 Following cartesian coordinates:
            Coordinates               Weight
  0.000000  0.000000  0.000000      1.000000
 


--------------------------------------------------------------------------------------------------------




 Dimension of arrays:
   k-points           NKPTS =      1   k-points in BZ     NKDIM =      1   number of bands    NBANDS=     72
   number of dos      NEDOS =    301   number of ions     NIONS =     31
   non local maximal  LDIM  =      6   non local SUM 2l+1 LMDIM =     18
   total plane-waves  NPLWV = 110592
   max r-space proj   IRMAX =      1   max aug-charges    IRDMAX=   8337
   dimension x,y,z NGX =    48 NGY =   48 NGZ =   48
   dimension x,y,z NGXF=    96 NGYF=   96 NGZF=   96
   support grid    NGXF=    96 NGYF=   96 NGZF=   96
   ions per type =              30   1
 NGX,Y,Z   is equivalent  to a cutoff of   9.87,  9.87,  9.87 a.u.
 NGXF,Y,Z  is equivalent  to a cutoff of  19.73, 19.73, 19.73 a.u.


 I would recommend the setting:
   dimension x,y,z NGX =    46 NGY =   46 NGZ =   46
 SYSTEM =  unknown system                          
 POSCAR =  Al30 Cu1                                

 Startparameter for this run:
   NWRITE =      2    write-flag & timer
   PREC   = accura    medium, high low
   ISTART =      0    job   : 0-new  1-cont  2-samecut
   ICHARG =      2    charge: 1-file 2-atom 10-const
   ISPIN  =      1    spin polarized calculation?
   LNONCOLLINEAR =      F non collinear calculations
   LSORBIT =      F    spin-orbit coupling
   INIWAV =      1    electr: 0-lowe 1-rand  2-diag
   LASPH  =      F    aspherical Exc in radial PAW
   METAGGA=      F    non-selfconsistent MetaGGA calc.

 Electronic Relaxation 1
   ENCUT  =  300.0 eV  22.05 Ry    4.70 a.u.  11.42 11.42 11.42*2*pi/ulx,y,z
   ENINI  =  300.0     initial cutoff
   ENAUG  =  516.5 eV  augmentation charge cutoff
   NELM   =     60;   NELMIN=  2; NELMDL=-12     # of ELM steps 
   EDIFF  = 0.1E-03   stopping-criterion for ELM
   LREAL  =      F    real-space projection
   LCOMPAT=      F    compatible to vasp.4.4
   LREAL_COMPAT= F    compatible to vasp.4.5.1-3
   GGA_COMPAT  = T    GGA compatible to vasp.4.4-vasp.4.6
   LMAXPAW     = -100 max onsite density
   LMAXMIX     =    2 max onsite mixed and CHGCAR
   VOSKOWN=      0    Vosko Wilk Nusair interpolation
   ROPT   =    0.00000   0.00000
 Ionic relaxation
   EDIFFG = 0.5E-01   stopping-criterion for IOM
   NSW    =    191    number of steps for IOM
   NBLOCK =      1;   KBLOCK =    191    inner block; outer block 
   IBRION =      2    ionic relax: 0-MD 1-quasi-New 2-CG
   NFREE  =      1    steps in history (QN), initial steepest desc. (CG)
   ISIF   =      2    stress and relaxation
   IWAVPR =     11    prediction:  0-non 1-charg 2-wave 3-comb
   ISYM   =      2    0-nonsym 1-usesym 2-fastsym
   LCORR  =      T    Harris-Foulkes like correction to forces

   POTIM  = 0.5000    time-step for ionic-motion
   TEIN   =    0.0    initial temperature
   TEBEG  =    0.0;   TEEND  =   0.0 temperature during run
   SMASS  =  -3.00    Nose mass-parameter (am)
   estimated Nose-frequenzy (Omega)   =  0.10E-29 period in steps =****** mass=  -0.149E-26a.u.
   NPACO  =    256;   APACO  = 16.0  distance and # of slots for P.C.
   PSTRESS=    0.0 pullay stress

  Mass of Ions in am
   POMASS =  26.98 63.55
  Ionic Valenz
   ZVAL   =   3.00 11.00
  Atomic Wigner-Seitz radii
   RWIGS  =  -1.00 -1.00
   NELECT =     101.0000    total number of electrons
   NUPDOWN=      -1.0000    fix difference up-down

 DOS related values:
   EMIN   =  10.00;   EMAX   =-10.00  energy-range for DOS
   EFERMI =   0.00
   ISMEAR =     1;   SIGMA  =   0.20  broadening in eV -4-tet -1-fermi 0-gaus

 Electronic relaxation 2 (details)
   IALGO  =     48    algorithm
   LDIAG  =      T    sub-space diagonalisation
   IMIX   =      4    mixing-type and parameters
     AMIX     =   0.40;   BMIX     =  1.00
     AMIX_MAG =   1.60;   BMIX_MAG =  1.00
     AMIN     =   0.10
     WC   =   100.;   INIMIX=   1;  MIXPRE=   1

 Intra band minimization:
   WEIMIN = 0.0010     energy-eigenvalue tresh-hold
   EBREAK =  0.38E-06  absolut break condition
   DEPER  =   0.30     relativ break condition  

   TIME   =   0.40     timestep for ELM

  volume/ion in A,a.u.               =      17.06       115.13
  Fermi-wavevector in a.u.,A,eV,Ry     =   0.942741  1.781522 12.092320  0.888760
  Thomas-Fermi vector in A             =   2.070380
 
 Write flags
   LWAVE  =      F    write WAVECAR
   LCHARG =      F    write CHGCAR
   LVTOT  =      F    write LOCPOT, local potential
   LELF   =      F    write electronic localiz. function (ELF)
   LORBIT =      0    0 simple, 1 ext, 2 COOP (PROOUT)


 Dipole corrections
   LMONO  =      F    monopole corrections only (constant potential shift)
   LDIPOL =      F    correct potential (dipole corrections)
   IDIPOL =      0    1-x, 2-y, 3-z, 4-all directions 
   EPSILON=  1.0000000 bulk dielectric constant

 Exchange correlation treatment:
   GGA     =    --    GGA type
   LEXCH   =     8    internal setting for exchange type
   VOSKOWN=      0    Vosko Wilk Nusair interpolation
   LHFCALC =     F    Hartree Fock is set to
   LHFONE  =     F    Hartree Fock one center treatment
   AEXX    =    0.0000 exact exchange contribution

 Linear response parameters
   LEPSILON=     F    determine dielectric tensor
   LRPA    =     F    only Hartree local field effects (RPA)
   LNABLA  =     F    use nabla operator in PAW spheres
   LVEL    =     F    velocity operator in full k-point grid
   LINTERFAST=   F  fast interpolation
   KINTER  =     0    interpolate to denser k-point grid
   CSHIFT  =0.1000    complex shift for real part using Kramers Kronig
   OMEGAMAX=  -1.0    maximum frequency

 Orbital magnetization related:
   ORBITALMAG=     F  switch on orbital magnetization
   LCHIMAG   =     F  perturbation theory with respect to B field



--------------------------------------------------------------------------------------------------------


 conjugate gradient relaxation of ions
 charge density and potential will be updated during run
 non-spin polarized calculation
 RMM-DIIS sequential band-by-band
 perform sub-space diagonalisation
    before iterative eigenvector-optimisation
 modified Broyden-mixing scheme, WC =      100.0
 initial mixing is a Kerker type mixing with AMIX =  0.4000 and BMIX =      1.0000
 Hartree-type preconditioning will be used
 using additional bands           21
 reciprocal scheme for non local part
 use partial core corrections
 calculate Harris-corrections to forces 
   (improved forces if not selfconsistent)
 use gradient corrections 
 use of overlap-Matrix (Vanderbilt PP)
 Methfessel and Paxton  Order N= 1 SIGMA  =   0.20


--------------------------------------------------------------------------------------------------------


  energy-cutoff  :      300.00
  volume of cell :      528.89
      direct lattice vectors                 reciprocal lattice vectors
     8.087040000  0.000000000  0.000000000     0.123654638  0.000000000  0.000000000
     0.000000000  8.087040000  0.000000000     0.000000000  0.123654638  0.000000000
     0.000000000  0.000000000  8.087040000     0.000000000  0.000000000  0.123654638

  length of vectors
     8.087040000  8.087040000  8.087040000     0.123654638  0.123654638  0.123654638


 
 k-points in units of 2pi/SCALE and weight: Automatic kpoint scheme                 
   0.00000000  0.00000000  0.00000000       1.000
 
 k-points in reciprocal lattice and weights: Automatic kpoint scheme                 
   0.00000000  0.00000000  0.00000000       1.000
 
 position of ions in fractional coordinates (direct lattice) 
   0.00000000  0.00000000  0.00000000
   0.25000000  0.00000000  0.25000000
   0.25000000  0.25000000  0.00000000
   0.00000000  0.25000000  0.25000000
   0.50000000  0.00000000  0.00000000
   0.75000000  0.00000000  0.25000000
   0.75000000  0.25000000  0.00000000
   0.00000000  0.50000000  0.00000000
   0.25000000  0.50000000  0.25000000
   0.25000000  0.75000000  0.00000000
   0.00000000  0.75000000  0.25000000
   0.50000000  0.50000000  0.00000000
   0.75000000  0.50000000  0.25000000
   0.75000000  0.75000000  0.00000000
   0.50000000  0.75000000  0.25000000
   0.00000000  0.00000000  0.50000000
   0.25000000  0.00000000  0.75000000
   0.00000000  0.25000000  0.75000000
   0.50000000  0.00000000  0.50000000
   0.75000000  0.00000000  0.75000000
   0.75000000  0.25000000  0.50000000
   0.50000000  0.25000000  0.75000000
   0.00000000  0.50000000  0.50000000
   0.25000000  0.50000000  0.75000000
   0.25000000  0.75000000  0.50000000
   0.00000000  0.75000000  0.75000000
   0.50000000  0.50000000  0.50000000
   0.75000000  0.50000000  0.75000000
   0.75000000  0.75000000  0.50000000
   0.50000000  0.75000000  0.75000000
   0.25000000  0.25000000  0.50000000
 
 position of ions in cartesian coordinates  (Angst):
   0.00000000  0.00000000  0.00000000
   2.02176000  0.00000000  2.02176000
   2.02176000  2.02176000  0.00000000
   0.00000000  2.02176000  2.02176000
   4.04352000  0.00000000  0.00000000
   6.06528000  0.00000000  2.02176000
   6.06528000  2.02176000  0.00000000
   0.00000000  4.04352000  0.00000000
   2.02176000  4.04352000  2.02176000
   2.02176000  6.06528000  0.00000000
   0.00000000  6.06528000  2.02176000
   4.04352000  4.04352000  0.00000000
   6.06528000  4.04352000  2.02176000
   6.06528000  6.06528000  0.00000000
   4.04352000  6.06528000  2.02176000
   0.00000000  0.00000000  4.04352000
   2.02176000  0.00000000  6.06528000
   0.00000000  2.02176000  6.06528000
   4.04352000  0.00000000  4.04352000
   6.06528000  0.00000000  6.06528000
   6.06528000  2.02176000  4.04352000
   4.04352000  2.02176000  6.06528000
   0.00000000  4.04352000  4.04352000
   2.02176000  4.04352000  6.06528000
   2.02176000  6.06528000  4.04352000
   0.00000000  6.06528000  6.06528000
   4.04352000  4.04352000  4.04352000
   6.06528000  4.04352000  6.06528000
   6.06528000  6.06528000  4.04352000
   4.04352000  6.06528000  6.06528000
   2.02176000  2.02176000  4.04352000
 


--------------------------------------------------------------------------------------------------------


 k-point  1 :  0.00000.00000.0000  plane waves:    6235

 maximum and minimum number of plane-waves per node :    6235   6235

 maximum number of plane-waves:    6235
 maximal index in each direction: 
   IXMAX= 11   IYMAX= 11   IZMAX= 11
   IXMIN=-11   IYMIN=-11   IZMIN=-11

 NGX is ok and might be reduce to  46
 NGY is ok and might be reduce to  46
 NGZ is ok and might be reduce to  46

 serial   3D FFT for wavefunctions
 parallel 3D FFT for charge:
    minimum data exchange during FFTs selected (reduces bandwidth)


 total amount of memory used by VASP on root node  60607. kBytes
========================================================================

   base      :    30000. kBytes
   nonl-proj :     4892. kBytes
   fftplans  :     2983. kBytes
   grid      :    21626. kBytes
   one-center:      482. kBytes
   wavefun   :      624. kBytes
 
 Broyden mixing: mesh for mixing (old mesh)
   NGX = 23   NGY = 23   NGZ = 23
  (NGX  = 96   NGY  = 96   NGZ  = 96)
  gives a total of  12167 points

 initial charge density was supplied:
 charge density of overlapping atoms calculated
 number of electron  101.0000000 magnetization 
 keeping initial charge density in first step


--------------------------------------------------------------------------------------------------------


 Maximum index for augmentation-charges          531 (set IRDMAX)


--------------------------------------------------------------------------------------------------------


 First call to EWALD:  gamma=   0.219
 Maximum number of real-space cells 3x 3x 3
 Maximum number of reciprocal cells 3x 3x 3

    FEWALD:  cpu time    0.01: real time    0.01
   RESPFUN:  cpu time    0.00: real time    0.00


----------------------------------------- Iteration    1(   1)  ---------------------------------------


    POTLOK:  cpu time    0.15: real time    0.15
    SETDIJ:  cpu time    0.01: real time    0.02
    EDDIAG:  cpu time    0.15: real time    0.15
  RMM-DIIS:  cpu time    0.35: real time    0.35
    ORTHCH:  cpu time    0.01: real time    0.01
       DOS:  cpu time    0.00: real time    0.00
    --------------------------------------------
      LOOP:  cpu time    0.67: real time    0.68

 eigenvalue-minimisations  :    72
 total energy-change (2. order) : 0.3060728E+03  (-0.1832478E+04)
 number of electron  101.0000000 magnetization 
 augmentation part   101.0000000 magnetization 

 Free energy of the ion-electron system (eV)
  ---------------------------------------------------
  alpha Z        PSCENC =        15.76595319
  Ewald energy   TEWEN  =     -2790.72364793
  -1/2 Hartree   DENC   =      -760.60153274
  -exchange  EXHF       =         0.00000000
  -V(xc)+E(xc)   XCENC  =      -745.21804782
  PAW double counting   =      2148.67993976    -1334.04649801
  entropy T*S    EENTRO =        -0.03128773
  eigenvalues    EBANDS =       775.17150118
  atomic energy  EATOM  =      2997.07640482
  ---------------------------------------------------
  free energy    TOTEN  =       306.07278473 eV

  energy without entropy =      306.10407245  energy(sigma->0) =      306.08321397


--------------------------------------------------------------------------------------------------------




----------------------------------------- Iteration    1(   2)  ---------------------------------------


    EDDIAG:  cpu time    0.15: real time    0.15
  RMM-DIIS:  cpu time    0.34: real time    0.34
    ORTHCH:  cpu time    0.02: real time    0.02
       DOS:  cpu time    0.00: real time    0.00
    --------------------------------------------
      LOOP:  cpu time    0.51: real time    0.51

 eigenvalue-minimisations  :    72
 total energy-change (2. order) :-0.3276099E+03  (-0.3187255E+03)
 number of electron  101.0000000 magnetization 
 augmentation part   101.0000000 magnetization 

 Free energy of the ion-electron system (eV)
  ---------------------------------------------------
  alpha Z        PSCENC =        15.76595319
  Ewald energy   TEWEN  =     -2790.72364793
  -1/2 Hartree   DENC   =      -760.60153274
  -exchange  EXHF       =         0.00000000
  -V(xc)+E(xc)   XCENC  =      -745.21804782
  PAW double counting   =      2148.67993976    -1334.04649801
  entropy T*S    EENTRO =         0.01064770
  eigenvalues    EBANDS =       447.51968837
  atomic energy  EATOM  =      2997.07640482
  ---------------------------------------------------
  free energy    TOTEN  =       -21.53709265 eV

  energy without entropy =      -21.54774035  energy(sigma->0) =      -21.54064188


--------------------------------------------------------------------------------------------------------




----------------------------------------- Iteration    1(   3)  ---------------------------------------


    EDDIAG:  cpu time    0.15: real time    0.15
  RMM-DIIS:  cpu time    0.34: real time    0.34
    ORTHCH:  cpu time    0.01: real time    0.01
       DOS:  cpu time    0.00: real time    0.00
    --------------------------------------------
      LOOP:  cpu time    0.50: real time    0.51

 eigenvalue-minimisations  :    72
 total energy-change (2. order) :-0.5141003E+02  (-0.5411925E+02)
 number of electron  101.0000000 magnetization 
 augmentation part   101.0000000 magnetization 

 Free energy of the ion-electron system (eV)
  ---------------------------------------------------
  alpha Z        PSCENC =        15.76595319
  Ewald energy   TEWEN  =     -2790.72364793
  -1/2 Hartree   DENC   =      -760.60153274
  -exchange  EXHF       =         0.00000000
  -V(xc)+E(xc)   XCENC  =      -745.21804782
  PAW double counting   =      2148.67993976    -1334.04649801
  entropy T*S    EENTRO =        -0.05202705
  eigenvalues    EBANDS =       396.17233496
  atomic energy  EATOM  =      2997.07640482
  ---------------------------------------------------
  free energy    TOTEN  =       -72.94712081 eV

  energy without entropy =      -72.89509376  energy(sigma->0) =      -72.92977846


--------------------------------------------------------------------------------------------------------




----------------------------------------- Iteration    1(   4)  ---------------------------------------


    EDDIAG:  cpu time    0.15: real time    0.15
  RMM-DIIS:  cpu time    0.34: real time    0.34
    ORTHCH:  cpu time    0.01: real time    0.01
       DOS:  cpu time    0.00: real time    0.00
    --------------------------------------------
      LOOP:  cpu time    0.50: real time    0.50

 eigenvalue-minimisations  :    72
 total energy-change (2. order) :-0.1606313E+02  (-0.1250181E+02)
 number of electron  101.0000000 magnetization 
 augmentation part   101.0000000 magnetization 

 Free energy of the ion-electron system (eV)
  ---------------------------------------------------
  alpha Z        PSCENC =        15.76595319
  Ewald energy   TEWEN  =     -2790.72364793
  -1/2 Hartree   DENC   =      -760.60153274
  -exchange  EXHF       =         0.00000000
  -V(xc)+E(xc)   XCENC  =      -745.21804782
  PAW double counting   =      2148.67993976    -1334.04649801
  entropy T*S    EENTRO =         0.01077933
  eigenvalues    EBANDS =       380.04639738
  atomic energy  EATOM  =      2997.07640482
  ---------------------------------------------------
  free energy    TOTEN  =       -89.01025201 eV

  energy without entropy =      -89.02103134  energy(sigma->0) =      -89.01384512


--------------------------------------------------------------------------------------------------------




----------------------------------------- Iteration    1(   5)  ---------------------------------------


    EDDIAG:  cpu time    0.15: real time    0.15
  RMM-DIIS:  cpu time    0.35: real time    0.35
    ORTHCH:  cpu time    0.01: real time    0.01
       DOS:  cpu time    0.00: real time    0.00
    --------------------------------------------
      LOOP:  cpu time    0.50: real time    0.51

 eigenvalue-minimisations  :    72
 total energy-change (2. order) :-0.8247266E+01  (-0.6387445E+01)
 number of electron  101.0000000 magnetization 
 augmentation part   101.0000000 magnetization 

 Free energy of the ion-electron system (eV)
  ---------------------------------------------------
  alpha Z        PSCENC =        15.76595319
  Ewald energy   TEWEN  =     -2790.72364793
  -1/2 Hartree   DENC   =      -760.60153274
  -exchange  EXHF       =         0.00000000
  -V(xc)+E(xc)   XCENC  =      -745.21804782
  PAW double counting   =      2148.67993976    -1334.04649801
  entropy T*S    EENTRO =        -0.03604664
  eigenvalues    EBANDS =       371.84595704
  atomic energy  EATOM  =      2997.07640482
  ---------------------------------------------------
  free energy    TOTEN  =       -97.25751832 eV

  energy without entropy =      -97.22147169  energy(sigma->0) =      -97.24550278


--------------------------------------------------------------------------------------------------------




----------------------------------------- Iteration    1(   6)  ---------------------------------------


    EDDIAG:  cpu time    0.17: real time    0.17
  RMM-DIIS:  cpu time    0.35: real time    0.35
    ORTHCH:  cpu time    0.01: real time    0.01
       DOS:  cpu time    0.00: real time    0.00
    --------------------------------------------
      LOOP:  cpu time    0.53: real time    0.53

 eigenvalue-minimisations  :    72
 total energy-change (2. order) :-0.3943885E+01  (-0.3179741E+01)
 number of electron  101.0000000 magnetization 
 augmentation part   101.0000000 magnetization 

 Free energy of the ion-electron system (eV)
  ---------------------------------------------------
  alpha Z        PSCENC =        15.76595319
  Ewald energy   TEWEN  =     -2790.72364793
  -1/2 Hartree   DENC   =      -760.60153274
  -exchange  EXHF       =         0.00000000
  -V(xc)+E(xc)   XCENC  =      -745.21804782
  PAW double counting   =      2148.67993976    -1334.04649801
  entropy T*S    EENTRO =        -0.02739808
  eigenvalues    EBANDS =       367.89342345
  atomic energy  EATOM  =      2997.07640482
  ---------------------------------------------------
  free energy    TOTEN  =      -101.20140336 eV

  energy without entropy =     -101.17400528  energy(sigma->0) =     -101.19227067


--------------------------------------------------------------------------------------------------------




----------------------------------------- Iteration    1(   7)  ---------------------------------------


    EDDIAG:  cpu time    0.15: real time    0.15
  RMM-DIIS:  cpu time    0.34: real time    0.34
    ORTHCH:  cpu time    0.01: real time    0.01
       DOS:  cpu time    0.00: real time    0.00
    --------------------------------------------
      LOOP:  cpu time    0.50: real time    0.50

 eigenvalue-minimisations  :    72
 total energy-change (2. order) :-0.1999980E+01  (-0.1837271E+01)
 number of electron  101.0000000 magnetization 
 augmentation part   101.0000000 magnetization 

 Free energy of the ion-electron system (eV)
  ---------------------------------------------------
  alpha Z        PSCENC =        15.76595319
  Ewald energy   TEWEN  =     -2790.72364793
  -1/2 Hartree   DENC   =      -760.60153274
  -exchange  EXHF       =         0.00000000
  -V(xc)+E(xc)   XCENC  =      -745.21804782
  PAW double counting   =      2148.67993976    -1334.04649801
  entropy T*S    EENTRO =        -0.03641613
  eigenvalues    EBANDS =       365.90246183
  atomic energy  EATOM  =      2997.07640482
  ---------------------------------------------------
  free energy    TOTEN  =      -103.20138303 eV

  energy without entropy =     -103.16496690  energy(sigma->0) =     -103.18924432


--------------------------------------------------------------------------------------------------------




----------------------------------------- Iteration    1(   8)  ---------------------------------------


    EDDIAG:  cpu time    0.15: real time    0.15
  RMM-DIIS:  cpu time    0.34: real time    0.34
    ORTHCH:  cpu time    0.01: real time    0.01
       DOS:  cpu time    0.00: real time    0.00
    --------------------------------------------
      LOOP:  cpu time    0.50: real time    0.51

 eigenvalue-minimisations  :    72
 total energy-change (2. order) :-0.1157058E+01  (-0.1017471E+01)
 number of electron  101.0000000 magnetization 
 augmentation part   101.0000000 magnetization 

 Free energy of the ion-electron system (eV)
  ---------------------------------------------------
  alpha Z        PSCENC =        15.76595319
  Ewald energy   TEWEN  =     -2790.72364793
  -1/2 Hartree   DENC   =      -760.60153274
  -exchange  EXHF       =         0.00000000
  -V(xc)+E(xc)   XCENC  =      -745.21804782
  PAW double counting   =      2148.67993976    -1334.04649801
  entropy T*S    EENTRO =        -0.05030311
  eigenvalues    EBANDS =       364.75929102
  atomic energy  EATOM  =      2997.07640482
  ---------------------------------------------------
  free energy    TOTEN  =      -104.35844081 eV

  energy without entropy =     -104.30813770  energy(sigma->0) =     -104.34167311


--------------------------------------------------------------------------------------------------------




----------------------------------------- Iteration    1(   9)  ---------------------------------------


    EDDIAG:  cpu time    0.15: real time    0.15
  RMM-DIIS:  cpu time    0.77: real time    0.79
    ORTHCH:  cpu time    0.01: real time    0.01
       DOS:  cpu time    0.00: real time    0.00
    --------------------------------------------
      LOOP:  cpu time    0.93: real time    0.95

 eigenvalue-minimisations  :   187
 total energy-change (2. order) :-0.1570902E+01  (-0.1507006E+01)
 number of electron  101.0000000 magnetization 
 augmentation part   101.0000000 magnetization 

 Free energy of the ion-electron system (eV)
  ---------------------------------------------------
  alpha Z        PSCENC =        15.76595319
  Ewald energy   TEWEN  =     -2790.72364793
  -1/2 Hartree   DENC   =      -760.60153274
  -exchange  EXHF       =         0.00000000
  -V(xc)+E(xc)   XCENC  =      -745.21804782
  PAW double counting   =      2148.67993976    -1334.04649801
  entropy T*S    EENTRO =        -0.05050003
  eigenvalues    EBANDS =       363.18858644
  atomic energy  EATOM  =      2997.07640482
  ---------------------------------------------------
  free energy    TOTEN  =      -105.92934232 eV

  energy without entropy =     -105.87884229  energy(sigma->0) =     -105.91250898


--------------------------------------------------------------------------------------------------------




----------------------------------------- Iteration    1(  10)  ---------------------------------------


    EDDIAG:  cpu time    0.15: real time    0.15
  RMM-DIIS:  cpu time    0.70: real time    0.70
    ORTHCH:  cpu time    0.01: real time    0.01
       DOS:  cpu time    0.00: real time    0.00
    --------------------------------------------
      LOOP:  cpu time    0.86: real time    0.86

 eigenvalue-minimisations  :   159
 total energy-change (2. order) :-0.1236604E+00  (-0.9078977E-01)
 number of electron  101.0000000 magnetization 
 augmentation part   101.0000000 magnetization 

 Free energy of the ion-electron system (eV)
  ---------------------------------------------------
  alpha Z        PSCENC =        15.76595319
  Ewald energy   TEWEN  =     -2790.72364793
  -1/2 Hartree   DENC   =      -760.60153274
  -exchange  EXHF       =         0.00000000
  -V(xc)+E(xc)   XCENC  =      -745.21804782
  PAW double counting   =      2148.67993976    -1334.04649801
  entropy T*S    EENTRO =        -0.04435107
  eigenvalues    EBANDS =       363.05877704
  atomic energy  EATOM  =      2997.07640482
  ---------------------------------------------------
  free energy    TOTEN  =      -106.05300275 eV

  energy without entropy =     -106.00865169  energy(sigma->0) =     -106.03821906


--------------------------------------------------------------------------------------------------------




----------------------------------------- Iteration    1(  11)  ---------------------------------------


    EDDIAG:  cpu time    0.15: real time    0.15
  RMM-DIIS:  cpu time    0.62: real time    0.62
    ORTHCH:  cpu time    0.01: real time    0.01
       DOS:  cpu time    0.00: real time    0.00
    --------------------------------------------
      LOOP:  cpu time    0.78: real time    0.78

 eigenvalue-minimisations  :   140
 total energy-change (2. order) :-0.1327635E-01  (-0.8749881E-02)
 number of electron  101.0000000 magnetization 
 augmentation part   101.0000000 magnetization 

 Free energy of the ion-electron system (eV)
  ---------------------------------------------------
  alpha Z        PSCENC =        15.76595319
  Ewald energy   TEWEN  =     -2790.72364793
  -1/2 Hartree   DENC   =      -760.60153274
  -exchange  EXHF       =         0.00000000
  -V(xc)+E(xc)   XCENC  =      -745.21804782
  PAW double counting   =      2148.67993976    -1334.04649801
  entropy T*S    EENTRO =        -0.04402265
  eigenvalues    EBANDS =       363.04517227
  atomic energy  EATOM  =      2997.07640482
  ---------------------------------------------------
  free energy    TOTEN  =      -106.06627910 eV

  energy without entropy =     -106.02225645  energy(sigma->0) =     -106.05160489


--------------------------------------------------------------------------------------------------------




----------------------------------------- Iteration    1(  12)  ---------------------------------------


    EDDIAG:  cpu time    0.15: real time    0.15
  RMM-DIIS:  cpu time    0.55: real time    0.55
    ORTHCH:  cpu time    0.01: real time    0.01
       DOS:  cpu time    0.00: real time    0.00
    CHARGE:  cpu time    0.13: real time    0.13
    MIXING:  cpu time    0.00: real time    0.00
    --------------------------------------------
      LOOP:  cpu time    0.84: real time    1.12

 eigenvalue-minimisations  :   122
 total energy-change (2. order) :-0.1258761E-02  (-0.9483837E-03)
 number of electron  100.9999958 magnetization 
 augmentation part     3.5358478 magnetization 

 Broyden mixing:
  rms(total) = 0.29589E+01    rms(broyden)= 0.29588E+01
  rms(prec ) = 0.51579E+01
  weight for this iteration     100.00

 Free energy of the ion-electron system (eV)
  ---------------------------------------------------
  alpha Z        PSCENC =        15.76595319
  Ewald energy   TEWEN  =     -2790.72364793
  -1/2 Hartree   DENC   =      -760.60153274
  -exchange  EXHF       =         0.00000000
  -V(xc)+E(xc)   XCENC  =      -745.21804782
  PAW double counting   =      2148.67993976    -1334.04649801
  entropy T*S    EENTRO =        -0.04398631
  eigenvalues    EBANDS =       363.04387717
  atomic energy  EATOM  =      2997.07640482
  ---------------------------------------------------
  free energy    TOTEN  =      -106.06753787 eV

  energy without entropy =     -106.02355155  energy(sigma->0) =     -106.05287576


--------------------------------------------------------------------------------------------------------




----------------------------------------- Iteration    1(  13)  ---------------------------------------


    POTLOK:  cpu time    0.15: real time    0.15
    SETDIJ:  cpu time    0.02: real time    0.02
    EDDIAG:  cpu time    0.15: real time    0.15
  RMM-DIIS:  cpu time    0.96: real time    0.96
    ORTHCH:  cpu time    0.01: real time    0.01
       DOS:  cpu time    0.00: real time    0.00
    CHARGE:  cpu time    0.12: real time    0.12
    MIXING:  cpu time    0.00: real time    0.00
    --------------------------------------------
      LOOP:  cpu time    1.41: real time    1.41

 eigenvalue-minimisations  :   201
 total energy-change (2. order) :-0.3507332E+02  (-0.5169513E+02)
 number of electron  100.9999923 magnetization 
 augmentation part     7.7195924 magnetization 

 Broyden mixing:
  rms(total) = 0.24406E+01    rms(broyden)= 0.24402E+01
  rms(prec ) = 0.42598E+01
  weight for this iteration     100.00

 eigenvalues of (default mixing * dielectric matrix)
  average eigenvalue GAMMA=   0.5495
  0.5495

 Free energy of the ion-electron system (eV)
  ---------------------------------------------------
  alpha Z        PSCENC =        15.76595319
  Ewald energy   TEWEN  =     -2790.72364793
  -1/2 Hartree   DENC   =      -595.28597499
  -exchange  EXHF       =         0.00000000
  -V(xc)+E(xc)   XCENC  =      -749.58940613
  PAW double counting   =      1867.61302885    -1010.97924889
  entropy T*S    EENTRO =         0.02072605
  eigenvalues    EBANDS =       124.96130815
  atomic energy  EATOM  =      2997.07640482
  ---------------------------------------------------
  free energy    TOTEN  =      -141.14085687 eV

  energy without entropy =     -141.16158292  energy(sigma->0) =     -141.14776556


--------------------------------------------------------------------------------------------------------




----------------------------------------- Iteration    1(  14)  ---------------------------------------


    POTLOK:  cpu time    0.15: real time    0.15
    SETDIJ:  cpu time    0.02: real time    0.02
    EDDIAG:  cpu time    0.15: real time    0.15
  RMM-DIIS:  cpu time    0.61: real time    0.62
    ORTHCH:  cpu time    0.01: real time    0.01
       DOS:  cpu time    0.00: real time    0.00
    CHARGE:  cpu time    0.13: real time    0.13
    MIXING:  cpu time    0.00: real time    0.00
    --------------------------------------------
      LOOP:  cpu time    1.07: real time    1.07

 eigenvalue-minimisations  :   144
 total energy-change (2. order) : 0.3276169E+02  (-0.8019646E+01)
 number of electron  100.9999927 magnetization 
 augmentation part     7.1901261 magnetization 

 Broyden mixing:
  rms(total) = 0.13696E+01    rms(broyden)= 0.13696E+01
  rms(prec ) = 0.22918E+01
  weight for this iteration     100.00

 eigenvalues of (default mixing * dielectric matrix)
  average eigenvalue GAMMA=   0.8997
  0.8997  0.8997

 Free energy of the ion-electron system (eV)
  ---------------------------------------------------
  alpha Z        PSCENC =        15.76595319
  Ewald energy   TEWEN  =     -2790.72364793
  -1/2 Hartree   DENC   =      -666.66459714
  -exchange  EXHF       =         0.00000000
  -V(xc)+E(xc)   XCENC  =      -746.76863142
  PAW double counting   =      2005.65102513    -1180.67489005
  entropy T*S    EENTRO =        -0.00174711
  eigenvalues    EBANDS =       257.96096061
  atomic energy  EATOM  =      2997.07640482
  ---------------------------------------------------
  free energy    TOTEN  =      -108.37916990 eV

  energy without entropy =     -108.37742279  energy(sigma->0) =     -108.37858753


--------------------------------------------------------------------------------------------------------




----------------------------------------- Iteration    1(  15)  ---------------------------------------


    POTLOK:  cpu time    0.15: real time    0.15
    SETDIJ:  cpu time    0.01: real time    0.02
    EDDIAG:  cpu time    0.15: real time    0.15
  RMM-DIIS:  cpu time    0.63: real time    0.63
    ORTHCH:  cpu time    0.01: real time    0.01
       DOS:  cpu time    0.00: real time    0.00
    CHARGE:  cpu time    0.12: real time    0.13
    MIXING:  cpu time    0.00: real time    0.00
    --------------------------------------------
      LOOP:  cpu time    1.08: real time    1.08

 eigenvalue-minimisations  :   144
 total energy-change (2. order) : 0.7331091E+01  (-0.2475984E+01)
 number of electron  100.9999932 magnetization 
 augmentation part     6.5954023 magnetization 

 Broyden mixing:
  rms(total) = 0.49191E+00    rms(broyden)= 0.49176E+00
  rms(prec ) = 0.81186E+00
  weight for this iteration     100.00

 eigenvalues of (default mixing * dielectric matrix)
  average eigenvalue GAMMA=   1.1488
  1.6354  0.9055  0.9055

 Free energy of the ion-electron system (eV)
  ---------------------------------------------------
  alpha Z        PSCENC =        15.76595319
  Ewald energy   TEWEN  =     -2790.72364793
  -1/2 Hartree   DENC   =      -710.73024039
  -exchange  EXHF       =         0.00000000
  -V(xc)+E(xc)   XCENC  =      -744.75650318
  PAW double counting   =      2088.48230152    -1276.78780598
  entropy T*S    EENTRO =        -0.00623538
  eigenvalues    EBANDS =       320.63169478
  atomic energy  EATOM  =      2997.07640482
  ---------------------------------------------------
  free energy    TOTEN  =      -101.04807855 eV

  energy without entropy =     -101.04184317  energy(sigma->0) =     -101.04600009


--------------------------------------------------------------------------------------------------------




----------------------------------------- Iteration    1(  16)  ---------------------------------------


    POTLOK:  cpu time    0.15: real time    0.15
    SETDIJ:  cpu time    0.01: real time    0.02
    EDDIAG:  cpu time    0.15: real time    0.15
  RMM-DIIS:  cpu time    0.62: real time    0.62
    ORTHCH:  cpu time    0.01: real time    0.01
       DOS:  cpu time    0.00: real time    0.00
    CHARGE:  cpu time    0.13: real time    0.13
    MIXING:  cpu time    0.00: real time    0.00
    --------------------------------------------
      LOOP:  cpu time    1.07: real time    1.07

 eigenvalue-minimisations  :   144
 total energy-change (2. order) : 0.9644096E-01  (-0.9231722E+00)
 number of electron  100.9999939 magnetization 
 augmentation part     5.8071658 magnetization 

 Broyden mixing:
  rms(total) = 0.50828E+00    rms(broyden)= 0.50814E+00
  rms(prec ) = 0.80126E+00
  weight for this iteration     100.00

 eigenvalues of (default mixing * dielectric matrix)
  average eigenvalue GAMMA=   1.2522
  2.4701  0.7264  0.9061  0.9061

 Free energy of the ion-electron system (eV)
  ---------------------------------------------------
  alpha Z        PSCENC =        15.76595319
  Ewald energy   TEWEN  =     -2790.72364793
  -1/2 Hartree   DENC   =      -739.12896590
  -exchange  EXHF       =         0.00000000
  -V(xc)+E(xc)   XCENC  =      -742.89047244
  PAW double counting   =      2150.94959831    -1341.49933013
  entropy T*S    EENTRO =         0.00361931
  eigenvalues    EBANDS =       349.49520318
  atomic energy  EATOM  =      2997.07640482
  ---------------------------------------------------
  free energy    TOTEN  =      -100.95163759 eV

  energy without entropy =     -100.95525690  energy(sigma->0) =     -100.95284403


--------------------------------------------------------------------------------------------------------




----------------------------------------- Iteration    1(  17)  ---------------------------------------


    POTLOK:  cpu time    0.15: real time    0.15
    SETDIJ:  cpu time    0.01: real time    0.02
    EDDIAG:  cpu time    0.15: real time    0.15
  RMM-DIIS:  cpu time    0.74: real time    0.74
    ORTHCH:  cpu time    0.01: real time    0.01
       DOS:  cpu time    0.00: real time    0.00
    CHARGE:  cpu time    0.13: real time    0.13
    MIXING:  cpu time    0.00: real time    0.00
    --------------------------------------------
      LOOP:  cpu time    1.20: real time    1.20

 eigenvalue-minimisations  :   160
 total energy-change (2. order) : 0.3191189E+00  (-0.7450528E-01)
 number of electron  100.9999936 magnetization 
 augmentation part     6.1054103 magnetization 

 Broyden mixing:
  rms(total) = 0.15802E+00    rms(broyden)= 0.15785E+00
  rms(prec ) = 0.27367E+00
  weight for this iteration     100.00

 eigenvalues of (default mixing * dielectric matrix)
  average eigenvalue GAMMA=   1.1879
  2.6070  0.9089  0.9089  0.8248  0.6898

 Free energy of the ion-electron system (eV)
  ---------------------------------------------------
  alpha Z        PSCENC =        15.76595319
  Ewald energy   TEWEN  =     -2790.72364793
  -1/2 Hartree   DENC   =      -732.79517210
  -exchange  EXHF       =         0.00000000
  -V(xc)+E(xc)   XCENC  =      -742.78549835
  PAW double counting   =      2143.02006301    -1331.82474585
  entropy T*S    EENTRO =         0.00183305
  eigenvalues    EBANDS =       341.63229147
  atomic energy  EATOM  =      2997.07640482
  ---------------------------------------------------
  free energy    TOTEN  =      -100.63251869 eV

  energy without entropy =     -100.63435174  energy(sigma->0) =     -100.63312971


--------------------------------------------------------------------------------------------------------




----------------------------------------- Iteration    1(  18)  ---------------------------------------


    POTLOK:  cpu time    0.15: real time    0.15
    SETDIJ:  cpu time    0.02: real time    0.02
    EDDIAG:  cpu time    0.15: real time    0.15
  RMM-DIIS:  cpu time    0.68: real time    0.68
    ORTHCH:  cpu time    0.01: real time    0.01
       DOS:  cpu time    0.00: real time    0.00
    CHARGE:  cpu time    0.13: real time    0.13
    MIXING:  cpu time    0.00: real time    0.00
    --------------------------------------------
      LOOP:  cpu time    1.13: real time    1.14

 eigenvalue-minimisations  :   145
 total energy-change (2. order) : 0.3237807E-01  (-0.8737315E-01)
 number of electron  100.9999934 magnetization 
 augmentation part     6.3510830 magnetization 

 Broyden mixing:
  rms(total) = 0.13829E+00    rms(broyden)= 0.13823E+00
  rms(prec ) = 0.20973E+00
  weight for this iteration     100.00

 eigenvalues of (default mixing * dielectric matrix)
  average eigenvalue GAMMA=   1.1234
  2.5937  0.8387  0.8424  0.8424  0.8117  0.8117

 Free energy of the ion-electron system (eV)
  ---------------------------------------------------
  alpha Z        PSCENC =        15.76595319
  Ewald energy   TEWEN  =     -2790.72364793
  -1/2 Hartree   DENC   =      -726.47482292
  -exchange  EXHF       =         0.00000000
  -V(xc)+E(xc)   XCENC  =      -742.77753812
  PAW double counting   =      2133.92801374    -1319.78207274
  entropy T*S    EENTRO =        -0.00376422
  eigenvalues    EBANDS =       332.39133357
  atomic energy  EATOM  =      2997.07640482
  ---------------------------------------------------
  free energy    TOTEN  =      -100.60014062 eV

  energy without entropy =     -100.59637640  energy(sigma->0) =     -100.59888588


--------------------------------------------------------------------------------------------------------




----------------------------------------- Iteration    1(  19)  ---------------------------------------


    POTLOK:  cpu time    0.15: real time    0.15
    SETDIJ:  cpu time    0.02: real time    0.02
    EDDIAG:  cpu time    0.15: real time    0.15
  RMM-DIIS:  cpu time    0.72: real time    0.72
    ORTHCH:  cpu time    0.01: real time    0.01
       DOS:  cpu time    0.00: real time    0.00
    CHARGE:  cpu time    0.13: real time    0.13
    MIXING:  cpu time    0.00: real time    0.01
    --------------------------------------------
      LOOP:  cpu time    1.18: real time    1.18

 eigenvalue-minimisations  :   150
 total energy-change (2. order) : 0.3370110E-01  (-0.4634658E-02)
 number of electron  100.9999934 magnetization 
 augmentation part     6.2940418 magnetization 

 Broyden mixing:
  rms(total) = 0.65725E-01    rms(broyden)= 0.65725E-01
  rms(prec ) = 0.99802E-01
  weight for this iteration     100.00

 eigenvalues of (default mixing * dielectric matrix)
  average eigenvalue GAMMA=   1.2321
  2.5125  1.9902  0.8781  0.8781  0.8054  0.8054  0.7549

 Free energy of the ion-electron system (eV)
  ---------------------------------------------------
  alpha Z        PSCENC =        15.76595319
  Ewald energy   TEWEN  =     -2790.72364793
  -1/2 Hartree   DENC   =      -728.83953330
  -exchange  EXHF       =         0.00000000
  -V(xc)+E(xc)   XCENC  =      -742.67608387
  PAW double counting   =      2137.85264459    -1324.03923157
  entropy T*S    EENTRO =        -0.00423424
  eigenvalues    EBANDS =       335.02128878
  atomic energy  EATOM  =      2997.07640482
  ---------------------------------------------------
  free energy    TOTEN  =      -100.56643952 eV

  energy without entropy =     -100.56220529  energy(sigma->0) =     -100.56502811


--------------------------------------------------------------------------------------------------------




----------------------------------------- Iteration    1(  20)  ---------------------------------------


    POTLOK:  cpu time    0.15: real time    0.15
    SETDIJ:  cpu time    0.02: real time    0.02
    EDDIAG:  cpu time    0.15: real time    0.15
  RMM-DIIS:  cpu time    0.72: real time    0.72
    ORTHCH:  cpu time    0.01: real time    0.01
       DOS:  cpu time    0.00: real time    0.00
    CHARGE:  cpu time    0.13: real time    0.13
    MIXING:  cpu time    0.00: real time    0.01
    --------------------------------------------
      LOOP:  cpu time    1.18: real time    1.18

 eigenvalue-minimisations  :   148
 total energy-change (2. order) : 0.6904311E-02  (-0.5555574E-02)
 number of electron  100.9999935 magnetization 
 augmentation part     6.2338766 magnetization 

 Broyden mixing:
  rms(total) = 0.15484E-01    rms(broyden)= 0.15469E-01
  rms(prec ) = 0.24632E-01
  weight for this iteration     100.00

 eigenvalues of (default mixing * dielectric matrix)
  average eigenvalue GAMMA=   1.2505
  2.6062  2.3533  0.8641  0.8641  0.9895  0.7382  0.7943  0.7943

 Free energy of the ion-electron system (eV)
  ---------------------------------------------------
  alpha Z        PSCENC =        15.76595319
  Ewald energy   TEWEN  =     -2790.72364793
  -1/2 Hartree   DENC   =      -731.49796363
  -exchange  EXHF       =         0.00000000
  -V(xc)+E(xc)   XCENC  =      -742.54286852
  PAW double counting   =      2142.13013816    -1328.11082216
  entropy T*S    EENTRO =        -0.00575315
  eigenvalues    EBANDS =       337.34902401
  atomic energy  EATOM  =      2997.07640482
  ---------------------------------------------------
  free energy    TOTEN  =      -100.55953521 eV

  energy without entropy =     -100.55378206  energy(sigma->0) =     -100.55761749


--------------------------------------------------------------------------------------------------------




----------------------------------------- Iteration    1(  21)  ---------------------------------------


    POTLOK:  cpu time    0.15: real time    0.15
    SETDIJ:  cpu time    0.01: real time    0.02
    EDDIAG:  cpu time    0.15: real time    0.15
  RMM-DIIS:  cpu time    0.56: real time    0.56
    ORTHCH:  cpu time    0.01: real time    0.01
       DOS:  cpu time    0.00: real time    0.00
    CHARGE:  cpu time    0.13: real time    0.13
    MIXING:  cpu time    0.01: real time    0.01
    --------------------------------------------
      LOOP:  cpu time    1.02: real time    1.02

 eigenvalue-minimisations  :   122
 total energy-change (2. order) : 0.3511822E-03  (-0.1809342E-03)
 number of electron  100.9999935 magnetization 
 augmentation part     6.2385878 magnetization 

 Broyden mixing:
  rms(total) = 0.99790E-02    rms(broyden)= 0.99785E-02
  rms(prec ) = 0.15355E-01
  weight for this iteration     100.00

 eigenvalues of (default mixing * dielectric matrix)
  average eigenvalue GAMMA=   1.2815
  2.6473  2.1900  1.6793  0.8715  0.8715  0.8131  0.8131  0.9180  0.7292

 Free energy of the ion-electron system (eV)
  ---------------------------------------------------
  alpha Z        PSCENC =        15.76595319
  Ewald energy   TEWEN  =     -2790.72364793
  -1/2 Hartree   DENC   =      -731.41940798
  -exchange  EXHF       =         0.00000000
  -V(xc)+E(xc)   XCENC  =      -742.53169801
  PAW double counting   =      2141.92209011    -1327.71336950
  entropy T*S    EENTRO =        -0.00555977
  eigenvalues    EBANDS =       337.07005104
  atomic energy  EATOM  =      2997.07640482
  ---------------------------------------------------
  free energy    TOTEN  =      -100.55918403 eV

  energy without entropy =     -100.55362426  energy(sigma->0) =     -100.55733077


--------------------------------------------------------------------------------------------------------




----------------------------------------- Iteration    1(  22)  ---------------------------------------


    POTLOK:  cpu time    0.15: real time    0.15
    SETDIJ:  cpu time    0.01: real time    0.02
    EDDIAG:  cpu time    0.15: real time    0.15
  RMM-DIIS:  cpu time    0.58: real time    0.58
    ORTHCH:  cpu time    0.01: real time    0.01
       DOS:  cpu time    0.00: real time    0.00
    CHARGE:  cpu time    0.13: real time    0.13
    MIXING:  cpu time    0.00: real time    0.01
    --------------------------------------------
      LOOP:  cpu time    1.03: real time    1.04

 eigenvalue-minimisations  :   111
 total energy-change (2. order) : 0.1762525E-03  (-0.1489158E-03)
 number of electron  100.9999935 magnetization 
 augmentation part     6.2487291 magnetization 

 Broyden mixing:
  rms(total) = 0.27865E-02    rms(broyden)= 0.27842E-02
  rms(prec ) = 0.41300E-02
  weight for this iteration     100.00

 eigenvalues of (default mixing * dielectric matrix)
  average eigenvalue GAMMA=   1.2847
  2.6292  2.2379  2.0101  0.8720  0.8720  0.8139  0.8139  0.9675  0.9225  0.7075

 Free energy of the ion-electron system (eV)
  ---------------------------------------------------
  alpha Z        PSCENC =        15.76595319
  Ewald energy   TEWEN  =     -2790.72364793
  -1/2 Hartree   DENC   =      -731.08224464
  -exchange  EXHF       =         0.00000000
  -V(xc)+E(xc)   XCENC  =      -742.54357316
  PAW double counting   =      2141.26745749    -1327.01326143
  entropy T*S    EENTRO =        -0.00543528
  eigenvalues    EBANDS =       336.69933915
  atomic energy  EATOM  =      2997.07640482
  ---------------------------------------------------
  free energy    TOTEN  =      -100.55900778 eV

  energy without entropy =     -100.55357250  energy(sigma->0) =     -100.55719602


--------------------------------------------------------------------------------------------------------




----------------------------------------- Iteration    1(  23)  ---------------------------------------


    POTLOK:  cpu time    0.15: real time    0.15
    SETDIJ:  cpu time    0.02: real time    0.02
    EDDIAG:  cpu time    0.15: real time    0.15
  RMM-DIIS:  cpu time    0.44: real time    0.44
    ORTHCH:  cpu time    0.01: real time    0.01
       DOS:  cpu time    0.00: real time    0.00
    --------------------------------------------
      LOOP:  cpu time    0.77: real time    0.77

 eigenvalue-minimisations  :    87
 total energy-change (2. order) : 0.8552045E-05  (-0.5026024E-05)
 number of electron  100.9999935 magnetization 
 augmentation part     6.2487291 magnetization 

 Free energy of the ion-electron system (eV)
  ---------------------------------------------------
  alpha Z        PSCENC =        15.76595319
  Ewald energy   TEWEN  =     -2790.72364793
  -1/2 Hartree   DENC   =      -731.14287488
  -exchange  EXHF       =         0.00000000
  -V(xc)+E(xc)   XCENC  =      -742.53985988
  PAW double counting   =      2141.29721862    -1327.05558426
  entropy T*S    EENTRO =        -0.00538412
  eigenvalues    EBANDS =       336.76877522
  atomic energy  EATOM  =      2997.07640482
  ---------------------------------------------------
  free energy    TOTEN  =      -100.55899922 eV

  energy without entropy =     -100.55361511  energy(sigma->0) =     -100.55720452


--------------------------------------------------------------------------------------------------------




 average (electrostatic) potential at core
  the test charge radii are     1.0406  1.0053
  (the norm of the test charge is              1.0000)
       1 -73.1998       2 -73.3577       3 -73.3718       4 -73.4492       5 -73.3421
       6 -73.3421       7 -73.1334       8 -73.1998       9 -73.3577      10 -73.1314
      11 -72.8218      12 -73.3421      13 -73.3421      14 -73.1411      15 -73.3264
      16 -73.3705      17 -73.3705      18 -72.8714      19 -73.3577      20 -73.1998
      21 -73.3718      22 -73.4492      23 -73.3705      24 -73.3705      25 -73.3024
      26 -73.2062      27 -73.3577      28 -73.1998      29 -73.1314      30 -72.8218
      31 -36.9083
 
 
 
 E-fermi :   7.7307     XC(G=0): -10.0651     alpha+bet :-14.1381
   add alpha+bet to get absolut eigen values

 k-point   1 :       0.0000    0.0000    0.0000
  band No.  band energies     occupation 
      1      -3.4637      2.00000
      2      -1.3545      2.00000
      3      -1.3535      2.00000
      4      -1.3284      2.00000
      5      -1.2935      2.00000
      6      -1.1352      2.00000
      7      -0.8046      2.00000
      8       0.7730      2.00000
      9       0.8139      2.00000
     10       0.8183      2.00000
     11       0.8360      2.00000
     12       0.8532      2.00000
     13       0.9101      2.00000
     14       0.9716      2.00000
     15       0.9887      2.00000
     16       1.0625      2.00000
     17       1.1443      2.00000
     18       1.4622      2.00000
     19       1.9622      2.00000
     20       2.9752      2.00000
     21       2.9869      2.00000
     22       3.0189      2.00000
     23       3.0899      2.00000
     24       3.1672      2.00000
     25       3.2622      2.00000
     26       3.4304      2.00000
     27       3.6119      2.00000
     28       3.9429      2.00000
     29       4.0153      2.00000
     30       4.1695      2.00000
     31       4.1849      2.00000
     32       4.4730      2.00000
     33       4.7853      2.00000
     34       4.8391      2.00000
     35       4.8801      2.00000
     36       6.1408      2.00000
     37       6.1653      2.00000
     38       6.4526      2.00000
     39       6.6056      2.00000
     40       6.6331      2.00000
     41       6.7363      2.00000
     42       6.7547      2.00000
     43       6.7879      2.00000
     44       6.8004      2.00000
     45       6.9489      2.00000
     46       6.9555      2.00000
     47       6.9820      2.00000
     48       7.2080      2.00138
     49       7.3203      2.01348
     50       7.3372      2.01775
     51       7.7409      0.91336
     52       7.8662      0.09637
     53       7.8803      0.04896
     54       7.9774     -0.07089
     55       8.1352     -0.01485
     56       8.1892     -0.00555
     57       8.6225      0.00000
     58       8.6295      0.00000
     59       8.6802      0.00000
     60       8.6948      0.00000
     61       8.7028      0.00000
     62       8.7410      0.00000
     63       8.8456      0.00000
     64       8.8944      0.00000
     65       8.9821      0.00000
     66       8.9905      0.00000
     67       9.0341      0.00000
     68       9.1978      0.00000
     69       9.2212      0.00000
     70       9.2913      0.00000
     71       9.3824      0.00000
     72       9.6233      0.00000


--------------------------------------------------------------------------------------------------------


 soft charge-density along one line, spin component           1
         0         1         2         3         4         5         6         7         8         9
 total charge-density along one line
 
 pseudopotential strength for first ion, spin component:           1
  8.461  -0.005   0.001   0.000   0.001   0.000   0.000   0.000
 -0.005   0.000   0.000   0.000   0.000   0.000   0.000   0.000
  0.001   0.000   1.986   0.000   0.000  -0.025   0.000   0.000
  0.000   0.000   0.000   1.986   0.000   0.000  -0.025   0.000
  0.001   0.000   0.000   0.000   1.986   0.000   0.000  -0.025
  0.000   0.000  -0.025   0.000   0.000  -0.012   0.000   0.000
  0.000   0.000   0.000  -0.025   0.000   0.000  -0.012   0.000
  0.000   0.000   0.000   0.000  -0.025   0.000   0.000  -0.012
 total augmentation occupancy for first ion, spin component:           1
  1.162  -0.545   0.000   0.002  -0.005   0.004   0.001   0.003
 -0.545   0.472  -0.004   0.000  -0.008   0.000   0.000   0.001
  0.000  -0.004   0.810   0.024   0.028  -0.181  -0.003  -0.003
  0.002   0.000   0.024   0.782   0.007  -0.003  -0.178  -0.001
 -0.005  -0.008   0.028   0.007   0.783  -0.003  -0.001  -0.178
  0.004   0.000  -0.181  -0.003  -0.003   0.048   0.000   0.000
  0.001   0.000  -0.003  -0.178  -0.001   0.000   0.048   0.000
  0.003   0.001  -0.003  -0.001  -0.178   0.000   0.000   0.048


------------------------ aborting loop because EDIFF is reached ----------------------------------------




--------------------------------------------------------------------------------------------------------



  FREE ENERGIE OF THE ION-ELECTRON SYSTEM (eV)
  ---------------------------------------------------
  free  energy   TOTEN  =      -100.558999 eV

  energy  without entropy=     -100.553615  energy(sigma->0) =     -100.557205
 
    CHARGE:  cpu time    0.13: real time    0.13
    FORLOC:  cpu time    0.04: real time    0.04
    FORNL :  cpu time    0.25: real time    0.25
    STRESS:  cpu time    0.48: real time    0.48
    FORCOR:  cpu time    0.17: real time    0.17
    FORHAR:  cpu time    0.07: real time    0.07
    MIXING:  cpu time    0.00: real time    0.01

  FORCE on cell =-STRESS in cart. coord.  units (eV):
  Direction    XX          YY          ZZ          XY          YZ          ZX
  --------------------------------------------------------------------------------------
  Alpha Z    15.76595    15.76595    15.76595
  Ewald    -954.32940  -882.07559  -954.32940     0.00000     0.00000    44.84029
  Hartree   225.55187   280.09871   225.55187     0.00000     0.00000    28.67007
  E(xc)    -316.79776  -316.65397  -316.79776     0.00000     0.00000     0.07936
  Local     -46.03960  -171.50311   -46.03960     0.00000     0.00000   -72.57467
  n-local   501.80745   500.47361   501.80753     0.00006     0.00032    -0.65336
  augment    30.59923    30.47065    30.59924     0.00000    -0.00001    -0.20850
  Kinetic   534.68606   535.74940   534.68596     0.00111    -0.00192    -0.30524
  Fock        0.00000     0.00000     0.00000     0.00000     0.00000     0.00000
  -------------------------------------------------------------------------------------
  Total      -8.75620    -7.67434    -8.75620     0.00000     0.00000    -0.15205
  in kB     -26.52512   -23.24786   -26.52512     0.00000     0.00000    -0.46062
  external pressure =      -25.43 kB  Pullay stress =        0.00 kB


 VOLUME and BASIS-vectors are now :
 -----------------------------------------------------------------------------
  energy-cutoff  :      300.00
  volume of cell :      528.89
      direct lattice vectors                 reciprocal lattice vectors
     8.087040000  0.000000000  0.000000000     0.123654638  0.000000000  0.000000000
     0.000000000  8.087040000  0.000000000     0.000000000  0.123654638  0.000000000
     0.000000000  0.000000000  8.087040000     0.000000000  0.000000000  0.123654638

  length of vectors
     8.087040000  8.087040000  8.087040000     0.123654638  0.123654638  0.123654638


 FORCES acting on ions
    electron-ion (+dipol)            ewald-force                    non-local-force                 convergence-correction
 -----------------------------------------------------------------------------------------------
   0.517E+01 0.300E+01 -.224E+01   -.564E+01 -.352E+01 0.211E+01   0.218E+00 0.229E+00 0.977E-02   -.204E-03 0.979E-03 -.529E-03
   -.934E+01 0.153E+02 0.249E+02   0.936E+01 -.156E+02 -.250E+02   -.719E-01 0.334E+00 0.106E+00   0.145E-02 0.993E-03 -.114E-02
   -.963E+01 0.510E-13 -.941E+01   0.936E+01 0.214E-14 0.936E+01   0.210E+00 0.000E+00 0.118E+00   0.543E-03 0.954E-14 0.507E-03
   0.247E+02 -.244E-14 0.246E+02   -.250E+02 0.426E-14 -.250E+02   0.326E+00 0.169E-20 0.321E+00   -.756E-03 0.107E-13 -.749E-03
   -.538E+01 -.409E+01 -.961E+01   0.564E+01 0.372E+01 0.936E+01   -.172E+00 0.258E+00 0.156E+00   0.261E-03 0.131E-02 0.146E-02
   0.961E+01 -.409E+01 0.538E+01   -.936E+01 0.372E+01 -.564E+01   -.156E+00 0.258E+00 0.172E+00   -.146E-02 0.131E-02 -.264E-03
   0.954E+01 0.205E-12 -.954E+01   -.936E+01 -.316E-14 0.936E+01   -.281E-01 0.000E+00 0.281E-01   -.498E-03 0.182E-13 0.499E-03
   0.517E+01 -.300E+01 -.224E+01   -.564E+01 0.352E+01 0.211E+01   0.218E+00 -.229E+00 0.977E-02   -.204E-03 -.979E-03 -.529E-03
   -.934E+01 -.153E+02 0.249E+02   0.936E+01 0.156E+02 -.250E+02   -.719E-01 -.334E+00 0.106E+00   0.145E-02 -.993E-03 -.114E-02
   -.209E+01 -.340E-13 -.233E+01   0.211E+01 -.647E-14 0.211E+01   -.140E+00 0.000E+00 0.128E+00   0.130E-03 -.103E-13 0.561E-03
   0.531E+01 -.483E-14 0.562E+01   -.564E+01 -.640E-14 -.564E+01   0.214E+00 0.000E+00 -.939E-01   -.465E-03 -.840E-14 -.916E-03
   -.538E+01 0.409E+01 -.961E+01   0.564E+01 -.372E+01 0.936E+01   -.172E+00 -.258E+00 0.156E+00   0.261E-03 -.131E-02 0.146E-02
   0.961E+01 0.409E+01 0.538E+01   -.936E+01 -.372E+01 -.564E+01   -.156E+00 -.258E+00 0.172E+00   -.146E-02 -.131E-02 -.264E-03
   0.261E+01 -.116E-12 -.261E+01   -.211E+01 -.693E-14 0.211E+01   -.130E+00 0.000E+00 0.130E+00   -.274E-03 -.173E-13 0.275E-03
   -.540E+01 0.213E-12 0.540E+01   0.564E+01 -.984E-14 -.564E+01   -.267E+00 0.000E+00 0.267E+00   0.449E-03 -.166E-13 -.450E-03
   0.246E+02 0.225E+02 0.221E+01   -.250E+02 -.228E+02 -.211E+01   0.362E+00 0.330E+00 -.880E-01   -.112E-02 0.105E-02 0.605E-03
   -.221E+01 0.225E+02 -.246E+02   0.211E+01 -.228E+02 0.250E+02   0.880E-01 0.330E+00 -.362E+00   -.606E-03 0.105E-02 0.112E-02
   0.245E+02 0.807E-14 -.245E+02   -.250E+02 0.728E-14 0.250E+02   0.326E+00 0.000E+00 -.326E+00   -.773E-03 0.640E-14 0.778E-03
   -.249E+02 0.153E+02 0.934E+01   0.250E+02 -.156E+02 -.936E+01   -.106E+00 0.334E+00 0.719E-01   0.113E-02 0.991E-03 -.145E-02
   0.224E+01 0.300E+01 -.517E+01   -.211E+01 -.352E+01 0.564E+01   -.977E-02 0.229E+00 -.218E+00   0.530E-03 0.978E-03 0.207E-03
   0.941E+01 -.484E-13 0.963E+01   -.936E+01 0.539E-14 -.936E+01   -.118E+00 -.508E-20 -.210E+00   -.506E-03 0.120E-13 -.545E-03
   -.246E+02 0.172E-12 -.247E+02   0.250E+02 0.202E-14 0.250E+02   -.321E+00 0.000E+00 -.326E+00   0.744E-03 0.901E-14 0.761E-03
   0.246E+02 -.225E+02 0.221E+01   -.250E+02 0.228E+02 -.211E+01   0.362E+00 -.330E+00 -.880E-01   -.112E-02 -.105E-02 0.605E-03
   -.221E+01 -.225E+02 -.246E+02   0.211E+01 0.228E+02 0.250E+02   0.880E-01 -.330E+00 -.362E+00   -.606E-03 -.105E-02 0.112E-02
   -.227E+01 0.686E-13 0.227E+01   0.211E+01 -.324E-14 -.211E+01   0.158E+00 0.000E+00 -.158E+00   0.565E-03 -.319E-15 -.566E-03
   0.493E+01 -.323E-13 -.493E+01   -.564E+01 -.664E-14 0.564E+01   0.360E+00 0.000E+00 -.360E+00   -.748E-03 -.898E-14 0.749E-03
   -.249E+02 -.153E+02 0.934E+01   0.250E+02 0.156E+02 -.936E+01   -.106E+00 -.334E+00 0.719E-01   0.113E-02 -.991E-03 -.145E-02
   0.224E+01 -.300E+01 -.517E+01   -.211E+01 0.352E+01 0.564E+01   -.977E-02 -.229E+00 -.218E+00   0.530E-03 -.978E-03 0.207E-03
   0.233E+01 0.356E-13 0.209E+01   -.211E+01 -.518E-14 -.211E+01   -.128E+00 0.000E+00 0.140E+00   -.561E-03 -.121E-13 -.130E-03
   -.562E+01 0.137E-12 -.531E+01   0.564E+01 -.102E-13 0.564E+01   0.939E-01 -.169E-20 -.214E+00   0.915E-03 -.115E-13 0.466E-03
   -.337E+02 -.293E-12 0.337E+02   0.343E+02 0.155E-13 -.343E+02   -.543E+00 0.000E+00 0.543E+00   0.874E-03 -.160E-12 -.881E-03
 -----------------------------------------------------------------------------------------------
   -.318E+00 0.890E-13 0.318E+00   -.284E-13 -.136E-13 -.426E-13   0.318E+00 0.555E-16 -.318E+00   -.384E-03 -.173E-12 0.383E-03
 
 
 POSITION                                       TOTAL-FORCE (eV/Angst)
 -----------------------------------------------------------------------------------
      0.00000      0.00000      0.00000        -0.243933     -0.293519     -0.119411
      2.02176      0.00000      2.02176        -0.052820      0.034606      0.044133
      2.02176      2.02176      0.00000        -0.063044      0.000000      0.065866
      0.00000      2.02176      2.02176         0.100351      0.000000     -0.028124
      4.04352      0.00000      0.00000         0.087015     -0.107156     -0.094470
      6.06528      0.00000      2.02176         0.094470     -0.107156     -0.087015
      6.06528      2.02176      0.00000         0.155395      0.000000     -0.155395
      0.00000      4.04352      0.00000        -0.243933      0.293519     -0.119411
      2.02176      4.04352      2.02176        -0.052820     -0.034606      0.044133
      2.02176      6.06528      0.00000        -0.118775      0.000000     -0.085944
      0.00000      6.06528      2.02176        -0.118141      0.000000     -0.107767
      4.04352      4.04352      0.00000         0.087015      0.107156     -0.094470
      6.06528      4.04352      2.02176         0.094470      0.107156     -0.087015
      6.06528      6.06528      0.00000         0.368141      0.000000     -0.368141
      4.04352      6.06528      2.02176        -0.026890      0.000000      0.026890
      0.00000      0.00000      4.04352         0.060703     -0.009536      0.010793
      2.02176      0.00000      6.06528        -0.010793     -0.009536     -0.060703
      0.00000      2.02176      6.06528        -0.174833      0.000000      0.174833
      4.04352      0.00000      4.04352        -0.044133      0.034606      0.052820
      6.06528      0.00000      6.06528         0.119411     -0.293519      0.243933
      6.06528      2.02176      4.04352        -0.065866      0.000000      0.063044
      4.04352      2.02176      6.06528         0.028124      0.000000     -0.100351
      0.00000      4.04352      4.04352         0.060703      0.009536      0.010793
      2.02176      4.04352      6.06528        -0.010793      0.009536     -0.060703
      2.02176      6.06528      4.04352         0.001284      0.000000     -0.001284
      0.00000      6.06528      6.06528        -0.344933      0.000000      0.344933
      4.04352      4.04352      4.04352        -0.044133     -0.034606      0.052820
      6.06528      4.04352      6.06528         0.119411      0.293519      0.243933
      6.06528      6.06528      4.04352         0.085944      0.000000      0.118775
      4.04352      6.06528      6.06528         0.107767      0.000000      0.118141
      2.02176      2.02176      4.04352         0.045635      0.000000     -0.045635
 -----------------------------------------------------------------------------------
    total drift:                               -0.000293      0.000000      0.000292


--------------------------------------------------------------------------------------------------------


    POTLOK:  cpu time    0.16: real time    0.17


--------------------------------------------------------------------------------------------------------


  FORCES: max atom, RMS     0.520629    0.223421
[...]


    POTLOK:  cpu time    0.15: real time    0.15
    SETDIJ:  cpu time    0.02: real time    0.02
    EDDIAG:  cpu time    0.15: real time    0.15
  RMM-DIIS:  cpu time    0.50: real time    0.51
    ORTHCH:  cpu time    0.01: real time    0.01
       DOS:  cpu time    0.00: real time    0.00
    CHARGE:  cpu time    0.13: real time    0.13
    MIXING:  cpu time    0.00: real time    0.00
    --------------------------------------------
      LOOP:  cpu time    0.96: real time    0.96

 eigenvalue-minimisations  :   113
 total energy-change (2. order) : 0.1737392E-03  (-0.1131093E-03)
 number of electron  100.9999950 magnetization 
 augmentation part     6.2520865 magnetization 

 Broyden mixing:
  rms(total) = 0.47475E-02    rms(broyden)= 0.47463E-02
  rms(prec ) = 0.71267E-02
  weight for this iteration     100.00

 eigenvalues of (default mixing * dielectric matrix)
  average eigenvalue GAMMA=   1.0341
  0.4362  0.8712  1.7950

 Free energy of the ion-electron system (eV)
  ---------------------------------------------------
  alpha Z        PSCENC =        15.76595319
  Ewald energy   TEWEN  =     -2790.46594717
  -1/2 Hartree   DENC   =      -730.01933217
  -exchange  EXHF       =         0.00000000
  -V(xc)+E(xc)   XCENC  =      -742.39908326
  PAW double counting   =      2140.68752192    -1326.39825007
  entropy T*S    EENTRO =         0.02426638
  eigenvalues    EBANDS =       335.02653756
  atomic energy  EATOM  =      2997.07640482
  ---------------------------------------------------
  free energy    TOTEN  =      -100.70192880 eV

  energy without entropy =     -100.72619518  energy(sigma->0) =     -100.71001759


--------------------------------------------------------------------------------------------------------




----------------------------------------- Iteration    5(   5)  ---------------------------------------


    POTLOK:  cpu time    0.15: real time    0.15
    SETDIJ:  cpu time    0.02: real time    0.02
    EDDIAG:  cpu time    0.15: real time    0.15
  RMM-DIIS:  cpu time    0.45: real time    0.45
    ORTHCH:  cpu time    0.01: real time    0.01
       DOS:  cpu time    0.00: real time    0.00
    --------------------------------------------
      LOOP:  cpu time    0.78: real time    0.78

 eigenvalue-minimisations  :    93
 total energy-change (2. order) : 0.2825709E-04  (-0.1876729E-04)
 number of electron  100.9999950 magnetization 
 augmentation part     6.2520865 magnetization 

 Free energy of the ion-electron system (eV)
  ---------------------------------------------------
  alpha Z        PSCENC =        15.76595319
  Ewald energy   TEWEN  =     -2790.46594717
  -1/2 Hartree   DENC   =      -730.11424205
  -exchange  EXHF       =         0.00000000
  -V(xc)+E(xc)   XCENC  =      -742.39392736
  PAW double counting   =      2140.80849520    -1326.55507730
  entropy T*S    EENTRO =         0.02423620
  eigenvalues    EBANDS =       335.15220393
  atomic energy  EATOM  =      2997.07640482
  ---------------------------------------------------
  free energy    TOTEN  =      -100.70190054 eV

  energy without entropy =     -100.72613674  energy(sigma->0) =     -100.70997927


--------------------------------------------------------------------------------------------------------




 average (electrostatic) potential at core
  the test charge radii are     1.0406  1.0053
  (the norm of the test charge is              1.0000)
       1 -73.1582       2 -73.4296       3 -73.4083       4 -73.4933       5 -73.3433
       6 -73.3433       7 -73.0962       8 -73.1582       9 -73.4296      10 -73.0917
      11 -72.7649      12 -73.3433      13 -73.3433      14 -72.9800      15 -73.3654
      16 -73.3798      17 -73.3798      18 -72.8207      19 -73.4296      20 -73.1582
      21 -73.4083      22 -73.4933      23 -73.3798      24 -73.3798      25 -73.2976
      26 -73.0960      27 -73.4296      28 -73.1582      29 -73.0917      30 -72.7649
      31 -36.9868
 
 
 
 E-fermi :   7.7358     XC(G=0): -10.0600     alpha+bet :-14.1381
   add alpha+bet to get absolut eigen values

 k-point   1 :       0.0000    0.0000    0.0000
  band No.  band energies     occupation 
      1      -3.4894      2.00000
      2      -1.3906      2.00000
      3      -1.3098      2.00000
      4      -1.3059      2.00000
      5      -1.2813      2.00000
      6      -1.1732      2.00000
      7      -0.9203      2.00000
      8       0.7459      2.00000
      9       0.8444      2.00000
     10       0.8540      2.00000
     11       0.8810      2.00000
     12       0.8950      2.00000
     13       0.8973      2.00000
     14       0.9115      2.00000
     15       0.9723      2.00000
     16       1.0841      2.00000
     17       1.0848      2.00000
     18       1.3921      2.00000
     19       1.9324      2.00000
     20       2.9578      2.00000
     21       2.9632      2.00000
     22       3.0089      2.00000
     23       3.1250      2.00000
     24       3.1823      2.00000
     25       3.2725      2.00000
     26       3.4300      2.00000
     27       3.6079      2.00000
     28       3.8846      2.00000
     29       3.9753      2.00000
     30       4.1225      2.00000
     31       4.1427      2.00000
     32       4.4980      2.00000
     33       4.7663      2.00000
     34       4.8043      2.00000
     35       4.8400      2.00000
     36       6.1110      2.00000
     37       6.1207      2.00000
     38       6.4189      2.00000
     39       6.6859      2.00000
     40       6.7084      2.00000
     41       6.7120      2.00000
     42       6.7600      2.00000
     43       6.7646      2.00000
     44       6.8006      2.00000
     45       6.8994      2.00000
     46       6.9259      2.00000
     47       6.9507      2.00000
     48       7.1851      2.00069
     49       7.2333      2.00219
     50       7.2569      2.00367
     51       7.7242      1.09797
     52       7.8662      0.11586
     53       7.9625     -0.06801
     54       7.9906     -0.07022
     55       8.0545     -0.04673
     56       8.0797     -0.03542
     57       8.6114      0.00000
     58       8.6397      0.00000
     59       8.6780      0.00000
     60       8.7000      0.00000
     61       8.7194      0.00000
     62       8.7258      0.00000
     63       8.8904      0.00000
     64       8.9083      0.00000
     65       8.9585      0.00000
     66       8.9777      0.00000
     67       9.0043      0.00000
     68       9.1669      0.00000
     69       9.2261      0.00000
     70       9.3241      0.00000
     71       9.4166      0.00000
     72       9.5058      0.00000


--------------------------------------------------------------------------------------------------------


 soft charge-density along one line, spin component           1
         0         1         2         3         4         5         6         7         8         9
 total charge-density along one line
 
 pseudopotential strength for first ion, spin component:           1
  8.461  -0.005   0.002   0.000   0.001   0.000   0.000   0.000
 -0.005   0.000   0.000   0.000   0.000   0.000   0.000   0.000
  0.002   0.000   1.986   0.000   0.000  -0.025   0.000   0.000
  0.000   0.000   0.000   1.986   0.000   0.000  -0.025   0.000
  0.001   0.000   0.000   0.000   1.987   0.000   0.000  -0.025
  0.000   0.000  -0.025   0.000   0.000  -0.012   0.000   0.000
  0.000   0.000   0.000  -0.025   0.000   0.000  -0.012   0.000
  0.000   0.000   0.000   0.000  -0.025   0.000   0.000  -0.012
 total augmentation occupancy for first ion, spin component:           1
  1.158  -0.570  -0.028   0.001  -0.020   0.021   0.003   0.013
 -0.570   0.502   0.013   0.006   0.005  -0.012  -0.002  -0.007
 -0.028   0.013   0.814   0.030   0.028  -0.190  -0.004  -0.004
  0.001   0.006   0.030   0.810   0.009  -0.004  -0.188  -0.002
 -0.020   0.005   0.028   0.009   0.792  -0.004  -0.002  -0.186
  0.021  -0.012  -0.190  -0.004  -0.004   0.052   0.001   0.001
  0.003  -0.002  -0.004  -0.188  -0.002   0.001   0.052   0.001
  0.013  -0.007  -0.004  -0.002  -0.186   0.001   0.001   0.052


------------------------ aborting loop because EDIFF is reached ----------------------------------------




--------------------------------------------------------------------------------------------------------



  FREE ENERGIE OF THE ION-ELECTRON SYSTEM (eV)
  ---------------------------------------------------
  free  energy   TOTEN  =      -100.701901 eV

  energy  without entropy=     -100.726137  energy(sigma->0) =     -100.709979
 
    CHARGE:  cpu time    0.12: real time    0.13
    FORLOC:  cpu time    0.04: real time    0.04
    FORNL :  cpu time    0.25: real time    0.25
    STRESS:  cpu time    0.48: real time    0.48
    FORCOR:  cpu time    0.17: real time    0.17
    FORHAR:  cpu time    0.07: real time    0.07
    MIXING:  cpu time    0.00: real time    0.00

  FORCE on cell =-STRESS in cart. coord.  units (eV):
  Direction    XX          YY          ZZ          XY          YZ          ZX
  --------------------------------------------------------------------------------------
  Alpha Z    15.76595    15.76595    15.76595
  Ewald    -956.39305  -877.69038  -956.39305     0.00000     0.00000    50.85103
  Hartree   223.87819   282.27551   223.87819     0.00000     0.00000    32.47313
  E(xc)    -317.06264  -316.86817  -317.06264     0.00000     0.00000     0.09383
  Local     -43.20030  -177.67298   -43.20030     0.00000     0.00000   -82.67024
  n-local   502.58295   500.42256   502.58294    -0.00025    -0.00012    -0.73309
  augment    30.68165    30.56419    30.68165     0.00000     0.00000    -0.28059
  Kinetic   535.19438   536.68081   535.19437    -0.00049    -0.00023    -0.20085
  Fock        0.00000     0.00000     0.00000     0.00000     0.00000     0.00000
  -------------------------------------------------------------------------------------
  Total      -8.55288    -6.52251    -8.55288     0.00000     0.00000    -0.46677
  in kB     -25.90920   -19.75863   -25.90920     0.00000     0.00000    -1.41400
  external pressure =      -23.86 kB  Pullay stress =        0.00 kB


 VOLUME and BASIS-vectors are now :
 -----------------------------------------------------------------------------
  energy-cutoff  :      300.00
  volume of cell :      528.89
      direct lattice vectors                 reciprocal lattice vectors
     8.087040000  0.000000000  0.000000000     0.123654638  0.000000000  0.000000000
     0.000000000  8.087040000  0.000000000     0.000000000  0.123654638  0.000000000
     0.000000000  0.000000000  8.087040000     0.000000000  0.000000000  0.123654638

  length of vectors
     8.087040000  8.087040000  8.087040000     0.123654638  0.123654638  0.123654638


 FORCES acting on ions
    electron-ion (+dipol)            ewald-force                    non-local-force                 convergence-correction
 -----------------------------------------------------------------------------------------------
   0.211E+01 -.243E+01 -.331E+01   -.292E+01 0.979E+00 0.323E+01   0.815E+00 0.146E+01 0.813E-01   -.213E-02 0.368E-04 -.225E-02
   -.115E+02 0.148E+02 0.237E+02   0.110E+02 -.151E+02 -.240E+02   0.461E+00 0.207E+00 0.309E+00   -.169E-02 0.312E-02 -.114E-03
   -.118E+02 0.208E-12 -.811E+01   0.111E+02 -.286E-15 0.837E+01   0.754E+00 0.000E+00 -.314E+00   -.104E-02 0.281E-13 -.171E-02
   0.263E+02 -.291E-14 0.235E+02   -.260E+02 0.537E-14 -.241E+02   -.372E+00 0.169E-20 0.626E+00   -.548E-03 -.114E-14 0.105E-03
   -.253E+01 -.705E+01 -.119E+02   0.321E+01 0.624E+01 0.114E+02   -.708E+00 0.809E+00 0.533E+00   0.710E-03 0.190E-02 -.261E-02
   0.119E+02 -.705E+01 0.253E+01   -.114E+02 0.624E+01 -.321E+01   -.533E+00 0.809E+00 0.708E+00   0.261E-02 0.190E-02 -.713E-03
   0.118E+02 0.255E-12 -.118E+02   -.113E+02 0.276E-14 0.113E+02   -.544E+00 0.000E+00 0.544E+00   0.175E-02 0.156E-13 -.174E-02
   0.211E+01 0.243E+01 -.331E+01   -.292E+01 -.979E+00 0.323E+01   0.815E+00 -.146E+01 0.813E-01   -.213E-02 -.368E-04 -.225E-02
   -.115E+02 -.148E+02 0.237E+02   0.110E+02 0.151E+02 -.240E+02   0.461E+00 -.207E+00 0.309E+00   -.169E-02 -.312E-02 -.114E-03
   -.540E+01 -.287E-13 -.358E+01   0.499E+01 -.985E-14 0.315E+01   0.473E+00 -.106E-21 0.379E+00   -.282E-02 -.397E-13 -.209E-02
   0.320E+01 -.335E-13 0.139E+01   -.390E+01 0.132E-15 -.195E+01   0.695E+00 0.000E+00 0.685E+00   -.154E-02 0.913E-14 -.271E-02
   -.253E+01 0.705E+01 -.119E+02   0.321E+01 -.624E+01 0.114E+02   -.708E+00 -.809E+00 0.533E+00   0.710E-03 -.190E-02 -.261E-02
   0.119E+02 0.705E+01 0.253E+01   -.114E+02 -.624E+01 -.321E+01   -.533E+00 -.809E+00 0.708E+00   0.261E-02 -.190E-02 -.713E-03
   0.757E+01 -.114E-13 -.757E+01   -.628E+01 0.433E-14 0.628E+01   -.134E+01 0.000E+00 0.134E+01   0.408E-02 -.335E-14 -.408E-02
   -.438E+01 -.871E-13 0.438E+01   0.462E+01 -.816E-17 -.462E+01   -.292E+00 0.000E+00 0.292E+00   0.105E-02 0.329E-13 -.105E-02
   0.246E+02 0.211E+02 0.287E+01   -.247E+02 -.215E+02 -.266E+01   0.997E-01 0.403E+00 -.215E+00   -.180E-02 0.252E-02 0.513E-03
   -.287E+01 0.211E+02 -.246E+02   0.266E+01 -.215E+02 0.247E+02   0.215E+00 0.403E+00 -.997E-01   -.515E-03 0.253E-02 0.180E-02
   0.215E+02 0.253E-14 -.215E+02   -.223E+02 -.413E-14 0.223E+02   0.728E+00 0.000E+00 -.728E+00   -.639E-03 0.311E-13 0.644E-03
   -.237E+02 0.148E+02 0.115E+02   0.240E+02 -.151E+02 -.110E+02   -.309E+00 0.207E+00 -.461E+00   0.111E-03 0.312E-02 0.169E-02
   0.331E+01 -.243E+01 -.211E+01   -.323E+01 0.979E+00 0.292E+01   -.813E-01 0.146E+01 -.815E+00   0.225E-02 0.352E-04 0.214E-02
   0.811E+01 -.120E-12 0.118E+02   -.837E+01 -.362E-14 -.111E+02   0.314E+00 0.169E-20 -.754E+00   0.172E-02 0.973E-14 0.104E-02
   -.235E+02 0.203E-12 -.263E+02   0.241E+02 0.195E-15 0.260E+02   -.626E+00 0.000E+00 0.372E+00   -.110E-03 0.972E-13 0.553E-03
   0.246E+02 -.211E+02 0.287E+01   -.247E+02 0.215E+02 -.266E+01   0.997E-01 -.403E+00 -.215E+00   -.180E-02 -.252E-02 0.513E-03
   -.287E+01 -.211E+02 -.246E+02   0.266E+01 0.215E+02 0.247E+02   0.215E+00 -.403E+00 -.997E-01   -.515E-03 -.253E-02 0.180E-02
   -.280E+01 0.141E-12 0.280E+01   0.269E+01 -.127E-14 -.269E+01   0.148E+00 0.000E+00 -.148E+00   -.123E-02 0.145E-13 0.123E-02
   -.750E+00 0.870E-14 0.750E+00   -.939E+00 -.918E-14 0.939E+00   0.172E+01 0.000E+00 -.172E+01   -.346E-02 -.234E-13 0.346E-02
   -.237E+02 -.148E+02 0.115E+02   0.240E+02 0.151E+02 -.110E+02   -.309E+00 -.207E+00 -.461E+00   0.111E-03 -.312E-02 0.169E-02
   0.331E+01 0.243E+01 -.211E+01   -.323E+01 -.979E+00 0.292E+01   -.813E-01 -.146E+01 -.815E+00   0.225E-02 -.352E-04 0.214E-02
   0.358E+01 0.463E-13 0.540E+01   -.315E+01 0.320E-14 -.499E+01   -.379E+00 0.000E+00 -.473E+00   0.209E-02 -.566E-14 0.282E-02
   -.139E+01 0.621E-14 -.320E+01   0.195E+01 -.298E-14 0.390E+01   -.685E+00 0.000E+00 -.695E+00   0.271E-02 -.885E-13 0.154E-02
   -.348E+02 0.202E-12 0.348E+02   0.354E+02 0.363E-13 -.354E+02   -.551E+00 0.000E+00 0.551E+00   0.349E-03 -.389E-13 -.357E-03
 -----------------------------------------------------------------------------------------------
   0.397E-01 0.185E-11 -.397E-01   0.142E-13 -.185E-13 -.213E-13   -.397E-01 0.000E+00 0.397E-01   0.143E-02 -.518E-13 -.143E-02
 
 
 POSITION                                       TOTAL-FORCE (eV/Angst)
 -----------------------------------------------------------------------------------
     -0.03379     -0.06711     -0.00891        -0.005021      0.005634     -0.001282
      1.99090     -0.00509      2.00730        -0.001428     -0.100013     -0.010409
      1.99476      2.02176      0.01280         0.041046      0.000000     -0.056360
      0.02435      2.02176      2.00744        -0.061438      0.000000      0.021605
      4.06993     -0.03422     -0.02718        -0.021898      0.009021     -0.054621
      6.09246     -0.03422      1.99535         0.054621      0.009021      0.021898
      6.09763      2.02176     -0.03235        -0.009022      0.000000      0.009022
     -0.03379      4.11063     -0.00891        -0.005021     -0.005634     -0.001282
      1.99090      4.04861      2.00730        -0.001428      0.100013     -0.010409
      1.99034      6.06528     -0.01903         0.063584      0.000000     -0.055474
     -0.02886      6.06528      1.99546        -0.007094      0.000000      0.113100
      4.06993      4.07774     -0.02718        -0.021898     -0.009021     -0.054621
      6.09246      4.07774      1.99535         0.054621     -0.009021      0.021898
      6.11859      6.06528     -0.05331        -0.047492      0.000000      0.047492
      4.04696      6.06528      2.01832        -0.057360      0.000000      0.057360
      0.00931     -0.00117      4.05588        -0.036219     -0.004328     -0.003614
      2.00940     -0.00117      6.05597         0.003614     -0.004328      0.036219
     -0.03527      2.02176      6.10055        -0.005496      0.000000      0.005496
      4.05798     -0.00509      4.07438         0.010409     -0.100013      0.001428
      6.07419     -0.06711      6.09907         0.001282      0.005634      0.005021
      6.05248      2.02176      4.07052         0.056360      0.000000     -0.041046
      4.05784      2.02176      6.04093        -0.021605      0.000000      0.061438
      0.00931      4.04469      4.05588        -0.036219      0.004328     -0.003614
      2.00940      4.04469      6.05597         0.003614      0.004328      0.036219
      2.01745      6.06528      4.04783         0.040399      0.000000     -0.040399
     -0.05868      6.06528      6.12396         0.028233      0.000000     -0.028233
      4.05798      4.04861      4.07438         0.010409      0.100013      0.001428
      6.07419      4.11063      6.09907         0.001282     -0.005634      0.005021
      6.08431      6.06528      4.07494         0.055474      0.000000     -0.063584
      4.06982      6.06528      6.09414        -0.113100      0.000000      0.007094
      2.02850      2.02176      4.03678         0.026790      0.000000     -0.026790
 -----------------------------------------------------------------------------------
    total drift:                                0.001457      0.000000     -0.001443
 d Force = 0.9254351E-02[-0.165E-02, 0.202E-01]  d Energy = 0.9347933E-02-0.936E-04
 d Force = 0.4106283E+00[ 0.268E+00, 0.554E+00]  d Ewald  = 0.4107499E+00-0.122E-03


--------------------------------------------------------------------------------------------------------


    POTLOK:  cpu time    0.16: real time    0.16


--------------------------------------------------------------------------------------------------------


  FORCES: max atom, RMS     0.113323    0.066229
  FORCE total and by dimension    0.368750    0.113100


--------------------------------------------------------------------------------------------------------


  
 reached required accuracy - stopping structural energy minimisation
     LOOP+:  cpu time    6.34: real time    6.36
    4ORBIT:  cpu time    0.00: real time    0.00

 total amount of memory used by VASP on root node  60607. kBytes
========================================================================

   base      :    30000. kBytes
   nonl-proj :     4892. kBytes
   fftplans  :     2983. kBytes
   grid      :    21626. kBytes
   one-center:      482. kBytes
   wavefun   :      624. kBytes
 
  
  
 General timing and accounting informations for this job:
 ========================================================
  
                  Total CPU time used (sec):       48.781
                            User time (sec):       48.647
                          System time (sec):        0.134
                         Elapsed time (sec):       49.346
  
                   Maximum memory used (kb):           0.
                   Average memory used (kb):           0.
  
                          Minor page faults:        22968
                          Major page faults:           28
                 Voluntary context switches:         2104
