<?xml version="1.0" encoding="ISO-8859-1"?>
<modeling>
 <generator>
  <i name="program" type="string">vasp </i>
  <i name="version" type="string">5.2.2  </i>
  <i name="subversion" type="string">15Apr09 complex  parallel </i>
  <i name="platform" type="string">LinuxIFC </i>
  <i name="date" type="string">2017 01 11 </i>
  <i name="time" type="string">13:31:29 </i>
 </generator>
 <incar>
  <i type="string" name="PREC">accurate</i>
  <i type="int" name="IALGO">    48</i>
  <i type="int" name="IBRION">     2</i>
  <i name="EDIFFG">      0.05000000</i>
  <i type="int" name="NSW">   191</i>
  <i type="int" name="ISIF">     2</i>
  <i name="ENCUT">    300.00000000</i>
  <i name="NELECT">    101.00000000</i>
  <i type="int" name="ISMEAR">     1</i>
  <i name="SIGMA">      0.20000000</i>
  <i type="logical" name="LWAVE"> F  </i>
  <i type="logical" name="LCHARG"> F  </i>
  <i type="logical" name="LPEAD"> F  </i>
  <i type="logical" name="LCALCPOL"> F  </i>
  <i type="logical" name="LCALCEPS"> F  </i>
  <v name="EFIELD_PEAD">      0.00000000      0.00000000      0.00000000</v>
  <i type="logical" name="LEFG"> F  </i>
 </incar>
 <kpoints>
  <generation param="Gamma">
   <v type="int" name="divisions">       1        1        1 </v>
   <v name="usershift">      0.00000000       0.00000000       0.00000000 </v>
   <v name="genvec1">      1.00000000       0.00000000       0.00000000 </v>
   <v name="genvec2">      0.00000000       1.00000000       0.00000000 </v>
   <v name="genvec3">      0.00000000       0.00000000       1.00000000 </v>
   <v name="shift">      0.00000000       0.00000000       0.00000000 </v>
  </generation>
  <varray name="kpointlist" >
   <v>       0.00000000       0.00000000       0.00000000 </v>
  </varray>
  <varray name="weights" >
   <v>       1.00000000 </v>
  </varray>
 </kpoints>
 <parameters>
  <separator name="general" >
   <i type="string" name="SYSTEM">unknown system</i>
   <i type="logical" name="LCOMPAT"> F  </i>
  </separator>
  <separator name="electronic" >
   <i type="string" name="PREC">accura</i>
   <i name="ENMAX">    300.00000000</i>
   <i name="ENAUG">    516.45600000</i>
   <i name="EDIFF">      0.00010000</i>
   <i type="int" name="IALGO">    48</i>
   <i type="int" name="IWAVPR">    11</i>
   <i type="int" name="NBANDS">    72</i>
   <i name="NELECT">    101.00000000</i>
   <separator name="electronic smearing" >
    <i type="int" name="ISMEAR">     1</i>
    <i name="SIGMA">      0.20000000</i>
   </separator>
   <separator name="electronic projectors" >
    <i type="logical" name="LREAL"> F  </i>
    <v name="ROPT">      0.00000000      0.00000000</v>
    <i type="int" name="LMAXPAW">  -100</i>
    <i type="int" name="LMAXMIX">     2</i>
   </separator>
   <separator name="electronic startup" >
    <i type="int" name="ISTART">     0</i>
    <i type="int" name="ICHARG">     2</i>
    <i type="int" name="INIWAV">     1</i>
   </separator>
   <separator name="electronic spin" >
    <i type="int" name="ISPIN">     1</i>
    <i type="logical" name="LNONCOLLINEAR"> F  </i>
    <v name="MAGMOM">      1.00000000      1.00000000      1.00000000      1.00000000      1.00000000      1.00000000      1.00000000      1.00000000      1.00000000      1.00000000      1.00000000      1.00000000      1.00000000      1.00000000      1.00000000      1.00000000      1.00000000      1.00000000      1.00000000      1.00000000
      1.00000000      1.00000000      1.00000000      1.00000000      1.00000000      1.00000000      1.00000000      1.00000000      1.00000000      1.00000000      1.00000000</v>
    <i name="NUPDOWN">     -1.00000000</i>
    <i type="logical" name="LSORBIT"> F  </i>
    <v name="SAXIS">      0.00000000      0.00000000      1.00000000</v>
    <i type="logical" name="LSPIRAL"> F  </i>
    <v name="QSPIRAL">      0.00000000      0.00000000      0.00000000</v>
    <i type="logical" name="LZEROZ"> F  </i>
   </separator>
   <separator name="electronic exchange-correlation" >
    <i type="logical" name="LASPH"> F  </i>
    <i type="logical" name="LMETAGGA"> F  </i>
   </separator>
   <separator name="electronic convergence" >
    <i type="int" name="NELM">    60</i>
    <i type="int" name="NELMDL">   -12</i>
    <i type="int" name="NELMIN">     2</i>
    <i name="ENINI">    300.00000000</i>
    <separator name="electronic convergence detail" >
     <i type="logical" name="LDIAG"> T  </i>
     <i name="WEIMIN">      0.00100000</i>
     <i name="EBREAK">      0.00000038</i>
     <i name="DEPER">      0.30000000</i>
     <i type="int" name="NRMM">     4</i>
     <i name="TIME">      0.40000000</i>
    </separator>
   </separator>
   <separator name="electronic mixer" >
    <i name="AMIX">      0.40000000</i>
    <i name="BMIX">      1.00000000</i>
    <i name="AMIN">      0.10000000</i>
    <i name="AMIX_MAG">      1.60000000</i>
    <i name="BMIX_MAG">      1.00000000</i>
    <separator name="electronic mixer details" >
     <i type="int" name="IMIX">     4</i>
     <i type="int" name="MAXMIX">   -45</i>
     <i name="WC">    100.00000000</i>
     <i type="int" name="INIMIX">     1</i>
     <i type="int" name="MIXPRE">     1</i>
     <i type="int" name="MREMOVE">     5</i>
    </separator>
   </separator>
   <separator name="electronic dipolcorrection" >
    <i type="logical" name="LDIPOL"> F  </i>
    <i type="logical" name="LMONO"> F  </i>
    <i type="int" name="IDIPOL">     0</i>
    <i name="EPSILON">      1.00000000</i>
    <v name="DIPOL">   -100.00000000   -100.00000000   -100.00000000</v>
    <i name="EFIELD">      0.00000000</i>
   </separator>
  </separator>
  <separator name="grids" >
   <i type="int" name="NGX">    48</i>
   <i type="int" name="NGY">    48</i>
   <i type="int" name="NGZ">    48</i>
   <i type="int" name="NGXF">    96</i>
   <i type="int" name="NGYF">    96</i>
   <i type="int" name="NGZF">    96</i>
   <i type="logical" name="ADDGRID"> F  </i>
  </separator>
  <separator name="ionic" >
   <i type="int" name="NSW">   191</i>
   <i type="int" name="IBRION">     2</i>
   <i type="int" name="ISIF">     2</i>
   <i name="PSTRESS">      0.00000000</i>
   <i name="EDIFFG">      0.05000000</i>
   <i type="int" name="NFREE">     1</i>
   <i name="POTIM">      0.50000000</i>
   <i name="SMASS">     -3.00000000</i>
  </separator>
  <separator name="ionic md" >
   <i name="TEBEG">      0.00010000</i>
   <i name="TEEND">      0.00010000</i>
   <i type="int" name="NBLOCK">     1</i>
   <i type="int" name="KBLOCK">   191</i>
   <i type="int" name="NPACO">   256</i>
   <i name="APACO">     16.00000000</i>
  </separator>
  <separator name="symmetry" >
   <i type="int" name="ISYM">     2</i>
   <i name="SYMPREC">      0.00001000</i>
  </separator>
  <separator name="dos" >
   <i type="logical" name="LORBIT"> F  </i>
   <v name="RWIGS">     -1.00000000     -1.00000000</v>
   <i type="int" name="NEDOS">   301</i>
   <i name="EMIN">     10.00000000</i>
   <i name="EMAX">    -10.00000000</i>
   <i name="EFERMI">      0.00000000</i>
  </separator>
  <separator name="writing" >
   <i type="int" name="NWRITE">     2</i>
   <i type="logical" name="LWAVE"> F  </i>
   <i type="logical" name="LCHARG"> F  </i>
   <i type="logical" name="LPARD"> F  </i>
   <i type="logical" name="LVTOT"> F  </i>
   <i type="logical" name="LELF"> F  </i>
   <i type="logical" name="LOPTICS"> F  </i>
   <v name="STM">      0.00000000      0.00000000      0.00000000      0.00000000      0.00000000</v>
  </separator>
  <separator name="performance" >
   <i type="int" name="NPAR">    12</i>
   <i type="int" name="NSIM">     4</i>
   <i type="int" name="NBLK">    32</i>
   <i type="logical" name="LPLANE"> T  </i>
   <i type="logical" name="LSCALAPACK"> F  </i>
   <i type="logical" name="LSCAAWARE"> F  </i>
   <i type="logical" name="LSCALU"> F  </i>
   <i type="logical" name="LASYNC"> F  </i>
  </separator>
  <separator name="miscellaneous" >
   <i type="int" name="IDIOT">     3</i>
   <i type="logical" name="LMUSIC"> F  </i>
   <v name="POMASS">     26.98200000     63.54600000</v>
   <i type="logical" name="LCORR"> T  </i>
  </separator>
  <i type="logical" name="LREAL_COMPAT"> F  </i>
  <i type="logical" name="GGA_COMPAT"> T  </i>
  <i type="logical" name="LBERRY"> F  </i>
  <i type="int" name="ICORELEVEL">     0</i>
  <i type="logical" name="LDAU"> F  </i>
  <i type="int" name="I_CONSTRAINED_M">     0</i>
  <separator name="electronic exchange-correlation" >
   <i type="string" name="GGA">--</i>
   <i type="int" name="VOSKOWN">     0</i>
   <i type="logical" name="LHFCALC"> F  </i>
   <i type="logical" name="LHFONE"> F  </i>
   <i type="logical" name="LRHFCALC"> F  </i>
   <i type="logical" name="LTHOMAS"> F  </i>
   <i type="logical" name="LMODELHF"> F  </i>
   <i name="ENCUTFOCK">      0.00000000</i>
   <i name="ENCUT4O">     -1.00000000</i>
   <i type="int" name="EXXOEP">     0</i>
   <i type="int" name="FOURORBIT">     0</i>
   <i name="AEXX">      0.00000000</i>
   <i name="HFALPHA">      0.00000000</i>
   <i name="ALDAX">      1.00000000</i>
   <i name="AGGAX">      1.00000000</i>
   <i name="ALDAC">      1.00000000</i>
   <i name="AGGAC">      1.00000000</i>
   <i type="int" name="NKREDX">     1</i>
   <i type="int" name="NKREDY">     1</i>
   <i type="int" name="NKREDZ">     1</i>
   <i type="logical" name="SHIFTRED"> F  </i>
   <i type="logical" name="ODDONLY"> F  </i>
   <i type="logical" name="EVENONLY"> F  </i>
   <i type="int" name="LMAXFOCK">     0</i>
   <i type="int" name="NMAXFOCKAE">     0</i>
   <i name="HFSCREEN">      0.00000000</i>
   <i name="HFSCREENC">      0.00000000</i>
  </separator>
  <separator name="model GW" >
   <i type="int" name="MODEL_GW">     0</i>
   <i name="MODEL_EPS0">     10.23666121</i>
   <i name="MODEL_ALPHA">      1.00000000</i>
  </separator>
  <separator name="linear response parameters" >
   <i type="logical" name="LEPSILON"> F  </i>
   <i type="logical" name="LRPA"> F  </i>
   <i type="logical" name="LNABLA"> F  </i>
   <i type="logical" name="LVEL"> F  </i>
   <i type="int" name="KINTER">     0</i>
   <i name="CSHIFT">      0.10000000</i>
   <i name="OMEGAMAX">     -1.00000000</i>
  </separator>
  <separator name="orbital magnetization" >
   <i type="logical" name="ORBITALMAG"> F  </i>
   <i type="logical" name="LMAGBLOCH"> F  </i>
   <i type="logical" name="LCHIMAG"> F  </i>
   <i type="logical" name="LGAUGE"> T  </i>
   <i type="int" name="MAGATOM">     0</i>
   <v name="MAGDIPOL">      0.00000000      0.00000000      0.00000000</v>
   <v name="AVECCONST">      0.00000000      0.00000000      0.00000000</v>
  </separator>
  <separator name="response functions" >
   <i type="logical" name="LRPA"> T  </i>
   <i type="logical" name="LTCTE"> F  </i>
   <i type="logical" name="LTETE"> F  </i>
   <i type="logical" name="L2ORDER"> F  </i>
   <i type="logical" name="LGWLF"> F  </i>
   <i name="ENCUTGW">    200.00000000</i>
   <i name="ENCUTGWSOFT">     -2.00000000</i>
   <i name="ENCUTLF">     -1.00000000</i>
   <i type="int" name="LMAXMP2">    -1</i>
   <i name="SCISSOR">      0.00000000</i>
   <i type="int" name="NOMEGA">     0</i>
   <i type="int" name="NOMEGAR">     0</i>
   <i type="int" name="NBANDSGW">    -1</i>
   <i type="int" name="NBANDSLF">    -1</i>
   <i type="int" name="NELM">     1</i>
   <i type="int" name="DIM">     3</i>
   <i type="int" name="ANTIRES">     0</i>
   <i type="logical" name="LUSEW"> F  </i>
   <i name="OMEGAMAX">    -30.00000000</i>
   <i name="OMEGATL">   -200.00000000</i>
   <i type="int" name="OMEGAGRID">     0</i>
   <i name="CSHIFT">     -0.10000000</i>
   <i type="logical" name="SELFENERGY"> F  </i>
   <i type="logical" name="LSPECTRAL"> F  </i>
   <i type="logical" name="ODDONLYGW"> F  </i>
   <i type="logical" name="EVENONLYGW"> F  </i>
   <i type="int" name="NKREDLFX">     1</i>
   <i type="int" name="NKREDLFY">     1</i>
   <i type="int" name="NKREDLFZ">     1</i>
   <i type="int" name="MAXMEM">  1024</i>
   <i type="int" name="TELESCOPE">     0</i>
  </separator>
 </parameters>
 <atominfo>
  <atoms>      31 </atoms>
  <types>       2 </types>
  <array name="atoms" >
   <dimension dim="1">ion</dimension>
   <field type="string">element</field>
   <field type="int">atomtype</field>
   <set>
    <rc><c>Al</c><c>   1</c></rc>
    <rc><c>Al</c><c>   1</c></rc>
    <rc><c>Al</c><c>   1</c></rc>
    <rc><c>Al</c><c>   1</c></rc>
    <rc><c>Al</c><c>   1</c></rc>
    <rc><c>Al</c><c>   1</c></rc>
    <rc><c>Al</c><c>   1</c></rc>
    <rc><c>Al</c><c>   1</c></rc>
    <rc><c>Al</c><c>   1</c></rc>
    <rc><c>Al</c><c>   1</c></rc>
    <rc><c>Al</c><c>   1</c></rc>
    <rc><c>Al</c><c>   1</c></rc>
    <rc><c>Al</c><c>   1</c></rc>
    <rc><c>Al</c><c>   1</c></rc>
    <rc><c>Al</c><c>   1</c></rc>
    <rc><c>Al</c><c>   1</c></rc>
    <rc><c>Al</c><c>   1</c></rc>
    <rc><c>Al</c><c>   1</c></rc>
    <rc><c>Al</c><c>   1</c></rc>
    <rc><c>Al</c><c>   1</c></rc>
    <rc><c>Al</c><c>   1</c></rc>
    <rc><c>Al</c><c>   1</c></rc>
    <rc><c>Al</c><c>   1</c></rc>
    <rc><c>Al</c><c>   1</c></rc>
    <rc><c>Al</c><c>   1</c></rc>
    <rc><c>Al</c><c>   1</c></rc>
    <rc><c>Al</c><c>   1</c></rc>
    <rc><c>Al</c><c>   1</c></rc>
    <rc><c>Al</c><c>   1</c></rc>
    <rc><c>Al</c><c>   1</c></rc>
    <rc><c>Cu</c><c>   2</c></rc>
   </set>
  </array>
  <array name="atomtypes" >
   <dimension dim="1">type</dimension>
   <field type="int">atomspertype</field>
   <field type="string">element</field>
   <field>mass</field>
   <field>valence</field>
   <field type="string">pseudopotential</field>
   <set>
    <rc><c>  30</c><c>Al</c><c>     26.98200000</c><c>      3.00000000</c><c> PAW_PBE Al 04Jan2001                   </c></rc>
    <rc><c>   1</c><c>Cu</c><c>     63.54600000</c><c>     11.00000000</c><c> PAW_PBE Cu 05Jan2001                   </c></rc>
   </set>
  </array>
 </atominfo>
 <structure name="initialpos" >
  <crystal>
   <varray name="basis" >
    <v>       8.08704000       0.00000000       0.00000000 </v>
    <v>       0.00000000       8.08704000       0.00000000 </v>
    <v>       0.00000000       0.00000000       8.08704000 </v>
   </varray>
   <i name="volume">    528.89416249 </i>
   <varray name="rec_basis" >
    <v>       0.12365464       0.00000000       0.00000000 </v>
    <v>       0.00000000       0.12365464       0.00000000 </v>
    <v>       0.00000000       0.00000000       0.12365464 </v>
   </varray>
  </crystal>
  <varray name="positions" >
   <v>       0.00000000       0.00000000       0.00000000 </v>
   <v>       0.25000000       0.00000000       0.25000000 </v>
   <v>       0.25000000       0.25000000       0.00000000 </v>
   <v>       0.00000000       0.25000000       0.25000000 </v>
   <v>       0.50000000       0.00000000       0.00000000 </v>
   <v>       0.75000000       0.00000000       0.25000000 </v>
   <v>       0.75000000       0.25000000       0.00000000 </v>
   <v>       0.00000000       0.50000000       0.00000000 </v>
   <v>       0.25000000       0.50000000       0.25000000 </v>
   <v>       0.25000000       0.75000000       0.00000000 </v>
   <v>       0.00000000       0.75000000       0.25000000 </v>
   <v>       0.50000000       0.50000000       0.00000000 </v>
   <v>       0.75000000       0.50000000       0.25000000 </v>
   <v>       0.75000000       0.75000000       0.00000000 </v>
   <v>       0.50000000       0.75000000       0.25000000 </v>
   <v>       0.00000000       0.00000000       0.50000000 </v>
   <v>       0.25000000       0.00000000       0.75000000 </v>
   <v>       0.00000000       0.25000000       0.75000000 </v>
   <v>       0.50000000       0.00000000       0.50000000 </v>
   <v>       0.75000000       0.00000000       0.75000000 </v>
   <v>       0.75000000       0.25000000       0.50000000 </v>
   <v>       0.50000000       0.25000000       0.75000000 </v>
   <v>       0.00000000       0.50000000       0.50000000 </v>
   <v>       0.25000000       0.50000000       0.75000000 </v>
   <v>       0.25000000       0.75000000       0.50000000 </v>
   <v>       0.00000000       0.75000000       0.75000000 </v>
   <v>       0.50000000       0.50000000       0.50000000 </v>
   <v>       0.75000000       0.50000000       0.75000000 </v>
   <v>       0.75000000       0.75000000       0.50000000 </v>
   <v>       0.50000000       0.75000000       0.75000000 </v>
   <v>       0.25000000       0.25000000       0.50000000 </v>
  </varray>
 </structure>
 <calculation>
  <scstep>
   <time name="diag">    0.15    0.15</time>
   <time name="diis">    0.35    0.35</time>
   <time name="orth">    0.01    0.01</time>
   <time name="total">    0.67    0.68</time>
   <energy>
    <i name="alphaZ">     15.76595319 </i>
    <i name="ewald">  -2790.72364793 </i>
    <i name="hartreedc">   -760.60153274 </i>
    <i name="XCdc">   -745.21804782 </i>
    <i name="pawpsdc">   2148.67993976 </i>
    <i name="pawaedc">  -1334.04649801 </i>
    <i name="eentropy">     -0.03128773 </i>
    <i name="bandstr">    775.17150118 </i>
    <i name="atom">   2997.07640482 </i>
    <i name="e_fr_energy">    306.07278473 </i>
    <i name="e_wo_entrp">    306.10407245 </i>
    <i name="e_0_energy">    306.08321397 </i>
   </energy>
  </scstep>
  <scstep>
   <time name="diag">    0.15    0.15</time>
   <time name="diis">    0.34    0.34</time>
   <time name="orth">    0.02    0.02</time>
   <time name="total">    0.51    0.51</time>
   <energy>
    <i name="e_fr_energy">    -21.53709265 </i>
    <i name="e_wo_entrp">    -21.54774035 </i>
    <i name="e_0_energy">    -21.54064188 </i>
   </energy>
  </scstep>
  <scstep>
   <time name="diag">    0.15    0.15</time>
   <time name="diis">    0.34    0.34</time>
   <time name="orth">    0.01    0.01</time>
   <time name="total">    0.50    0.51</time>
   <energy>
    <i name="e_fr_energy">    -72.94712081 </i>
    <i name="e_wo_entrp">    -72.89509376 </i>
    <i name="e_0_energy">    -72.92977846 </i>
   </energy>
  </scstep>
  <scstep>
   <time name="diag">    0.15    0.15</time>
   <time name="diis">    0.34    0.34</time>
   <time name="orth">    0.01    0.01</time>
   <time name="total">    0.50    0.50</time>
   <energy>
    <i name="e_fr_energy">    -89.01025201 </i>
    <i name="e_wo_entrp">    -89.02103134 </i>
    <i name="e_0_energy">    -89.01384512 </i>
   </energy>
  </scstep>
  <scstep>
   <time name="diag">    0.15    0.15</time>
   <time name="diis">    0.35    0.35</time>
   <time name="orth">    0.01    0.01</time>
   <time name="total">    0.50    0.51</time>
   <energy>
    <i name="e_fr_energy">    -97.25751832 </i>
    <i name="e_wo_entrp">    -97.22147169 </i>
    <i name="e_0_energy">    -97.24550278 </i>
   </energy>
  </scstep>
  <scstep>
   <time name="diag">    0.17    0.17</time>
   <time name="diis">    0.35    0.35</time>
   <time name="orth">    0.01    0.01</time>
   <time name="total">    0.53    0.53</time>
   <energy>
    <i name="e_fr_energy">   -101.20140336 </i>
    <i name="e_wo_entrp">   -101.17400528 </i>
    <i name="e_0_energy">   -101.19227067 </i>
   </energy>
  </scstep>
  <scstep>
   <time name="diag">    0.15    0.15</time>
   <time name="diis">    0.34    0.34</time>
   <time name="orth">    0.01    0.01</time>
   <time name="total">    0.50    0.50</time>
   <energy>
    <i name="e_fr_energy">   -103.20138303 </i>
    <i name="e_wo_entrp">   -103.16496690 </i>
    <i name="e_0_energy">   -103.18924432 </i>
   </energy>
  </scstep>
  <scstep>
   <time name="diag">    0.15    0.15</time>
   <time name="diis">    0.34    0.34</time>
   <time name="orth">    0.01    0.01</time>
   <time name="total">    0.50    0.51</time>
   <energy>
    <i name="e_fr_energy">   -104.35844081 </i>
    <i name="e_wo_entrp">   -104.30813770 </i>
    <i name="e_0_energy">   -104.34167311 </i>
   </energy>
  </scstep>
  <scstep>
   <time name="diag">    0.15    0.15</time>
   <time name="diis">    0.77    0.79</time>
   <time name="orth">    0.01    0.01</time>
   <time name="total">    0.93    0.95</time>
   <energy>
    <i name="e_fr_energy">   -105.92934232 </i>
    <i name="e_wo_entrp">   -105.87884229 </i>
    <i name="e_0_energy">   -105.91250898 </i>
   </energy>
  </scstep>
  <scstep>
   <time name="diag">    0.15    0.15</time>
   <time name="diis">    0.70    0.70</time>
   <time name="orth">    0.01    0.01</time>
   <time name="total">    0.86    0.86</time>
   <energy>
    <i name="e_fr_energy">   -106.05300275 </i>
    <i name="e_wo_entrp">   -106.00865169 </i>
    <i name="e_0_energy">   -106.03821906 </i>
   </energy>
  </scstep>
  <scstep>
   <time name="diag">    0.15    0.15</time>
   <time name="diis">    0.62    0.62</time>
   <time name="orth">    0.01    0.01</time>
   <time name="total">    0.78    0.78</time>
   <energy>
    <i name="e_fr_energy">   -106.06627910 </i>
    <i name="e_wo_entrp">   -106.02225645 </i>
    <i name="e_0_energy">   -106.05160489 </i>
   </energy>
  </scstep>
  <scstep>
   <time name="diag">    0.15    0.15</time>
   <time name="diis">    0.55    0.55</time>
   <time name="orth">    0.01    0.01</time>
   <time name="total">    0.84    1.12</time>
   <energy>
    <i name="e_fr_energy">   -106.06753787 </i>
    <i name="e_wo_entrp">   -106.02355155 </i>
    <i name="e_0_energy">   -106.05287576 </i>
   </energy>
  </scstep>
  <scstep>
   <time name="diag">    0.15    0.15</time>
   <time name="diis">    0.96    0.96</time>
   <time name="orth">    0.01    0.01</time>
   <time name="total">    1.41    1.41</time>
   <energy>
    <i name="e_fr_energy">   -141.14085687 </i>
    <i name="e_wo_entrp">   -141.16158292 </i>
    <i name="e_0_energy">   -141.14776556 </i>
   </energy>
  </scstep>
  <scstep>
   <time name="diag">    0.15    0.15</time>
   <time name="diis">    0.61    0.62</time>
   <time name="orth">    0.01    0.01</time>
   <time name="total">    1.07    1.07</time>
   <energy>
    <i name="e_fr_energy">   -108.37916990 </i>
    <i name="e_wo_entrp">   -108.37742279 </i>
    <i name="e_0_energy">   -108.37858753 </i>
   </energy>
  </scstep>
  <scstep>
   <time name="diag">    0.15    0.15</time>
   <time name="diis">    0.63    0.63</time>
   <time name="orth">    0.01    0.01</time>
   <time name="total">    1.08    1.08</time>
   <energy>
    <i name="e_fr_energy">   -101.04807855 </i>
    <i name="e_wo_entrp">   -101.04184317 </i>
    <i name="e_0_energy">   -101.04600009 </i>
   </energy>
  </scstep>
  <scstep>
   <time name="diag">    0.15    0.15</time>
   <time name="diis">    0.62    0.62</time>
   <time name="orth">    0.01    0.01</time>
   <time name="total">    1.07    1.07</time>
   <energy>
    <i name="e_fr_energy">   -100.95163759 </i>
    <i name="e_wo_entrp">   -100.95525690 </i>
    <i name="e_0_energy">   -100.95284403 </i>
   </energy>
  </scstep>
  <scstep>
   <time name="diag">    0.15    0.15</time>
   <time name="diis">    0.74    0.74</time>
   <time name="orth">    0.01    0.01</time>
   <time name="total">    1.20    1.20</time>
   <energy>
    <i name="e_fr_energy">   -100.63251869 </i>
    <i name="e_wo_entrp">   -100.63435174 </i>
    <i name="e_0_energy">   -100.63312971 </i>
   </energy>
  </scstep>
  <scstep>
   <time name="diag">    0.15    0.15</time>
   <time name="diis">    0.68    0.68</time>
   <time name="orth">    0.01    0.01</time>
   <time name="total">    1.13    1.14</time>
   <energy>
    <i name="e_fr_energy">   -100.60014062 </i>
    <i name="e_wo_entrp">   -100.59637640 </i>
    <i name="e_0_energy">   -100.59888588 </i>
   </energy>
  </scstep>
  <scstep>
   <time name="diag">    0.15    0.15</time>
   <time name="diis">    0.72    0.72</time>
   <time name="orth">    0.01    0.01</time>
   <time name="total">    1.18    1.18</time>
   <energy>
    <i name="e_fr_energy">   -100.56643952 </i>
    <i name="e_wo_entrp">   -100.56220529 </i>
    <i name="e_0_energy">   -100.56502811 </i>
   </energy>
  </scstep>
  <scstep>
   <time name="diag">    0.15    0.15</time>
   <time name="diis">    0.72    0.72</time>
   <time name="orth">    0.01    0.01</time>
   <time name="total">    1.18    1.18</time>
   <energy>
    <i name="e_fr_energy">   -100.55953521 </i>
    <i name="e_wo_entrp">   -100.55378206 </i>
    <i name="e_0_energy">   -100.55761749 </i>
   </energy>
  </scstep>
  <scstep>
   <time name="diag">    0.15    0.15</time>
   <time name="diis">    0.56    0.56</time>
   <time name="orth">    0.01    0.01</time>
   <time name="total">    1.02    1.02</time>
   <energy>
    <i name="e_fr_energy">   -100.55918403 </i>
    <i name="e_wo_entrp">   -100.55362426 </i>
    <i name="e_0_energy">   -100.55733077 </i>
   </energy>
  </scstep>
  <scstep>
   <time name="diag">    0.15    0.15</time>
   <time name="diis">    0.58    0.58</time>
   <time name="orth">    0.01    0.01</time>
   <time name="total">    1.03    1.04</time>
   <energy>
    <i name="e_fr_energy">   -100.55900778 </i>
    <i name="e_wo_entrp">   -100.55357250 </i>
    <i name="e_0_energy">   -100.55719602 </i>
   </energy>
  </scstep>
  <scstep>
   <time name="diag">    0.15    0.15</time>
   <time name="diis">    0.44    0.44</time>
   <time name="orth">    0.01    0.01</time>
   <time name="total">    0.77    0.77</time>
   <energy>
    <i name="alphaZ">     15.76595319 </i>
    <i name="ewald">  -2790.72364793 </i>
    <i name="hartreedc">   -731.14287488 </i>
    <i name="XCdc">   -742.53985988 </i>
    <i name="pawpsdc">   2141.29721862 </i>
    <i name="pawaedc">  -1327.05558426 </i>
    <i name="eentropy">     -0.00538412 </i>
    <i name="bandstr">    336.76877522 </i>
    <i name="atom">   2997.07640482 </i>
    <i name="e_fr_energy">   -100.55899922 </i>
    <i name="e_wo_entrp">   -100.55361511 </i>
    <i name="e_0_energy">   -100.55720452 </i>
   </energy>
  </scstep>
  <structure>
   <crystal>
    <varray name="basis" >
     <v>       8.08704000       0.00000000       0.00000000 </v>
     <v>       0.00000000       8.08704000       0.00000000 </v>
     <v>       0.00000000       0.00000000       8.08704000 </v>
    </varray>
    <i name="volume">    528.89416249 </i>
    <varray name="rec_basis" >
     <v>       0.12365464       0.00000000       0.00000000 </v>
     <v>       0.00000000       0.12365464       0.00000000 </v>
     <v>       0.00000000       0.00000000       0.12365464 </v>
    </varray>
   </crystal>
   <varray name="positions" >
    <v>       0.00000000       0.00000000       0.00000000 </v>
    <v>       0.25000000       0.00000000       0.25000000 </v>
    <v>       0.25000000       0.25000000       0.00000000 </v>
    <v>       0.00000000       0.25000000       0.25000000 </v>
    <v>       0.50000000       0.00000000       0.00000000 </v>
    <v>       0.75000000       0.00000000       0.25000000 </v>
    <v>       0.75000000       0.25000000       0.00000000 </v>
    <v>       0.00000000       0.50000000       0.00000000 </v>
    <v>       0.25000000       0.50000000       0.25000000 </v>
    <v>       0.25000000       0.75000000       0.00000000 </v>
    <v>       0.00000000       0.75000000       0.25000000 </v>
    <v>       0.50000000       0.50000000       0.00000000 </v>
    <v>       0.75000000       0.50000000       0.25000000 </v>
    <v>       0.75000000       0.75000000       0.00000000 </v>
    <v>       0.50000000       0.75000000       0.25000000 </v>
    <v>       0.00000000       0.00000000       0.50000000 </v>
    <v>       0.25000000       0.00000000       0.75000000 </v>
    <v>       0.00000000       0.25000000       0.75000000 </v>
    <v>       0.50000000       0.00000000       0.50000000 </v>
    <v>       0.75000000       0.00000000       0.75000000 </v>
    <v>       0.75000000       0.25000000       0.50000000 </v>
    <v>       0.50000000       0.25000000       0.75000000 </v>
    <v>       0.00000000       0.50000000       0.50000000 </v>
    <v>       0.25000000       0.50000000       0.75000000 </v>
    <v>       0.25000000       0.75000000       0.50000000 </v>
    <v>       0.00000000       0.75000000       0.75000000 </v>
    <v>       0.50000000       0.50000000       0.50000000 </v>
    <v>       0.75000000       0.50000000       0.75000000 </v>
    <v>       0.75000000       0.75000000       0.50000000 </v>
    <v>       0.50000000       0.75000000       0.75000000 </v>
    <v>       0.25000000       0.25000000       0.50000000 </v>
   </varray>
  </structure>
  <varray name="forces" >
   <v>      -0.24393296      -0.29351854      -0.11941142 </v>
   <v>      -0.05282044       0.03460567       0.04413274 </v>
   <v>      -0.06304397       0.00000000       0.06586585 </v>
   <v>       0.10035126       0.00000000      -0.02812367 </v>
   <v>       0.08701480      -0.10715616      -0.09446960 </v>
   <v>       0.09446960      -0.10715616      -0.08701480 </v>
   <v>       0.15539538       0.00000000      -0.15539538 </v>
   <v>      -0.24393296       0.29351854      -0.11941142 </v>
   <v>      -0.05282044      -0.03460567       0.04413274 </v>
   <v>      -0.11877510       0.00000000      -0.08594438 </v>
   <v>      -0.11814138       0.00000000      -0.10776671 </v>
   <v>       0.08701480       0.10715616      -0.09446960 </v>
   <v>       0.09446960       0.10715616      -0.08701480 </v>
   <v>       0.36814058       0.00000000      -0.36814058 </v>
   <v>      -0.02688972       0.00000000       0.02688972 </v>
   <v>       0.06070295      -0.00953613       0.01079270 </v>
   <v>      -0.01079270      -0.00953613      -0.06070295 </v>
   <v>      -0.17483261       0.00000000       0.17483261 </v>
   <v>      -0.04413274       0.03460567       0.05282044 </v>
   <v>       0.11941142      -0.29351854       0.24393296 </v>
   <v>      -0.06586585       0.00000000       0.06304397 </v>
   <v>       0.02812367       0.00000000      -0.10035126 </v>
   <v>       0.06070295       0.00953613       0.01079270 </v>
   <v>      -0.01079270       0.00953613      -0.06070295 </v>
   <v>       0.00128450       0.00000000      -0.00128450 </v>
   <v>      -0.34493311       0.00000000       0.34493311 </v>
   <v>      -0.04413274      -0.03460567       0.05282044 </v>
   <v>       0.11941142       0.29351854       0.24393296 </v>
   <v>       0.08594438       0.00000000       0.11877510 </v>
   <v>       0.10776671       0.00000000       0.11814138 </v>
   <v>       0.04563541       0.00000000      -0.04563541 </v>
  </varray>
  <varray name="stress" >
   <v>     -26.52512476       0.00000000      -0.46061590 </v>
   <v>       0.00000000     -23.24785833       0.00000000 </v>
   <v>      -0.46061590       0.00000000     -26.52512476 </v>
  </varray>
  <energy>
   <i name="e_fr_energy">   -100.55899922 </i>
   <i name="e_wo_entrp">   -100.55720452 </i>
   <i name="e_0_energy">     -0.00538412 </i>
  </energy>
  <time name="totalsc">   21.25   21.58</time>
 </calculation>
 <calculation>
  <scstep>
   <time name="diag">    0.15    0.15</time>
   <time name="diis">    0.62    0.62</time>
   <time name="orth">    0.01    0.01</time>
   <time name="total">    1.08    1.08</time>
   <energy>
    <i name="alphaZ">     15.76595319 </i>
    <i name="ewald">  -2790.62841481 </i>
    <i name="hartreedc">   -731.17788610 </i>
    <i name="XCdc">   -742.52493854 </i>
    <i name="pawpsdc">   2141.37212223 </i>
    <i name="pawaedc">  -1327.13677167 </i>
    <i name="eentropy">     -0.00631491 </i>
    <i name="bandstr">    336.63155397 </i>
    <i name="atom">   2997.07640482 </i>
    <i name="e_fr_energy">   -100.62829181 </i>
    <i name="e_wo_entrp">   -100.62197690 </i>
    <i name="e_0_energy">   -100.62618684 </i>
   </energy>
  </scstep>
  <scstep>
   <time name="diag">    0.15    0.15</time>
   <time name="diis">    0.61    0.62</time>
   <time name="orth">    0.01    0.01</time>
   <time name="total">    1.07    1.07</time>
   <energy>
    <i name="e_fr_energy">   -100.62254463 </i>
    <i name="e_wo_entrp">   -100.61821059 </i>
    <i name="e_0_energy">   -100.62109995 </i>
   </energy>
  </scstep>
  <scstep>
   <time name="diag">    0.15    0.15</time>
   <time name="diis">    0.64    0.64</time>
   <time name="orth">    0.01    0.01</time>
   <time name="total">    1.10    1.10</time>
   <energy>
    <i name="e_fr_energy">   -100.62183889 </i>
    <i name="e_wo_entrp">   -100.61568489 </i>
    <i name="e_0_energy">   -100.61978756 </i>
   </energy>
  </scstep>
  <scstep>
   <time name="diag">    0.15    0.15</time>
   <time name="diis">    0.55    0.55</time>
   <time name="orth">    0.01    0.01</time>
   <time name="total">    1.00    1.00</time>
   <energy>
    <i name="e_fr_energy">   -100.62158075 </i>
    <i name="e_wo_entrp">   -100.61555076 </i>
    <i name="e_0_energy">   -100.61957075 </i>
   </energy>
  </scstep>
  <scstep>
   <time name="diag">    0.15    0.15</time>
   <time name="diis">    0.45    0.45</time>
   <time name="orth">    0.01    0.01</time>
   <time name="total">    0.77    0.77</time>
   <energy>
    <i name="alphaZ">     15.76595319 </i>
    <i name="ewald">  -2790.62841481 </i>
    <i name="hartreedc">   -731.03637249 </i>
    <i name="XCdc">   -742.52514964 </i>
    <i name="pawpsdc">   2141.22456096 </i>
    <i name="pawaedc">  -1326.98223118 </i>
    <i name="eentropy">     -0.00599764 </i>
    <i name="bandstr">    336.48970257 </i>
    <i name="atom">   2997.07640482 </i>
    <i name="e_fr_energy">   -100.62154421 </i>
    <i name="e_wo_entrp">   -100.61554658 </i>
    <i name="e_0_energy">   -100.61954500 </i>
   </energy>
  </scstep>
  <structure>
   <crystal>
    <varray name="basis" >
     <v>       8.08704000       0.00000000       0.00000000 </v>
     <v>       0.00000000       8.08704000       0.00000000 </v>
     <v>       0.00000000       0.00000000       8.08704000 </v>
    </varray>
    <i name="volume">    528.89416249 </i>
    <varray name="rec_basis" >
     <v>       0.12365464       0.00000000       0.00000000 </v>
     <v>       0.00000000       0.12365464       0.00000000 </v>
     <v>       0.00000000       0.00000000       0.12365464 </v>
    </varray>
   </crystal>
   <varray name="positions" >
    <v>      -0.00145516      -0.00175096      -0.00071234 </v>
    <v>       0.24968490       0.00020644       0.25026327 </v>
    <v>       0.24962392       0.25000000       0.00039292 </v>
    <v>       0.00059864       0.25000000       0.24983223 </v>
    <v>       0.50051908      -0.00063923      -0.00056355 </v>
    <v>       0.75056355      -0.00063923       0.24948092 </v>
    <v>       0.75092700       0.25000000      -0.00092700 </v>
    <v>      -0.00145516       0.50175096      -0.00071234 </v>
    <v>       0.24968490       0.49979356       0.25026327 </v>
    <v>       0.24929146       0.75000000      -0.00051270 </v>
    <v>      -0.00070476       0.75000000       0.24935713 </v>
    <v>       0.50051908       0.50063923      -0.00056355 </v>
    <v>       0.75056355       0.50063923       0.24948092 </v>
    <v>       0.75219612       0.75000000      -0.00219612 </v>
    <v>       0.49983959       0.75000000       0.25016041 </v>
    <v>       0.00036212      -0.00005689       0.50006438 </v>
    <v>       0.24993562      -0.00005689       0.74963788 </v>
    <v>      -0.00104295       0.25000000       0.75104295 </v>
    <v>       0.49973673       0.00020644       0.50031510 </v>
    <v>       0.75071234      -0.00175096       0.75145516 </v>
    <v>       0.74960708       0.25000000       0.50037608 </v>
    <v>       0.50016777       0.25000000       0.74940136 </v>
    <v>       0.00036212       0.50005689       0.50006438 </v>
    <v>       0.24993562       0.50005689       0.74963788 </v>
    <v>       0.25000766       0.75000000       0.49999234 </v>
    <v>      -0.00205767       0.75000000       0.75205767 </v>
    <v>       0.49973673       0.49979356       0.50031510 </v>
    <v>       0.75071234       0.50175096       0.75145516 </v>
    <v>       0.75051270       0.75000000       0.50070854 </v>
    <v>       0.50064287       0.75000000       0.75070476 </v>
    <v>       0.25027223       0.25000000       0.49972777 </v>
   </varray>
  </structure>
  <varray name="forces" >
   <v>      -0.14136691      -0.21466253      -0.05182601 </v>
   <v>      -0.07937656      -0.00602630      -0.01635794 </v>
   <v>      -0.08062958       0.00000000       0.03571799 </v>
   <v>       0.07561084       0.00000000      -0.03641389 </v>
   <v>       0.07857776      -0.10427800      -0.08436656 </v>
   <v>       0.08436656      -0.10427800      -0.07857776 </v>
   <v>       0.11853040       0.00000000      -0.11853040 </v>
   <v>      -0.14136691       0.21466253      -0.05182601 </v>
   <v>      -0.07937656       0.00602630      -0.01635794 </v>
   <v>      -0.09100376       0.00000000      -0.06075202 </v>
   <v>      -0.09498462       0.00000000      -0.08178310 </v>
   <v>       0.07857776       0.10427800      -0.08436656 </v>
   <v>       0.08436656       0.10427800      -0.07857776 </v>
   <v>       0.21826708       0.00000000      -0.21826708 </v>
   <v>       0.00266435       0.00000000      -0.00266435 </v>
   <v>       0.03658931       0.00005641       0.02535594 </v>
   <v>      -0.02535594       0.00005641      -0.03658931 </v>
   <v>      -0.12536988       0.00000000       0.12536988 </v>
   <v>       0.01635794      -0.00602630       0.07937656 </v>
   <v>       0.05182601      -0.21466253       0.14136691 </v>
   <v>      -0.03571799       0.00000000       0.08062958 </v>
   <v>       0.03641389       0.00000000      -0.07561084 </v>
   <v>       0.03658931      -0.00005641       0.02535594 </v>
   <v>      -0.02535594      -0.00005641      -0.03658931 </v>
   <v>      -0.00593475       0.00000000       0.00593475 </v>
   <v>      -0.22681194       0.00000000       0.22681194 </v>
   <v>       0.01635794       0.00602630       0.07937656 </v>
   <v>       0.05182601       0.21466253       0.14136691 </v>
   <v>       0.06075202       0.00000000       0.09100376 </v>
   <v>       0.08178310       0.00000000       0.09498462 </v>
   <v>       0.02319452       0.00000000      -0.02319452 </v>
  </varray>
  <varray name="stress" >
   <v>     -26.66384644       0.00000000      -0.51282874 </v>
   <v>       0.00000000     -24.38116267       0.00000000 </v>
   <v>      -0.51282874       0.00000000     -26.66384644 </v>
  </varray>
  <energy>
   <i name="e_fr_energy">   -100.62154421 </i>
   <i name="e_wo_entrp">   -100.61954500 </i>
   <i name="e_0_energy">     -0.00599764 </i>
  </energy>
  <time name="totalsc">    6.47    6.48</time>
 </calculation>
 <calculation>
  <scstep>
   <time name="diag">    0.15    0.15</time>
   <time name="diis">    0.60    0.61</time>
   <time name="orth">    0.01    0.01</time>
   <time name="total">    1.06    1.06</time>
   <energy>
    <i name="alphaZ">     15.76595319 </i>
    <i name="ewald">  -2789.57272511 </i>
    <i name="hartreedc">   -731.52633997 </i>
    <i name="XCdc">   -742.48975973 </i>
    <i name="pawpsdc">   2141.23145415 </i>
    <i name="pawaedc">  -1326.98541900 </i>
    <i name="eentropy">      0.00871063 </i>
    <i name="bandstr">    335.78620508 </i>
    <i name="atom">   2997.07640482 </i>
    <i name="e_fr_energy">   -100.70551594 </i>
    <i name="e_wo_entrp">   -100.71422657 </i>
    <i name="e_0_energy">   -100.70841948 </i>
   </energy>
  </scstep>
  <scstep>
   <time name="diag">    0.15    0.15</time>
   <time name="diis">    0.61    0.61</time>
   <time name="orth">    0.01    0.01</time>
   <time name="total">    1.07    1.07</time>
   <energy>
    <i name="e_fr_energy">   -100.67655530 </i>
    <i name="e_wo_entrp">   -100.69210711 </i>
    <i name="e_0_energy">   -100.68173924 </i>
   </energy>
  </scstep>
  <scstep>
   <time name="diag">    0.15    0.15</time>
   <time name="diis">    0.67    0.67</time>
   <time name="orth">    0.01    0.01</time>
   <time name="total">    1.13    1.13</time>
   <energy>
    <i name="e_fr_energy">   -100.67356528 </i>
    <i name="e_wo_entrp">   -100.68517338 </i>
    <i name="e_0_energy">   -100.67743464 </i>
   </energy>
  </scstep>
  <scstep>
   <time name="diag">    0.15    0.15</time>
   <time name="diis">    0.61    0.61</time>
   <time name="orth">    0.01    0.01</time>
   <time name="total">    1.07    1.07</time>
   <energy>
    <i name="e_fr_energy">   -100.67247671 </i>
    <i name="e_wo_entrp">   -100.68424689 </i>
    <i name="e_0_energy">   -100.67640010 </i>
   </energy>
  </scstep>
  <scstep>
   <time name="diag">    0.15    0.15</time>
   <time name="diis">    0.58    0.58</time>
   <time name="orth">    0.01    0.01</time>
   <time name="total">    1.04    1.04</time>
   <energy>
    <i name="e_fr_energy">   -100.67227946 </i>
    <i name="e_wo_entrp">   -100.68408599 </i>
    <i name="e_0_energy">   -100.67621497 </i>
   </energy>
  </scstep>
  <scstep>
   <time name="diag">    0.15    0.15</time>
   <time name="diis">    0.46    0.46</time>
   <time name="orth">    0.01    0.01</time>
   <time name="total">    0.79    0.79</time>
   <energy>
    <i name="alphaZ">     15.76595319 </i>
    <i name="ewald">  -2789.57272511 </i>
    <i name="hartreedc">   -731.38091189 </i>
    <i name="XCdc">   -742.47705889 </i>
    <i name="pawpsdc">   2141.27284789 </i>
    <i name="pawaedc">  -1327.02056535 </i>
    <i name="eentropy">      0.01181146 </i>
    <i name="bandstr">    335.65196009 </i>
    <i name="atom">   2997.07640482 </i>
    <i name="e_fr_energy">   -100.67228378 </i>
    <i name="e_wo_entrp">   -100.68409525 </i>
    <i name="e_0_energy">   -100.67622094 </i>
   </energy>
  </scstep>
  <structure>
   <crystal>
    <varray name="basis" >
     <v>       8.08704000       0.00000000       0.00000000 </v>
     <v>       0.00000000       8.08704000       0.00000000 </v>
     <v>       0.00000000       0.00000000       8.08704000 </v>
    </varray>
    <i name="volume">    528.89416249 </i>
    <varray name="rec_basis" >
     <v>       0.12365464       0.00000000       0.00000000 </v>
     <v>       0.00000000       0.12365464       0.00000000 </v>
     <v>       0.00000000       0.00000000       0.12365464 </v>
    </varray>
   </crystal>
   <varray name="positions" >
    <v>      -0.00448813      -0.00540046      -0.00219706 </v>
    <v>       0.24902815       0.00063671       0.25081200 </v>
    <v>       0.24884005       0.25000000       0.00121187 </v>
    <v>       0.00184637       0.25000000       0.24948255 </v>
    <v>       0.50160099      -0.00197157      -0.00173815 </v>
    <v>       0.75173815      -0.00197157       0.24839901 </v>
    <v>       0.75285913       0.25000000      -0.00285913 </v>
    <v>      -0.00448813       0.50540046      -0.00219706 </v>
    <v>       0.24902815       0.49936329       0.25081200 </v>
    <v>       0.24781465       0.75000000      -0.00158129 </v>
    <v>      -0.00217369       0.75000000       0.24801720 </v>
    <v>       0.50160099       0.50197157      -0.00173815 </v>
    <v>       0.75173815       0.50197157       0.24839901 </v>
    <v>       0.75677344       0.75000000      -0.00677344 </v>
    <v>       0.49950525       0.75000000       0.25049475 </v>
    <v>       0.00111688      -0.00017546       0.50019858 </v>
    <v>       0.24980142      -0.00017546       0.74888312 </v>
    <v>      -0.00321675       0.25000000       0.75321675 </v>
    <v>       0.49918800       0.00063671       0.50097185 </v>
    <v>       0.75219706      -0.00540046       0.75448813 </v>
    <v>       0.74878813       0.25000000       0.50115995 </v>
    <v>       0.50051745       0.25000000       0.74815363 </v>
    <v>       0.00111688       0.50017546       0.50019858 </v>
    <v>       0.24980142       0.50017546       0.74888312 </v>
    <v>       0.25002363       0.75000000       0.49997637 </v>
    <v>      -0.00634644       0.75000000       0.75634644 </v>
    <v>       0.49918800       0.49936329       0.50097185 </v>
    <v>       0.75219706       0.50540046       0.75448813 </v>
    <v>       0.75158129       0.75000000       0.50218535 </v>
    <v>       0.50198280       0.75000000       0.75217369 </v>
    <v>       0.25083965       0.25000000       0.49916035 </v>
   </varray>
  </structure>
  <varray name="forces" >
   <v>       0.08348003      -0.06322883       0.08812181 </v>
   <v>      -0.12762266      -0.07299675      -0.14244521 </v>
   <v>      -0.09148715       0.00000000       0.00021695 </v>
   <v>       0.03031245       0.00000000      -0.05491431 </v>
   <v>       0.05907229      -0.08328357      -0.05487762 </v>
   <v>       0.05487762      -0.08328357      -0.05907229 </v>
   <v>       0.01382929       0.00000000      -0.01382929 </v>
   <v>       0.08348003       0.06322883       0.08812181 </v>
   <v>      -0.12762266       0.07299675      -0.14244521 </v>
   <v>      -0.05198196       0.00000000      -0.01466043 </v>
   <v>      -0.03686834       0.00000000      -0.03349298 </v>
   <v>       0.05907229       0.08328357      -0.05487762 </v>
   <v>       0.05487762       0.08328357      -0.05907229 </v>
   <v>      -0.11172120       0.00000000       0.11172120 </v>
   <v>       0.05357453       0.00000000      -0.05357453 </v>
   <v>      -0.01517345       0.00421056       0.06358021 </v>
   <v>      -0.06358021       0.00421056       0.01517345 </v>
   <v>      -0.00856192       0.00000000       0.00856192 </v>
   <v>       0.14244521      -0.07299675       0.12762266 </v>
   <v>      -0.08812181      -0.06322883      -0.08348003 </v>
   <v>      -0.00021695       0.00000000       0.09148715 </v>
   <v>       0.05491431       0.00000000      -0.03031245 </v>
   <v>      -0.01517345      -0.00421056       0.06358021 </v>
   <v>      -0.06358021      -0.00421056       0.01517345 </v>
   <v>      -0.02824808       0.00000000       0.02824808 </v>
   <v>       0.05060252       0.00000000      -0.05060252 </v>
   <v>       0.14244521       0.07299675       0.12762266 </v>
   <v>      -0.08812181       0.06322883      -0.08348003 </v>
   <v>       0.01466043       0.00000000       0.05198196 </v>
   <v>       0.03349298       0.00000000       0.03686834 </v>
   <v>      -0.01305494       0.00000000       0.01305494 </v>
  </varray>
  <varray name="stress" >
   <v>     -25.24060399       0.00000000      -0.73934550 </v>
   <v>       0.00000000     -24.29562659       0.00000000 </v>
   <v>      -0.73934550       0.00000000     -25.24060399 </v>
  </varray>
  <energy>
   <i name="e_fr_energy">   -100.67228378 </i>
   <i name="e_wo_entrp">   -100.67622094 </i>
   <i name="e_0_energy">      0.01181146 </i>
  </energy>
  <time name="totalsc">    7.62    7.63</time>
 </calculation>
 <calculation>
  <scstep>
   <time name="diag">    0.15    0.15</time>
   <time name="diis">    0.61    0.64</time>
   <time name="orth">    0.01    0.01</time>
   <time name="total">    1.06    1.10</time>
   <energy>
    <i name="alphaZ">     15.76595319 </i>
    <i name="ewald">  -2790.05519724 </i>
    <i name="hartreedc">   -730.70653714 </i>
    <i name="XCdc">   -742.45338944 </i>
    <i name="pawpsdc">   2141.31333534 </i>
    <i name="pawaedc">  -1327.06259332 </i>
    <i name="eentropy">      0.02186703 </i>
    <i name="bandstr">    335.40391553 </i>
    <i name="atom">   2997.07640482 </i>
    <i name="e_fr_energy">   -100.69624123 </i>
    <i name="e_wo_entrp">   -100.71810826 </i>
    <i name="e_0_energy">   -100.70353024 </i>
   </energy>
  </scstep>
  <scstep>
   <time name="diag">    0.15    0.15</time>
   <time name="diis">    0.63    0.63</time>
   <time name="orth">    0.01    0.01</time>
   <time name="total">    1.09    1.09</time>
   <energy>
    <i name="e_fr_energy">   -100.69289863 </i>
    <i name="e_wo_entrp">   -100.71343570 </i>
    <i name="e_0_energy">   -100.69974432 </i>
   </energy>
  </scstep>
  <scstep>
   <time name="diag">    0.15    0.15</time>
   <time name="diis">    0.63    0.63</time>
   <time name="orth">    0.01    0.01</time>
   <time name="total">    1.09    1.09</time>
   <energy>
    <i name="e_fr_energy">   -100.69267456 </i>
    <i name="e_wo_entrp">   -100.71187780 </i>
    <i name="e_0_energy">   -100.69907564 </i>
   </energy>
  </scstep>
  <scstep>
   <time name="diag">    0.15    0.15</time>
   <time name="diis">    0.49    0.49</time>
   <time name="orth">    0.01    0.01</time>
   <time name="total">    0.94    0.94</time>
   <energy>
    <i name="e_fr_energy">   -100.69256764 </i>
    <i name="e_wo_entrp">   -100.71188303 </i>
    <i name="e_0_energy">   -100.69900610 </i>
   </energy>
  </scstep>
  <scstep>
   <time name="diag">    0.15    0.15</time>
   <time name="diis">    0.43    0.43</time>
   <time name="orth">    0.01    0.01</time>
   <time name="total">    0.76    0.76</time>
   <energy>
    <i name="alphaZ">     15.76595319 </i>
    <i name="ewald">  -2790.05519724 </i>
    <i name="hartreedc">   -730.76764732 </i>
    <i name="XCdc">   -742.44373162 </i>
    <i name="pawpsdc">   2141.10149467 </i>
    <i name="pawaedc">  -1326.85060588 </i>
    <i name="eentropy">      0.01929767 </i>
    <i name="bandstr">    335.46147909 </i>
    <i name="atom">   2997.07640482 </i>
    <i name="e_fr_energy">   -100.69255261 </i>
    <i name="e_wo_entrp">   -100.71185028 </i>
    <i name="e_0_energy">   -100.69898516 </i>
   </energy>
  </scstep>
  <structure>
   <crystal>
    <varray name="basis" >
     <v>       8.08704000       0.00000000       0.00000000 </v>
     <v>       0.00000000       8.08704000       0.00000000 </v>
     <v>       0.00000000       0.00000000       8.08704000 </v>
    </varray>
    <i name="volume">    528.89416249 </i>
    <varray name="rec_basis" >
     <v>       0.12365464       0.00000000       0.00000000 </v>
     <v>       0.00000000       0.12365464       0.00000000 </v>
     <v>       0.00000000       0.00000000       0.12365464 </v>
    </varray>
   </crystal>
   <varray name="positions" >
    <v>      -0.00435727      -0.00662643      -0.00173358 </v>
    <v>       0.24782502       0.00010126       0.24971201 </v>
    <v>       0.24791825       0.25000000       0.00136889 </v>
    <v>       0.00233901       0.25000000       0.24895215 </v>
    <v>       0.50230529      -0.00292796      -0.00242456 </v>
    <v>       0.75242456      -0.00292796       0.24769471 </v>
    <v>       0.75334214       0.25000000      -0.00334214 </v>
    <v>      -0.00435727       0.50662643      -0.00173358 </v>
    <v>       0.24782502       0.49989874       0.24971201 </v>
    <v>       0.24709545       0.75000000      -0.00190770 </v>
    <v>      -0.00276365       0.75000000       0.24748020 </v>
    <v>       0.50230529       0.50292796      -0.00242456 </v>
    <v>       0.75242456       0.50292796       0.24769471 </v>
    <v>       0.75669651       0.75000000      -0.00669651 </v>
    <v>       0.49989472       0.75000000       0.25010528 </v>
    <v>       0.00113165      -0.00016234       0.50076139 </v>
    <v>       0.24923861      -0.00016234       0.74886835 </v>
    <v>      -0.00370104       0.25000000       0.75370104 </v>
    <v>       0.50028799       0.00010126       0.50217498 </v>
    <v>       0.75173358      -0.00662643       0.75435727 </v>
    <v>       0.74863111       0.25000000       0.50208175 </v>
    <v>       0.50104785       0.25000000       0.74766099 </v>
    <v>       0.00113165       0.50016234       0.50076139 </v>
    <v>       0.24923861       0.50016234       0.74886835 </v>
    <v>       0.24978790       0.75000000       0.50021210 </v>
    <v>      -0.00673142       0.75000000       0.75673142 </v>
    <v>       0.50028799       0.49989874       0.50217498 </v>
    <v>       0.75173358       0.50662643       0.75435727 </v>
    <v>       0.75190770       0.75000000       0.50290455 </v>
    <v>       0.50251980       0.75000000       0.75276365 </v>
    <v>       0.25083683       0.25000000       0.49916317 </v>
   </varray>
  </structure>
  <varray name="forces" >
   <v>       0.04679276      -0.03411673       0.05493238 </v>
   <v>      -0.07768804      -0.08562216      -0.08621552 </v>
   <v>      -0.03965986       0.00000000      -0.02299930 </v>
   <v>      -0.00564723       0.00000000      -0.02360355 </v>
   <v>       0.02610449      -0.04723167      -0.05889740 </v>
   <v>       0.05889740      -0.04723167      -0.02610449 </v>
   <v>       0.00715738       0.00000000      -0.00715738 </v>
   <v>       0.04679276       0.03411673       0.05493238 </v>
   <v>      -0.07768804       0.08562216      -0.08621552 </v>
   <v>      -0.00352771       0.00000000      -0.02869226 </v>
   <v>      -0.02507955       0.00000000       0.02641777 </v>
   <v>       0.02610449       0.04723167      -0.05889740 </v>
   <v>       0.05889740       0.04723167      -0.02610449 </v>
   <v>      -0.08543876       0.00000000       0.08543876 </v>
   <v>       0.00520202       0.00000000      -0.00520202 </v>
   <v>      -0.02354299       0.00215361       0.03191305 </v>
   <v>      -0.03191305       0.00215361       0.02354299 </v>
   <v>      -0.00906699       0.00000000       0.00906699 </v>
   <v>       0.08621552      -0.08562216       0.07768804 </v>
   <v>      -0.05493238      -0.03411673      -0.04679276 </v>
   <v>       0.02299930       0.00000000       0.03965986 </v>
   <v>       0.02360355       0.00000000       0.00564723 </v>
   <v>      -0.02354299      -0.00215361       0.03191305 </v>
   <v>      -0.03191305      -0.00215361       0.02354299 </v>
   <v>       0.00511650       0.00000000      -0.00511650 </v>
   <v>       0.03870618       0.00000000      -0.03870618 </v>
   <v>       0.08621552       0.08562216       0.07768804 </v>
   <v>      -0.05493238       0.03411673      -0.04679276 </v>
   <v>       0.02869226       0.00000000       0.00352771 </v>
   <v>      -0.02641777       0.00000000       0.02507955 </v>
   <v>       0.00349328       0.00000000      -0.00349328 </v>
  </varray>
  <varray name="stress" >
   <v>     -25.76676585       0.00000000      -1.00667111 </v>
   <v>       0.00000000     -22.59884356       0.00000000 </v>
   <v>      -1.00667111       0.00000000     -25.76676585 </v>
  </varray>
  <energy>
   <i name="e_fr_energy">   -100.69255261 </i>
   <i name="e_wo_entrp">   -100.69898516 </i>
   <i name="e_0_energy">      0.01929767 </i>
  </energy>
  <time name="totalsc">    6.39    6.44</time>
 </calculation>
 <calculation>
  <scstep>
   <time name="diag">    0.15    0.15</time>
   <time name="diis">    0.63    0.63</time>
   <time name="orth">    0.01    0.01</time>
   <time name="total">    1.08    1.09</time>
   <energy>
    <i name="alphaZ">     15.76595319 </i>
    <i name="ewald">  -2790.46594717 </i>
    <i name="hartreedc">   -730.00949507 </i>
    <i name="XCdc">   -742.40924168 </i>
    <i name="pawpsdc">   2141.06627079 </i>
    <i name="pawaedc">  -1326.80854234 </i>
    <i name="eentropy">      0.02603268 </i>
    <i name="bandstr">    335.05058637 </i>
    <i name="atom">   2997.07640482 </i>
    <i name="e_fr_energy">   -100.70797839 </i>
    <i name="e_wo_entrp">   -100.73401107 </i>
    <i name="e_0_energy">   -100.71665595 </i>
   </energy>
  </scstep>
  <scstep>
   <time name="diag">    0.15    0.15</time>
   <time name="diis">    0.63    0.63</time>
   <time name="orth">    0.01    0.01</time>
   <time name="total">    1.08    1.08</time>
   <energy>
    <i name="e_fr_energy">   -100.70246745 </i>
    <i name="e_wo_entrp">   -100.72817087 </i>
    <i name="e_0_energy">   -100.71103526 </i>
   </energy>
  </scstep>
  <scstep>
   <time name="diag">    0.15    0.15</time>
   <time name="diis">    0.65    0.66</time>
   <time name="orth">    0.01    0.01</time>
   <time name="total">    1.11    1.11</time>
   <energy>
    <i name="e_fr_energy">   -100.70210254 </i>
    <i name="e_wo_entrp">   -100.72620934 </i>
    <i name="e_0_energy">   -100.71013814 </i>
   </energy>
  </scstep>
  <scstep>
   <time name="diag">    0.15    0.15</time>
   <time name="diis">    0.50    0.51</time>
   <time name="orth">    0.01    0.01</time>
   <time name="total">    0.96    0.96</time>
   <energy>
    <i name="e_fr_energy">   -100.70192880 </i>
    <i name="e_wo_entrp">   -100.72619518 </i>
    <i name="e_0_energy">   -100.71001759 </i>
   </energy>
  </scstep>
  <scstep>
   <time name="diag">    0.15    0.15</time>
   <time name="diis">    0.45    0.45</time>
   <time name="orth">    0.01    0.01</time>
   <time name="total">    0.78    0.78</time>
   <energy>
    <i name="alphaZ">     15.76595319 </i>
    <i name="ewald">  -2790.46594717 </i>
    <i name="hartreedc">   -730.11424205 </i>
    <i name="XCdc">   -742.39392736 </i>
    <i name="pawpsdc">   2140.80849520 </i>
    <i name="pawaedc">  -1326.55507730 </i>
    <i name="eentropy">      0.02423620 </i>
    <i name="bandstr">    335.15220393 </i>
    <i name="atom">   2997.07640482 </i>
    <i name="e_fr_energy">   -100.70190054 </i>
    <i name="e_wo_entrp">   -100.72613674 </i>
    <i name="e_0_energy">   -100.70997927 </i>
   </energy>
  </scstep>
  <structure>
   <crystal>
    <varray name="basis" >
     <v>       8.08704000       0.00000000       0.00000000 </v>
     <v>       0.00000000       8.08704000       0.00000000 </v>
     <v>       0.00000000       0.00000000       8.08704000 </v>
    </varray>
    <i name="volume">    528.89416249 </i>
    <varray name="rec_basis" >
     <v>       0.12365464       0.00000000       0.00000000 </v>
     <v>       0.00000000       0.12365464       0.00000000 </v>
     <v>       0.00000000       0.00000000       0.12365464 </v>
    </varray>
   </crystal>
   <varray name="positions" >
    <v>      -0.00417883      -0.00829813      -0.00110159 </v>
    <v>       0.24618445      -0.00062886       0.24821209 </v>
    <v>       0.24666131       0.25000000       0.00158299 </v>
    <v>       0.00301076       0.25000000       0.24822890 </v>
    <v>       0.50326566      -0.00423208      -0.00336054 </v>
    <v>       0.75336054      -0.00423208       0.24673434 </v>
    <v>       0.75400076       0.25000000      -0.00400076 </v>
    <v>      -0.00417883       0.50829813      -0.00110159 </v>
    <v>       0.24618445       0.50062886       0.24821209 </v>
    <v>       0.24611476       0.75000000      -0.00235277 </v>
    <v>      -0.00356812       0.75000000       0.24674797 </v>
    <v>       0.50326566       0.50423208      -0.00336054 </v>
    <v>       0.75336054       0.50423208       0.24673434 </v>
    <v>       0.75659163       0.75000000      -0.00659163 </v>
    <v>       0.50042579       0.75000000       0.24957421 </v>
    <v>       0.00115179      -0.00014444       0.50152884 </v>
    <v>       0.24847116      -0.00014444       0.74884821 </v>
    <v>      -0.00436140       0.25000000       0.75436140 </v>
    <v>       0.50178791      -0.00062886       0.50381555 </v>
    <v>       0.75110159      -0.00829813       0.75417883 </v>
    <v>       0.74841701       0.25000000       0.50333869 </v>
    <v>       0.50177110       0.25000000       0.74698924 </v>
    <v>       0.00115179       0.50014444       0.50152884 </v>
    <v>       0.24847116       0.50014444       0.74884821 </v>
    <v>       0.24946647       0.75000000       0.50053353 </v>
    <v>      -0.00725638       0.75000000       0.75725638 </v>
    <v>       0.50178791       0.50062886       0.50381555 </v>
    <v>       0.75110159       0.50829813       0.75417883 </v>
    <v>       0.75235277       0.75000000       0.50388524 </v>
    <v>       0.50325203       0.75000000       0.75356812 </v>
    <v>       0.25083298       0.25000000       0.49916702 </v>
   </varray>
  </structure>
  <varray name="forces" >
   <v>      -0.00502081       0.00563441      -0.00128202 </v>
   <v>      -0.00142832      -0.10001287      -0.01040914 </v>
   <v>       0.04104644       0.00000000      -0.05636025 </v>
   <v>      -0.06143773       0.00000000       0.02160468 </v>
   <v>      -0.02189822       0.00902086      -0.05462140 </v>
   <v>       0.05462140       0.00902086       0.02189822 </v>
   <v>      -0.00902239       0.00000000       0.00902239 </v>
   <v>      -0.00502081      -0.00563441      -0.00128202 </v>
   <v>      -0.00142832       0.10001287      -0.01040914 </v>
   <v>       0.06358442       0.00000000      -0.05547381 </v>
   <v>      -0.00709386       0.00000000       0.11310033 </v>
   <v>      -0.02189822      -0.00902086      -0.05462140 </v>
   <v>       0.05462140      -0.00902086       0.02189822 </v>
   <v>      -0.04749218       0.00000000       0.04749218 </v>
   <v>      -0.05735977       0.00000000       0.05735977 </v>
   <v>      -0.03621933      -0.00432794      -0.00361401 </v>
   <v>       0.00361401      -0.00432794       0.03621933 </v>
   <v>      -0.00549630       0.00000000       0.00549630 </v>
   <v>       0.01040914      -0.10001287       0.00142832 </v>
   <v>       0.00128202       0.00563441       0.00502081 </v>
   <v>       0.05636025       0.00000000      -0.04104644 </v>
   <v>      -0.02160468       0.00000000       0.06143773 </v>
   <v>      -0.03621933       0.00432794      -0.00361401 </v>
   <v>       0.00361401       0.00432794       0.03621933 </v>
   <v>       0.04039941       0.00000000      -0.04039941 </v>
   <v>       0.02823323       0.00000000      -0.02823323 </v>
   <v>       0.01040914       0.10001287       0.00142832 </v>
   <v>       0.00128202      -0.00563441       0.00502081 </v>
   <v>       0.05547381       0.00000000      -0.06358442 </v>
   <v>      -0.11310033       0.00000000       0.00709386 </v>
   <v>       0.02678994       0.00000000      -0.02678994 </v>
  </varray>
  <varray name="stress" >
   <v>     -25.90920217       0.00000000      -1.41399953 </v>
   <v>       0.00000000     -19.75862521       0.00000000 </v>
   <v>      -1.41399953       0.00000000     -25.90920217 </v>
  </varray>
  <energy>
   <i name="e_fr_energy">   -100.70190054 </i>
   <i name="e_wo_entrp">   -100.70997927 </i>
   <i name="e_0_energy">      0.02423620 </i>
  </energy>
  <time name="totalsc">    6.34    6.36</time>
  <eigenvalues>
   <array>
    <dimension dim="1">band</dimension>
    <dimension dim="2">kpoint</dimension>
    <dimension dim="3">spin</dimension>
    <field>eigene</field>
    <field>occ</field>
    <set>
     <set comment="spin 1">
      <set comment="kpoint 1">
       <r>   -3.4894    1.0000 </r>
       <r>   -1.3906    1.0000 </r>
       <r>   -1.3098    1.0000 </r>
       <r>   -1.3059    1.0000 </r>
       <r>   -1.2813    1.0000 </r>
       <r>   -1.1732    1.0000 </r>
       <r>   -0.9203    1.0000 </r>
       <r>    0.7459    1.0000 </r>
       <r>    0.8444    1.0000 </r>
       <r>    0.8540    1.0000 </r>
       <r>    0.8810    1.0000 </r>
       <r>    0.8950    1.0000 </r>
       <r>    0.8973    1.0000 </r>
       <r>    0.9115    1.0000 </r>
       <r>    0.9723    1.0000 </r>
       <r>    1.0841    1.0000 </r>
       <r>    1.0848    1.0000 </r>
       <r>    1.3921    1.0000 </r>
       <r>    1.9324    1.0000 </r>
       <r>    2.9578    1.0000 </r>
       <r>    2.9632    1.0000 </r>
       <r>    3.0089    1.0000 </r>
       <r>    3.1250    1.0000 </r>
       <r>    3.1823    1.0000 </r>
       <r>    3.2725    1.0000 </r>
       <r>    3.4300    1.0000 </r>
       <r>    3.6079    1.0000 </r>
       <r>    3.8846    1.0000 </r>
       <r>    3.9753    1.0000 </r>
       <r>    4.1225    1.0000 </r>
       <r>    4.1427    1.0000 </r>
       <r>    4.4980    1.0000 </r>
       <r>    4.7663    1.0000 </r>
       <r>    4.8043    1.0000 </r>
       <r>    4.8400    1.0000 </r>
       <r>    6.1110    1.0000 </r>
       <r>    6.1207    1.0000 </r>
       <r>    6.4189    1.0000 </r>
       <r>    6.6859    1.0000 </r>
       <r>    6.7084    1.0000 </r>
       <r>    6.7120    1.0000 </r>
       <r>    6.7600    1.0000 </r>
       <r>    6.7646    1.0000 </r>
       <r>    6.8006    1.0000 </r>
       <r>    6.8994    1.0000 </r>
       <r>    6.9259    1.0000 </r>
       <r>    6.9507    1.0000 </r>
       <r>    7.1851    1.0003 </r>
       <r>    7.2333    1.0011 </r>
       <r>    7.2569    1.0018 </r>
       <r>    7.7242    0.5490 </r>
       <r>    7.8662    0.0579 </r>
       <r>    7.9625   -0.0340 </r>
       <r>    7.9906   -0.0351 </r>
       <r>    8.0545   -0.0234 </r>
       <r>    8.0797   -0.0177 </r>
       <r>    8.6114    0.0000 </r>
       <r>    8.6397    0.0000 </r>
       <r>    8.6780    0.0000 </r>
       <r>    8.7000    0.0000 </r>
       <r>    8.7194    0.0000 </r>
       <r>    8.7258    0.0000 </r>
       <r>    8.8904    0.0000 </r>
       <r>    8.9083    0.0000 </r>
       <r>    8.9585    0.0000 </r>
       <r>    8.9777    0.0000 </r>
       <r>    9.0043    0.0000 </r>
       <r>    9.1669    0.0000 </r>
       <r>    9.2261    0.0000 </r>
       <r>    9.3241    0.0000 </r>
       <r>    9.4166    0.0000 </r>
       <r>    9.5058    0.0000 </r>
      </set>
     </set>
    </set>
   </array>
  </eigenvalues>
  <separator name="orbital magnetization" >
   <v name="MAGDIPOLOUT">      0.00000000      0.00000000      0.00000000</v>
  </separator>
  <dos>
   <i name="efermi">      7.73579987 </i>
   <total>
    <array>
     <dimension dim="1">gridpoints</dimension>
     <dimension dim="2">spin</dimension>
     <field>energy</field>
     <field>total</field>
     <field>integrated</field>
     <set>
      <set comment="spin 1">
       <r>  -5.4894   0.0000   0.0000 </r>
       <r>  -5.4327   0.0000   0.0000 </r>
       <r>  -5.3761   0.0000   0.0000 </r>
       <r>  -5.3194   0.0000   0.0000 </r>
       <r>  -5.2628   0.0000   0.0000 </r>
       <r>  -5.2061   0.0000   0.0000 </r>
       <r>  -5.1495   0.0000   0.0000 </r>
       <r>  -5.0928   0.0000   0.0000 </r>
       <r>  -5.0362   0.0000   0.0000 </r>
       <r>  -4.9795   0.0000   0.0000 </r>
       <r>  -4.9229   0.0000   0.0000 </r>
       <r>  -4.8662   0.0000   0.0000 </r>
       <r>  -4.8096   0.0000   0.0000 </r>
       <r>  -4.7529   0.0000   0.0000 </r>
       <r>  -4.6963   0.0000   0.0000 </r>
       <r>  -4.6396   0.0000   0.0000 </r>
       <r>  -4.5830   0.0000   0.0000 </r>
       <r>  -4.5263   0.0000   0.0000 </r>
       <r>  -4.4697   0.0000   0.0000 </r>
       <r>  -4.4130   0.0000   0.0000 </r>
       <r>  -4.3564   0.0000   0.0000 </r>
       <r>  -4.2997   0.0000   0.0000 </r>
       <r>  -4.2431   0.0000   0.0000 </r>
       <r>  -4.1864  -0.0001   0.0000 </r>
       <r>  -4.1298  -0.0009  -0.0001 </r>
       <r>  -4.0731  -0.0041  -0.0003 </r>
       <r>  -4.0165  -0.0167  -0.0012 </r>
       <r>  -3.9598  -0.0553  -0.0044 </r>
       <r>  -3.9032  -0.1473  -0.0127 </r>
       <r>  -3.8465  -0.3047  -0.0300 </r>
       <r>  -3.7899  -0.4432  -0.0551 </r>
       <r>  -3.7332  -0.2792  -0.0709 </r>
       <r>  -3.6766   0.6467  -0.0343 </r>
       <r>  -3.6199   2.6438   0.1155 </r>
       <r>  -3.5633   5.3670   0.4195 </r>
       <r>  -3.5066   7.6827   0.8548 </r>
       <r>  -3.4500   8.3272   1.3265 </r>
       <r>  -3.3933   6.9145   1.7182 </r>
       <r>  -3.3367   4.2727   1.9603 </r>
       <r>  -3.2800   1.7366   2.0587 </r>
       <r>  -3.2234   0.1642   2.0680 </r>
       <r>  -3.1667  -0.4071   2.0449 </r>
       <r>  -3.1101  -0.4041   2.0220 </r>
       <r>  -3.0534  -0.2372   2.0086 </r>
       <r>  -2.9968  -0.1032   2.0027 </r>
       <r>  -2.9401  -0.0354   2.0007 </r>
       <r>  -2.8835  -0.0099   2.0002 </r>
       <r>  -2.8268  -0.0023   2.0000 </r>
       <r>  -2.7702  -0.0004   2.0000 </r>
       <r>  -2.7135  -0.0001   2.0000 </r>
       <r>  -2.6569   0.0000   2.0000 </r>
       <r>  -2.6002   0.0000   2.0000 </r>
       <r>  -2.5436   0.0000   2.0000 </r>
       <r>  -2.4869   0.0000   2.0000 </r>
       <r>  -2.4303   0.0000   2.0000 </r>
       <r>  -2.3736   0.0000   2.0000 </r>
       <r>  -2.3170   0.0000   2.0000 </r>
       <r>  -2.2603   0.0000   2.0000 </r>
       <r>  -2.2037   0.0000   2.0000 </r>
       <r>  -2.1470   0.0000   2.0000 </r>
       <r>  -2.0904  -0.0002   2.0000 </r>
       <r>  -2.0337  -0.0009   1.9999 </r>
       <r>  -1.9770  -0.0047   1.9997 </r>
       <r>  -1.9204  -0.0204   1.9985 </r>
       <r>  -1.8637  -0.0737   1.9943 </r>
       <r>  -1.8071  -0.2213   1.9818 </r>
       <r>  -1.7504  -0.5420   1.9511 </r>
       <r>  -1.6938  -1.0463   1.8918 </r>
       <r>  -1.6371  -1.4463   1.8099 </r>
       <r>  -1.5805  -0.8824   1.7599 </r>
       <r>  -1.5238   2.0339   1.8751 </r>
       <r>  -1.4672   8.4477   2.3537 </r>
       <r>  -1.4105  17.9380   3.3699 </r>
       <r>  -1.3539  27.7737   4.9433 </r>
       <r>  -1.2972  33.9526   6.8667 </r>
       <r>  -1.2406  33.7179   8.7769 </r>
       <r>  -1.1839  27.5359  10.3368 </r>
       <r>  -1.1273  18.7778  11.4006 </r>
       <r>  -1.0706  11.4187  12.0474 </r>
       <r>  -1.0140   7.6385  12.4802 </r>
       <r>  -0.9573   6.9578  12.8743 </r>
       <r>  -0.9007   7.2384  13.2844 </r>
       <r>  -0.8440   6.5880  13.6576 </r>
       <r>  -0.7874   4.6248  13.9196 </r>
       <r>  -0.7307   2.2441  14.0467 </r>
       <r>  -0.6741   0.4738  14.0736 </r>
       <r>  -0.6174  -0.3336  14.0547 </r>
       <r>  -0.5608  -0.4499  14.0292 </r>
       <r>  -0.5041  -0.2992  14.0122 </r>
       <r>  -0.4475  -0.1424  14.0042 </r>
       <r>  -0.3908  -0.0528  14.0012 </r>
       <r>  -0.3342  -0.0158  14.0003 </r>
       <r>  -0.2775  -0.0039  14.0001 </r>
       <r>  -0.2209  -0.0008  14.0000 </r>
       <r>  -0.1642  -0.0001  14.0000 </r>
       <r>  -0.1076   0.0000  14.0000 </r>
       <r>  -0.0509   0.0000  14.0000 </r>
       <r>   0.0057   0.0000  14.0000 </r>
       <r>   0.0624  -0.0002  14.0000 </r>
       <r>   0.1190  -0.0014  13.9999 </r>
       <r>   0.1757  -0.0068  13.9995 </r>
       <r>   0.2323  -0.0278  13.9979 </r>
       <r>   0.2890  -0.0959  13.9925 </r>
       <r>   0.3456  -0.2771  13.9768 </r>
       <r>   0.4023  -0.6648  13.9392 </r>
       <r>   0.4589  -1.2942  13.8658 </r>
       <r>   0.5156  -1.9169  13.7572 </r>
       <r>   0.5722  -1.6656  13.6629 </r>
       <r>   0.6289   1.1384  13.7274 </r>
       <r>   0.6855   8.5358  14.2109 </r>
       <r>   0.7422  21.4873  15.4282 </r>
       <r>   0.7988  38.0614  17.5844 </r>
       <r>   0.8555  53.1010  20.5926 </r>
       <r>   0.9121  60.7497  24.0341 </r>
       <r>   0.9688  58.3317  27.3386 </r>
       <r>   1.0254  47.9478  30.0549 </r>
       <r>   1.0821  34.3321  31.9998 </r>
       <r>   1.1387  21.6273  33.2250 </r>
       <r>   1.1954  12.1328  33.9124 </r>
       <r>   1.2520   6.7622  34.2955 </r>
       <r>   1.3087   5.2801  34.5946 </r>
       <r>   1.3653   6.1198  34.9413 </r>
       <r>   1.4220   6.9863  35.3370 </r>
       <r>   1.4786   6.3058  35.6943 </r>
       <r>   1.5353   4.1189  35.9276 </r>
       <r>   1.5919   1.5823  36.0172 </r>
       <r>   1.6486  -0.1482  36.0088 </r>
       <r>   1.7052  -0.4853  35.9814 </r>
       <r>   1.7619   0.6958  36.0208 </r>
       <r>   1.8185   3.1438  36.1989 </r>
       <r>   1.8752   6.0352  36.5408 </r>
       <r>   1.9318   8.0451  36.9965 </r>
       <r>   1.9885   8.0953  37.4551 </r>
       <r>   2.0451   6.2001  37.8064 </r>
       <r>   2.1018   3.4587  38.0023 </r>
       <r>   2.1584   1.1563  38.0678 </r>
       <r>   2.2151  -0.0934  38.0625 </r>
       <r>   2.2717  -0.4445  38.0373 </r>
       <r>   2.3284  -0.3612  38.0169 </r>
       <r>   2.3850  -0.2023  38.0054 </r>
       <r>   2.4417  -0.1240  37.9984 </r>
       <r>   2.4983  -0.1800  37.9882 </r>
       <r>   2.5550  -0.4226  37.9642 </r>
       <r>   2.6116  -0.8783  37.9145 </r>
       <r>   2.6683  -1.3468  37.8382 </r>
       <r>   2.7249  -1.1102  37.7753 </r>
       <r>   2.7816   1.0725  37.8360 </r>
       <r>   2.8382   6.2502  38.1901 </r>
       <r>   2.8949  14.0821  38.9879 </r>
       <r>   2.9515  22.3749  40.2554 </r>
       <r>   3.0082  28.3070  41.8590 </r>
       <r>   3.0648  30.4156  43.5821 </r>
       <r>   3.1215  29.2889  45.2413 </r>
       <r>   3.1782  26.4268  46.7384 </r>
       <r>   3.2348  22.9053  48.0360 </r>
       <r>   3.2915  19.2352  49.1257 </r>
       <r>   3.3481  15.8868  50.0257 </r>
       <r>   3.4048  13.3793  50.7836 </r>
       <r>   3.4614  11.9039  51.4580 </r>
       <r>   3.5181  11.1086  52.0873 </r>
       <r>   3.5747  10.2960  52.6706 </r>
       <r>   3.6314   8.9254  53.1762 </r>
       <r>   3.6880   7.1958  53.5839 </r>
       <r>   3.7447   6.1777  53.9338 </r>
       <r>   3.8013   7.0500  54.3332 </r>
       <r>   3.8580   9.9954  54.8995 </r>
       <r>   3.9146  13.9821  55.6916 </r>
       <r>   3.9713  17.6749  56.6929 </r>
       <r>   4.0279  20.2641  57.8408 </r>
       <r>   4.0846  21.2639  59.0454 </r>
       <r>   4.1412  20.0270  60.1800 </r>
       <r>   4.1979  16.2039  61.0979 </r>
       <r>   4.2545  10.7555  61.7072 </r>
       <r>   4.3112   5.9116  62.0421 </r>
       <r>   4.3678   3.6284  62.2477 </r>
       <r>   4.4245   4.0405  62.4766 </r>
       <r>   4.4811   5.5664  62.7919 </r>
       <r>   4.5378   6.6576  63.1691 </r>
       <r>   4.5944   7.4932  63.5936 </r>
       <r>   4.6511   9.7789  64.1476 </r>
       <r>   4.7077  14.5817  64.9736 </r>
       <r>   4.7644  20.3793  66.1281 </r>
       <r>   4.8210  23.6766  67.4694 </r>
       <r>   4.8777  21.9034  68.7102 </r>
       <r>   4.9343  15.6708  69.5980 </r>
       <r>   4.9910   8.1292  70.0585 </r>
       <r>   5.0476   2.3552  70.1919 </r>
       <r>   5.1043  -0.5304  70.1619 </r>
       <r>   5.1609  -1.2096  70.0934 </r>
       <r>   5.2176  -0.9096  70.0418 </r>
       <r>   5.2742  -0.4701  70.0152 </r>
       <r>   5.3309  -0.1878  70.0046 </r>
       <r>   5.3875  -0.0606  70.0011 </r>
       <r>   5.4442  -0.0167  70.0002 </r>
       <r>   5.5008  -0.0071  69.9998 </r>
       <r>   5.5575  -0.0166  69.9989 </r>
       <r>   5.6141  -0.0589  69.9955 </r>
       <r>   5.6708  -0.1769  69.9855 </r>
       <r>   5.7274  -0.4230  69.9615 </r>
       <r>   5.7841  -0.7612  69.9184 </r>
       <r>   5.8407  -0.8664  69.8693 </r>
       <r>   5.8974   0.0148  69.8702 </r>
       <r>   5.9540   2.7639  70.0267 </r>
       <r>   6.0107   7.4935  70.4513 </r>
       <r>   6.0673  12.7435  71.1732 </r>
       <r>   6.1240  15.9811  72.0785 </r>
       <r>   6.1806  15.5352  72.9586 </r>
       <r>   6.2373  12.1656  73.6478 </r>
       <r>   6.2939   8.3740  74.1222 </r>
       <r>   6.3506   6.0640  74.4657 </r>
       <r>   6.4072   5.2459  74.7629 </r>
       <r>   6.4639   5.2817  75.0621 </r>
       <r>   6.5205   7.0020  75.4588 </r>
       <r>   6.5772  12.7454  76.1808 </r>
       <r>   6.6338  23.7162  77.5243 </r>
       <r>   6.6905  37.4857  79.6479 </r>
       <r>   6.7471  48.8001  82.4125 </r>
       <r>   6.8038  53.2242  85.4277 </r>
       <r>   6.8604  49.8981  88.2544 </r>
       <r>   6.9171  41.1225  90.5840 </r>
       <r>   6.9737  30.4056  92.3065 </r>
       <r>   7.0304  21.3085  93.5137 </r>
       <r>   7.0870  16.7294  94.4614 </r>
       <r>   7.1437  17.4044  95.4474 </r>
       <r>   7.2003  20.7834  96.6247 </r>
       <r>   7.2570  22.4656  97.8974 </r>
       <r>   7.3136  19.5928  99.0074 </r>
       <r>   7.3703  12.9154  99.7390 </r>
       <r>   7.4269   5.6415 100.0586 </r>
       <r>   7.4836   0.7069 100.0987 </r>
       <r>   7.5402  -0.8089 100.0529 </r>
       <r>   7.5969   0.5826 100.0859 </r>
       <r>   7.6535   3.7369 100.2976 </r>
       <r>   7.7102   7.6146 100.7289 </r>
       <r>   7.7668  11.7735 101.3959 </r>
       <r>   7.8235  16.5191 102.3317 </r>
       <r>   7.8801  22.2862 103.5942 </r>
       <r>   7.9368  28.4648 105.2068 </r>
       <r>   7.9934  32.8862 107.0698 </r>
       <r>   8.0501  32.9287 108.9352 </r>
       <r>   8.1067  27.5672 110.4969 </r>
       <r>   8.1634  18.4495 111.5421 </r>
       <r>   8.2200   8.8536 112.0437 </r>
       <r>   8.2767   1.5128 112.1294 </r>
       <r>   8.3334  -2.5885 111.9827 </r>
       <r>   8.3900  -3.5092 111.7839 </r>
       <r>   8.4467  -0.8806 111.7341 </r>
       <r>   8.5033   6.3585 112.0943 </r>
       <r>   8.5600  18.3259 113.1324 </r>
       <r>   8.6166  32.2942 114.9619 </r>
       <r>   8.6733  43.2364 117.4113 </r>
       <r>   8.7299  47.3893 120.0959 </r>
       <r>   8.7866  45.5272 122.6751 </r>
       <r>   8.8432  41.9757 125.0530 </r>
       <r>   8.8999  40.0313 127.3208 </r>
       <r>   8.9565  39.0196 129.5313 </r>
       <r>   9.0132  36.2570 131.5853 </r>
       <r>   9.0698  30.9987 133.3414 </r>
       <r>   9.1265  25.4109 134.7809 </r>
       <r>   9.1831  22.0194 136.0283 </r>
       <r>   9.2398  21.3204 137.2361 </r>
       <r>   9.2964  22.0121 138.4831 </r>
       <r>   9.3531  22.5782 139.7622 </r>
       <r>   9.4097  22.0784 141.0129 </r>
       <r>   9.4664  19.9838 142.1450 </r>
       <r>   9.5230  16.1263 143.0586 </r>
       <r>   9.5797  11.0263 143.6832 </r>
       <r>   9.6363   5.8996 144.0175 </r>
       <r>   9.6930   1.9986 144.1307 </r>
       <r>   9.7496  -0.1335 144.1231 </r>
       <r>   9.8063  -0.8014 144.0777 </r>
       <r>   9.8629  -0.7004 144.0380 </r>
       <r>   9.9196  -0.4048 144.0151 </r>
       <r>   9.9762  -0.1791 144.0050 </r>
       <r>  10.0329  -0.0636 144.0014 </r>
       <r>  10.0895  -0.0185 144.0003 </r>
       <r>  10.1462  -0.0045 144.0001 </r>
       <r>  10.2028  -0.0009 144.0000 </r>
       <r>  10.2595  -0.0002 144.0000 </r>
       <r>  10.3161   0.0000 144.0000 </r>
       <r>  10.3728   0.0000 144.0000 </r>
       <r>  10.4294   0.0000 144.0000 </r>
       <r>  10.4861   0.0000 144.0000 </r>
       <r>  10.5427   0.0000 144.0000 </r>
       <r>  10.5994   0.0000 144.0000 </r>
       <r>  10.6560   0.0000 144.0000 </r>
       <r>  10.7127   0.0000 144.0000 </r>
       <r>  10.7693   0.0000 144.0000 </r>
       <r>  10.8260   0.0000 144.0000 </r>
       <r>  10.8826   0.0000 144.0000 </r>
       <r>  10.9393   0.0000 144.0000 </r>
       <r>  10.9959   0.0000 144.0000 </r>
       <r>  11.0526   0.0000 144.0000 </r>
       <r>  11.1092   0.0000 144.0000 </r>
       <r>  11.1659   0.0000 144.0000 </r>
       <r>  11.2225   0.0000 144.0000 </r>
       <r>  11.2792   0.0000 144.0000 </r>
       <r>  11.3358   0.0000 144.0000 </r>
       <r>  11.3925   0.0000 144.0000 </r>
       <r>  11.4491   0.0000 144.0000 </r>
       <r>  11.5058   0.0000 144.0000 </r>
      </set>
     </set>
    </array>
   </total>
  </dos>
 </calculation>
 <structure name="finalpos" >
  <crystal>
   <varray name="basis" >
    <v>       8.08704000       0.00000000       0.00000000 </v>
    <v>       0.00000000       8.08704000       0.00000000 </v>
    <v>       0.00000000       0.00000000       8.08704000 </v>
   </varray>
   <i name="volume">    528.89416249 </i>
   <varray name="rec_basis" >
    <v>       0.12365464       0.00000000       0.00000000 </v>
    <v>       0.00000000       0.12365464       0.00000000 </v>
    <v>       0.00000000       0.00000000       0.12365464 </v>
   </varray>
  </crystal>
  <varray name="positions" >
   <v>      -0.00417883      -0.00829813      -0.00110159 </v>
   <v>       0.24618445      -0.00062886       0.24821209 </v>
   <v>       0.24666131       0.25000000       0.00158299 </v>
   <v>       0.00301076       0.25000000       0.24822890 </v>
   <v>       0.50326566      -0.00423208      -0.00336054 </v>
   <v>       0.75336054      -0.00423208       0.24673434 </v>
   <v>       0.75400076       0.25000000      -0.00400076 </v>
   <v>      -0.00417883       0.50829813      -0.00110159 </v>
   <v>       0.24618445       0.50062886       0.24821209 </v>
   <v>       0.24611476       0.75000000      -0.00235277 </v>
   <v>      -0.00356812       0.75000000       0.24674797 </v>
   <v>       0.50326566       0.50423208      -0.00336054 </v>
   <v>       0.75336054       0.50423208       0.24673434 </v>
   <v>       0.75659163       0.75000000      -0.00659163 </v>
   <v>       0.50042579       0.75000000       0.24957421 </v>
   <v>       0.00115179      -0.00014444       0.50152884 </v>
   <v>       0.24847116      -0.00014444       0.74884821 </v>
   <v>      -0.00436140       0.25000000       0.75436140 </v>
   <v>       0.50178791      -0.00062886       0.50381555 </v>
   <v>       0.75110159      -0.00829813       0.75417883 </v>
   <v>       0.74841701       0.25000000       0.50333869 </v>
   <v>       0.50177110       0.25000000       0.74698924 </v>
   <v>       0.00115179       0.50014444       0.50152884 </v>
   <v>       0.24847116       0.50014444       0.74884821 </v>
   <v>       0.24946647       0.75000000       0.50053353 </v>
   <v>      -0.00725638       0.75000000       0.75725638 </v>
   <v>       0.50178791       0.50062886       0.50381555 </v>
   <v>       0.75110159       0.50829813       0.75417883 </v>
   <v>       0.75235277       0.75000000       0.50388524 </v>
   <v>       0.50325203       0.75000000       0.75356812 </v>
   <v>       0.25083298       0.25000000       0.49916702 </v>
  </varray>
 </structure>
</modeling>
