   4   4   0   0
  0.1071875E+02  0.3500000E-09  0.3500000E-09  0.3500000E-09  0.5000000E-15
  1.000000000000000E-004
  CAR 
 unknown system                          
     13.30101444     -3.58437846  301      7.00645741      1.00000000
     -3.584  0.0000E+00  0.0000E+00
     -3.528  0.0000E+00  0.0000E+00
     -3.472  0.0000E+00  0.0000E+00
     -3.416  0.0000E+00  0.0000E+00
     -3.359  0.0000E+00  0.0000E+00
     -3.303  0.0000E+00  0.0000E+00
     -3.247  0.0000E+00  0.0000E+00
     -3.190 -0.4176E-28 -0.2350E-29
     -3.134 -0.3376E-26 -0.1924E-27
     -3.078 -0.2350E-24 -0.1342E-25
     -3.022 -0.1394E-22 -0.7979E-24
     -2.965 -0.7041E-21 -0.4043E-22
     -2.909 -0.3030E-19 -0.1746E-20
     -2.853 -0.1110E-17 -0.6421E-19
     -2.796 -0.3461E-16 -0.2012E-17
     -2.740 -0.8872E-15 -0.5195E-16
     -2.684 -0.2005E-13 -0.1180E-14
     -2.628 -0.3832E-12 -0.2275E-13
     -2.571 -0.6220E-11 -0.3728E-12
     -2.515 -0.8567E-10 -0.5195E-11
     -2.459 -0.1000E-08 -0.6148E-10
     -2.402 -0.9883E-08 -0.6177E-09
     -2.346 -0.8253E-07 -0.5263E-08
     -2.290 -0.5812E-06 -0.3797E-07
     -2.234 -0.3441E-05 -0.2316E-06
     -2.177 -0.1705E-04 -0.1192E-05
     -2.121 -0.7034E-04 -0.5151E-05
     -2.065 -0.2391E-03 -0.1861E-04
     -2.008 -0.6591E-03 -0.5571E-04
     -1.952 -0.1427E-02 -0.1360E-03
     -1.896 -0.2243E-02 -0.2622E-03
     -1.840 -0.1868E-02 -0.3674E-03
     -1.783  0.1961E-02 -0.2570E-03
     -1.727  0.1120E-01  0.3734E-03
     -1.671  0.2494E-01  0.1777E-02
     -1.614  0.3809E-01  0.3921E-02
     -1.558  0.4382E-01  0.6388E-02
     -1.502  0.3878E-01  0.8570E-02
     -1.446  0.2593E-01  0.1003E-01
     -1.389  0.1202E-01  0.1071E-01
     -1.333  0.2402E-02  0.1084E-01
     -1.277 -0.1747E-02  0.1074E-01
     -1.220 -0.2275E-02  0.1061E-01
     -1.164 -0.1488E-02  0.1053E-01
     -1.108 -0.6999E-03  0.1049E-01
     -1.052 -0.2578E-03  0.1048E-01
     -0.995 -0.7686E-04  0.1047E-01
     -0.939 -0.1887E-04  0.1047E-01
     -0.883 -0.3854E-05  0.1047E-01
     -0.826 -0.6587E-06  0.1047E-01
     -0.770 -0.9463E-07  0.1047E-01
     -0.714 -0.1146E-07  0.1047E-01
     -0.658 -0.1173E-08  0.1047E-01
     -0.601 -0.1016E-09  0.1047E-01
     -0.545 -0.7460E-11  0.1047E-01
     -0.489 -0.4646E-12  0.1047E-01
     -0.432 -0.2458E-13  0.1047E-01
     -0.376 -0.1115E-14  0.1047E-01
     -0.320 -0.4131E-16  0.1047E-01
     -0.264  0.0000E+00  0.1047E-01
     -0.207  0.0000E+00  0.1047E-01
     -0.151  0.0000E+00  0.1047E-01
     -0.095  0.0000E+00  0.1047E-01
     -0.038  0.0000E+00  0.1047E-01
      0.018  0.0000E+00  0.1047E-01
      0.074  0.0000E+00  0.1047E-01
      0.130  0.0000E+00  0.1047E-01
      0.187  0.0000E+00  0.1047E-01
      0.243  0.0000E+00  0.1047E-01
      0.299  0.0000E+00  0.1047E-01
      0.356  0.0000E+00  0.1047E-01
      0.412  0.0000E+00  0.1047E-01
      0.468  0.0000E+00  0.1047E-01
      0.524  0.0000E+00  0.1047E-01
      0.581  0.0000E+00  0.1047E-01
      0.637  0.0000E+00  0.1047E-01
      0.693  0.0000E+00  0.1047E-01
      0.750  0.0000E+00  0.1047E-01
      0.806  0.0000E+00  0.1047E-01
      0.862  0.0000E+00  0.1047E-01
      0.918  0.0000E+00  0.1047E-01
      0.975  0.0000E+00  0.1047E-01
      1.031  0.0000E+00  0.1047E-01
      1.087  0.0000E+00  0.1047E-01
      1.144 -0.1562E-27  0.1047E-01
      1.200 -0.1252E-25  0.1047E-01
      1.256 -0.8650E-24  0.1047E-01
      1.312 -0.5090E-22  0.1047E-01
      1.369 -0.2551E-20  0.1047E-01
      1.425 -0.1089E-18  0.1047E-01
      1.481 -0.3958E-17  0.1047E-01
      1.538 -0.1224E-15  0.1047E-01
      1.594 -0.3130E-14  0.1047E-01
      1.650 -0.6977E-13  0.1047E-01
      1.706 -0.1323E-11  0.1047E-01
      1.763 -0.2131E-10  0.1047E-01
      1.819 -0.2911E-09  0.1047E-01
      1.875 -0.3371E-08  0.1047E-01
      1.932 -0.3304E-07  0.1047E-01
      1.988 -0.2736E-06  0.1047E-01
      2.044 -0.1911E-05  0.1047E-01
      2.100 -0.1121E-04  0.1047E-01
      2.157 -0.5510E-04  0.1047E-01
      2.213 -0.2252E-03  0.1045E-01
      2.269 -0.7579E-03  0.1041E-01
      2.326 -0.2066E-02  0.1030E-01
      2.382 -0.4413E-02  0.1005E-01
      2.438 -0.6801E-02  0.9665E-02
      2.494 -0.5344E-02  0.9364E-02
      2.551  0.6841E-02  0.9749E-02
      2.607  0.3539E-01  0.1174E-01
      2.663  0.7698E-01  0.1607E-01
      2.720  0.1158E+00  0.2259E-01
      2.776  0.1315E+00  0.2999E-01
      2.832  0.1148E+00  0.3645E-01
      2.888  0.7563E-01  0.4071E-01
      2.945  0.3426E-01  0.4264E-01
      3.001  0.6232E-02  0.4299E-01
      3.057 -0.5511E-02  0.4268E-01
      3.113 -0.6756E-02  0.4230E-01
      3.170 -0.4329E-02  0.4205E-01
      3.226 -0.2010E-02  0.4194E-01
      3.282 -0.7321E-03  0.4190E-01
      3.339 -0.2162E-03  0.4189E-01
      3.395 -0.5259E-04  0.4189E-01
      3.451 -0.1064E-04  0.4188E-01
      3.507 -0.1804E-05  0.4188E-01
      3.564 -0.2569E-06  0.4188E-01
      3.620 -0.3086E-07  0.4188E-01
      3.676 -0.3132E-08  0.4188E-01
      3.733 -0.2691E-09  0.4188E-01
      3.789 -0.1960E-10  0.4188E-01
      3.845 -0.1211E-11  0.4188E-01
      3.901 -0.6370E-13  0.4188E-01
      3.958 -0.2726E-14  0.4188E-01
      4.014 -0.1239E-15  0.4188E-01
      4.070  0.0000E+00  0.4188E-01
      4.127  0.0000E+00  0.4188E-01
      4.183  0.0000E+00  0.4188E-01
      4.239  0.0000E+00  0.4188E-01
      4.295  0.0000E+00  0.4188E-01
      4.352  0.0000E+00  0.4188E-01
      4.408  0.0000E+00  0.4188E-01
      4.464  0.0000E+00  0.4188E-01
      4.521  0.0000E+00  0.4188E-01
      4.577  0.0000E+00  0.4188E-01
      4.633  0.0000E+00  0.4188E-01
      4.689  0.0000E+00  0.4188E-01
      4.746  0.0000E+00  0.4188E-01
      4.802  0.0000E+00  0.4188E-01
      4.858  0.0000E+00  0.4188E-01
      4.915  0.0000E+00  0.4188E-01
      4.971  0.0000E+00  0.4188E-01
      5.027  0.0000E+00  0.4188E-01
      5.083  0.0000E+00  0.4188E-01
      5.140  0.0000E+00  0.4188E-01
      5.196  0.0000E+00  0.4188E-01
      5.252  0.0000E+00  0.4188E-01
      5.309  0.0000E+00  0.4188E-01
      5.365 -0.1822E-27  0.4188E-01
      5.421 -0.1453E-25  0.4188E-01
      5.477 -0.9983E-24  0.4188E-01
      5.534 -0.5842E-22  0.4188E-01
      5.590 -0.2912E-20  0.4188E-01
      5.646 -0.1236E-18  0.4188E-01
      5.703 -0.4468E-17  0.4188E-01
      5.759 -0.1374E-15  0.4188E-01
      5.815 -0.3474E-14  0.4188E-01
      5.871 -0.7746E-13  0.4188E-01
      5.928 -0.1461E-11  0.4188E-01
      5.984 -0.2339E-10  0.4188E-01
      6.040 -0.3177E-09  0.4188E-01
      6.097 -0.3658E-08  0.4188E-01
      6.153 -0.3564E-07  0.4188E-01
      6.209 -0.2934E-06  0.4188E-01
      6.265 -0.2037E-05  0.4188E-01
      6.322 -0.1188E-04  0.4188E-01
      6.378 -0.5802E-04  0.4188E-01
      6.434 -0.2356E-03  0.4187E-01
      6.491 -0.7874E-03  0.4182E-01
      6.547 -0.2130E-02  0.4170E-01
      6.603 -0.4507E-02  0.4145E-01
      6.659 -0.6848E-02  0.4106E-01
      6.716 -0.5146E-02  0.4077E-01
      6.772  0.7538E-02  0.4120E-01
      6.828  0.3666E-01  0.4326E-01
      6.885  0.7849E-01  0.4768E-01
      6.941  0.1168E+00  0.5425E-01
      6.997  0.1314E+00  0.6165E-01
      7.053  0.1138E+00  0.6805E-01
      7.110  0.7412E-01  0.7223E-01
      7.166  0.3301E-01  0.7408E-01
      7.222  0.5573E-02  0.7440E-01
      7.279 -0.5685E-02  0.7408E-01
      7.335 -0.6701E-02  0.7370E-01
      7.391 -0.4235E-02  0.7346E-01
      7.447 -0.1948E-02  0.7335E-01
      7.504 -0.7043E-03  0.7331E-01
      7.560 -0.2065E-03  0.7330E-01
      7.616 -0.4992E-04  0.7330E-01
      7.673 -0.1004E-04  0.7330E-01
      7.729 -0.1691E-05  0.7330E-01
      7.785 -0.2395E-06  0.7330E-01
      7.841 -0.2860E-07  0.7330E-01
      7.898 -0.2886E-08  0.7330E-01
      7.954 -0.2465E-09  0.7330E-01
      8.010 -0.1785E-10  0.7330E-01
      8.067 -0.1097E-11  0.7330E-01
      8.123 -0.5725E-13  0.7330E-01
      8.179 -0.2479E-14  0.7330E-01
      8.235 -0.1239E-15  0.7330E-01
      8.292  0.0000E+00  0.7330E-01
      8.348  0.0000E+00  0.7330E-01
      8.404  0.0000E+00  0.7330E-01
      8.461  0.0000E+00  0.7330E-01
      8.517  0.0000E+00  0.7330E-01
      8.573  0.0000E+00  0.7330E-01
      8.629  0.0000E+00  0.7330E-01
      8.686  0.0000E+00  0.7330E-01
      8.742  0.0000E+00  0.7330E-01
      8.798  0.0000E+00  0.7330E-01
      8.855  0.0000E+00  0.7330E-01
      8.911  0.0000E+00  0.7330E-01
      8.967  0.0000E+00  0.7330E-01
      9.023  0.0000E+00  0.7330E-01
      9.080  0.0000E+00  0.7330E-01
      9.136  0.0000E+00  0.7330E-01
      9.192  0.0000E+00  0.7330E-01
      9.249  0.0000E+00  0.7330E-01
      9.305  0.0000E+00  0.7330E-01
      9.361  0.0000E+00  0.7330E-01
      9.417  0.0000E+00  0.7330E-01
      9.474 -0.1024E-28  0.7330E-01
      9.530 -0.8709E-27  0.7330E-01
      9.586 -0.6373E-25  0.7330E-01
      9.643 -0.3973E-23  0.7330E-01
      9.699 -0.2110E-21  0.7330E-01
      9.755 -0.9545E-20  0.7330E-01
      9.811 -0.3676E-18  0.7330E-01
      9.868 -0.1205E-16  0.7330E-01
      9.924 -0.3260E-15  0.7330E-01
      9.980 -0.7736E-14  0.7330E-01
     10.037 -0.1555E-12  0.7330E-01
     10.093 -0.2656E-11  0.7330E-01
     10.149 -0.3851E-10  0.7330E-01
     10.205 -0.4734E-09  0.7330E-01
     10.262 -0.4929E-08  0.7330E-01
     10.318 -0.4339E-07  0.7330E-01
     10.374 -0.3224E-06  0.7330E-01
     10.430 -0.2017E-05  0.7330E-01
     10.487 -0.1058E-04  0.7330E-01
     10.543 -0.4635E-04  0.7330E-01
     10.599 -0.1682E-03  0.7329E-01
     10.656 -0.4999E-03  0.7326E-01
     10.712 -0.1192E-02  0.7319E-01
     10.768 -0.2188E-02  0.7307E-01
     10.824 -0.2751E-02  0.7291E-01
     10.881 -0.1152E-02  0.7285E-01
     10.937  0.4737E-02  0.7311E-01
     10.993  0.1586E-01  0.7401E-01
     11.050  0.3099E-01  0.7575E-01
     11.106  0.4795E-01  0.7845E-01
     11.162  0.6548E-01  0.8214E-01
     11.218  0.8223E-01  0.8676E-01
     11.275  0.9362E-01  0.9203E-01
     11.331  0.9242E-01  0.9724E-01
     11.387  0.7522E-01  0.1015E+00
     11.444  0.4754E-01  0.1041E+00
     11.500  0.2063E-01  0.1053E+00
     11.556  0.3011E-02  0.1055E+00
     11.612 -0.4096E-02  0.1052E+00
     11.669 -0.4600E-02  0.1050E+00
     11.725 -0.2883E-02  0.1048E+00
     11.781 -0.1325E-02  0.1047E+00
     11.838 -0.4794E-03  0.1047E+00
     11.894 -0.1409E-03  0.1047E+00
     11.950 -0.3413E-04  0.1047E+00
     12.006 -0.6884E-05  0.1047E+00
     12.063 -0.1163E-05  0.1047E+00
     12.119 -0.1651E-06  0.1047E+00
     12.175 -0.1977E-07  0.1047E+00
     12.232 -0.2000E-08  0.1047E+00
     12.288 -0.1713E-09  0.1047E+00
     12.344 -0.1244E-10  0.1047E+00
     12.400 -0.7663E-12  0.1047E+00
     12.457 -0.4015E-13  0.1047E+00
     12.513 -0.1735E-14  0.1047E+00
     12.569 -0.8262E-16  0.1047E+00
     12.626  0.0000E+00  0.1047E+00
     12.682  0.0000E+00  0.1047E+00
     12.738  0.0000E+00  0.1047E+00
     12.794  0.0000E+00  0.1047E+00
     12.851  0.0000E+00  0.1047E+00
     12.907  0.0000E+00  0.1047E+00
     12.963  0.0000E+00  0.1047E+00
     13.020  0.0000E+00  0.1047E+00
     13.076  0.0000E+00  0.1047E+00
     13.132  0.0000E+00  0.1047E+00
     13.188  0.0000E+00  0.1047E+00
     13.245  0.0000E+00  0.1047E+00
     13.301  0.0000E+00  0.1047E+00
