Processors received = 1
script running on host compute-0-1.local
PBS_NODEFILE
compute-0-1
 running on    1 nodes
 distr:  one band on    1 nodes,    1 groups
 vasp.5.2.2 15Apr09 complex 
 POSCAR found type information on POSCAR  Al
 POSCAR found :  1 types and    4 ions
 LDA part: xc-table for Ceperly-Alder, standard interpolation
 POSCAR, INCAR and KPOINTS ok, starting setup
 FFT: planning ...(           1 )
 reading WAVECAR
 entering main loop
       N       E                     dE             d eps       ncg     rms          rms(c)
DAV:   1     0.125723826598E+02    0.12572E+02   -0.34510E+03    20   0.703E+02
DAV:   2    -0.842999761108E+01   -0.21002E+02   -0.20533E+02    32   0.108E+02
DAV:   3    -0.941739779748E+01   -0.98740E+00   -0.79478E+00    20   0.131E+01
DAV:   4    -0.942488599164E+01   -0.74882E-02   -0.74685E-02    36   0.170E+00
DAV:   5    -0.942488616537E+01   -0.17373E-06   -0.17360E-06    20   0.856E-03    0.229E+00
DAV:   6    -0.931903444125E+01    0.10585E+00   -0.40172E-03    20   0.703E-01    0.144E+00
DAV:   7    -0.924410034360E+01    0.74934E-01   -0.12246E-02    20   0.113E+00    0.708E-02
DAV:   8    -0.924379834737E+01    0.30200E-03   -0.13886E-04    34   0.121E-01    0.235E-02
DAV:   9    -0.924376161289E+01    0.36734E-04   -0.16333E-05    18   0.374E-02
   1 F= -.92437616E+01 E0= -.91939804E+01  d E =-.924376E+01
 curvature:   0.00 expect dE= 0.000E+00 dE for cont linesearch  0.000E+00
 trial: gam= 0.00000 g(F)=  0.550E-63 g(S)=  0.210E+02 ort = 0.000E+00 (trialstep = 0.100E+01)
 search vector abs. value=  0.210E+02
 bond charge predicted
       N       E                     dE             d eps       ncg     rms          rms(c)
DAV:   1    -0.134723643859E+02   -0.42286E+01   -0.73160E+01    20   0.447E+01    0.421E+00
DAV:   2    -0.131784344957E+02    0.29393E+00   -0.14925E+00    20   0.697E+00    0.261E+00
DAV:   3    -0.129413861071E+02    0.23705E+00   -0.14866E-01    20   0.235E+00    0.128E-01
DAV:   4    -0.129410546449E+02    0.33146E-03   -0.20553E-03    20   0.369E-01    0.657E-02
DAV:   5    -0.129411546246E+02   -0.99980E-04   -0.11991E-04    10   0.793E-02
   2 F= -.12941155E+02 E0= -.12891373E+02  d E =-.369739E+01
 trial-energy change:   -3.697393  1 .order   -7.832525  -20.996815    5.331765
 step:   0.5660(harm=  0.7975)  dis= 0.00000  next Energy=   -14.436133 (dE=-0.519E+01)
 bond charge predicted
       N       E                     dE             d eps       ncg     rms          rms(c)
DAV:   1    -0.141903512900E+02   -0.12493E+01   -0.22455E+01    20   0.314E+01    0.240E+00
DAV:   2    -0.140916227813E+02    0.98729E-01   -0.30691E-01    20   0.379E+00    0.150E+00
DAV:   3    -0.140051398758E+02    0.86483E-01   -0.43458E-02    20   0.131E+00    0.568E-02
DAV:   4    -0.140051866575E+02   -0.46782E-04   -0.34968E-04    18   0.173E-01
   3 F= -.14005187E+02 E0= -.13955405E+02  d E =-.476143E+01
 curvature:   0.12 expect dE= 0.210E-03 dE for cont linesearch  0.210E-03
 trial: gam=-0.00897 g(F)=  0.156E-63 g(S)=  0.172E-02 ort = 0.190E+00 (trialstep = 0.913E+00)
 search vector abs. value=  0.141E-06
 reached required accuracy - stopping structural energy minimisation
