       N       E                     dE             d eps       ncg     rms          rms(c)
RMM:   1     0.298641904882E+03    0.29864E+03   -0.17352E+04    72   0.582E+02
RMM:   2     0.746713422882E+00   -0.29790E+03   -0.29070E+03    72   0.121E+02
RMM:   3    -0.550030095030E+02   -0.55750E+02   -0.57278E+02    72   0.394E+01
RMM:   4    -0.730412023607E+02   -0.18038E+02   -0.14333E+02    72   0.218E+01
RMM:   5    -0.812898671341E+02   -0.82487E+01   -0.57551E+01    72   0.125E+01
RMM:   6    -0.842767921047E+02   -0.29869E+01   -0.23241E+01    72   0.744E+00
RMM:   7    -0.854210228493E+02   -0.11442E+01   -0.97909E+00    72   0.451E+00
RMM:   8    -0.859140703837E+02   -0.49305E+00   -0.44112E+00    72   0.281E+00
RMM:   9    -0.863266422542E+02   -0.41257E+00   -0.38752E+00   157   0.181E+00
RMM:  10    -0.863851986160E+02   -0.58556E-01   -0.44705E-01   146   0.384E-01
RMM:  11    -0.863890153034E+02   -0.38167E-02   -0.22450E-02   138   0.803E-02
RMM:  12    -0.863891699569E+02   -0.15465E-03   -0.12848E-03   107   0.228E-02    0.775E+00
RMM:  13    -0.839713862757E+02    0.24178E+01   -0.90700E+00   144   0.375E+00    0.434E+00
RMM:  14    -0.834349714950E+02    0.53641E+00   -0.53651E-01   144   0.119E+00    0.291E+00
RMM:  15    -0.831589439497E+02    0.27603E+00   -0.14552E-01   144   0.881E-01    0.714E-01
RMM:  16    -0.831381280557E+02    0.20816E-01   -0.34243E-02   147   0.313E-01    0.122E-01
RMM:  17    -0.831374558643E+02    0.67219E-03   -0.34825E-03   147   0.880E-02    0.652E-02
RMM:  18    -0.831374003889E+02    0.55475E-04   -0.64974E-04   119   0.390E-02
   1 F= -.83137400E+02 E0= -.83093742E+02  d E =-.831374E+02
       N       E                     dE             d eps       ncg     rms          rms(c)
RMM:   1    -0.100178044299E+03   -0.17041E+02   -0.16827E+02   144   0.266E+01    0.583E+00
RMM:   2    -0.975862207383E+02    0.25918E+01   -0.10222E+01   145   0.567E+00    0.376E+00
RMM:   3    -0.965044405267E+02    0.10818E+01   -0.19873E+00   148   0.203E+00    0.203E+00
RMM:   4    -0.963075722864E+02    0.19687E+00   -0.11027E+00   144   0.161E+00    0.706E-01
RMM:   5    -0.962964060607E+02    0.11166E-01   -0.68291E-02   153   0.407E-01    0.435E-01
RMM:   6    -0.962946766212E+02    0.17294E-02   -0.35672E-02   147   0.291E-01    0.190E-01
RMM:   7    -0.962923951681E+02    0.22815E-02   -0.67124E-03   148   0.129E-01    0.429E-02
RMM:   8    -0.962924669917E+02   -0.71824E-04   -0.13476E-03   128   0.374E-02    0.236E-02
RMM:   9    -0.962924380941E+02    0.28898E-04   -0.12431E-04   102   0.167E-02
   2 F= -.96292438E+02 E0= -.96264312E+02  d E =-.131550E+02
       N       E                     dE             d eps       ncg     rms          rms(c)
RMM:   1    -0.981766351847E+02   -0.18842E+01   -0.23072E+01   144   0.120E+01    0.197E+00
RMM:   2    -0.978483190328E+02    0.32832E+00   -0.77940E-01   144   0.180E+00    0.743E-01
RMM:   3    -0.978199858921E+02    0.28333E-01   -0.89162E-02   147   0.507E-01    0.380E-01
RMM:   4    -0.978147386129E+02    0.52473E-02   -0.12921E-02   146   0.199E-01    0.197E-01
RMM:   5    -0.978140194550E+02    0.71916E-03   -0.22964E-03   152   0.802E-02    0.934E-02
RMM:   6    -0.978138731255E+02    0.14633E-03   -0.32276E-04   110   0.354E-02    0.330E-02
RMM:   7    -0.978138521754E+02    0.20950E-04   -0.57852E-05    91   0.191E-02
   3 F= -.97813852E+02 E0= -.97778963E+02  d E =-.146765E+02
       N       E                     dE             d eps       ncg     rms          rms(c)
RMM:   1    -0.991445390063E+02   -0.13307E+01   -0.10574E+01   144   0.819E+00    0.125E+00
RMM:   2    -0.990070010561E+02    0.13754E+00   -0.36932E-01   144   0.125E+00    0.458E-01
RMM:   3    -0.989962086902E+02    0.10792E-01   -0.48229E-02   150   0.344E-01    0.226E-01
RMM:   4    -0.989941208373E+02    0.20879E-02   -0.84996E-03   147   0.148E-01    0.990E-02
RMM:   5    -0.989940872083E+02    0.33629E-04   -0.89676E-04   129   0.465E-02
   4 F= -.98994087E+02 E0= -.98962063E+02  d E =-.118024E+01
       N       E                     dE             d eps       ncg     rms          rms(c)
RMM:   1    -0.997928950318E+02   -0.79877E+00   -0.23037E+01   144   0.120E+01    0.171E+00
RMM:   2    -0.995192096302E+02    0.27369E+00   -0.74655E-01   144   0.181E+00    0.719E-01
RMM:   3    -0.994922373934E+02    0.26972E-01   -0.11497E-01   149   0.514E-01    0.345E-01
RMM:   4    -0.994872656151E+02    0.49718E-02   -0.26315E-02   148   0.255E-01    0.134E-01
RMM:   5    -0.994872276591E+02    0.37956E-04   -0.24703E-03   143   0.696E-02    0.744E-02
RMM:   6    -0.994872581893E+02   -0.30530E-04   -0.35563E-04   106   0.293E-02
   5 F= -.99487258E+02 E0= -.99445950E+02  d E =-.167341E+01
       N       E                     dE             d eps       ncg     rms          rms(c)
RMM:   1    -0.998409447593E+02   -0.35372E+00   -0.51280E+00   144   0.571E+00    0.945E-01
RMM:   2    -0.997663526437E+02    0.74592E-01   -0.18074E-01   145   0.850E-01    0.346E-01
RMM:   3    -0.997568742349E+02    0.94784E-02   -0.26046E-02   148   0.260E-01    0.148E-01
RMM:   4    -0.997557033120E+02    0.11709E-02   -0.54926E-03   146   0.120E-01    0.526E-02
RMM:   5    -0.997556917545E+02    0.11558E-04   -0.44740E-04   112   0.321E-02
   6 F= -.99755692E+02 E0= -.99729805E+02  d E =-.268434E+00
       N       E                     dE             d eps       ncg     rms          rms(c)
RMM:   1    -0.997560905667E+02   -0.38725E-03   -0.61503E-03   144   0.197E-01    0.390E-02
RMM:   2    -0.997559936711E+02    0.96896E-04   -0.22025E-04   100   0.305E-02
   7 F= -.99755994E+02 E0= -.99730543E+02  d E =-.268735E+00
       N       E                     dE             d eps       ncg     rms          rms(c)
RMM:   1    -0.999468017661E+02   -0.19071E+00   -0.18190E+00   144   0.348E+00    0.679E-01
RMM:   2    -0.999058713800E+02    0.40930E-01   -0.12949E-01   144   0.611E-01    0.197E-01
RMM:   3    -0.999026349370E+02    0.32364E-02   -0.10507E-02   149   0.144E-01    0.942E-02
RMM:   4    -0.999023376797E+02    0.29726E-03   -0.14434E-03   144   0.605E-02    0.408E-02
RMM:   5    -0.999023481373E+02   -0.10458E-04   -0.19421E-04   105   0.212E-02
   8 F= -.99902348E+02 E0= -.99886973E+02  d E =-.146354E+00
       N       E                     dE             d eps       ncg     rms          rms(c)
RMM:   1    -0.100273472640E+03   -0.37113E+00   -0.10146E+01   144   0.819E+00    0.130E+00
RMM:   2    -0.100083815714E+03    0.18966E+00   -0.52615E-01   144   0.131E+00    0.449E-01
RMM:   3    -0.100072042818E+03    0.11773E-01   -0.49186E-02   150   0.325E-01    0.223E-01
RMM:   4    -0.100070290439E+03    0.17524E-02   -0.75995E-03   147   0.146E-01    0.901E-02
RMM:   5    -0.100070352931E+03   -0.62492E-04   -0.11508E-03   134   0.459E-02    0.427E-02
RMM:   6    -0.100070374106E+03   -0.21175E-04   -0.98215E-05    97   0.205E-02
   9 F= -.10007037E+03 E0= -.10008695E+03  d E =-.314380E+00
       N       E                     dE             d eps       ncg     rms          rms(c)
RMM:   1    -0.100253624597E+03   -0.18327E+00   -0.36094E+00   144   0.497E+00    0.690E-01
RMM:   2    -0.100202307655E+03    0.51317E-01   -0.14042E-01   144   0.741E-01    0.242E-01
RMM:   3    -0.100199630421E+03    0.26772E-02   -0.15123E-02   149   0.190E-01    0.125E-01
RMM:   4    -0.100199266457E+03    0.36396E-03   -0.20315E-03   146   0.774E-02    0.567E-02
RMM:   5    -0.100199290937E+03   -0.24480E-04   -0.35060E-04   110   0.280E-02
  10 F= -.10019929E+03 E0= -.10022841E+03  d E =-.128917E+00
       N       E                     dE             d eps       ncg     rms          rms(c)
RMM:   1    -0.100245437507E+03   -0.46171E-01   -0.15865E+00   144   0.329E+00    0.423E-01
RMM:   2    -0.100226887995E+03    0.18550E-01   -0.54132E-02   144   0.476E-01    0.159E-01
RMM:   3    -0.100225828891E+03    0.10591E-02   -0.60033E-03   150   0.122E-01    0.867E-02
RMM:   4    -0.100225667858E+03    0.16103E-03   -0.10234E-03   134   0.538E-02    0.369E-02
RMM:   5    -0.100225676190E+03   -0.83318E-05   -0.10858E-04    99   0.192E-02
  11 F= -.10022568E+03 E0= -.10025696E+03  d E =-.155302E+00
       N       E                     dE             d eps       ncg     rms          rms(c)
RMM:   1    -0.100339429518E+03   -0.11376E+00   -0.21719E+00   144   0.408E+00    0.421E-01
RMM:   2    -0.100328963563E+03    0.10466E-01   -0.64504E-02   145   0.534E-01    0.197E-01
RMM:   3    -0.100327583383E+03    0.13802E-02   -0.74564E-03   152   0.144E-01    0.118E-01
RMM:   4    -0.100327345450E+03    0.23793E-03   -0.17335E-03   145   0.735E-02    0.430E-02
RMM:   5    -0.100327362141E+03   -0.16691E-04   -0.12411E-04   101   0.195E-02
  12 F= -.10032736E+03 E0= -.10035651E+03  d E =-.101686E+00
       N       E                     dE             d eps       ncg     rms          rms(c)
RMM:   1    -0.100473215997E+03   -0.14587E+00   -0.97934E+00   144   0.865E+00    0.937E-01
RMM:   2    -0.100421275139E+03    0.51941E-01   -0.30200E-01   145   0.116E+00    0.455E-01
RMM:   3    -0.100412564750E+03    0.87104E-02   -0.38581E-02   155   0.320E-01    0.262E-01
RMM:   4    -0.100411302279E+03    0.12625E-02   -0.88783E-03   150   0.165E-01    0.959E-02
RMM:   5    -0.100411375863E+03   -0.73584E-04   -0.73116E-04   126   0.431E-02
  13 F= -.10041138E+03 E0= -.10043073E+03  d E =-.185700E+00
       N       E                     dE             d eps       ncg     rms          rms(c)
RMM:   1    -0.100472860075E+03   -0.61558E-01   -0.64389E-01   144   0.232E+00    0.273E-01
RMM:   2    -0.100468155835E+03    0.47042E-02   -0.19519E-02   147   0.308E-01    0.125E-01
RMM:   3    -0.100467792410E+03    0.36342E-03   -0.22809E-03   151   0.853E-02    0.749E-02
RMM:   4    -0.100467743135E+03    0.49275E-04   -0.45593E-04   127   0.406E-02
  14 F= -.10046774E+03 E0= -.10048478E+03  d E =-.563673E-01
       N       E                     dE             d eps       ncg     rms          rms(c)
RMM:   1    -0.100625707121E+03   -0.15791E+00   -0.57221E+00   144   0.688E+00    0.800E-01
RMM:   2    -0.100583294031E+03    0.42413E-01   -0.17620E-01   146   0.925E-01    0.363E-01
RMM:   3    -0.100579120379E+03    0.41737E-02   -0.18958E-02   153   0.255E-01    0.213E-01
RMM:   4    -0.100578515995E+03    0.60438E-03   -0.41670E-03   151   0.119E-01    0.869E-02
RMM:   5    -0.100578567882E+03   -0.51887E-04   -0.46850E-04   125   0.377E-02
  15 F= -.10057857E+03 E0= -.10058957E+03  d E =-.167192E+00
       N       E                     dE             d eps       ncg     rms          rms(c)
RMM:   1    -0.100643485160E+03   -0.64969E-01   -0.39434E-01   144   0.162E+00    0.179E-01
RMM:   2    -0.100640885493E+03    0.25997E-02   -0.79245E-03   145   0.211E-01    0.732E-02
RMM:   3    -0.100640608348E+03    0.27714E-03   -0.14399E-03   145   0.679E-02    0.277E-02
RMM:   4    -0.100640595770E+03    0.12578E-04   -0.11170E-04    95   0.203E-02
  16 F= -.10064060E+03 E0= -.10065420E+03  d E =-.620279E-01
       N       E                     dE             d eps       ncg     rms          rms(c)
RMM:   1    -0.100714770103E+03   -0.74162E-01   -0.19801E+00   144   0.364E+00    0.412E-01
RMM:   2    -0.100700375554E+03    0.14395E-01   -0.42276E-02   145   0.479E-01    0.163E-01
RMM:   3    -0.100699038406E+03    0.13371E-02   -0.66203E-03   149   0.149E-01    0.639E-02
RMM:   4    -0.100698970949E+03    0.67457E-04   -0.65186E-04   127   0.455E-02
  17 F= -.10069897E+03 E0= -.10071906E+03  d E =-.120403E+00
       N       E                     dE             d eps       ncg     rms          rms(c)
RMM:   1    -0.100728041352E+03   -0.29003E-01   -0.24745E-01   144   0.134E+00    0.161E-01
RMM:   2    -0.100726106321E+03    0.19350E-02   -0.61703E-03   148   0.178E-01    0.643E-02
RMM:   3    -0.100725995518E+03    0.11080E-03   -0.67366E-04   130   0.506E-02    0.308E-02
RMM:   4    -0.100725988045E+03    0.74734E-05   -0.78046E-05    91   0.206E-02
  18 F= -.10072599E+03 E0= -.10074464E+03  d E =-.270171E-01
       N       E                     dE             d eps       ncg     rms          rms(c)
RMM:   1    -0.100769179688E+03   -0.43184E-01   -0.15401E+00   144   0.335E+00    0.419E-01
RMM:   2    -0.100755372439E+03    0.13807E-01   -0.39356E-02   146   0.452E-01    0.150E-01
RMM:   3    -0.100754832378E+03    0.54006E-03   -0.46527E-03   152   0.124E-01    0.752E-02
RMM:   4    -0.100754767415E+03    0.64962E-04   -0.53398E-04   131   0.454E-02
  19 F= -.10075477E+03 E0= -.10076869E+03  d E =-.557965E-01
       N       E                     dE             d eps       ncg     rms          rms(c)
RMM:   1    -0.100778332798E+03   -0.23500E-01   -0.33386E-01   144   0.165E+00    0.187E-01
RMM:   2    -0.100776208808E+03    0.21240E-02   -0.10245E-02   146   0.220E-01    0.933E-02
RMM:   3    -0.100775801255E+03    0.40755E-03   -0.12805E-03   133   0.641E-02    0.540E-02
RMM:   4    -0.100775756789E+03    0.44466E-04   -0.23865E-04   101   0.315E-02
  20 F= -.10077576E+03 E0= -.10079051E+03  d E =-.209894E-01
       N       E                     dE             d eps       ncg     rms          rms(c)
RMM:   1    -0.100798852708E+03   -0.23051E-01   -0.11705E+00   144   0.310E+00    0.344E-01
RMM:   2    -0.100791903370E+03    0.69493E-02   -0.37048E-02   146   0.414E-01    0.172E-01
RMM:   3    -0.100790319664E+03    0.15837E-02   -0.46457E-03   150   0.121E-01    0.970E-02
RMM:   4    -0.100790160840E+03    0.15882E-03   -0.95721E-04   145   0.569E-02    0.380E-02
RMM:   5    -0.100790165266E+03   -0.44263E-05   -0.59353E-05    96   0.171E-02
  21 F= -.10079017E+03 E0= -.10080751E+03  d E =-.353979E-01
