       N       E                     dE             d eps       ncg     rms          rms(c)
RMM:   1     0.224136997512E+03    0.22414E+03   -0.15454E+04   144   0.531E+02
RMM:   2    -0.396395215588E+02   -0.26378E+03   -0.25348E+03   144   0.109E+02
RMM:   3    -0.945574121683E+02   -0.54918E+02   -0.53076E+02   144   0.355E+01
RMM:   4    -0.106932877926E+03   -0.12375E+02   -0.10717E+02   144   0.196E+01
RMM:   5    -0.111325705807E+03   -0.43928E+01   -0.32924E+01   144   0.990E+00
RMM:   6    -0.112777898012E+03   -0.14522E+01   -0.10724E+01   144   0.563E+00
RMM:   7    -0.113236497417E+03   -0.45860E+00   -0.37244E+00   144   0.313E+00
RMM:   8    -0.113401519766E+03   -0.16502E+00   -0.13886E+00   144   0.187E+00
RMM:   9    -0.113486767439E+03   -0.85248E-01   -0.77754E-01   379   0.110E+00
RMM:  10    -0.113500771265E+03   -0.14004E-01   -0.90618E-02   345   0.293E-01
RMM:  11    -0.113501506061E+03   -0.73480E-03   -0.52209E-03   298   0.774E-02
RMM:  12    -0.113501533891E+03   -0.27830E-04   -0.25253E-04   219   0.237E-02    0.536E+00
RMM:  13    -0.112864697795E+03    0.63684E+00   -0.61739E-01   306   0.110E+00    0.327E+00
RMM:  14    -0.112621310485E+03    0.24339E+00   -0.14586E-01   327   0.756E-01    0.129E+00
RMM:  15    -0.112575298379E+03    0.46012E-01   -0.31999E-02   327   0.405E-01    0.147E-01
RMM:  16    -0.112574239713E+03    0.10587E-02   -0.27772E-03   342   0.108E-01    0.455E-02
RMM:  17    -0.112574254372E+03   -0.14659E-04   -0.25859E-04   260   0.404E-02
   1 F= -.11257425E+03 E0= -.11256134E+03  d E =-.387442E-01
