<?xml version="1.0" encoding="ISO-8859-1"?>
<modeling>
 <generator>
  <i name="program" type="string">vasp </i>
  <i name="version" type="string">5.2.2  </i>
  <i name="subversion" type="string">15Apr09 complex  parallel </i>
  <i name="platform" type="string">LinuxIFC </i>
  <i name="date" type="string">2017 03 17 </i>
  <i name="time" type="string">11:31:58 </i>
 </generator>
 <incar>
  <i type="string" name="PREC">accurate</i>
  <i type="int" name="IALGO">    48</i>
  <i type="int" name="IBRION">     1</i>
  <i name="EDIFFG">      0.05000000</i>
  <i type="int" name="NSW">   191</i>
  <i type="int" name="ISIF">     2</i>
  <i name="ENCUT">    300.00000000</i>
  <i name="POTIM">      0.50000000</i>
  <i name="NELECT">     92.00000000</i>
  <i type="int" name="ISMEAR">     1</i>
  <i name="SIGMA">      0.20000000</i>
  <i type="logical" name="LWAVE"> F  </i>
  <i type="logical" name="LCHARG"> F  </i>
  <i type="logical" name="LPEAD"> F  </i>
  <i type="logical" name="LCALCPOL"> F  </i>
  <i type="logical" name="LCALCEPS"> F  </i>
  <v name="EFIELD_PEAD">      0.00000000      0.00000000      0.00000000</v>
  <i type="logical" name="LEFG"> F  </i>
 </incar>
 <kpoints>
  <generation param="Gamma">
   <v type="int" name="divisions">       1        1        1 </v>
   <v name="usershift">      0.00000000       0.00000000       0.00000000 </v>
   <v name="genvec1">      1.00000000       0.00000000       0.00000000 </v>
   <v name="genvec2">      0.00000000       1.00000000       0.00000000 </v>
   <v name="genvec3">      0.00000000       0.00000000       1.00000000 </v>
   <v name="shift">      0.00000000       0.00000000       0.00000000 </v>
  </generation>
  <varray name="kpointlist" >
   <v>       0.00000000       0.00000000       0.00000000 </v>
  </varray>
  <varray name="weights" >
   <v>       1.00000000 </v>
  </varray>
 </kpoints>
 <parameters>
  <separator name="general" >
   <i type="string" name="SYSTEM">unknown system</i>
   <i type="logical" name="LCOMPAT"> F  </i>
  </separator>
  <separator name="electronic" >
   <i type="string" name="PREC">accura</i>
   <i name="ENMAX">    300.00000000</i>
   <i name="ENAUG">    291.05200000</i>
   <i name="EDIFF">      0.00010000</i>
   <i type="int" name="IALGO">    48</i>
   <i type="int" name="IWAVPR">    11</i>
   <i type="int" name="NBANDS">    72</i>
   <i name="NELECT">     92.00000000</i>
   <separator name="electronic smearing" >
    <i type="int" name="ISMEAR">     1</i>
    <i name="SIGMA">      0.20000000</i>
   </separator>
   <separator name="electronic projectors" >
    <i type="logical" name="LREAL"> F  </i>
    <v name="ROPT">      0.00000000      0.00000000</v>
    <i type="int" name="LMAXPAW">  -100</i>
    <i type="int" name="LMAXMIX">     2</i>
   </separator>
   <separator name="electronic startup" >
    <i type="int" name="ISTART">     0</i>
    <i type="int" name="ICHARG">     2</i>
    <i type="int" name="INIWAV">     1</i>
   </separator>
   <separator name="electronic spin" >
    <i type="int" name="ISPIN">     1</i>
    <i type="logical" name="LNONCOLLINEAR"> F  </i>
    <v name="MAGMOM">      1.00000000      1.00000000      1.00000000      1.00000000      1.00000000      1.00000000      1.00000000      1.00000000      1.00000000      1.00000000      1.00000000      1.00000000      1.00000000      1.00000000      1.00000000      1.00000000      1.00000000      1.00000000      1.00000000      1.00000000
      1.00000000      1.00000000      1.00000000      1.00000000      1.00000000      1.00000000      1.00000000      1.00000000      1.00000000      1.00000000      1.00000000</v>
    <i name="NUPDOWN">     -1.00000000</i>
    <i type="logical" name="LSORBIT"> F  </i>
    <v name="SAXIS">      0.00000000      0.00000000      1.00000000</v>
    <i type="logical" name="LSPIRAL"> F  </i>
    <v name="QSPIRAL">      0.00000000      0.00000000      0.00000000</v>
    <i type="logical" name="LZEROZ"> F  </i>
   </separator>
   <separator name="electronic exchange-correlation" >
    <i type="logical" name="LASPH"> F  </i>
    <i type="logical" name="LMETAGGA"> F  </i>
   </separator>
   <separator name="electronic convergence" >
    <i type="int" name="NELM">    60</i>
    <i type="int" name="NELMDL">   -12</i>
    <i type="int" name="NELMIN">     2</i>
    <i name="ENINI">    300.00000000</i>
    <separator name="electronic convergence detail" >
     <i type="logical" name="LDIAG"> T  </i>
     <i name="WEIMIN">      0.00100000</i>
     <i name="EBREAK">      0.00000040</i>
     <i name="DEPER">      0.30000000</i>
     <i type="int" name="NRMM">     4</i>
     <i name="TIME">      0.40000000</i>
    </separator>
   </separator>
   <separator name="electronic mixer" >
    <i name="AMIX">      0.40000000</i>
    <i name="BMIX">      1.00000000</i>
    <i name="AMIN">      0.10000000</i>
    <i name="AMIX_MAG">      1.60000000</i>
    <i name="BMIX_MAG">      1.00000000</i>
    <separator name="electronic mixer details" >
     <i type="int" name="IMIX">     4</i>
     <i type="int" name="MAXMIX">   -45</i>
     <i name="WC">    100.00000000</i>
     <i type="int" name="INIMIX">     1</i>
     <i type="int" name="MIXPRE">     1</i>
     <i type="int" name="MREMOVE">     5</i>
    </separator>
   </separator>
   <separator name="electronic dipolcorrection" >
    <i type="logical" name="LDIPOL"> F  </i>
    <i type="logical" name="LMONO"> F  </i>
    <i type="int" name="IDIPOL">     0</i>
    <i name="EPSILON">      1.00000000</i>
    <v name="DIPOL">   -100.00000000   -100.00000000   -100.00000000</v>
    <i name="EFIELD">      0.00000000</i>
   </separator>
  </separator>
  <separator name="grids" >
   <i type="int" name="NGX">    48</i>
   <i type="int" name="NGY">    48</i>
   <i type="int" name="NGZ">    48</i>
   <i type="int" name="NGXF">    96</i>
   <i type="int" name="NGYF">    96</i>
   <i type="int" name="NGZF">    96</i>
   <i type="logical" name="ADDGRID"> F  </i>
  </separator>
  <separator name="ionic" >
   <i type="int" name="NSW">   191</i>
   <i type="int" name="IBRION">     1</i>
   <i type="int" name="ISIF">     2</i>
   <i name="PSTRESS">      0.00000000</i>
   <i name="EDIFFG">      0.05000000</i>
   <i type="int" name="NFREE">     0</i>
   <i name="POTIM">      0.50000000</i>
   <i name="SMASS">     -3.00000000</i>
  </separator>
  <separator name="ionic md" >
   <i name="TEBEG">      0.00010000</i>
   <i name="TEEND">      0.00010000</i>
   <i type="int" name="NBLOCK">     1</i>
   <i type="int" name="KBLOCK">   191</i>
   <i type="int" name="NPACO">   256</i>
   <i name="APACO">     16.00000000</i>
  </separator>
  <separator name="symmetry" >
   <i type="int" name="ISYM">     2</i>
   <i name="SYMPREC">      0.00001000</i>
  </separator>
  <separator name="dos" >
   <i type="logical" name="LORBIT"> F  </i>
   <v name="RWIGS">     -1.00000000     -1.00000000</v>
   <i type="int" name="NEDOS">   301</i>
   <i name="EMIN">     10.00000000</i>
   <i name="EMAX">    -10.00000000</i>
   <i name="EFERMI">      0.00000000</i>
  </separator>
  <separator name="writing" >
   <i type="int" name="NWRITE">     2</i>
   <i type="logical" name="LWAVE"> F  </i>
   <i type="logical" name="LCHARG"> F  </i>
   <i type="logical" name="LPARD"> F  </i>
   <i type="logical" name="LVTOT"> F  </i>
   <i type="logical" name="LELF"> F  </i>
   <i type="logical" name="LOPTICS"> F  </i>
   <v name="STM">      0.00000000      0.00000000      0.00000000      0.00000000      0.00000000</v>
  </separator>
  <separator name="performance" >
   <i type="int" name="NPAR">    12</i>
   <i type="int" name="NSIM">     4</i>
   <i type="int" name="NBLK">    32</i>
   <i type="logical" name="LPLANE"> T  </i>
   <i type="logical" name="LSCALAPACK"> F  </i>
   <i type="logical" name="LSCAAWARE"> F  </i>
   <i type="logical" name="LSCALU"> F  </i>
   <i type="logical" name="LASYNC"> F  </i>
  </separator>
  <separator name="miscellaneous" >
   <i type="int" name="IDIOT">     3</i>
   <i type="logical" name="LMUSIC"> F  </i>
   <v name="POMASS">     26.98200000     24.30500000</v>
   <i type="logical" name="LCORR"> T  </i>
  </separator>
  <i type="logical" name="LREAL_COMPAT"> F  </i>
  <i type="logical" name="GGA_COMPAT"> T  </i>
  <i type="logical" name="LBERRY"> F  </i>
  <i type="int" name="ICORELEVEL">     0</i>
  <i type="logical" name="LDAU"> F  </i>
  <i type="int" name="I_CONSTRAINED_M">     0</i>
  <separator name="electronic exchange-correlation" >
   <i type="string" name="GGA">--</i>
   <i type="int" name="VOSKOWN">     0</i>
   <i type="logical" name="LHFCALC"> F  </i>
   <i type="logical" name="LHFONE"> F  </i>
   <i type="logical" name="LRHFCALC"> F  </i>
   <i type="logical" name="LTHOMAS"> F  </i>
   <i type="logical" name="LMODELHF"> F  </i>
   <i name="ENCUTFOCK">      0.00000000</i>
   <i name="ENCUT4O">     -1.00000000</i>
   <i type="int" name="EXXOEP">     0</i>
   <i type="int" name="FOURORBIT">     0</i>
   <i name="AEXX">      0.00000000</i>
   <i name="HFALPHA">      0.00000000</i>
   <i name="ALDAX">      1.00000000</i>
   <i name="AGGAX">      1.00000000</i>
   <i name="ALDAC">      1.00000000</i>
   <i name="AGGAC">      1.00000000</i>
   <i type="int" name="NKREDX">     1</i>
   <i type="int" name="NKREDY">     1</i>
   <i type="int" name="NKREDZ">     1</i>
   <i type="logical" name="SHIFTRED"> F  </i>
   <i type="logical" name="ODDONLY"> F  </i>
   <i type="logical" name="EVENONLY"> F  </i>
   <i type="int" name="LMAXFOCK">     0</i>
   <i type="int" name="NMAXFOCKAE">     0</i>
   <i name="HFSCREEN">      0.00000000</i>
   <i name="HFSCREENC">      0.00000000</i>
  </separator>
  <separator name="model GW" >
   <i type="int" name="MODEL_GW">     0</i>
   <i name="MODEL_EPS0">     10.23670678</i>
   <i name="MODEL_ALPHA">      1.00000000</i>
  </separator>
  <separator name="linear response parameters" >
   <i type="logical" name="LEPSILON"> F  </i>
   <i type="logical" name="LRPA"> F  </i>
   <i type="logical" name="LNABLA"> F  </i>
   <i type="logical" name="LVEL"> F  </i>
   <i type="int" name="KINTER">     0</i>
   <i name="CSHIFT">      0.10000000</i>
   <i name="OMEGAMAX">     -1.00000000</i>
  </separator>
  <separator name="orbital magnetization" >
   <i type="logical" name="ORBITALMAG"> F  </i>
   <i type="logical" name="LMAGBLOCH"> F  </i>
   <i type="logical" name="LCHIMAG"> F  </i>
   <i type="logical" name="LGAUGE"> T  </i>
   <i type="int" name="MAGATOM">     0</i>
   <v name="MAGDIPOL">      0.00000000      0.00000000      0.00000000</v>
   <v name="AVECCONST">      0.00000000      0.00000000      0.00000000</v>
  </separator>
  <separator name="response functions" >
   <i type="logical" name="LRPA"> T  </i>
   <i type="logical" name="LTCTE"> F  </i>
   <i type="logical" name="LTETE"> F  </i>
   <i type="logical" name="L2ORDER"> F  </i>
   <i type="logical" name="LGWLF"> F  </i>
   <i name="ENCUTGW">    200.00000000</i>
   <i name="ENCUTGWSOFT">     -2.00000000</i>
   <i name="ENCUTLF">     -1.00000000</i>
   <i type="int" name="LMAXMP2">    -1</i>
   <i name="SCISSOR">      0.00000000</i>
   <i type="int" name="NOMEGA">     0</i>
   <i type="int" name="NOMEGAR">     0</i>
   <i type="int" name="NBANDSGW">    -1</i>
   <i type="int" name="NBANDSLF">    -1</i>
   <i type="int" name="NELM">     1</i>
   <i type="int" name="DIM">     3</i>
   <i type="int" name="ANTIRES">     0</i>
   <i type="logical" name="LUSEW"> F  </i>
   <i name="OMEGAMAX">    -30.00000000</i>
   <i name="OMEGATL">   -200.00000000</i>
   <i type="int" name="OMEGAGRID">     0</i>
   <i name="CSHIFT">     -0.10000000</i>
   <i type="logical" name="SELFENERGY"> F  </i>
   <i type="logical" name="LSPECTRAL"> F  </i>
   <i type="logical" name="ODDONLYGW"> F  </i>
   <i type="logical" name="EVENONLYGW"> F  </i>
   <i type="int" name="NKREDLFX">     1</i>
   <i type="int" name="NKREDLFY">     1</i>
   <i type="int" name="NKREDLFZ">     1</i>
   <i type="int" name="MAXMEM">  1024</i>
   <i type="int" name="TELESCOPE">     0</i>
  </separator>
 </parameters>
 <atominfo>
  <atoms>      31 </atoms>
  <types>       2 </types>
  <array name="atoms" >
   <dimension dim="1">ion</dimension>
   <field type="string">element</field>
   <field type="int">atomtype</field>
   <set>
    <rc><c>Al</c><c>   1</c></rc>
    <rc><c>Al</c><c>   1</c></rc>
    <rc><c>Al</c><c>   1</c></rc>
    <rc><c>Al</c><c>   1</c></rc>
    <rc><c>Al</c><c>   1</c></rc>
    <rc><c>Al</c><c>   1</c></rc>
    <rc><c>Al</c><c>   1</c></rc>
    <rc><c>Al</c><c>   1</c></rc>
    <rc><c>Al</c><c>   1</c></rc>
    <rc><c>Al</c><c>   1</c></rc>
    <rc><c>Al</c><c>   1</c></rc>
    <rc><c>Al</c><c>   1</c></rc>
    <rc><c>Al</c><c>   1</c></rc>
    <rc><c>Al</c><c>   1</c></rc>
    <rc><c>Al</c><c>   1</c></rc>
    <rc><c>Al</c><c>   1</c></rc>
    <rc><c>Al</c><c>   1</c></rc>
    <rc><c>Al</c><c>   1</c></rc>
    <rc><c>Al</c><c>   1</c></rc>
    <rc><c>Al</c><c>   1</c></rc>
    <rc><c>Al</c><c>   1</c></rc>
    <rc><c>Al</c><c>   1</c></rc>
    <rc><c>Al</c><c>   1</c></rc>
    <rc><c>Al</c><c>   1</c></rc>
    <rc><c>Al</c><c>   1</c></rc>
    <rc><c>Al</c><c>   1</c></rc>
    <rc><c>Al</c><c>   1</c></rc>
    <rc><c>Al</c><c>   1</c></rc>
    <rc><c>Al</c><c>   1</c></rc>
    <rc><c>Al</c><c>   1</c></rc>
    <rc><c>Mg</c><c>   2</c></rc>
   </set>
  </array>
  <array name="atomtypes" >
   <dimension dim="1">type</dimension>
   <field type="int">atomspertype</field>
   <field type="string">element</field>
   <field>mass</field>
   <field>valence</field>
   <field type="string">pseudopotential</field>
   <set>
    <rc><c>  30</c><c>Al</c><c>     26.98200000</c><c>      3.00000000</c><c> PAW_PBE Al 04Jan2001                   </c></rc>
    <rc><c>   1</c><c>Mg</c><c>     24.30500000</c><c>      2.00000000</c><c> PAW_PBE Mg 05Jan2001                   </c></rc>
   </set>
  </array>
 </atominfo>
 <structure name="initialpos" >
  <crystal>
   <varray name="basis" >
    <v>       8.08705200       0.00000000       0.00000000 </v>
    <v>       0.00000000       8.08705200       0.00000000 </v>
    <v>       0.00000000       0.00000000       8.08705200 </v>
   </varray>
   <i name="volume">    528.89651690 </i>
   <varray name="rec_basis" >
    <v>       0.12365445       0.00000000       0.00000000 </v>
    <v>       0.00000000       0.12365445       0.00000000 </v>
    <v>       0.00000000       0.00000000       0.12365445 </v>
   </varray>
  </crystal>
  <varray name="positions" >
   <v>       0.99925800       0.00000000       0.99925800 </v>
   <v>       0.24873100       0.00000000       0.24873100 </v>
   <v>       0.25076400       0.25200500       0.00287000 </v>
   <v>       0.00287000       0.25200500       0.25076400 </v>
   <v>       0.49987900       0.00000000       0.99639900 </v>
   <v>       0.75360100       0.00000000       0.25012200 </v>
   <v>       0.75151900       0.24905500       0.99848100 </v>
   <v>       0.50239000       0.24748400       0.24761000 </v>
   <v>       0.00169600       0.50000000       0.00169600 </v>
   <v>       0.25076400       0.74799500       0.00287000 </v>
   <v>       0.00287000       0.74799500       0.25076400 </v>
   <v>       0.50062400       0.50000000       0.00027000 </v>
   <v>       0.74972900       0.50000000       0.24937400 </v>
   <v>       0.75151900       0.75094600       0.99848100 </v>
   <v>       0.50239000       0.75251600       0.24761000 </v>
   <v>       0.99639900       0.00000000       0.49987900 </v>
   <v>       0.25012200       0.00000000       0.75360100 </v>
   <v>       0.24761000       0.24748400       0.50239000 </v>
   <v>       0.99848100       0.24905500       0.75151900 </v>
   <v>       0.50126900       0.00000000       0.50126900 </v>
   <v>       0.75074200       0.00000000       0.75074200 </v>
   <v>       0.74713000       0.25200500       0.49923800 </v>
   <v>       0.49923800       0.25200500       0.74713000 </v>
   <v>       0.00027000       0.50000000       0.50062400 </v>
   <v>       0.24937400       0.50000000       0.74972900 </v>
   <v>       0.24761000       0.75251600       0.50239000 </v>
   <v>       0.99848100       0.75094600       0.75151900 </v>
   <v>       0.74830400       0.50000000       0.74830400 </v>
   <v>       0.74713000       0.74799500       0.49923800 </v>
   <v>       0.49923800       0.74799500       0.74713000 </v>
   <v>       0.37500000       0.50000000       0.37500000 </v>
  </varray>
 </structure>
 <calculation>
  <scstep>
   <time name="diag">    0.15    0.15</time>
   <time name="diis">    0.34    0.34</time>
   <time name="orth">    0.01    0.01</time>
   <time name="total">    0.67    0.67</time>
   <energy>
    <i name="alphaZ">     -7.38313139 </i>
    <i name="ewald">  -2183.99402644 </i>
    <i name="hartreedc">    -21.01455377 </i>
    <i name="XCdc">   -796.42430283 </i>
    <i name="pawpsdc">   1078.21717227 </i>
    <i name="pawaedc">   -108.50372521 </i>
    <i name="eentropy">     -0.07201008 </i>
    <i name="bandstr">    643.22940882 </i>
    <i name="atom">   1629.13144109 </i>
    <i name="e_fr_energy">    233.18627245 </i>
    <i name="e_wo_entrp">    233.25828253 </i>
    <i name="e_0_energy">    233.21027581 </i>
   </energy>
  </scstep>
  <scstep>
   <time name="diag">    0.15    0.15</time>
   <time name="diis">    0.34    0.34</time>
   <time name="orth">    0.01    0.01</time>
   <time name="total">    0.50    0.51</time>
   <energy>
    <i name="e_fr_energy">    -25.18956434 </i>
    <i name="e_wo_entrp">    -25.11907852 </i>
    <i name="e_0_energy">    -25.16606907 </i>
   </energy>
  </scstep>
  <scstep>
   <time name="diag">    0.15    0.15</time>
   <time name="diis">    0.33    0.34</time>
   <time name="orth">    0.01    0.01</time>
   <time name="total">    0.50    0.50</time>
   <energy>
    <i name="e_fr_energy">    -72.53708494 </i>
    <i name="e_wo_entrp">    -72.51676885 </i>
    <i name="e_0_energy">    -72.53031291 </i>
   </energy>
  </scstep>
  <scstep>
   <time name="diag">    0.15    0.15</time>
   <time name="diis">    0.34    0.34</time>
   <time name="orth">    0.01    0.01</time>
   <time name="total">    0.50    0.50</time>
   <energy>
    <i name="e_fr_energy">    -87.67910245 </i>
    <i name="e_wo_entrp">    -87.60636678 </i>
    <i name="e_0_energy">    -87.65485723 </i>
   </energy>
  </scstep>
  <scstep>
   <time name="diag">    0.15    0.15</time>
   <time name="diis">    0.34    0.34</time>
   <time name="orth">    0.01    0.01</time>
   <time name="total">    0.50    0.50</time>
   <energy>
    <i name="e_fr_energy">    -94.37962969 </i>
    <i name="e_wo_entrp">    -94.39151533 </i>
    <i name="e_0_energy">    -94.38359157 </i>
   </energy>
  </scstep>
  <scstep>
   <time name="diag">    0.15    0.15</time>
   <time name="diis">    0.34    0.34</time>
   <time name="orth">    0.01    0.01</time>
   <time name="total">    0.50    0.50</time>
   <energy>
    <i name="e_fr_energy">    -96.84643701 </i>
    <i name="e_wo_entrp">    -96.84648607 </i>
    <i name="e_0_energy">    -96.84645336 </i>
   </energy>
  </scstep>
  <scstep>
   <time name="diag">    0.15    0.15</time>
   <time name="diis">    0.34    0.34</time>
   <time name="orth">    0.01    0.01</time>
   <time name="total">    0.50    0.50</time>
   <energy>
    <i name="e_fr_energy">    -97.69013274 </i>
    <i name="e_wo_entrp">    -97.70250188 </i>
    <i name="e_0_energy">    -97.69425578 </i>
   </energy>
  </scstep>
  <scstep>
   <time name="diag">    0.15    0.15</time>
   <time name="diis">    0.34    0.34</time>
   <time name="orth">    0.01    0.01</time>
   <time name="total">    0.50    0.50</time>
   <energy>
    <i name="e_fr_energy">    -98.02945829 </i>
    <i name="e_wo_entrp">    -98.04516450 </i>
    <i name="e_0_energy">    -98.03469370 </i>
   </energy>
  </scstep>
  <scstep>
   <time name="diag">    0.15    0.15</time>
   <time name="diis">    0.72    0.72</time>
   <time name="orth">    0.01    0.01</time>
   <time name="total">    0.88    0.88</time>
   <energy>
    <i name="e_fr_energy">    -98.26702120 </i>
    <i name="e_wo_entrp">    -98.28003429 </i>
    <i name="e_0_energy">    -98.27135890 </i>
   </energy>
  </scstep>
  <scstep>
   <time name="diag">    0.15    0.15</time>
   <time name="diis">    0.69    0.69</time>
   <time name="orth">    0.01    0.01</time>
   <time name="total">    0.86    0.86</time>
   <energy>
    <i name="e_fr_energy">    -98.30711865 </i>
    <i name="e_wo_entrp">    -98.31942971 </i>
    <i name="e_0_energy">    -98.31122234 </i>
   </energy>
  </scstep>
  <scstep>
   <time name="diag">    0.15    0.15</time>
   <time name="diis">    0.54    0.54</time>
   <time name="orth">    0.01    0.01</time>
   <time name="total">    0.70    0.70</time>
   <energy>
    <i name="e_fr_energy">    -98.30951961 </i>
    <i name="e_wo_entrp">    -98.32149707 </i>
    <i name="e_0_energy">    -98.31351210 </i>
   </energy>
  </scstep>
  <scstep>
   <time name="diag">    0.15    0.15</time>
   <time name="diis">    0.44    0.44</time>
   <time name="orth">    0.01    0.01</time>
   <time name="total">    0.73    0.73</time>
   <energy>
    <i name="e_fr_energy">    -98.30956022 </i>
    <i name="e_wo_entrp">    -98.32151372 </i>
    <i name="e_0_energy">    -98.31354472 </i>
   </energy>
  </scstep>
  <scstep>
   <time name="diag">    0.15    0.15</time>
   <time name="diis">    0.61    0.61</time>
   <time name="orth">    0.01    0.01</time>
   <time name="total">    1.06    1.06</time>
   <energy>
    <i name="e_fr_energy">    -97.27149100 </i>
    <i name="e_wo_entrp">    -97.19378956 </i>
    <i name="e_0_energy">    -97.24559052 </i>
   </energy>
  </scstep>
  <scstep>
   <time name="diag">    0.15    0.15</time>
   <time name="diis">    0.61    0.61</time>
   <time name="orth">    0.01    0.01</time>
   <time name="total">    1.06    1.06</time>
   <energy>
    <i name="e_fr_energy">    -97.00580036 </i>
    <i name="e_wo_entrp">    -96.91057283 </i>
    <i name="e_0_energy">    -96.97405785 </i>
   </energy>
  </scstep>
  <scstep>
   <time name="diag">    0.15    0.15</time>
   <time name="diis">    0.60    0.60</time>
   <time name="orth">    0.01    0.01</time>
   <time name="total">    1.06    1.06</time>
   <energy>
    <i name="e_fr_energy">    -96.86816275 </i>
    <i name="e_wo_entrp">    -96.78788383 </i>
    <i name="e_0_energy">    -96.84140311 </i>
   </energy>
  </scstep>
  <scstep>
   <time name="diag">    0.15    0.15</time>
   <time name="diis">    0.64    0.64</time>
   <time name="orth">    0.01    0.01</time>
   <time name="total">    1.10    1.10</time>
   <energy>
    <i name="e_fr_energy">    -96.86114757 </i>
    <i name="e_wo_entrp">    -96.77418909 </i>
    <i name="e_0_energy">    -96.83216141 </i>
   </energy>
  </scstep>
  <scstep>
   <time name="diag">    0.15    0.15</time>
   <time name="diis">    0.63    0.64</time>
   <time name="orth">    0.01    0.01</time>
   <time name="total">    1.08    1.10</time>
   <energy>
    <i name="e_fr_energy">    -96.86020912 </i>
    <i name="e_wo_entrp">    -96.77187084 </i>
    <i name="e_0_energy">    -96.83076302 </i>
   </energy>
  </scstep>
  <scstep>
   <time name="diag">    0.15    0.15</time>
   <time name="diis">    0.56    0.56</time>
   <time name="orth">    0.01    0.01</time>
   <time name="total">    0.89    0.89</time>
   <energy>
    <i name="alphaZ">     -7.38313139 </i>
    <i name="ewald">  -2183.99402644 </i>
    <i name="hartreedc">    -26.11997440 </i>
    <i name="XCdc">   -792.42308537 </i>
    <i name="pawpsdc">   1078.41068903 </i>
    <i name="pawaedc">   -109.00189685 </i>
    <i name="eentropy">     -0.08786381 </i>
    <i name="bandstr">    314.60773814 </i>
    <i name="atom">   1629.13144109 </i>
    <i name="e_fr_energy">    -96.86010999 </i>
    <i name="e_wo_entrp">    -96.77224618 </i>
    <i name="e_0_energy">    -96.83082206 </i>
   </energy>
  </scstep>
  <structure>
   <crystal>
    <varray name="basis" >
     <v>       8.08705200       0.00000000       0.00000000 </v>
     <v>       0.00000000       8.08705200       0.00000000 </v>
     <v>       0.00000000       0.00000000       8.08705200 </v>
    </varray>
    <i name="volume">    528.89651690 </i>
    <varray name="rec_basis" >
     <v>       0.12365445       0.00000000       0.00000000 </v>
     <v>       0.00000000       0.12365445       0.00000000 </v>
     <v>       0.00000000       0.00000000       0.12365445 </v>
    </varray>
   </crystal>
   <varray name="positions" >
    <v>       0.99925800       0.00000000       0.99925800 </v>
    <v>       0.24873100       0.00000000       0.24873100 </v>
    <v>       0.25076400       0.25200500       0.00287000 </v>
    <v>       0.00287000       0.25200500       0.25076400 </v>
    <v>       0.49987900       0.00000000       0.99639900 </v>
    <v>       0.75360100       0.00000000       0.25012200 </v>
    <v>       0.75151900       0.24905500       0.99848100 </v>
    <v>       0.50239000       0.24748400       0.24761000 </v>
    <v>       0.00169600       0.50000000       0.00169600 </v>
    <v>       0.25076400       0.74799500       0.00287000 </v>
    <v>       0.00287000       0.74799500       0.25076400 </v>
    <v>       0.50062400       0.50000000       0.00027000 </v>
    <v>       0.74972900       0.50000000       0.24937400 </v>
    <v>       0.75151900       0.75094600       0.99848100 </v>
    <v>       0.50239000       0.75251600       0.24761000 </v>
    <v>       0.99639900       0.00000000       0.49987900 </v>
    <v>       0.25012200       0.00000000       0.75360100 </v>
    <v>       0.24761000       0.24748400       0.50239000 </v>
    <v>       0.99848100       0.24905500       0.75151900 </v>
    <v>       0.50126900       0.00000000       0.50126900 </v>
    <v>       0.75074200       0.00000000       0.75074200 </v>
    <v>       0.74713000       0.25200500       0.49923800 </v>
    <v>       0.49923800       0.25200500       0.74713000 </v>
    <v>       0.00027000       0.50000000       0.50062400 </v>
    <v>       0.24937400       0.50000000       0.74972900 </v>
    <v>       0.24761000       0.75251600       0.50239000 </v>
    <v>       0.99848100       0.75094600       0.75151900 </v>
    <v>       0.74830400       0.50000000       0.74830400 </v>
    <v>       0.74713000       0.74799500       0.49923800 </v>
    <v>       0.49923800       0.74799500       0.74713000 </v>
    <v>       0.37500000       0.50000000       0.37500000 </v>
   </varray>
  </structure>
  <varray name="forces" >
   <v>      -0.23895401       0.00000000      -0.23895401 </v>
   <v>       0.06392926       0.00000000       0.06392926 </v>
   <v>      -0.04776759      -0.06733035      -0.11297517 </v>
   <v>      -0.11297517      -0.06733035      -0.04776759 </v>
   <v>       0.27931011       0.00000000       0.10863837 </v>
   <v>      -0.10863837       0.00000000      -0.27931011 </v>
   <v>      -0.07486964      -0.34099486       0.07486964 </v>
   <v>       0.69537154      -1.19943839      -0.69537154 </v>
   <v>      -0.12278629       0.00000000      -0.12278629 </v>
   <v>      -0.04776759       0.06733035      -0.11297517 </v>
   <v>      -0.11297517       0.06733035      -0.04776759 </v>
   <v>       0.10154500       0.00000000       0.25351698 </v>
   <v>      -0.25351698       0.00000000      -0.10154500 </v>
   <v>      -0.07486964       0.34099486       0.07486964 </v>
   <v>       0.69537154       1.19943839      -0.69537154 </v>
   <v>       0.10863837       0.00000000       0.27931011 </v>
   <v>      -0.27931011       0.00000000      -0.10863837 </v>
   <v>      -0.69537154      -1.19943839       0.69537154 </v>
   <v>       0.07486964      -0.34099486      -0.07486964 </v>
   <v>      -0.06392926       0.00000000      -0.06392926 </v>
   <v>       0.23895401       0.00000000       0.23895401 </v>
   <v>       0.11297517      -0.06733035       0.04776759 </v>
   <v>       0.04776759      -0.06733035       0.11297517 </v>
   <v>       0.25351698       0.00000000       0.10154500 </v>
   <v>      -0.10154500       0.00000000      -0.25351698 </v>
   <v>      -0.69537154       1.19943839       0.69537154 </v>
   <v>       0.07486964       0.34099486      -0.07486964 </v>
   <v>       0.12278629       0.00000000       0.12278629 </v>
   <v>       0.11297517       0.06733035       0.04776759 </v>
   <v>       0.04776759       0.06733035       0.11297517 </v>
   <v>       0.00000000       0.00000000       0.00000000 </v>
  </varray>
  <varray name="stress" >
   <v>     -17.17408248       0.00000000      -6.45868109 </v>
   <v>       0.00000000      13.10475689       0.00000000 </v>
   <v>      -6.45868109       0.00000000     -17.17408248 </v>
  </varray>
  <energy>
   <i name="e_fr_energy">    -96.86010999 </i>
   <i name="e_wo_entrp">    -96.83082206 </i>
   <i name="e_0_energy">     -0.08786381 </i>
  </energy>
  <time name="totalsc">   14.96   15.01</time>
 </calculation>
 <calculation>
  <scstep>
   <time name="diag">    0.15    0.15</time>
   <time name="diis">    0.61    0.62</time>
   <time name="orth">    0.01    0.01</time>
   <time name="total">    1.07    1.08</time>
   <energy>
    <i name="alphaZ">     -7.38313139 </i>
    <i name="ewald">  -2179.18684306 </i>
    <i name="hartreedc">    -30.54285453 </i>
    <i name="XCdc">   -792.31947134 </i>
    <i name="pawpsdc">   1078.42572558 </i>
    <i name="pawaedc">   -109.01969099 </i>
    <i name="eentropy">      0.03009048 </i>
    <i name="bandstr">    313.46182346 </i>
    <i name="atom">   1629.13144109 </i>
    <i name="e_fr_energy">    -97.40291070 </i>
    <i name="e_wo_entrp">    -97.43300118 </i>
    <i name="e_0_energy">    -97.41294086 </i>
   </energy>
  </scstep>
  <scstep>
   <time name="diag">    0.15    0.15</time>
   <time name="diis">    0.60    0.60</time>
   <time name="orth">    0.01    0.01</time>
   <time name="total">    1.06    1.06</time>
   <energy>
    <i name="e_fr_energy">    -97.33117197 </i>
    <i name="e_wo_entrp">    -97.31857241 </i>
    <i name="e_0_energy">    -97.32697211 </i>
   </energy>
  </scstep>
  <scstep>
   <time name="diag">    0.15    0.15</time>
   <time name="diis">    0.61    0.62</time>
   <time name="orth">    0.01    0.01</time>
   <time name="total">    1.07    1.07</time>
   <energy>
    <i name="e_fr_energy">    -97.32497342 </i>
    <i name="e_wo_entrp">    -97.30521061 </i>
    <i name="e_0_energy">    -97.31838582 </i>
   </energy>
  </scstep>
  <scstep>
   <time name="diag">    0.15    0.15</time>
   <time name="diis">    0.61    0.61</time>
   <time name="orth">    0.01    0.01</time>
   <time name="total">    1.07    1.07</time>
   <energy>
    <i name="e_fr_energy">    -97.32459245 </i>
    <i name="e_wo_entrp">    -97.30523865 </i>
    <i name="e_0_energy">    -97.31814118 </i>
   </energy>
  </scstep>
  <scstep>
   <time name="diag">    0.15    0.15</time>
   <time name="diis">    0.47    0.47</time>
   <time name="orth">    0.01    0.01</time>
   <time name="total">    0.79    0.79</time>
   <energy>
    <i name="alphaZ">     -7.38313139 </i>
    <i name="ewald">  -2179.18684306 </i>
    <i name="hartreedc">    -31.27196508 </i>
    <i name="XCdc">   -792.31716546 </i>
    <i name="pawpsdc">   1078.36478158 </i>
    <i name="pawaedc">   -108.94765554 </i>
    <i name="eentropy">     -0.01971339 </i>
    <i name="bandstr">    314.30567866 </i>
    <i name="atom">   1629.13144109 </i>
    <i name="e_fr_energy">    -97.32457260 </i>
    <i name="e_wo_entrp">    -97.30485921 </i>
    <i name="e_0_energy">    -97.31800147 </i>
   </energy>
  </scstep>
  <structure>
   <crystal>
    <varray name="basis" >
     <v>       8.08705200       0.00000000       0.00000000 </v>
     <v>       0.00000000       8.08705200       0.00000000 </v>
     <v>       0.00000000       0.00000000       8.08705200 </v>
    </varray>
    <i name="volume">    528.89651690 </i>
    <varray name="rec_basis" >
     <v>       0.12365445       0.00000000       0.00000000 </v>
     <v>       0.00000000       0.12365445       0.00000000 </v>
     <v>       0.00000000       0.00000000       0.12365445 </v>
    </varray>
   </crystal>
   <varray name="positions" >
    <v>       0.99783254       0.00000000       0.99783254 </v>
    <v>       0.24911237       0.00000000       0.24911237 </v>
    <v>       0.25047905       0.25160337       0.00219608 </v>
    <v>       0.00219608       0.25160337       0.25047905 </v>
    <v>       0.50154520       0.00000000       0.99704708 </v>
    <v>       0.75295293       0.00000000       0.24845580 </v>
    <v>       0.75107237       0.24702082       0.99892762 </v>
    <v>       0.50653816       0.24032885       0.24346180 </v>
    <v>       0.00096355       0.50000000       0.00096355 </v>
    <v>       0.25047905       0.74839663       0.00219608 </v>
    <v>       0.00219608       0.74839663       0.25047905 </v>
    <v>       0.50122974       0.50000000       0.00178236 </v>
    <v>       0.74821669       0.50000000       0.24876823 </v>
    <v>       0.75107237       0.75298018       0.99892762 </v>
    <v>       0.50653816       0.75967115       0.24346180 </v>
    <v>       0.99704708       0.00000000       0.50154520 </v>
    <v>       0.24845580       0.00000000       0.75295293 </v>
    <v>       0.24346180       0.24032885       0.50653816 </v>
    <v>       0.99892762       0.24702082       0.75107237 </v>
    <v>       0.50088764       0.00000000       0.50088764 </v>
    <v>       0.75216746       0.00000000       0.75216746 </v>
    <v>       0.74780397       0.25160333       0.49952296 </v>
    <v>       0.49952296       0.25160333       0.74780397 </v>
    <v>       0.00178236       0.50000000       0.50122974 </v>
    <v>       0.24876823       0.50000000       0.74821669 </v>
    <v>       0.24346180       0.75967115       0.50653816 </v>
    <v>       0.99892762       0.75298018       0.75107237 </v>
    <v>       0.74903649       0.50000000       0.74903649 </v>
    <v>       0.74780397       0.74839667       0.49952296 </v>
    <v>       0.49952296       0.74839667       0.74780397 </v>
    <v>       0.37500100       0.50000000       0.37500100 </v>
   </varray>
  </structure>
  <varray name="forces" >
   <v>      -0.28197921       0.00000000      -0.28197921 </v>
   <v>       0.16286829       0.00000000       0.16286829 </v>
   <v>       0.01492236      -0.07978802      -0.16139711 </v>
   <v>      -0.16139711      -0.07978802       0.01492236 </v>
   <v>       0.15082343       0.00000000      -0.01570021 </v>
   <v>       0.01570021       0.00000000      -0.15082343 </v>
   <v>      -0.02889214      -0.25426855       0.02889214 </v>
   <v>       0.47019256      -0.82612493      -0.47019256 </v>
   <v>      -0.22733470       0.00000000      -0.22733470 </v>
   <v>       0.01492236       0.07978802      -0.16139711 </v>
   <v>      -0.16139711       0.07978802       0.01492236 </v>
   <v>       0.16593871       0.00000000       0.21044189 </v>
   <v>      -0.21044189       0.00000000      -0.16593871 </v>
   <v>      -0.02889214       0.25426855       0.02889214 </v>
   <v>       0.47019256       0.82612493      -0.47019256 </v>
   <v>      -0.01570021       0.00000000       0.15082343 </v>
   <v>      -0.15082343       0.00000000       0.01570021 </v>
   <v>      -0.47019256      -0.82612493       0.47019256 </v>
   <v>       0.02889214      -0.25426855      -0.02889214 </v>
   <v>      -0.16286829       0.00000000      -0.16286829 </v>
   <v>       0.28197921       0.00000000       0.28197921 </v>
   <v>       0.16139711      -0.07978802      -0.01492236 </v>
   <v>      -0.01492236      -0.07978802       0.16139711 </v>
   <v>       0.21044189       0.00000000       0.16593871 </v>
   <v>      -0.16593871       0.00000000      -0.21044189 </v>
   <v>      -0.47019256       0.82612493       0.47019256 </v>
   <v>       0.02889214       0.25426855      -0.02889214 </v>
   <v>       0.22733470       0.00000000       0.22733470 </v>
   <v>       0.16139711       0.07978802      -0.01492236 </v>
   <v>      -0.01492236       0.07978802       0.16139711 </v>
   <v>       0.00000000       0.00000000       0.00000000 </v>
  </varray>
  <varray name="stress" >
   <v>     -19.42824623       0.00000000      -6.84457246 </v>
   <v>       0.00000000      12.97948175       0.00000000 </v>
   <v>      -6.84457246       0.00000000     -19.42824623 </v>
  </varray>
  <energy>
   <i name="e_fr_energy">    -97.32457260 </i>
   <i name="e_wo_entrp">    -97.31800147 </i>
   <i name="e_0_energy">     -0.01971339 </i>
  </energy>
  <time name="totalsc">    6.44    6.46</time>
 </calculation>
 <calculation>
  <scstep>
   <time name="diag">    0.15    0.15</time>
   <time name="diis">    0.59    0.59</time>
   <time name="orth">    0.01    0.01</time>
   <time name="total">    1.04    1.05</time>
   <energy>
    <i name="alphaZ">     -7.38313139 </i>
    <i name="ewald">  -2165.54072300 </i>
    <i name="hartreedc">    -42.64793239 </i>
    <i name="XCdc">   -792.09298962 </i>
    <i name="pawpsdc">   1078.35790904 </i>
    <i name="pawaedc">   -108.94022077 </i>
    <i name="eentropy">      0.08329818 </i>
    <i name="bandstr">    311.00921666 </i>
    <i name="atom">   1629.13144109 </i>
    <i name="e_fr_energy">    -98.02313222 </i>
    <i name="e_wo_entrp">    -98.10643039 </i>
    <i name="e_0_energy">    -98.05089827 </i>
   </energy>
  </scstep>
  <scstep>
   <time name="diag">    0.15    0.15</time>
   <time name="diis">    0.60    0.60</time>
   <time name="orth">    0.01    0.01</time>
   <time name="total">    1.05    1.05</time>
   <energy>
    <i name="e_fr_energy">    -97.84039903 </i>
    <i name="e_wo_entrp">    -97.93961522 </i>
    <i name="e_0_energy">    -97.87347110 </i>
   </energy>
  </scstep>
  <scstep>
   <time name="diag">    0.15    0.15</time>
   <time name="diis">    0.61    0.61</time>
   <time name="orth">    0.01    0.01</time>
   <time name="total">    1.06    1.06</time>
   <energy>
    <i name="e_fr_energy">    -97.81696937 </i>
    <i name="e_wo_entrp">    -97.91685664 </i>
    <i name="e_0_energy">    -97.85026513 </i>
   </energy>
  </scstep>
  <scstep>
   <time name="diag">    0.15    0.15</time>
   <time name="diis">    0.62    0.62</time>
   <time name="orth">    0.01    0.01</time>
   <time name="total">    1.07    1.07</time>
   <energy>
    <i name="e_fr_energy">    -97.81534952 </i>
    <i name="e_wo_entrp">    -97.91575734 </i>
    <i name="e_0_energy">    -97.84881880 </i>
   </energy>
  </scstep>
  <scstep>
   <time name="diag">    0.15    0.15</time>
   <time name="diis">    0.57    0.57</time>
   <time name="orth">    0.01    0.01</time>
   <time name="total">    0.89    0.89</time>
   <energy>
    <i name="alphaZ">     -7.38313139 </i>
    <i name="ewald">  -2165.54072300 </i>
    <i name="hartreedc">    -44.50853111 </i>
    <i name="XCdc">   -792.04904191 </i>
    <i name="pawpsdc">   1078.94705348 </i>
    <i name="pawaedc">   -109.54483915 </i>
    <i name="eentropy">      0.10042872 </i>
    <i name="bandstr">    313.03200573 </i>
    <i name="atom">   1629.13144109 </i>
    <i name="e_fr_energy">    -97.81533755 </i>
    <i name="e_wo_entrp">    -97.91576627 </i>
    <i name="e_0_energy">    -97.84881379 </i>
   </energy>
  </scstep>
  <structure>
   <crystal>
    <varray name="basis" >
     <v>       8.08705200       0.00000000       0.00000000 </v>
     <v>       0.00000000       8.08705200       0.00000000 </v>
     <v>       0.00000000       0.00000000       8.08705200 </v>
    </varray>
    <i name="volume">    528.89651690 </i>
    <varray name="rec_basis" >
     <v>       0.12365445       0.00000000       0.00000000 </v>
     <v>       0.00000000       0.12365445       0.00000000 </v>
     <v>       0.00000000       0.00000000       0.12365445 </v>
    </varray>
   </crystal>
   <varray name="positions" >
    <v>       0.99362576       0.00000000       0.99362576 </v>
    <v>       0.25154217       0.00000000       0.25154217 </v>
    <v>       0.25070169       0.25041307      -0.00021172 </v>
    <v>      -0.00021172       0.25041307       0.25070169 </v>
    <v>       0.50379530       0.00000000       0.99681285 </v>
    <v>       0.75318716       0.00000000       0.24620571 </v>
    <v>       0.75064132       0.24322746       0.99935865 </v>
    <v>       0.51355280       0.22800411       0.23644708 </v>
    <v>      -0.00242795       0.50000000      -0.00242795 </v>
    <v>       0.25070169       0.74958693      -0.00021172 </v>
    <v>      -0.00021172       0.74958693       0.25070169 </v>
    <v>       0.50370530       0.50000000       0.00492194 </v>
    <v>       0.74507721       0.50000000       0.24629260 </v>
    <v>       0.75064132       0.75677354       0.99935865 </v>
    <v>       0.51355280       0.77199589       0.23644708 </v>
    <v>       0.99681285       0.00000000       0.50379530 </v>
    <v>       0.24620571       0.00000000       0.75318716 </v>
    <v>       0.23644708       0.22800411       0.51355280 </v>
    <v>       0.99935865       0.24322746       0.75064132 </v>
    <v>       0.49845786       0.00000000       0.49845786 </v>
    <v>       0.75637423       0.00000000       0.75637423 </v>
    <v>       0.75021185       0.25041295       0.49930035 </v>
    <v>       0.49930035       0.25041295       0.75021185 </v>
    <v>       0.00492194       0.50000000       0.50370530 </v>
    <v>       0.24629260       0.50000000       0.74507721 </v>
    <v>       0.23644708       0.77199589       0.51355280 </v>
    <v>       0.99935865       0.75677354       0.75064132 </v>
    <v>       0.75242809       0.50000000       0.75242809 </v>
    <v>       0.75021185       0.74958705       0.49930035 </v>
    <v>       0.49930035       0.74958705       0.75021185 </v>
    <v>       0.37500301       0.50000000       0.37500301 </v>
   </varray>
  </structure>
  <varray name="forces" >
   <v>      -0.12082989       0.00000000      -0.12082989 </v>
   <v>       0.07073874       0.00000000       0.07073874 </v>
   <v>      -0.04875996      -0.09434046      -0.06192148 </v>
   <v>      -0.06192148      -0.09434046      -0.04875996 </v>
   <v>      -0.04735673       0.00000000      -0.31546543 </v>
   <v>       0.31546543       0.00000000       0.04735673 </v>
   <v>       0.11686771      -0.13139719      -0.11686771 </v>
   <v>       0.05578202      -0.25499431      -0.05578202 </v>
   <v>      -0.18857161       0.00000000      -0.18857161 </v>
   <v>      -0.04875996       0.09434046      -0.06192148 </v>
   <v>      -0.06192148       0.09434046      -0.04875996 </v>
   <v>       0.14928955       0.00000000       0.05761135 </v>
   <v>      -0.05761135       0.00000000      -0.14928955 </v>
   <v>       0.11686771       0.13139719      -0.11686771 </v>
   <v>       0.05578202       0.25499431      -0.05578202 </v>
   <v>      -0.31546543       0.00000000      -0.04735673 </v>
   <v>       0.04735673       0.00000000       0.31546543 </v>
   <v>      -0.05578202      -0.25499431       0.05578202 </v>
   <v>      -0.11686771      -0.13139719       0.11686771 </v>
   <v>      -0.07073874       0.00000000      -0.07073874 </v>
   <v>       0.12082989       0.00000000       0.12082989 </v>
   <v>       0.06192148      -0.09434046       0.04875996 </v>
   <v>       0.04875996      -0.09434046       0.06192148 </v>
   <v>       0.05761135       0.00000000       0.14928955 </v>
   <v>      -0.14928955       0.00000000      -0.05761135 </v>
   <v>      -0.05578202       0.25499431       0.05578202 </v>
   <v>      -0.11686771       0.13139719       0.11686771 </v>
   <v>       0.18857161       0.00000000       0.18857161 </v>
   <v>       0.06192148       0.09434046       0.04875996 </v>
   <v>       0.04875996       0.09434046       0.06192148 </v>
   <v>       0.00000000       0.00000000       0.00000000 </v>
  </varray>
  <varray name="stress" >
   <v>     -17.87618095       0.00000000      -7.26861148 </v>
   <v>       0.00000000      15.65258207       0.00000000 </v>
   <v>      -7.26861148       0.00000000     -17.87618095 </v>
  </varray>
  <energy>
   <i name="e_fr_energy">    -97.81533755 </i>
   <i name="e_wo_entrp">    -97.84881379 </i>
   <i name="e_0_energy">      0.10042872 </i>
  </energy>
  <time name="totalsc">    6.49    6.50</time>
 </calculation>
 <calculation>
  <scstep>
   <time name="diag">    0.15    0.15</time>
   <time name="diis">    0.60    0.60</time>
   <time name="orth">    0.01    0.01</time>
   <time name="total">    1.05    1.05</time>
   <energy>
    <i name="alphaZ">     -7.38313139 </i>
    <i name="ewald">  -2161.62454706 </i>
    <i name="hartreedc">    -47.84061120 </i>
    <i name="XCdc">   -791.99420409 </i>
    <i name="pawpsdc">   1078.98515978 </i>
    <i name="pawaedc">   -109.58409356 </i>
    <i name="eentropy">      0.09848161 </i>
    <i name="bandstr">    312.30613583 </i>
    <i name="atom">   1629.13144109 </i>
    <i name="e_fr_energy">    -97.90536899 </i>
    <i name="e_wo_entrp">    -98.00385060 </i>
    <i name="e_0_energy">    -97.93819619 </i>
   </energy>
  </scstep>
  <scstep>
   <time name="diag">    0.15    0.15</time>
   <time name="diis">    0.59    0.59</time>
   <time name="orth">    0.01    0.01</time>
   <time name="total">    1.04    1.04</time>
   <energy>
    <i name="e_fr_energy">    -97.89332303 </i>
    <i name="e_wo_entrp">    -97.99190553 </i>
    <i name="e_0_energy">    -97.92618386 </i>
   </energy>
  </scstep>
  <scstep>
   <time name="diag">    0.15    0.15</time>
   <time name="diis">    0.60    0.60</time>
   <time name="orth">    0.01    0.01</time>
   <time name="total">    1.06    1.06</time>
   <energy>
    <i name="e_fr_energy">    -97.89152740 </i>
    <i name="e_wo_entrp">    -97.99022624 </i>
    <i name="e_0_energy">    -97.92442701 </i>
   </energy>
  </scstep>
  <scstep>
   <time name="diag">    0.15    0.15</time>
   <time name="diis">    0.49    0.49</time>
   <time name="orth">    0.01    0.01</time>
   <time name="total">    0.82    0.82</time>
   <energy>
    <i name="alphaZ">     -7.38313139 </i>
    <i name="ewald">  -2161.62454706 </i>
    <i name="hartreedc">    -48.20784941 </i>
    <i name="XCdc">   -791.98213511 </i>
    <i name="pawpsdc">   1079.17874340 </i>
    <i name="pawaedc">   -109.78525179 </i>
    <i name="eentropy">      0.09883910 </i>
    <i name="bandstr">    312.68240528 </i>
    <i name="atom">   1629.13144109 </i>
    <i name="e_fr_energy">    -97.89148589 </i>
    <i name="e_wo_entrp">    -97.99032499 </i>
    <i name="e_0_energy">    -97.92443226 </i>
   </energy>
  </scstep>
  <structure>
   <crystal>
    <varray name="basis" >
     <v>       8.08705200       0.00000000       0.00000000 </v>
     <v>       0.00000000       8.08705200       0.00000000 </v>
     <v>       0.00000000       0.00000000       8.08705200 </v>
    </varray>
    <i name="volume">    528.89651690 </i>
    <varray name="rec_basis" >
     <v>       0.12365445       0.00000000       0.00000000 </v>
     <v>       0.00000000       0.12365445       0.00000000 </v>
     <v>       0.00000000       0.00000000       0.12365445 </v>
    </varray>
   </crystal>
   <varray name="positions" >
    <v>       0.99252458       0.00000000       0.99252458 </v>
    <v>       0.25218514       0.00000000       0.25218514 </v>
    <v>       0.25035660       0.24966159      -0.00078906 </v>
    <v>      -0.00078906       0.24966159       0.25035660 </v>
    <v>       0.50356531       0.00000000       0.99449363 </v>
    <v>       0.75550638       0.00000000       0.24643571 </v>
    <v>       0.75147373       0.24207037       0.99852624 </v>
    <v>       0.51432344       0.22550200       0.23567643 </v>
    <v>      -0.00398239       0.50000000      -0.00398239 </v>
    <v>       0.25035660       0.75033841      -0.00078906 </v>
    <v>      -0.00078906       0.75033841       0.25035660 </v>
    <v>       0.50492510       0.50000000       0.00550561 </v>
    <v>       0.74449356       0.50000000       0.24507278 </v>
    <v>       0.75147373       0.75793063       0.99852624 </v>
    <v>       0.51432344       0.77449800       0.23567643 </v>
    <v>       0.99449363       0.00000000       0.50356531 </v>
    <v>       0.24643571       0.00000000       0.75550638 </v>
    <v>       0.23567643       0.22550200       0.51432344 </v>
    <v>       0.99852624       0.24207037       0.75147373 </v>
    <v>       0.49781489       0.00000000       0.49781489 </v>
    <v>       0.75747541       0.00000000       0.75747541 </v>
    <v>       0.75078921       0.24966145       0.49964544 </v>
    <v>       0.49964544       0.24966145       0.75078921 </v>
    <v>       0.00550561       0.50000000       0.50492510 </v>
    <v>       0.24507278       0.50000000       0.74449356 </v>
    <v>       0.23567643       0.77449800       0.51432344 </v>
    <v>       0.99852624       0.75793063       0.75147373 </v>
    <v>       0.75398254       0.50000000       0.75398254 </v>
    <v>       0.75078921       0.75033855       0.49964544 </v>
    <v>       0.49964544       0.75033855       0.75078921 </v>
    <v>       0.37500343       0.50000000       0.37500343 </v>
   </varray>
  </structure>
  <varray name="forces" >
   <v>      -0.04830656       0.00000000      -0.04830656 </v>
   <v>       0.01991634       0.00000000       0.01991634 </v>
   <v>      -0.07263925      -0.06292454      -0.02217411 </v>
   <v>      -0.02217411      -0.06292454      -0.07263925 </v>
   <v>      -0.01105318       0.00000000      -0.24265625 </v>
   <v>       0.24265625       0.00000000       0.01105318 </v>
   <v>       0.07914202      -0.11098945      -0.07914202 </v>
   <v>       0.04594474      -0.20444783      -0.04594474 </v>
   <v>      -0.10230408       0.00000000      -0.10230408 </v>
   <v>      -0.07263925       0.06292454      -0.02217411 </v>
   <v>      -0.02217411       0.06292454      -0.07263925 </v>
   <v>       0.11645424       0.00000000       0.01156341 </v>
   <v>      -0.01156341       0.00000000      -0.11645424 </v>
   <v>       0.07914202       0.11098945      -0.07914202 </v>
   <v>       0.04594474       0.20444783      -0.04594474 </v>
   <v>      -0.24265625       0.00000000      -0.01105318 </v>
   <v>       0.01105318       0.00000000       0.24265625 </v>
   <v>      -0.04594474      -0.20444783       0.04594474 </v>
   <v>      -0.07914202      -0.11098945       0.07914202 </v>
   <v>      -0.01991634       0.00000000      -0.01991634 </v>
   <v>       0.04830656       0.00000000       0.04830656 </v>
   <v>       0.02217411      -0.06292454       0.07263925 </v>
   <v>       0.07263925      -0.06292454       0.02217411 </v>
   <v>       0.01156341       0.00000000       0.11645424 </v>
   <v>      -0.11645424       0.00000000      -0.01156341 </v>
   <v>      -0.04594474       0.20444783       0.04594474 </v>
   <v>      -0.07914202       0.11098945       0.07914202 </v>
   <v>       0.10230408       0.00000000       0.10230408 </v>
   <v>       0.02217411       0.06292454       0.07263925 </v>
   <v>       0.07263925       0.06292454       0.02217411 </v>
   <v>       0.00000000       0.00000000       0.00000000 </v>
  </varray>
  <varray name="stress" >
   <v>     -16.19260509       0.00000000      -7.00478767 </v>
   <v>       0.00000000      15.24821449       0.00000000 </v>
   <v>      -7.00478767       0.00000000     -16.19260509 </v>
  </varray>
  <energy>
   <i name="e_fr_energy">    -97.89148589 </i>
   <i name="e_wo_entrp">    -97.92443226 </i>
   <i name="e_0_energy">      0.09883910 </i>
  </energy>
  <time name="totalsc">    5.36    5.37</time>
 </calculation>
 <calculation>
  <scstep>
   <time name="diag">    0.15    0.15</time>
   <time name="diis">    0.61    0.61</time>
   <time name="orth">    0.01    0.01</time>
   <time name="total">    1.07    1.07</time>
   <energy>
    <i name="alphaZ">     -7.38313139 </i>
    <i name="ewald">  -2153.87218166 </i>
    <i name="hartreedc">    -54.75072230 </i>
    <i name="XCdc">   -791.88193650 </i>
    <i name="pawpsdc">   1079.20589212 </i>
    <i name="pawaedc">   -109.81360746 </i>
    <i name="eentropy">      0.10131322 </i>
    <i name="bandstr">    311.24675089 </i>
    <i name="atom">   1629.13144109 </i>
    <i name="e_fr_energy">    -98.01618199 </i>
    <i name="e_wo_entrp">    -98.11749521 </i>
    <i name="e_0_energy">    -98.04995307 </i>
   </energy>
  </scstep>
  <scstep>
   <time name="diag">    0.15    0.15</time>
   <time name="diis">    0.60    0.61</time>
   <time name="orth">    0.01    0.01</time>
   <time name="total">    1.06    1.07</time>
   <energy>
    <i name="e_fr_energy">    -97.97677256 </i>
    <i name="e_wo_entrp">    -98.07385463 </i>
    <i name="e_0_energy">    -98.00913325 </i>
   </energy>
  </scstep>
  <scstep>
   <time name="diag">    0.15    0.15</time>
   <time name="diis">    0.63    0.63</time>
   <time name="orth">    0.01    0.01</time>
   <time name="total">    1.09    1.09</time>
   <energy>
    <i name="e_fr_energy">    -97.97201473 </i>
    <i name="e_wo_entrp">    -98.07017280 </i>
    <i name="e_0_energy">    -98.00473408 </i>
   </energy>
  </scstep>
  <scstep>
   <time name="diag">    0.15    0.15</time>
   <time name="diis">    0.57    0.57</time>
   <time name="orth">    0.01    0.01</time>
   <time name="total">    0.89    0.89</time>
   <energy>
    <i name="alphaZ">     -7.38313139 </i>
    <i name="ewald">  -2153.87218166 </i>
    <i name="hartreedc">    -55.50745127 </i>
    <i name="XCdc">   -791.85391705 </i>
    <i name="pawpsdc">   1079.62061261 </i>
    <i name="pawaedc">   -110.24606389 </i>
    <i name="eentropy">      0.09825854 </i>
    <i name="bandstr">    312.04051595 </i>
    <i name="atom">   1629.13144109 </i>
    <i name="e_fr_energy">    -97.97191708 </i>
    <i name="e_wo_entrp">    -98.07017562 </i>
    <i name="e_0_energy">    -98.00466993 </i>
   </energy>
  </scstep>
  <structure>
   <crystal>
    <varray name="basis" >
     <v>       8.08705200       0.00000000       0.00000000 </v>
     <v>       0.00000000       8.08705200       0.00000000 </v>
     <v>       0.00000000       0.00000000       8.08705200 </v>
    </varray>
    <i name="volume">    528.89651690 </i>
    <varray name="rec_basis" >
     <v>       0.12365445       0.00000000       0.00000000 </v>
     <v>       0.00000000       0.12365445       0.00000000 </v>
     <v>       0.00000000       0.00000000       0.12365445 </v>
    </varray>
   </crystal>
   <varray name="positions" >
    <v>       0.99113879       0.00000000       0.99113879 </v>
    <v>       0.25286803       0.00000000       0.25286803 </v>
    <v>       0.24918234       0.24839948      -0.00148431 </v>
    <v>      -0.00148431       0.24839948       0.24918234 </v>
    <v>       0.50350783       0.00000000       0.99014343 </v>
    <v>       0.75985659       0.00000000       0.24649318 </v>
    <v>       0.75287541       0.23976137       0.99712455 </v>
    <v>       0.51579565       0.22071701       0.23420419 </v>
    <v>      -0.00624901       0.50000000      -0.00624901 </v>
    <v>       0.24918234       0.75160052      -0.00148431 </v>
    <v>      -0.00148431       0.75160052       0.24918234 </v>
    <v>       0.50723101       0.50000000       0.00610147 </v>
    <v>       0.74389774       0.50000000       0.24276685 </v>
    <v>       0.75287541       0.76023963       0.99712455 </v>
    <v>       0.51579565       0.77928299       0.23420419 </v>
    <v>       0.99014343       0.00000000       0.50350783 </v>
    <v>       0.24649318       0.00000000       0.75985659 </v>
    <v>       0.23420419       0.22071701       0.51579565 </v>
    <v>       0.99712455       0.23976137       0.75287541 </v>
    <v>       0.49713201       0.00000000       0.49713201 </v>
    <v>       0.75886119       0.00000000       0.75886119 </v>
    <v>       0.75148449       0.24839930       0.50081971 </v>
    <v>       0.50081971       0.24839930       0.75148449 </v>
    <v>       0.00610147       0.50000000       0.50723101 </v>
    <v>       0.24276685       0.50000000       0.74389774 </v>
    <v>       0.23420419       0.77928299       0.51579565 </v>
    <v>       0.99712455       0.76023963       0.75287541 </v>
    <v>       0.75624921       0.50000000       0.75624921 </v>
    <v>       0.75148449       0.75160070       0.50081971 </v>
    <v>       0.50081971       0.75160070       0.75148449 </v>
    <v>       0.37500418       0.50000000       0.37500418 </v>
   </varray>
  </structure>
  <varray name="forces" >
   <v>       0.04452314       0.00000000       0.04452314 </v>
   <v>      -0.02858446       0.00000000      -0.02858446 </v>
   <v>      -0.07354712       0.00071512       0.01645383 </v>
   <v>       0.01645383       0.00071512      -0.07354712 </v>
   <v>       0.02157231       0.00000000      -0.10744168 </v>
   <v>       0.10744168       0.00000000      -0.02157231 </v>
   <v>       0.02129525      -0.04891862      -0.02129525 </v>
   <v>       0.02159970      -0.11268645      -0.02159970 </v>
   <v>       0.01685047       0.00000000       0.01685047 </v>
   <v>      -0.07354712      -0.00071512       0.01645383 </v>
   <v>       0.01645383      -0.00071512      -0.07354712 </v>
   <v>       0.05596114       0.00000000      -0.06980406 </v>
   <v>       0.06980406       0.00000000      -0.05596114 </v>
   <v>       0.02129525       0.04891862      -0.02129525 </v>
   <v>       0.02159970       0.11268645      -0.02159970 </v>
   <v>      -0.10744168       0.00000000       0.02157231 </v>
   <v>      -0.02157231       0.00000000       0.10744168 </v>
   <v>      -0.02159970      -0.11268645       0.02159970 </v>
   <v>      -0.02129525      -0.04891862       0.02129525 </v>
   <v>       0.02858446       0.00000000       0.02858446 </v>
   <v>      -0.04452314       0.00000000      -0.04452314 </v>
   <v>      -0.01645383       0.00071512       0.07354712 </v>
   <v>       0.07354712       0.00071512      -0.01645383 </v>
   <v>      -0.06980406       0.00000000       0.05596114 </v>
   <v>      -0.05596114       0.00000000       0.06980406 </v>
   <v>      -0.02159970       0.11268645       0.02159970 </v>
   <v>      -0.02129525       0.04891862       0.02129525 </v>
   <v>      -0.01685047       0.00000000      -0.01685047 </v>
   <v>      -0.01645383      -0.00071512       0.07354712 </v>
   <v>       0.07354712      -0.00071512      -0.01645383 </v>
   <v>       0.00000000       0.00000000       0.00000000 </v>
  </varray>
  <varray name="stress" >
   <v>     -13.45759103       0.00000000      -6.41824192 </v>
   <v>       0.00000000      16.91527464       0.00000000 </v>
   <v>      -6.41824192       0.00000000     -13.45759103 </v>
  </varray>
  <energy>
   <i name="e_fr_energy">    -97.97191708 </i>
   <i name="e_wo_entrp">    -98.00466993 </i>
   <i name="e_0_energy">      0.09825854 </i>
  </energy>
  <time name="totalsc">    5.50    5.51</time>
 </calculation>
 <calculation>
  <scstep>
   <time name="diag">    0.15    0.15</time>
   <time name="diis">    0.60    0.60</time>
   <time name="orth">    0.01    0.01</time>
   <time name="total">    1.05    1.05</time>
   <energy>
    <i name="alphaZ">     -7.38313139 </i>
    <i name="ewald">  -2151.60771544 </i>
    <i name="hartreedc">    -57.46526939 </i>
    <i name="XCdc">   -791.82455333 </i>
    <i name="pawpsdc">   1079.69076964 </i>
    <i name="pawaedc">   -110.31938172 </i>
    <i name="eentropy">      0.10194873 </i>
    <i name="bandstr">    311.68417724 </i>
    <i name="atom">   1629.13144109 </i>
    <i name="e_fr_energy">    -97.99171457 </i>
    <i name="e_wo_entrp">    -98.09366330 </i>
    <i name="e_0_energy">    -98.02569748 </i>
   </energy>
  </scstep>
  <scstep>
   <time name="diag">    0.15    0.15</time>
   <time name="diis">    0.59    0.59</time>
   <time name="orth">    0.01    0.01</time>
   <time name="total">    1.05    1.05</time>
   <energy>
    <i name="e_fr_energy">    -97.98823988 </i>
    <i name="e_wo_entrp">    -98.08911792 </i>
    <i name="e_0_energy">    -98.02186590 </i>
   </energy>
  </scstep>
  <scstep>
   <time name="diag">    0.15    0.15</time>
   <time name="diis">    0.54    0.54</time>
   <time name="orth">    0.01    0.01</time>
   <time name="total">    0.99    0.99</time>
   <energy>
    <i name="e_fr_energy">    -97.98780549 </i>
    <i name="e_wo_entrp">    -98.08892742 </i>
    <i name="e_0_energy">    -98.02151280 </i>
   </energy>
  </scstep>
  <scstep>
   <time name="diag">    0.15    0.15</time>
   <time name="diis">    0.45    0.45</time>
   <time name="orth">    0.01    0.01</time>
   <time name="total">    0.77    0.77</time>
   <energy>
    <i name="alphaZ">     -7.38313139 </i>
    <i name="ewald">  -2151.60771544 </i>
    <i name="hartreedc">    -57.68020344 </i>
    <i name="XCdc">   -791.81466916 </i>
    <i name="pawpsdc">   1079.83853692 </i>
    <i name="pawaedc">   -110.47347885 </i>
    <i name="eentropy">      0.10112284 </i>
    <i name="bandstr">    311.90029121 </i>
    <i name="atom">   1629.13144109 </i>
    <i name="e_fr_energy">    -97.98780622 </i>
    <i name="e_wo_entrp">    -98.08892906 </i>
    <i name="e_0_energy">    -98.02151383 </i>
   </energy>
  </scstep>
  <structure>
   <crystal>
    <varray name="basis" >
     <v>       8.08705200       0.00000000       0.00000000 </v>
     <v>       0.00000000       8.08705200       0.00000000 </v>
     <v>       0.00000000       0.00000000       8.08705200 </v>
    </varray>
    <i name="volume">    528.89651690 </i>
    <varray name="rec_basis" >
     <v>       0.12365445       0.00000000       0.00000000 </v>
     <v>       0.00000000       0.12365445       0.00000000 </v>
     <v>       0.00000000       0.00000000       0.12365445 </v>
    </varray>
   </crystal>
   <varray name="positions" >
    <v>       0.99121678       0.00000000       0.99121678 </v>
    <v>       0.25278625       0.00000000       0.25278625 </v>
    <v>       0.24847761       0.24820476      -0.00149096 </v>
    <v>      -0.00149096       0.24820476       0.24847761 </v>
    <v>       0.50366745       0.00000000       0.98870348 </v>
    <v>       0.76129653       0.00000000       0.24633357 </v>
    <v>       0.75324069       0.23903241       0.99675927 </v>
    <v>       0.51622371       0.21908929       0.23377612 </v>
    <v>      -0.00649930       0.50000000      -0.00649930 </v>
    <v>       0.24847761       0.75179524      -0.00149096 </v>
    <v>      -0.00149096       0.75179524       0.24847761 </v>
    <v>       0.50800341       0.50000000       0.00570996 </v>
    <v>       0.74428925       0.50000000       0.24199444 </v>
    <v>       0.75324069       0.76096859       0.99675927 </v>
    <v>       0.51622371       0.78091071       0.23377612 </v>
    <v>       0.98870348       0.00000000       0.50366745 </v>
    <v>       0.24633357       0.00000000       0.76129653 </v>
    <v>       0.23377612       0.21908929       0.51622371 </v>
    <v>       0.99675927       0.23903241       0.75324069 </v>
    <v>       0.49721378       0.00000000       0.49721378 </v>
    <v>       0.75878320       0.00000000       0.75878320 </v>
    <v>       0.75149115       0.24820458       0.50152445 </v>
    <v>       0.50152445       0.24820458       0.75149115 </v>
    <v>       0.00570996       0.50000000       0.50800341 </v>
    <v>       0.24199444       0.50000000       0.74428925 </v>
    <v>       0.23377612       0.78091071       0.51622371 </v>
    <v>       0.99675927       0.76096859       0.75324069 </v>
    <v>       0.75649950       0.50000000       0.75649950 </v>
    <v>       0.75149115       0.75179542       0.50152445 </v>
    <v>       0.50152445       0.75179542       0.75149115 </v>
    <v>       0.37500438       0.50000000       0.37500438 </v>
   </varray>
  </structure>
  <varray name="forces" >
   <v>       0.03970676       0.00000000       0.03970676 </v>
   <v>      -0.01486759       0.00000000      -0.01486759 </v>
   <v>      -0.04427192       0.01882599       0.00444510 </v>
   <v>       0.00444510       0.01882599      -0.04427192 </v>
   <v>       0.01033459       0.00000000      -0.06578756 </v>
   <v>       0.06578756       0.00000000      -0.01033459 </v>
   <v>       0.00841833      -0.01953305      -0.00841833 </v>
   <v>       0.01305022      -0.08535278      -0.01305022 </v>
   <v>       0.01359191       0.00000000       0.01359191 </v>
   <v>      -0.04427192      -0.01882599       0.00444510 </v>
   <v>       0.00444510      -0.01882599      -0.04427192 </v>
   <v>       0.05002417       0.00000000      -0.08080226 </v>
   <v>       0.08080226       0.00000000      -0.05002417 </v>
   <v>       0.00841833       0.01953305      -0.00841833 </v>
   <v>       0.01305022       0.08535278      -0.01305022 </v>
   <v>      -0.06578756       0.00000000       0.01033459 </v>
   <v>      -0.01033459       0.00000000       0.06578756 </v>
   <v>      -0.01305022      -0.08535278       0.01305022 </v>
   <v>      -0.00841833      -0.01953305       0.00841833 </v>
   <v>       0.01486759       0.00000000       0.01486759 </v>
   <v>      -0.03970676       0.00000000      -0.03970676 </v>
   <v>      -0.00444510       0.01882599       0.04427192 </v>
   <v>       0.04427192       0.01882599      -0.00444510 </v>
   <v>      -0.08080226       0.00000000       0.05002417 </v>
   <v>      -0.05002417       0.00000000       0.08080226 </v>
   <v>      -0.01305022       0.08535278       0.01305022 </v>
   <v>      -0.00841833       0.01953305       0.00841833 </v>
   <v>      -0.01359191       0.00000000      -0.01359191 </v>
   <v>      -0.00444510      -0.01882599       0.04427192 </v>
   <v>       0.04427192      -0.01882599      -0.00444510 </v>
   <v>       0.00000000       0.00000000       0.00000000 </v>
  </varray>
  <varray name="stress" >
   <v>     -13.03186014       0.00000000      -6.36728846 </v>
   <v>       0.00000000      18.19057001       0.00000000 </v>
   <v>      -6.36728846       0.00000000     -13.03186014 </v>
  </varray>
  <energy>
   <i name="e_fr_energy">    -97.98780622 </i>
   <i name="e_wo_entrp">    -98.02151383 </i>
   <i name="e_0_energy">      0.10112284 </i>
  </energy>
  <time name="totalsc">    5.12    5.13</time>
  <eigenvalues>
   <array>
    <dimension dim="1">band</dimension>
    <dimension dim="2">kpoint</dimension>
    <dimension dim="3">spin</dimension>
    <field>eigene</field>
    <field>occ</field>
    <set>
     <set comment="spin 1">
      <set comment="kpoint 1">
       <r>   -3.4169    1.0000 </r>
       <r>   -1.4273    1.0000 </r>
       <r>   -1.2831    1.0000 </r>
       <r>   -1.2032    1.0000 </r>
       <r>   -1.2022    1.0000 </r>
       <r>   -0.8530    1.0000 </r>
       <r>   -0.8441    1.0000 </r>
       <r>    0.7731    1.0000 </r>
       <r>    0.7799    1.0000 </r>
       <r>    0.9147    1.0000 </r>
       <r>    0.9352    1.0000 </r>
       <r>    1.0462    1.0000 </r>
       <r>    1.0543    1.0000 </r>
       <r>    1.1247    1.0000 </r>
       <r>    1.1471    1.0000 </r>
       <r>    1.1662    1.0000 </r>
       <r>    1.2589    1.0000 </r>
       <r>    1.7810    1.0000 </r>
       <r>    1.9808    1.0000 </r>
       <r>    3.1743    1.0000 </r>
       <r>    3.2120    1.0000 </r>
       <r>    3.2807    1.0000 </r>
       <r>    3.2984    1.0000 </r>
       <r>    3.3149    1.0000 </r>
       <r>    3.3987    1.0000 </r>
       <r>    3.9584    1.0000 </r>
       <r>    4.1174    1.0000 </r>
       <r>    4.8499    1.0000 </r>
       <r>    4.8580    1.0000 </r>
       <r>    4.8904    1.0000 </r>
       <r>    6.0113    1.0000 </r>
       <r>    6.2688    1.0000 </r>
       <r>    6.3504    1.0000 </r>
       <r>    6.6302    1.0000 </r>
       <r>    6.7468    1.0000 </r>
       <r>    6.7548    1.0000 </r>
       <r>    6.7693    1.0000 </r>
       <r>    6.8016    1.0000 </r>
       <r>    6.8138    1.0000 </r>
       <r>    6.9729    1.0000 </r>
       <r>    7.0921    1.0000 </r>
       <r>    7.1297    1.0000 </r>
       <r>    7.3050    1.0010 </r>
       <r>    7.3133    1.0013 </r>
       <r>    7.4150    1.0087 </r>
       <r>    7.5171    1.0293 </r>
       <r>    7.9424    0.0534 </r>
       <r>    8.0064   -0.0233 </r>
       <r>    8.0189   -0.0293 </r>
       <r>    8.0387   -0.0344 </r>
       <r>    8.2200   -0.0067 </r>
       <r>    8.5464    0.0000 </r>
       <r>    8.6104    0.0000 </r>
       <r>    8.7195    0.0000 </r>
       <r>    8.7245    0.0000 </r>
       <r>    8.8334    0.0000 </r>
       <r>    8.9406    0.0000 </r>
       <r>    8.9532    0.0000 </r>
       <r>    9.0493    0.0000 </r>
       <r>    9.1321    0.0000 </r>
       <r>    9.1720    0.0000 </r>
       <r>    9.2105    0.0000 </r>
       <r>    9.2376    0.0000 </r>
       <r>    9.2860    0.0000 </r>
       <r>    9.3886    0.0000 </r>
       <r>    9.4553    0.0000 </r>
       <r>    9.4733    0.0000 </r>
       <r>    9.6496    0.0000 </r>
       <r>   10.0067    0.0000 </r>
       <r>   10.1950    0.0000 </r>
       <r>   10.2956    0.0000 </r>
       <r>   10.3399    0.0000 </r>
      </set>
     </set>
    </set>
   </array>
  </eigenvalues>
  <separator name="orbital magnetization" >
   <v name="MAGDIPOLOUT">      0.00000000      0.00000000      0.00000000</v>
  </separator>
 </calculation>
 <structure name="finalpos" >
  <crystal>
   <varray name="basis" >
    <v>       8.08705200       0.00000000       0.00000000 </v>
    <v>       0.00000000       8.08705200       0.00000000 </v>
    <v>       0.00000000       0.00000000       8.08705200 </v>
   </varray>
   <i name="volume">    528.89651690 </i>
   <varray name="rec_basis" >
    <v>       0.12365445       0.00000000       0.00000000 </v>
    <v>       0.00000000       0.12365445       0.00000000 </v>
    <v>       0.00000000       0.00000000       0.12365445 </v>
   </varray>
  </crystal>
  <varray name="positions" >
   <v>       0.99121678       0.00000000       0.99121678 </v>
   <v>       0.25278625       0.00000000       0.25278625 </v>
   <v>       0.24847761       0.24820476      -0.00149096 </v>
   <v>      -0.00149096       0.24820476       0.24847761 </v>
   <v>       0.50366745       0.00000000       0.98870348 </v>
   <v>       0.76129653       0.00000000       0.24633357 </v>
   <v>       0.75324069       0.23903241       0.99675927 </v>
   <v>       0.51622371       0.21908929       0.23377612 </v>
   <v>      -0.00649930       0.50000000      -0.00649930 </v>
   <v>       0.24847761       0.75179524      -0.00149096 </v>
   <v>      -0.00149096       0.75179524       0.24847761 </v>
   <v>       0.50800341       0.50000000       0.00570996 </v>
   <v>       0.74428925       0.50000000       0.24199444 </v>
   <v>       0.75324069       0.76096859       0.99675927 </v>
   <v>       0.51622371       0.78091071       0.23377612 </v>
   <v>       0.98870348       0.00000000       0.50366745 </v>
   <v>       0.24633357       0.00000000       0.76129653 </v>
   <v>       0.23377612       0.21908929       0.51622371 </v>
   <v>       0.99675927       0.23903241       0.75324069 </v>
   <v>       0.49721378       0.00000000       0.49721378 </v>
   <v>       0.75878320       0.00000000       0.75878320 </v>
   <v>       0.75149115       0.24820458       0.50152445 </v>
   <v>       0.50152445       0.24820458       0.75149115 </v>
   <v>       0.00570996       0.50000000       0.50800341 </v>
   <v>       0.24199444       0.50000000       0.74428925 </v>
   <v>       0.23377612       0.78091071       0.51622371 </v>
   <v>       0.99675927       0.76096859       0.75324069 </v>
   <v>       0.75649950       0.50000000       0.75649950 </v>
   <v>       0.75149115       0.75179542       0.50152445 </v>
   <v>       0.50152445       0.75179542       0.75149115 </v>
   <v>       0.37500438       0.50000000       0.37500438 </v>
  </varray>
 </structure>
</modeling>
