  31  31   0   0
  0.1706118E+02  0.8087052E-09  0.8087052E-09  0.8087052E-09  0.5000000E-15
  1.000000000000000E-004
  CAR 
 unknown system                          
     13.37781803     -4.93443021  301      7.87782048      1.00000000
     -4.934  0.0000E+00  0.0000E+00
     -4.873  0.0000E+00  0.0000E+00
     -4.812  0.0000E+00  0.0000E+00
     -4.751  0.0000E+00  0.0000E+00
     -4.690  0.0000E+00  0.0000E+00
     -4.629  0.0000E+00  0.0000E+00
     -4.568 -0.4139E-29 -0.2527E-30
     -4.507 -0.5273E-27 -0.3244E-28
     -4.446 -0.5601E-25 -0.3452E-26
     -4.385 -0.4929E-23 -0.3043E-24
     -4.324 -0.3593E-21 -0.2224E-22
     -4.263 -0.2168E-19 -0.1346E-20
     -4.202 -0.1083E-17 -0.6746E-19
     -4.141 -0.4477E-16 -0.2800E-17
     -4.080 -0.1483E-14 -0.9334E-16
     -4.019 -0.4182E-13 -0.2646E-14
     -3.958 -0.9727E-12 -0.6202E-13
     -3.897 -0.1866E-10 -0.1201E-11
     -3.836 -0.2951E-09 -0.1921E-10
     -3.775 -0.3839E-08 -0.2535E-09
     -3.714 -0.4102E-07 -0.2758E-08
     -3.653 -0.3591E-06 -0.2468E-07
     -3.592 -0.2567E-05 -0.1814E-06
     -3.530 -0.1491E-04 -0.1091E-05
     -3.469 -0.6982E-04 -0.5353E-05
     -3.408 -0.2606E-03 -0.2126E-04
     -3.347 -0.7583E-03 -0.6754E-04
     -3.286 -0.1644E-02 -0.1679E-03
     -3.225 -0.2332E-02 -0.3103E-03
     -3.164 -0.8318E-03 -0.3611E-03
     -3.103  0.5840E-02 -0.4578E-05
     -3.042  0.1884E-01  0.1146E-02
     -2.981  0.3411E-01  0.3228E-02
     -2.920  0.4328E-01  0.5869E-02
     -2.859  0.4027E-01  0.8327E-02
     -2.798  0.2714E-01  0.9984E-02
     -2.737  0.1206E-01  0.1072E-01
     -2.676  0.1895E-02  0.1084E-01
     -2.615 -0.1997E-02  0.1071E-01
     -2.554 -0.2124E-02  0.1058E-01
     -2.493 -0.1202E-02  0.1051E-01
     -2.432 -0.5298E-03  0.1048E-01
     -2.371 -0.3836E-03  0.1046E-01
     -2.310 -0.8517E-03  0.1040E-01
     -2.249 -0.2164E-02  0.1027E-01
     -2.188 -0.4159E-02  0.1002E-01
     -2.127 -0.4836E-02  0.9722E-02
     -2.066  0.7266E-03  0.9766E-02
     -2.004  0.1819E-01  0.1088E-01
     -1.943  0.4773E-01  0.1379E-01
     -1.882  0.7971E-01  0.1866E-01
     -1.821  0.9971E-01  0.2474E-01
     -1.760  0.9966E-01  0.3083E-01
     -1.699  0.8273E-01  0.3588E-01
     -1.638  0.5793E-01  0.3941E-01
     -1.577  0.3325E-01  0.4144E-01
     -1.516  0.1379E-01  0.4228E-01
     -1.455  0.1994E-02  0.4240E-01
     -1.394 -0.2668E-02  0.4224E-01
     -1.333 -0.2986E-02  0.4206E-01
     -1.272 -0.1954E-02  0.4194E-01
     -1.211 -0.1375E-02  0.4186E-01
     -1.150 -0.1948E-02  0.4174E-01
     -1.089 -0.3599E-02  0.4152E-01
     -1.028 -0.4740E-02  0.4123E-01
     -0.967 -0.1042E-02  0.4117E-01
     -0.906  0.1327E-01  0.4198E-01
     -0.845  0.3954E-01  0.4439E-01
     -0.784  0.6896E-01  0.4860E-01
     -0.723  0.8662E-01  0.5389E-01
     -0.662  0.8485E-01  0.5907E-01
     -0.601  0.7061E-01  0.6338E-01
     -0.539  0.5619E-01  0.6681E-01
     -0.478  0.4580E-01  0.6960E-01
     -0.417  0.3530E-01  0.7176E-01
     -0.356  0.2196E-01  0.7310E-01
     -0.295  0.8932E-02  0.7364E-01
     -0.234  0.5523E-03  0.7368E-01
     -0.173 -0.2503E-02  0.7352E-01
     -0.112 -0.2734E-02  0.7336E-01
     -0.051 -0.2953E-02  0.7318E-01
      0.010 -0.4534E-02  0.7290E-01
      0.071 -0.6448E-02  0.7251E-01
      0.132 -0.3993E-02  0.7226E-01
      0.193  0.1064E-01  0.7291E-01
      0.254  0.4242E-01  0.7550E-01
      0.315  0.8478E-01  0.8068E-01
      0.376  0.1192E+00  0.8795E-01
      0.437  0.1288E+00  0.9581E-01
      0.498  0.1130E+00  0.1027E+00
      0.559  0.8556E-01  0.1079E+00
      0.620  0.5954E-01  0.1116E+00
      0.681  0.3839E-01  0.1139E+00
      0.742  0.2085E-01  0.1152E+00
      0.803  0.7375E-02  0.1156E+00
      0.864 -0.4484E-03  0.1156E+00
      0.925 -0.3178E-02  0.1154E+00
      0.987 -0.3622E-02  0.1152E+00
      1.048 -0.4650E-02  0.1149E+00
      1.109 -0.7196E-02  0.1145E+00
      1.170 -0.8461E-02  0.1140E+00
      1.231 -0.6177E-03  0.1139E+00
      1.292  0.2636E-01  0.1155E+00
      1.353  0.7556E-01  0.1201E+00
      1.414  0.1342E+00  0.1283E+00
      1.475  0.1770E+00  0.1391E+00
      1.536  0.1825E+00  0.1503E+00
      1.597  0.1487E+00  0.1594E+00
      1.658  0.9467E-01  0.1651E+00
      1.719  0.4695E-01  0.1680E+00
      1.780  0.2347E-01  0.1694E+00
      1.841  0.2409E-01  0.1709E+00
      1.902  0.3421E-01  0.1730E+00
      1.963  0.3800E-01  0.1753E+00
      2.024  0.3002E-01  0.1771E+00
      2.085  0.1591E-01  0.1781E+00
      2.146  0.3909E-02  0.1784E+00
      2.207 -0.2600E-02  0.1782E+00
      2.268 -0.5367E-02  0.1779E+00
      2.329 -0.6696E-02  0.1775E+00
      2.390 -0.5190E-02  0.1771E+00
      2.452  0.4960E-02  0.1774E+00
      2.513  0.2945E-01  0.1792E+00
      2.574  0.6595E-01  0.1833E+00
      2.635  0.1006E+00  0.1894E+00
      2.696  0.1159E+00  0.1965E+00
      2.757  0.1038E+00  0.2028E+00
      2.818  0.7209E-01  0.2072E+00
      2.879  0.3694E-01  0.2095E+00
      2.940  0.1122E-01  0.2102E+00
      3.001 -0.1448E-02  0.2101E+00
      3.062 -0.4675E-02  0.2098E+00
      3.123 -0.4057E-02  0.2095E+00
      3.184 -0.3652E-02  0.2093E+00
      3.245 -0.5215E-02  0.2090E+00
      3.306 -0.8004E-02  0.2085E+00
      3.367 -0.7414E-02  0.2081E+00
      3.428  0.5808E-02  0.2084E+00
      3.489  0.4128E-01  0.2109E+00
      3.550  0.9859E-01  0.2169E+00
      3.611  0.1593E+00  0.2267E+00
      3.672  0.1936E+00  0.2385E+00
      3.733  0.1822E+00  0.2496E+00
      3.794  0.1341E+00  0.2578E+00
      3.855  0.8007E-01  0.2627E+00
      3.916  0.4642E-01  0.2655E+00
      3.978  0.3595E-01  0.2677E+00
      4.039  0.3380E-01  0.2698E+00
      4.100  0.2693E-01  0.2714E+00
      4.161  0.1433E-01  0.2723E+00
      4.222  0.1664E-02  0.2724E+00
      4.283 -0.7385E-02  0.2719E+00
      4.344 -0.1190E-01  0.2712E+00
      4.405 -0.8042E-02  0.2707E+00
      4.466  0.1357E-01  0.2716E+00
      4.527  0.6027E-01  0.2752E+00
      4.588  0.1243E+00  0.2828E+00
      4.649  0.1805E+00  0.2938E+00
      4.710  0.2052E+00  0.3064E+00
      4.771  0.1975E+00  0.3184E+00
      4.832  0.1763E+00  0.3292E+00
      4.893  0.1560E+00  0.3387E+00
      4.954  0.1339E+00  0.3469E+00
      5.015  0.1042E+00  0.3532E+00
      5.076  0.7315E-01  0.3577E+00
      5.137  0.5155E-01  0.3609E+00
      5.198  0.4019E-01  0.3633E+00
      5.259  0.3089E-01  0.3652E+00
      5.320  0.1847E-01  0.3663E+00
      5.381  0.5226E-02  0.3666E+00
      5.443 -0.4163E-02  0.3664E+00
      5.504 -0.6464E-02  0.3660E+00
      5.565  0.1494E-02  0.3661E+00
      5.626  0.2254E-01  0.3675E+00
      5.687  0.5323E-01  0.3707E+00
      5.748  0.7981E-01  0.3756E+00
      5.809  0.8590E-01  0.3808E+00
      5.870  0.6711E-01  0.3849E+00
      5.931  0.3593E-01  0.3871E+00
      5.992  0.1113E-01  0.3878E+00
      6.053  0.4034E-02  0.3880E+00
      6.114  0.1374E-01  0.3889E+00
      6.175  0.3037E-01  0.3907E+00
      6.236  0.4148E-01  0.3933E+00
      6.297  0.3942E-01  0.3957E+00
      6.358  0.2567E-01  0.3972E+00
      6.419  0.8187E-02  0.3977E+00
      6.480 -0.4965E-02  0.3974E+00
      6.541 -0.7892E-02  0.3969E+00
      6.602  0.4967E-02  0.3973E+00
      6.663  0.3681E-01  0.3995E+00
      6.724  0.8158E-01  0.4045E+00
      6.785  0.1240E+00  0.4121E+00
      6.846  0.1530E+00  0.4214E+00
      6.907  0.1707E+00  0.4318E+00
      6.969  0.1826E+00  0.4430E+00
      7.030  0.1811E+00  0.4540E+00
      7.091  0.1529E+00  0.4633E+00
      7.152  0.1004E+00  0.4695E+00
      7.213  0.4483E-01  0.4722E+00
      7.274  0.7201E-02  0.4726E+00
      7.335 -0.7899E-02  0.4722E+00
      7.396 -0.9290E-02  0.4716E+00
      7.457 -0.7354E-02  0.4711E+00
      7.518 -0.7116E-02  0.4707E+00
      7.579 -0.7377E-02  0.4703E+00
      7.640 -0.1711E-02  0.4702E+00
      7.701  0.1809E-01  0.4713E+00
      7.762  0.5387E-01  0.4746E+00
      7.823  0.9424E-01  0.4803E+00
      7.884  0.1215E+00  0.4877E+00
      7.945  0.1308E+00  0.4957E+00
      8.006  0.1378E+00  0.5041E+00
      8.067  0.1600E+00  0.5139E+00
      8.128  0.1924E+00  0.5256E+00
      8.189  0.2091E+00  0.5384E+00
      8.250  0.1904E+00  0.5500E+00
      8.311  0.1413E+00  0.5586E+00
      8.372  0.8353E-01  0.5637E+00
      8.434  0.3663E-01  0.5660E+00
      8.495  0.8346E-02  0.5665E+00
      8.556 -0.3704E-02  0.5663E+00
      8.617 -0.6043E-02  0.5659E+00
      8.678 -0.4870E-02  0.5656E+00
      8.739 -0.4163E-02  0.5653E+00
      8.800 -0.5408E-02  0.5650E+00
      8.861 -0.7172E-02  0.5646E+00
      8.922 -0.3934E-02  0.5643E+00
      8.983  0.1277E-01  0.5651E+00
      9.044  0.4710E-01  0.5680E+00
      9.105  0.8995E-01  0.5735E+00
      9.166  0.1219E+00  0.5809E+00
      9.227  0.1316E+00  0.5889E+00
      9.288  0.1282E+00  0.5968E+00
      9.349  0.1284E+00  0.6046E+00
      9.410  0.1320E+00  0.6127E+00
      9.471  0.1224E+00  0.6201E+00
      9.532  0.8968E-01  0.6256E+00
      9.593  0.4459E-01  0.6283E+00
      9.654  0.6267E-02  0.6287E+00
      9.715 -0.1414E-01  0.6279E+00
      9.776 -0.1341E-01  0.6270E+00
      9.837  0.1245E-01  0.6278E+00
      9.898  0.6696E-01  0.6319E+00
      9.960  0.1405E+00  0.6405E+00
     10.021  0.2048E+00  0.6530E+00
     10.082  0.2278E+00  0.6669E+00
     10.143  0.1973E+00  0.6789E+00
     10.204  0.1303E+00  0.6869E+00
     10.265  0.6041E-01  0.6905E+00
     10.326  0.1820E-01  0.6917E+00
     10.387  0.1770E-01  0.6927E+00
     10.448  0.5246E-01  0.6959E+00
     10.509  0.9789E-01  0.7019E+00
     10.570  0.1232E+00  0.7094E+00
     10.631  0.1116E+00  0.7163E+00
     10.692  0.7249E-01  0.7207E+00
     10.753  0.3287E-01  0.7227E+00
     10.814  0.1568E-01  0.7236E+00
     10.875  0.2477E-01  0.7252E+00
     10.936  0.4592E-01  0.7280E+00
     10.997  0.5958E-01  0.7316E+00
     11.058  0.5643E-01  0.7350E+00
     11.119  0.4359E-01  0.7377E+00
     11.180  0.3583E-01  0.7399E+00
     11.241  0.4033E-01  0.7423E+00
     11.302  0.5079E-01  0.7454E+00
     11.363  0.5507E-01  0.7488E+00
     11.425  0.4679E-01  0.7517E+00
     11.486  0.2970E-01  0.7535E+00
     11.547  0.1260E-01  0.7542E+00
     11.608  0.1727E-02  0.7544E+00
     11.669 -0.2329E-02  0.7542E+00
     11.730 -0.2421E-02  0.7541E+00
     11.791 -0.1388E-02  0.7540E+00
     11.852 -0.5729E-03  0.7539E+00
     11.913 -0.1826E-03  0.7539E+00
     11.974 -0.4626E-04  0.7539E+00
     12.035 -0.9450E-05  0.7539E+00
     12.096 -0.1570E-05  0.7539E+00
     12.157 -0.2132E-06  0.7539E+00
     12.218 -0.2376E-07  0.7539E+00
     12.279 -0.2177E-08  0.7539E+00
     12.340 -0.1644E-09  0.7539E+00
     12.401 -0.1024E-10  0.7539E+00
     12.462 -0.5268E-12  0.7539E+00
     12.523 -0.2242E-13  0.7539E+00
     12.584 -0.7809E-15  0.7539E+00
     12.645 -0.1905E-16  0.7539E+00
     12.706  0.0000E+00  0.7539E+00
     12.767  0.0000E+00  0.7539E+00
     12.828  0.0000E+00  0.7539E+00
     12.889  0.0000E+00  0.7539E+00
     12.951  0.0000E+00  0.7539E+00
     13.012  0.0000E+00  0.7539E+00
     13.073  0.0000E+00  0.7539E+00
     13.134  0.0000E+00  0.7539E+00
     13.195  0.0000E+00  0.7539E+00
     13.256  0.0000E+00  0.7539E+00
     13.317  0.0000E+00  0.7539E+00
     13.378  0.0000E+00  0.7539E+00
