   31   31  191    1
  0.1706118E+02  0.8087052E-09  0.8087052E-09  0.8087052E-09  0.5000000E-15
  1.000000000000000E-004
  CAR 
 unknown system                          
   93    2   72
 
  0.2500000E+00  0.2500000E+00  0.2500000E+00  0.5000000E+00
   1       -2.934429
   2       -1.860508
   3       -1.857605
   4       -1.686737
   5       -0.745526
   6       -0.742406
   7       -0.497276
   8        0.358195
   9        0.360884
  10        0.427445
  11        0.604449
  12        1.426544
  13        1.428337
  14        1.456966
  15        1.560685
  16        1.564874
  17        1.908353
  18        2.633017
  19        2.635452
  20        2.753077
  21        3.593979
  22        3.596446
  23        3.695668
  24        3.696108
  25        3.697480
  26        3.988206
  27        4.620799
  28        4.622814
  29        4.654278
  30        4.715962
  31        4.718603
  32        4.908170
  33        4.911176
  34        4.916990
  35        5.174290
  36        5.761615
  37        5.764667
  38        6.223500
  39        6.776669
  40        6.792062
  41        6.794194
  42        6.970746
  43        7.022924
  44        7.029305
  45        7.031963
  46        7.834935
  47        7.880268
  48        7.882185
  49        8.096205
  50        8.098279
  51        8.157260
  52        8.194232
  53        8.195298
  54        8.318096
  55        9.148218
  56        9.150000
  57        9.180467
  58        9.408432
  59        9.409653
  60        9.435064
  61        9.987293
  62       10.003500
  63       10.004909
  64       10.052713
  65       10.127405
  66       10.129096
  67       10.530496
  68       10.533788
  69       10.585376
  70       10.975279
  71       11.247517
  72       11.377818
 
 -0.2500000E+00  0.2500000E+00  0.2500000E+00  0.5000000E+00
   1       -2.934430
   2       -1.860600
   3       -1.857709
   4       -1.686452
   5       -0.745493
   6       -0.742586
   7       -0.497076
   8        0.357762
   9        0.360784
  10        0.426223
  11        0.605738
  12        1.426979
  13        1.429663
  14        1.454989
  15        1.562699
  16        1.564859
  17        1.907619
  18        2.633262
  19        2.635110
  20        2.751873
  21        3.592883
  22        3.595520
  23        3.695663
  24        3.697022
  25        3.697845
  26        3.990149
  27        4.620649
  28        4.623936
  29        4.652042
  30        4.716548
  31        4.718315
  32        4.909911
  33        4.912058
  34        4.914211
  35        5.174647
  36        5.761758
  37        5.764763
  38        6.223366
  39        6.775929
  40        6.792236
  41        6.794331
  42        6.971069
  43        7.023746
  44        7.030370
  45        7.032014
  46        7.834384
  47        7.880160
  48        7.882885
  49        8.094619
  50        8.097120
  51        8.153877
  52        8.194910
  53        8.197401
  54        8.319022
  55        9.147988
  56        9.150436
  57        9.180132
  58        9.407512
  59        9.409995
  60        9.435025
  61        9.988722
  62       10.002708
  63       10.004599
  64       10.052964
  65       10.128081
  66       10.129440
  67       10.531516
  68       10.533859
  69       10.582085
  70       10.973256
  71       10.977005
  72       11.329075
