       N       E                     dE             d eps       ncg     rms          rms(c)
RMM:   1     0.238178066702E+03    0.23818E+03   -0.15637E+04   144   0.535E+02
RMM:   2    -0.385935718385E+02   -0.27677E+03   -0.26449E+03   144   0.112E+02
RMM:   3    -0.957213799513E+02   -0.57128E+02   -0.56063E+02   144   0.366E+01
RMM:   4    -0.109080483730E+03   -0.13359E+02   -0.11435E+02   144   0.199E+01
RMM:   5    -0.113329926287E+03   -0.42494E+01   -0.32190E+01   144   0.100E+01
RMM:   6    -0.114677114987E+03   -0.13472E+01   -0.10099E+01   144   0.550E+00
RMM:   7    -0.115141391869E+03   -0.46428E+00   -0.35750E+00   144   0.310E+00
RMM:   8    -0.115313827368E+03   -0.17244E+00   -0.13846E+00   144   0.179E+00
RMM:   9    -0.115409917845E+03   -0.96090E-01   -0.84603E-01   328   0.105E+00
RMM:  10    -0.115426603165E+03   -0.16685E-01   -0.10716E-01   333   0.281E-01
RMM:  11    -0.115427431236E+03   -0.82807E-03   -0.52227E-03   292   0.634E-02
RMM:  12    -0.115427451186E+03   -0.19950E-04   -0.16832E-04   267   0.137E-02    0.536E+00
RMM:  13    -0.114893971804E+03    0.53348E+00   -0.35419E-01   288   0.927E-01    0.329E+00
RMM:  14    -0.114630451034E+03    0.26352E+00   -0.15789E-01   288   0.834E-01    0.963E-01
RMM:  15    -0.114603567855E+03    0.26883E-01   -0.18338E-02   288   0.315E-01    0.131E-01
RMM:  16    -0.114602878719E+03    0.68914E-03   -0.23511E-03   294   0.972E-02    0.418E-02
RMM:  17    -0.114602916325E+03   -0.37606E-04   -0.22069E-04   300   0.369E-02    0.907E-03
RMM:  18    -0.114602926470E+03   -0.10145E-04   -0.23653E-05   309   0.134E-02    0.406E-03
RMM:  19    -0.114602930305E+03   -0.38352E-05   -0.40582E-06   224   0.517E-03    0.101E-03
RMM:  20    -0.114602930214E+03    0.90671E-07   -0.52505E-07   180   0.226E-03
   1 F= -.11460293E+03 E0= -.11458616E+03  d E =-.503085E-01
       N       E                     dE             d eps       ncg     rms          rms(c)
RMM:   1    -0.114602214321E+03    0.71598E-03   -0.23663E-02   288   0.422E-01    0.356E-02
RMM:   2    -0.114602137828E+03    0.76493E-04   -0.30377E-04   296   0.493E-02    0.173E-02
RMM:   3    -0.114602128889E+03    0.89385E-05   -0.36022E-05   288   0.138E-02    0.749E-03
RMM:   4    -0.114602128947E+03   -0.57367E-07   -0.28820E-06   202   0.437E-03
   2 F= -.11460213E+03 E0= -.11458530E+03  d E =-.504798E-01
       N       E                     dE             d eps       ncg     rms          rms(c)
RMM:   1    -0.114603235881E+03   -0.11070E-02   -0.94621E-02   288   0.843E-01    0.710E-02
RMM:   2    -0.114602925064E+03    0.31082E-03   -0.12058E-03   295   0.983E-02    0.345E-02
RMM:   3    -0.114602888238E+03    0.36826E-04   -0.14849E-04   289   0.278E-02    0.147E-02
RMM:   4    -0.114602888505E+03   -0.26705E-06   -0.12542E-05   291   0.863E-03    0.601E-03
RMM:   5    -0.114602888914E+03   -0.40870E-06   -0.93017E-07   180   0.302E-03
   3 F= -.11460289E+03 E0= -.11458616E+03  d E =-.501762E-01
       N       E                     dE             d eps       ncg     rms          rms(c)
RMM:   1    -0.114602606012E+03    0.28249E-03   -0.47232E-02   432   0.595E-01    0.479E-02
RMM:   2    -0.114602466459E+03    0.13955E-03   -0.58805E-04   442   0.686E-02    0.243E-02
RMM:   3    -0.114602432571E+03    0.33889E-04   -0.69381E-05   434   0.187E-02    0.112E-02
RMM:   4    -0.114602421413E+03    0.11157E-04   -0.15768E-05   427   0.751E-03    0.428E-03
RMM:   5    -0.114602416851E+03    0.45629E-05   -0.59835E-06   385   0.393E-03    0.120E-03
RMM:   6    -0.114602415343E+03    0.15075E-05   -0.18401E-06   298   0.216E-03    0.507E-04
RMM:   7    -0.114602414796E+03    0.54664E-06   -0.79976E-07   259   0.146E-03
   4 F= -.11460241E+03 E0= -.11458565E+03  d E =-.502889E-01
       N       E                     dE             d eps       ncg     rms          rms(c)
RMM:   1    -0.114602851721E+03   -0.43638E-03   -0.73653E-02   432   0.652E-01    0.757E-02
RMM:   2    -0.114602452156E+03    0.39956E-03   -0.11759E-03   440   0.854E-02    0.350E-02
RMM:   3    -0.114602415062E+03    0.37093E-04   -0.12990E-04   433   0.242E-02    0.157E-02
RMM:   4    -0.114602414377E+03    0.68503E-06   -0.13805E-05   432   0.819E-03    0.617E-03
RMM:   5    -0.114602414682E+03   -0.30477E-06   -0.78570E-07   277   0.265E-03
   5 F= -.11460241E+03 E0= -.11458565E+03  d E =-.502890E-01
       N       E                     dE             d eps       ncg     rms          rms(c)
RMM:   1    -0.114603848828E+03   -0.14345E-02   -0.48157E-02   288   0.598E-01    0.436E-02
RMM:   2    -0.114603376096E+03    0.47273E-03   -0.54767E-04   296   0.684E-02    0.241E-02
RMM:   3    -0.114602929941E+03    0.44616E-03   -0.73360E-05   288   0.190E-02    0.109E-02
RMM:   4    -0.114602585201E+03    0.34474E-03   -0.23490E-05   288   0.856E-03    0.409E-03
RMM:   5    -0.114602341241E+03    0.24396E-03   -0.11077E-05   274   0.509E-03    0.121E-03
RMM:   6    -0.114602235048E+03    0.10619E-03   -0.25601E-06   212   0.242E-03    0.673E-04
RMM:   7    -0.114602167523E+03    0.67525E-04   -0.11902E-06   179   0.172E-03    0.322E-04
RMM:   8    -0.114602129252E+03    0.38271E-04   -0.72352E-07   143   0.130E-03    0.123E-04
RMM:   9    -0.114602124107E+03    0.51448E-05   -0.21405E-07   123   0.891E-04    0.745E-05
RMM:  10    -0.114602125394E+03   -0.12863E-05   -0.65346E-08    83   0.684E-04    0.299E-05
RMM:  11    -0.114602126738E+03   -0.13445E-05   -0.16177E-08    63   0.616E-04    0.186E-05
RMM:  12    -0.114602128270E+03   -0.15319E-05   -0.90871E-09    51   0.602E-04    0.773E-06
RMM:  13    -0.114602128684E+03   -0.41399E-06    0.37574E-34    35   0.589E-04
   6 F= -.11460213E+03 E0= -.11458530E+03  d E =-.504792E-01
       N       E                     dE             d eps       ncg     rms          rms(c)
RMM:   1    -0.114603232717E+03   -0.11044E-02   -0.94343E-02   288   0.842E-01    0.713E-02
RMM:   2    -0.114602923660E+03    0.30906E-03   -0.12073E-03   295   0.986E-02    0.346E-02
RMM:   3    -0.114602888072E+03    0.35588E-04   -0.14413E-04   288   0.276E-02    0.150E-02
RMM:   4    -0.114602888452E+03   -0.38038E-06   -0.12692E-05   291   0.869E-03    0.604E-03
RMM:   5    -0.114602888888E+03   -0.43510E-06   -0.92603E-07   182   0.304E-03
   7 F= -.11460289E+03 E0= -.11458616E+03  d E =-.501762E-01
