   3   3   0   0
  0.1429167E+02  0.3500000E-09  0.3500000E-09  0.3500000E-09  0.5000000E-15
  1.000000000000000E-004
  CAR 
 unknown system                          
     18.28537298     -2.84238157  301     10.45980125      1.00000000
     -2.842  0.0000E+00  0.0000E+00
     -2.772  0.0000E+00  0.0000E+00
     -2.702  0.0000E+00  0.0000E+00
     -2.631  0.0000E+00  0.0000E+00
     -2.561  0.0000E+00  0.0000E+00
     -2.490 -0.1137E-29 -0.8005E-31
     -2.420 -0.3172E-27 -0.2242E-28
     -2.349 -0.6911E-25 -0.4889E-26
     -2.279 -0.1172E-22 -0.8304E-24
     -2.209 -0.1547E-20 -0.1098E-21
     -2.138 -0.1588E-18 -0.1130E-19
     -2.068 -0.1268E-16 -0.9044E-18
     -1.997 -0.7621E-15 -0.5458E-16
     -1.927 -0.3665E-13 -0.2635E-14
     -1.856 -0.1364E-11 -0.9867E-13
     -1.786 -0.3929E-10 -0.2865E-11
     -1.716 -0.8748E-09 -0.6448E-10
     -1.645 -0.1502E-07 -0.1122E-08
     -1.575 -0.1983E-06 -0.1509E-07
     -1.504 -0.2003E-05 -0.1561E-06
     -1.434 -0.1537E-04 -0.1238E-05
     -1.363 -0.8861E-04 -0.7479E-05
     -1.293 -0.3765E-03 -0.3399E-04
     -1.223 -0.1132E-02 -0.1137E-03
     -1.152 -0.2166E-02 -0.2663E-03
     -1.082 -0.1472E-02 -0.3700E-03
     -1.011  0.5164E-02 -0.6312E-05
     -0.941  0.2002E-01  0.1404E-02
     -0.870  0.3694E-01  0.4005E-02
     -0.800  0.4346E-01  0.7066E-02
     -0.730  0.3395E-01  0.9457E-02
     -0.659  0.1649E-01  0.1062E-01
     -0.589  0.3139E-02  0.1084E-01
     -0.518 -0.1941E-02  0.1070E-01
     -0.448 -0.1992E-02  0.1056E-01
     -0.377 -0.9346E-03  0.1050E-01
     -0.307 -0.2882E-03  0.1048E-01
     -0.237 -0.6363E-04  0.1047E-01
     -0.166 -0.1040E-04  0.1047E-01
     -0.096 -0.1281E-05  0.1047E-01
     -0.025 -0.1201E-06  0.1047E-01
      0.045 -0.8623E-08  0.1047E-01
      0.116 -0.4763E-09  0.1047E-01
      0.186 -0.2030E-10  0.1047E-01
      0.256 -0.6688E-12  0.1047E-01
      0.327 -0.1704E-13  0.1047E-01
      0.397 -0.3632E-15  0.1047E-01
      0.468  0.0000E+00  0.1047E-01
      0.538  0.0000E+00  0.1047E-01
      0.608  0.0000E+00  0.1047E-01
      0.679  0.0000E+00  0.1047E-01
      0.749  0.0000E+00  0.1047E-01
      0.820  0.0000E+00  0.1047E-01
      0.890  0.0000E+00  0.1047E-01
      0.961  0.0000E+00  0.1047E-01
      1.031  0.0000E+00  0.1047E-01
      1.101  0.0000E+00  0.1047E-01
      1.172  0.0000E+00  0.1047E-01
      1.242  0.0000E+00  0.1047E-01
      1.313  0.0000E+00  0.1047E-01
      1.383  0.0000E+00  0.1047E-01
      1.454  0.0000E+00  0.1047E-01
      1.524  0.0000E+00  0.1047E-01
      1.594  0.0000E+00  0.1047E-01
      1.665  0.0000E+00  0.1047E-01
      1.735  0.0000E+00  0.1047E-01
      1.806  0.0000E+00  0.1047E-01
      1.876  0.0000E+00  0.1047E-01
      1.947  0.0000E+00  0.1047E-01
      2.017  0.0000E+00  0.1047E-01
      2.087  0.0000E+00  0.1047E-01
      2.158  0.0000E+00  0.1047E-01
      2.228  0.0000E+00  0.1047E-01
      2.299  0.0000E+00  0.1047E-01
      2.369  0.0000E+00  0.1047E-01
      2.440  0.0000E+00  0.1047E-01
      2.510  0.0000E+00  0.1047E-01
      2.580  0.0000E+00  0.1047E-01
      2.651  0.0000E+00  0.1047E-01
      2.721  0.0000E+00  0.1047E-01
      2.792  0.0000E+00  0.1047E-01
      2.862  0.0000E+00  0.1047E-01
      2.933  0.0000E+00  0.1047E-01
      3.003  0.0000E+00  0.1047E-01
      3.073  0.0000E+00  0.1047E-01
      3.144  0.0000E+00  0.1047E-01
      3.214  0.0000E+00  0.1047E-01
      3.285 -0.4901E-29  0.1047E-01
      3.355 -0.1283E-26  0.1047E-01
      3.426 -0.2622E-24  0.1047E-01
      3.496 -0.4172E-22  0.1047E-01
      3.566 -0.5165E-20  0.1047E-01
      3.637 -0.4974E-18  0.1047E-01
      3.707 -0.3724E-16  0.1047E-01
      3.778 -0.2100E-14  0.1047E-01
      3.848 -0.9447E-13  0.1047E-01
      3.918 -0.3293E-11  0.1047E-01
      3.989 -0.8887E-10  0.1047E-01
      4.059 -0.1853E-08  0.1047E-01
      4.130 -0.2976E-07  0.1047E-01
      4.200 -0.3671E-06  0.1047E-01
      4.271 -0.3460E-05  0.1047E-01
      4.341 -0.2473E-04  0.1047E-01
      4.411 -0.1324E-03  0.1046E-01
      4.482 -0.5197E-03  0.1042E-01
      4.552 -0.1431E-02  0.1032E-01
      4.623 -0.2444E-02  0.1015E-01
      4.693 -0.1184E-02  0.1007E-01
      4.764  0.6177E-02  0.1050E-01
      4.834  0.2044E-01  0.1194E-01
      4.904  0.3657E-01  0.1452E-01
      4.975  0.5064E-01  0.1808E-01
      5.045  0.6616E-01  0.2274E-01
      5.116  0.8331E-01  0.2861E-01
      5.186  0.8822E-01  0.3482E-01
      5.257  0.6877E-01  0.3967E-01
      5.327  0.3478E-01  0.4212E-01
      5.397  0.7511E-02  0.4264E-01
      5.468 -0.3668E-02  0.4239E-01
      5.538 -0.4213E-02  0.4209E-01
      5.609 -0.2070E-02  0.4194E-01
      5.679 -0.6615E-03  0.4190E-01
      5.750 -0.1507E-03  0.4189E-01
      5.820 -0.2537E-04  0.4189E-01
      5.890 -0.3215E-05  0.4188E-01
      5.961 -0.3098E-06  0.4188E-01
      6.031 -0.2285E-07  0.4188E-01
      6.102 -0.1296E-08  0.4188E-01
      6.172 -0.5672E-10  0.4188E-01
      6.243 -0.1919E-11  0.4188E-01
      6.313 -0.5025E-13  0.4188E-01
      6.383 -0.1056E-14  0.4188E-01
      6.454  0.0000E+00  0.4188E-01
      6.524  0.0000E+00  0.4188E-01
      6.595  0.0000E+00  0.4188E-01
      6.665  0.0000E+00  0.4188E-01
      6.736  0.0000E+00  0.4188E-01
      6.806  0.0000E+00  0.4188E-01
      6.876  0.0000E+00  0.4188E-01
      6.947  0.0000E+00  0.4188E-01
      7.017  0.0000E+00  0.4188E-01
      7.088  0.0000E+00  0.4188E-01
      7.158  0.0000E+00  0.4188E-01
      7.229  0.0000E+00  0.4188E-01
      7.299  0.0000E+00  0.4188E-01
      7.369  0.0000E+00  0.4188E-01
      7.440  0.0000E+00  0.4188E-01
      7.510  0.0000E+00  0.4188E-01
      7.581  0.0000E+00  0.4188E-01
      7.651  0.0000E+00  0.4188E-01
      7.721  0.0000E+00  0.4188E-01
      7.792  0.0000E+00  0.4188E-01
      7.862  0.0000E+00  0.4188E-01
      7.933  0.0000E+00  0.4188E-01
      8.003  0.0000E+00  0.4188E-01
      8.074  0.0000E+00  0.4188E-01
      8.144  0.0000E+00  0.4188E-01
      8.214  0.0000E+00  0.4188E-01
      8.285  0.0000E+00  0.4188E-01
      8.355  0.0000E+00  0.4188E-01
      8.426  0.0000E+00  0.4188E-01
      8.496  0.0000E+00  0.4188E-01
      8.567  0.0000E+00  0.4188E-01
      8.637  0.0000E+00  0.4188E-01
      8.707  0.0000E+00  0.4188E-01
      8.778  0.0000E+00  0.4188E-01
      8.848  0.0000E+00  0.4188E-01
      8.919 -0.8231E-28  0.4188E-01
      8.989 -0.1960E-25  0.4188E-01
      9.060 -0.3646E-23  0.4188E-01
      9.130 -0.5278E-21  0.4188E-01
      9.200 -0.5944E-19  0.4188E-01
      9.271 -0.5207E-17  0.4188E-01
      9.341 -0.3380E-15  0.4188E-01
      9.412 -0.1816E-13  0.4188E-01
      9.482 -0.7418E-12  0.4188E-01
      9.553 -0.2349E-10  0.4188E-01
      9.623 -0.5752E-09  0.4188E-01
      9.693 -0.1087E-07  0.4188E-01
      9.764 -0.1582E-06  0.4188E-01
      9.834 -0.1764E-05  0.4188E-01
      9.905 -0.1499E-04  0.4188E-01
      9.975 -0.9621E-04  0.4188E-01
     10.046 -0.4589E-03  0.4184E-01
     10.116 -0.1578E-02  0.4173E-01
     10.186 -0.3646E-02  0.4148E-01
     10.257 -0.4337E-02  0.4117E-01
     10.327  0.3517E-02  0.4142E-01
     10.398  0.2752E-01  0.4336E-01
     10.468  0.6250E-01  0.4776E-01
     10.539  0.8587E-01  0.5381E-01
     10.609  0.7810E-01  0.5931E-01
     10.679  0.4598E-01  0.6254E-01
     10.750  0.1418E-01  0.6354E-01
     10.820 -0.1827E-02  0.6341E-01
     10.891 -0.4598E-02  0.6309E-01
     10.961 -0.2929E-02  0.6288E-01
     11.032 -0.1924E-02  0.6275E-01
     11.102 -0.2284E-02  0.6259E-01
     11.172 -0.1854E-02  0.6246E-01
     11.243  0.3754E-02  0.6272E-01
     11.313  0.1763E-01  0.6396E-01
     11.384  0.3497E-01  0.6643E-01
     11.454  0.4354E-01  0.6949E-01
     11.524  0.3601E-01  0.7203E-01
     11.595  0.1885E-01  0.7336E-01
     11.665  0.4461E-02  0.7367E-01
     11.736 -0.1651E-02  0.7355E-01
     11.806 -0.2115E-02  0.7340E-01
     11.877 -0.1065E-02  0.7333E-01
     11.947 -0.3455E-03  0.7331E-01
     12.017 -0.7963E-04  0.7330E-01
     12.088 -0.1354E-04  0.7330E-01
     12.158 -0.1733E-05  0.7330E-01
     12.229 -0.1685E-06  0.7330E-01
     12.299 -0.1255E-07  0.7330E-01
     12.370 -0.7180E-09  0.7330E-01
     12.440 -0.3170E-10  0.7330E-01
     12.510 -0.1082E-11  0.7330E-01
     12.581 -0.2859E-13  0.7330E-01
     12.651 -0.5943E-15  0.7330E-01
     12.722  0.0000E+00  0.7330E-01
     12.792  0.0000E+00  0.7330E-01
     12.863  0.0000E+00  0.7330E-01
     12.933  0.0000E+00  0.7330E-01
     13.003  0.0000E+00  0.7330E-01
     13.074  0.0000E+00  0.7330E-01
     13.144  0.0000E+00  0.7330E-01
     13.215  0.0000E+00  0.7330E-01
     13.285  0.0000E+00  0.7330E-01
     13.356  0.0000E+00  0.7330E-01
     13.426  0.0000E+00  0.7330E-01
     13.496  0.0000E+00  0.7330E-01
     13.567  0.0000E+00  0.7330E-01
     13.637  0.0000E+00  0.7330E-01
     13.708  0.0000E+00  0.7330E-01
     13.778  0.0000E+00  0.7330E-01
     13.849  0.0000E+00  0.7330E-01
     13.919  0.0000E+00  0.7330E-01
     13.989  0.0000E+00  0.7330E-01
     14.060  0.0000E+00  0.7330E-01
     14.130  0.0000E+00  0.7330E-01
     14.201  0.0000E+00  0.7330E-01
     14.271  0.0000E+00  0.7330E-01
     14.342  0.0000E+00  0.7330E-01
     14.412  0.0000E+00  0.7330E-01
     14.482  0.0000E+00  0.7330E-01
     14.553  0.0000E+00  0.7330E-01
     14.623 -0.3519E-30  0.7330E-01
     14.694 -0.1033E-27  0.7330E-01
     14.764 -0.2368E-25  0.7330E-01
     14.835 -0.4226E-23  0.7330E-01
     14.905 -0.5869E-21  0.7330E-01
     14.975 -0.6341E-19  0.7330E-01
     15.046 -0.5327E-17  0.7330E-01
     15.116 -0.3396E-15  0.7330E-01
     15.187 -0.1707E-13  0.7330E-01
     15.257 -0.6688E-12  0.7330E-01
     15.327 -0.2030E-10  0.7330E-01
     15.398 -0.4763E-09  0.7330E-01
     15.468 -0.8623E-08  0.7330E-01
     15.539 -0.1201E-06  0.7330E-01
     15.609 -0.1281E-05  0.7330E-01
     15.680 -0.1040E-04  0.7330E-01
     15.750 -0.6363E-04  0.7329E-01
     15.820 -0.2882E-03  0.7327E-01
     15.891 -0.9346E-03  0.7321E-01
     15.961 -0.1992E-02  0.7307E-01
     16.032 -0.1941E-02  0.7293E-01
     16.102  0.3139E-02  0.7315E-01
     16.173  0.1649E-01  0.7431E-01
     16.243  0.3395E-01  0.7670E-01
     16.313  0.4346E-01  0.7976E-01
     16.384  0.3694E-01  0.8237E-01
     16.454  0.2002E-01  0.8378E-01
     16.525  0.5164E-02  0.8414E-01
     16.595 -0.1472E-02  0.8404E-01
     16.666 -0.2166E-02  0.8388E-01
     16.736 -0.1132E-02  0.8380E-01
     16.806 -0.3765E-03  0.8378E-01
     16.877 -0.8861E-04  0.8377E-01
     16.947 -0.1537E-04  0.8377E-01
     17.018 -0.2003E-05  0.8377E-01
     17.088 -0.1983E-06  0.8377E-01
     17.159 -0.1502E-07  0.8377E-01
     17.229 -0.8748E-09  0.8377E-01
     17.299 -0.3929E-10  0.8377E-01
     17.370 -0.1364E-11  0.8377E-01
     17.440 -0.3668E-13  0.8377E-01
     17.511 -0.7593E-15  0.8377E-01
     17.581  0.0000E+00  0.8377E-01
     17.652  0.0000E+00  0.8377E-01
     17.722  0.0000E+00  0.8377E-01
     17.792  0.0000E+00  0.8377E-01
     17.863  0.0000E+00  0.8377E-01
     17.933  0.0000E+00  0.8377E-01
     18.004  0.0000E+00  0.8377E-01
     18.074  0.0000E+00  0.8377E-01
     18.145  0.0000E+00  0.8377E-01
     18.215  0.0000E+00  0.8377E-01
     18.285  0.0000E+00  0.8377E-01
