       N       E                     dE             d eps       ncg     rms          rms(c)
DAV:   1     0.415128398540E+01    0.41513E+01   -0.23115E+03    16   0.520E+02
DAV:   2    -0.883684812834E+01   -0.12988E+02   -0.13000E+02    24   0.728E+01
DAV:   3    -0.892511191292E+01   -0.88264E-01   -0.53691E-01    16   0.623E+00
DAV:   4    -0.892656564363E+01   -0.14537E-02   -0.14452E-02    32   0.767E-01
DAV:   5    -0.892656575399E+01   -0.11037E-06   -0.10937E-06    24   0.652E-03    0.211E+00
DAV:   6    -0.875558165841E+01    0.17098E+00   -0.23509E-01    16   0.263E+00    0.118E+00
DAV:   7    -0.870560024248E+01    0.49981E-01   -0.18419E-01    16   0.244E+00    0.293E-01
DAV:   8    -0.870559337973E+01    0.68628E-05   -0.79860E-03    16   0.784E-01    0.221E-02
DAV:   9    -0.870559082894E+01    0.25508E-05   -0.17951E-04    32   0.109E-01
   1 F= -.87055908E+01 E0= -.86780832E+01  d E =-.870559E+01
