<?xml version="1.0" encoding="ISO-8859-1"?>
<modeling>
 <generator>
  <i name="program" type="string">vasp </i>
  <i name="version" type="string">5.2.2  </i>
  <i name="subversion" type="string">15Apr09 complex  parallel </i>
  <i name="platform" type="string">LinuxIFC </i>
  <i name="date" type="string">2016 11 30 </i>
  <i name="time" type="string">15:02:09 </i>
 </generator>
 <incar>
  <i type="string" name="PREC">accurate</i>
  <i type="int" name="IALGO">    48</i>
  <i type="int" name="IBRION">     2</i>
  <i name="EDIFFG">      0.05000000</i>
  <i type="int" name="NSW">   191</i>
  <i type="int" name="ISIF">     2</i>
  <i name="ENCUT">    300.00000000</i>
  <i name="NELECT">     98.00000000</i>
  <i type="int" name="ISMEAR">     1</i>
  <i name="SIGMA">      0.20000000</i>
  <i type="logical" name="LWAVE"> F  </i>
  <i type="logical" name="LCHARG"> F  </i>
  <i type="logical" name="LPEAD"> F  </i>
  <i type="logical" name="LCALCPOL"> F  </i>
  <i type="logical" name="LCALCEPS"> F  </i>
  <v name="EFIELD_PEAD">      0.00000000      0.00000000      0.00000000</v>
  <i type="logical" name="LEFG"> F  </i>
 </incar>
 <kpoints>
  <generation param="Monkhorst-Pack">
   <v type="int" name="divisions">       2        2        2 </v>
   <v name="usershift">      0.00000000       0.00000000       0.00000000 </v>
   <v name="genvec1">      0.50000000       0.00000000       0.00000000 </v>
   <v name="genvec2">      0.00000000       0.50000000       0.00000000 </v>
   <v name="genvec3">      0.00000000       0.00000000       0.50000000 </v>
   <v name="shift">      0.50000000       0.50000000       0.50000000 </v>
  </generation>
  <varray name="kpointlist" >
   <v>       0.25000000       0.25000000       0.25000000 </v>
   <v>      -0.25000000       0.25000000       0.25000000 </v>
   <v>      -0.25000000      -0.25000000       0.25000000 </v>
  </varray>
  <varray name="weights" >
   <v>       0.25000000 </v>
   <v>       0.50000000 </v>
   <v>       0.25000000 </v>
  </varray>
 </kpoints>
 <parameters>
  <separator name="general" >
   <i type="string" name="SYSTEM">unknown system</i>
   <i type="logical" name="LCOMPAT"> F  </i>
  </separator>
  <separator name="electronic" >
   <i type="string" name="PREC">accura</i>
   <i name="ENMAX">    300.00000000</i>
   <i name="ENAUG">    291.05200000</i>
   <i name="EDIFF">      0.00010000</i>
   <i type="int" name="IALGO">    48</i>
   <i type="int" name="IWAVPR">    11</i>
   <i type="int" name="NBANDS">    72</i>
   <i name="NELECT">     98.00000000</i>
   <separator name="electronic smearing" >
    <i type="int" name="ISMEAR">     1</i>
    <i name="SIGMA">      0.20000000</i>
   </separator>
   <separator name="electronic projectors" >
    <i type="logical" name="LREAL"> F  </i>
    <v name="ROPT">      0.00000000      0.00000000</v>
    <i type="int" name="LMAXPAW">  -100</i>
    <i type="int" name="LMAXMIX">     2</i>
   </separator>
   <separator name="electronic startup" >
    <i type="int" name="ISTART">     0</i>
    <i type="int" name="ICHARG">     2</i>
    <i type="int" name="INIWAV">     1</i>
   </separator>
   <separator name="electronic spin" >
    <i type="int" name="ISPIN">     1</i>
    <i type="logical" name="LNONCOLLINEAR"> F  </i>
    <v name="MAGMOM">      1.00000000      1.00000000      1.00000000      1.00000000      1.00000000      1.00000000      1.00000000      1.00000000      1.00000000      1.00000000      1.00000000      1.00000000      1.00000000      1.00000000      1.00000000      1.00000000      1.00000000      1.00000000      1.00000000      1.00000000
      1.00000000      1.00000000      1.00000000      1.00000000      1.00000000      1.00000000      1.00000000      1.00000000      1.00000000      1.00000000      1.00000000      1.00000000      1.00000000</v>
    <i name="NUPDOWN">     -1.00000000</i>
    <i type="logical" name="LSORBIT"> F  </i>
    <v name="SAXIS">      0.00000000      0.00000000      1.00000000</v>
    <i type="logical" name="LSPIRAL"> F  </i>
    <v name="QSPIRAL">      0.00000000      0.00000000      0.00000000</v>
    <i type="logical" name="LZEROZ"> F  </i>
   </separator>
   <separator name="electronic exchange-correlation" >
    <i type="logical" name="LASPH"> F  </i>
    <i type="logical" name="LMETAGGA"> F  </i>
   </separator>
   <separator name="electronic convergence" >
    <i type="int" name="NELM">    60</i>
    <i type="int" name="NELMDL">   -12</i>
    <i type="int" name="NELMIN">     2</i>
    <i name="ENINI">    300.00000000</i>
    <separator name="electronic convergence detail" >
     <i type="logical" name="LDIAG"> T  </i>
     <i name="WEIMIN">      0.00100000</i>
     <i name="EBREAK">      0.00000038</i>
     <i name="DEPER">      0.30000000</i>
     <i type="int" name="NRMM">     4</i>
     <i name="TIME">      0.40000000</i>
    </separator>
   </separator>
   <separator name="electronic mixer" >
    <i name="AMIX">      0.40000000</i>
    <i name="BMIX">      1.00000000</i>
    <i name="AMIN">      0.10000000</i>
    <i name="AMIX_MAG">      1.60000000</i>
    <i name="BMIX_MAG">      1.00000000</i>
    <separator name="electronic mixer details" >
     <i type="int" name="IMIX">     4</i>
     <i type="int" name="MAXMIX">   -45</i>
     <i name="WC">    100.00000000</i>
     <i type="int" name="INIMIX">     1</i>
     <i type="int" name="MIXPRE">     1</i>
     <i type="int" name="MREMOVE">     5</i>
    </separator>
   </separator>
   <separator name="electronic dipolcorrection" >
    <i type="logical" name="LDIPOL"> F  </i>
    <i type="logical" name="LMONO"> F  </i>
    <i type="int" name="IDIPOL">     0</i>
    <i name="EPSILON">      1.00000000</i>
    <v name="DIPOL">   -100.00000000   -100.00000000   -100.00000000</v>
    <i name="EFIELD">      0.00000000</i>
   </separator>
  </separator>
  <separator name="grids" >
   <i type="int" name="NGX">    48</i>
   <i type="int" name="NGY">    48</i>
   <i type="int" name="NGZ">    48</i>
   <i type="int" name="NGXF">    96</i>
   <i type="int" name="NGYF">    96</i>
   <i type="int" name="NGZF">    96</i>
   <i type="logical" name="ADDGRID"> F  </i>
  </separator>
  <separator name="ionic" >
   <i type="int" name="NSW">   191</i>
   <i type="int" name="IBRION">     2</i>
   <i type="int" name="ISIF">     2</i>
   <i name="PSTRESS">      0.00000000</i>
   <i name="EDIFFG">      0.05000000</i>
   <i type="int" name="NFREE">     1</i>
   <i name="POTIM">      0.50000000</i>
   <i name="SMASS">     -3.00000000</i>
  </separator>
  <separator name="ionic md" >
   <i name="TEBEG">      0.00010000</i>
   <i name="TEEND">      0.00010000</i>
   <i type="int" name="NBLOCK">     1</i>
   <i type="int" name="KBLOCK">   191</i>
   <i type="int" name="NPACO">   256</i>
   <i name="APACO">     16.00000000</i>
  </separator>
  <separator name="symmetry" >
   <i type="int" name="ISYM">     2</i>
   <i name="SYMPREC">      0.00001000</i>
  </separator>
  <separator name="dos" >
   <i type="logical" name="LORBIT"> F  </i>
   <v name="RWIGS">     -1.00000000     -1.00000000</v>
   <i type="int" name="NEDOS">   301</i>
   <i name="EMIN">     10.00000000</i>
   <i name="EMAX">    -10.00000000</i>
   <i name="EFERMI">      0.00000000</i>
  </separator>
  <separator name="writing" >
   <i type="int" name="NWRITE">     2</i>
   <i type="logical" name="LWAVE"> F  </i>
   <i type="logical" name="LCHARG"> F  </i>
   <i type="logical" name="LPARD"> F  </i>
   <i type="logical" name="LVTOT"> F  </i>
   <i type="logical" name="LELF"> F  </i>
   <i type="logical" name="LOPTICS"> F  </i>
   <v name="STM">      0.00000000      0.00000000      0.00000000      0.00000000      0.00000000</v>
  </separator>
  <separator name="performance" >
   <i type="int" name="NPAR">     8</i>
   <i type="int" name="NSIM">     4</i>
   <i type="int" name="NBLK">    32</i>
   <i type="logical" name="LPLANE"> T  </i>
   <i type="logical" name="LSCALAPACK"> F  </i>
   <i type="logical" name="LSCAAWARE"> F  </i>
   <i type="logical" name="LSCALU"> F  </i>
   <i type="logical" name="LASYNC"> F  </i>
  </separator>
  <separator name="miscellaneous" >
   <i type="int" name="IDIOT">     3</i>
   <i type="logical" name="LMUSIC"> F  </i>
   <v name="POMASS">     26.98200000     24.30500000</v>
   <i type="logical" name="LCORR"> T  </i>
  </separator>
  <i type="logical" name="LREAL_COMPAT"> F  </i>
  <i type="logical" name="GGA_COMPAT"> T  </i>
  <i type="logical" name="LBERRY"> F  </i>
  <i type="int" name="ICORELEVEL">     0</i>
  <i type="logical" name="LDAU"> F  </i>
  <i type="int" name="I_CONSTRAINED_M">     0</i>
  <separator name="electronic exchange-correlation" >
   <i type="string" name="GGA">--</i>
   <i type="int" name="VOSKOWN">     0</i>
   <i type="logical" name="LHFCALC"> F  </i>
   <i type="logical" name="LHFONE"> F  </i>
   <i type="logical" name="LRHFCALC"> F  </i>
   <i type="logical" name="LTHOMAS"> F  </i>
   <i type="logical" name="LMODELHF"> F  </i>
   <i name="ENCUTFOCK">      0.00000000</i>
   <i name="ENCUT4O">     -1.00000000</i>
   <i type="int" name="EXXOEP">     0</i>
   <i type="int" name="FOURORBIT">     0</i>
   <i name="AEXX">      0.00000000</i>
   <i name="HFALPHA">      0.00000000</i>
   <i name="ALDAX">      1.00000000</i>
   <i name="AGGAX">      1.00000000</i>
   <i name="ALDAC">      1.00000000</i>
   <i name="AGGAC">      1.00000000</i>
   <i type="int" name="NKREDX">     1</i>
   <i type="int" name="NKREDY">     1</i>
   <i type="int" name="NKREDZ">     1</i>
   <i type="logical" name="SHIFTRED"> F  </i>
   <i type="logical" name="ODDONLY"> F  </i>
   <i type="logical" name="EVENONLY"> F  </i>
   <i type="int" name="LMAXFOCK">     0</i>
   <i type="int" name="NMAXFOCKAE">     0</i>
   <i name="HFSCREEN">      0.00000000</i>
   <i name="HFSCREENC">      0.00000000</i>
  </separator>
  <separator name="model GW" >
   <i type="int" name="MODEL_GW">     0</i>
   <i name="MODEL_EPS0">      9.61630031</i>
   <i name="MODEL_ALPHA">      1.00000000</i>
  </separator>
  <separator name="linear response parameters" >
   <i type="logical" name="LEPSILON"> F  </i>
   <i type="logical" name="LRPA"> F  </i>
   <i type="logical" name="LNABLA"> F  </i>
   <i type="logical" name="LVEL"> F  </i>
   <i type="int" name="KINTER">     0</i>
   <i name="CSHIFT">      0.10000000</i>
   <i name="OMEGAMAX">     -1.00000000</i>
  </separator>
  <separator name="orbital magnetization" >
   <i type="logical" name="ORBITALMAG"> F  </i>
   <i type="logical" name="LMAGBLOCH"> F  </i>
   <i type="logical" name="LCHIMAG"> F  </i>
   <i type="logical" name="LGAUGE"> T  </i>
   <i type="int" name="MAGATOM">     0</i>
   <v name="MAGDIPOL">      0.00000000      0.00000000      0.00000000</v>
   <v name="AVECCONST">      0.00000000      0.00000000      0.00000000</v>
  </separator>
  <separator name="response functions" >
   <i type="logical" name="LRPA"> T  </i>
   <i type="logical" name="LTCTE"> F  </i>
   <i type="logical" name="LTETE"> F  </i>
   <i type="logical" name="L2ORDER"> F  </i>
   <i type="logical" name="LGWLF"> F  </i>
   <i name="ENCUTGW">    200.00000000</i>
   <i name="ENCUTGWSOFT">     -2.00000000</i>
   <i name="ENCUTLF">     -1.00000000</i>
   <i type="int" name="LMAXMP2">    -1</i>
   <i name="SCISSOR">      0.00000000</i>
   <i type="int" name="NOMEGA">     0</i>
   <i type="int" name="NOMEGAR">     0</i>
   <i type="int" name="NBANDSGW">    -1</i>
   <i type="int" name="NBANDSLF">    -1</i>
   <i type="int" name="NELM">     1</i>
   <i type="int" name="DIM">     3</i>
   <i type="int" name="ANTIRES">     0</i>
   <i type="logical" name="LUSEW"> F  </i>
   <i name="OMEGAMAX">    -30.00000000</i>
   <i name="OMEGATL">   -200.00000000</i>
   <i type="int" name="OMEGAGRID">     0</i>
   <i name="CSHIFT">     -0.10000000</i>
   <i type="logical" name="SELFENERGY"> F  </i>
   <i type="logical" name="LSPECTRAL"> F  </i>
   <i type="logical" name="ODDONLYGW"> F  </i>
   <i type="logical" name="EVENONLYGW"> F  </i>
   <i type="int" name="NKREDLFX">     1</i>
   <i type="int" name="NKREDLFY">     1</i>
   <i type="int" name="NKREDLFZ">     1</i>
   <i type="int" name="MAXMEM">  1024</i>
   <i type="int" name="TELESCOPE">     0</i>
  </separator>
 </parameters>
 <atominfo>
  <atoms>      33 </atoms>
  <types>       2 </types>
  <array name="atoms" >
   <dimension dim="1">ion</dimension>
   <field type="string">element</field>
   <field type="int">atomtype</field>
   <set>
    <rc><c>Al</c><c>   1</c></rc>
    <rc><c>Al</c><c>   1</c></rc>
    <rc><c>Al</c><c>   1</c></rc>
    <rc><c>Al</c><c>   1</c></rc>
    <rc><c>Al</c><c>   1</c></rc>
    <rc><c>Al</c><c>   1</c></rc>
    <rc><c>Al</c><c>   1</c></rc>
    <rc><c>Al</c><c>   1</c></rc>
    <rc><c>Al</c><c>   1</c></rc>
    <rc><c>Al</c><c>   1</c></rc>
    <rc><c>Al</c><c>   1</c></rc>
    <rc><c>Al</c><c>   1</c></rc>
    <rc><c>Al</c><c>   1</c></rc>
    <rc><c>Al</c><c>   1</c></rc>
    <rc><c>Al</c><c>   1</c></rc>
    <rc><c>Al</c><c>   1</c></rc>
    <rc><c>Al</c><c>   1</c></rc>
    <rc><c>Al</c><c>   1</c></rc>
    <rc><c>Al</c><c>   1</c></rc>
    <rc><c>Al</c><c>   1</c></rc>
    <rc><c>Al</c><c>   1</c></rc>
    <rc><c>Al</c><c>   1</c></rc>
    <rc><c>Al</c><c>   1</c></rc>
    <rc><c>Al</c><c>   1</c></rc>
    <rc><c>Al</c><c>   1</c></rc>
    <rc><c>Al</c><c>   1</c></rc>
    <rc><c>Al</c><c>   1</c></rc>
    <rc><c>Al</c><c>   1</c></rc>
    <rc><c>Al</c><c>   1</c></rc>
    <rc><c>Al</c><c>   1</c></rc>
    <rc><c>Al</c><c>   1</c></rc>
    <rc><c>Al</c><c>   1</c></rc>
    <rc><c>Mg</c><c>   2</c></rc>
   </set>
  </array>
  <array name="atomtypes" >
   <dimension dim="1">type</dimension>
   <field type="int">atomspertype</field>
   <field type="string">element</field>
   <field>mass</field>
   <field>valence</field>
   <field type="string">pseudopotential</field>
   <set>
    <rc><c>  32</c><c>Al</c><c>     26.98200000</c><c>      3.00000000</c><c> PAW_PBE Al 04Jan2001                   </c></rc>
    <rc><c>   1</c><c>Mg</c><c>     24.30500000</c><c>      2.00000000</c><c> PAW_PBE Mg 05Jan2001                   </c></rc>
   </set>
  </array>
 </atominfo>
 <structure name="initialpos" >
  <crystal>
   <varray name="basis" >
    <v>       8.08705200       0.00000000       0.00000000 </v>
    <v>       0.00000000       8.08705200       0.00000000 </v>
    <v>       0.00000000       0.00000000       8.08705200 </v>
   </varray>
   <i name="volume">    528.89651690 </i>
   <varray name="rec_basis" >
    <v>       0.12365445       0.00000000       0.00000000 </v>
    <v>       0.00000000       0.12365445       0.00000000 </v>
    <v>       0.00000000       0.00000000       0.12365445 </v>
   </varray>
  </crystal>
  <varray name="positions" >
   <v>       0.00975500       0.00975500       0.98879100 </v>
   <v>       0.24516600       0.02777400       0.26639400 </v>
   <v>       0.25166200       0.25166200       0.98256300 </v>
   <v>       0.02777400       0.24516600       0.26639400 </v>
   <v>       0.48776500       0.00540300       0.99457800 </v>
   <v>       0.77012900       0.04458900       0.23092100 </v>
   <v>       0.73517800       0.24333700       0.97002700 </v>
   <v>       0.48297100       0.23662400       0.24331900 </v>
   <v>       0.00540300       0.48776500       0.99457800 </v>
   <v>       0.23662400       0.48297100       0.24331900 </v>
   <v>       0.24333700       0.73517800       0.97002700 </v>
   <v>       0.04458900       0.77012900       0.23092100 </v>
   <v>       0.48725000       0.48725000       0.99361500 </v>
   <v>       0.76508700       0.39723800       0.23604200 </v>
   <v>       0.77068300       0.77068300       0.95441800 </v>
   <v>       0.39723800       0.76508700       0.23604200 </v>
   <v>       0.00645400       0.00645400       0.51576800 </v>
   <v>       0.25071200       0.01714300       0.74874000 </v>
   <v>       0.24313300       0.24313300       0.52180300 </v>
   <v>       0.01714300       0.25071200       0.74874000 </v>
   <v>       0.48816600       0.00748600       0.51290000 </v>
   <v>       0.73861100       0.02594300       0.75422800 </v>
   <v>       0.75741100       0.23563400       0.51829400 </v>
   <v>       0.48005500       0.24185100       0.75795000 </v>
   <v>       0.00748600       0.48816600       0.51290000 </v>
   <v>       0.24185100       0.48005500       0.75795000 </v>
   <v>       0.23563400       0.75741100       0.51829400 </v>
   <v>       0.02594300       0.73861100       0.75422800 </v>
   <v>       0.48786100       0.48786100       0.51395600 </v>
   <v>       0.75685300       0.48520400       0.76258600 </v>
   <v>       0.76522200       0.76522200       0.58909100 </v>
   <v>       0.48520400       0.75685300       0.76258600 </v>
   <v>       0.66000000       0.66000000       0.33000000 </v>
  </varray>
 </structure>
 <calculation>
  <scstep>
   <time name="diag">    0.70    0.70</time>
   <time name="diis">    1.60    1.60</time>
   <time name="orth">    0.04    0.04</time>
   <time name="total">    2.63    2.63</time>
   <energy>
    <i name="alphaZ">     -8.27954604 </i>
    <i name="ewald">  -2349.57704412 </i>
    <i name="hartreedc">    -38.20084354 </i>
    <i name="XCdc">   -845.14067781 </i>
    <i name="pawpsdc">   1149.32568210 </i>
    <i name="pawaedc">   -115.70169129 </i>
    <i name="eentropy">     -0.01030434 </i>
    <i name="bandstr">    753.38221163 </i>
    <i name="atom">   1736.20668909 </i>
    <i name="e_fr_energy">    282.00447567 </i>
    <i name="e_wo_entrp">    282.01478002 </i>
    <i name="e_0_energy">    282.00791046 </i>
   </energy>
  </scstep>
  <scstep>
   <time name="diag">    0.69    0.69</time>
   <time name="diis">    1.61    1.61</time>
   <time name="orth">    0.04    0.04</time>
   <time name="total">    2.34    2.35</time>
   <energy>
    <i name="e_fr_energy">    -24.24669572 </i>
    <i name="e_wo_entrp">    -24.23587724 </i>
    <i name="e_0_energy">    -24.24308956 </i>
   </energy>
  </scstep>
  <scstep>
   <time name="diag">    0.69    0.69</time>
   <time name="diis">    1.60    1.60</time>
   <time name="orth">    0.04    0.04</time>
   <time name="total">    2.34    2.34</time>
   <energy>
    <i name="e_fr_energy">    -91.86812597 </i>
    <i name="e_wo_entrp">    -91.85149601 </i>
    <i name="e_0_energy">    -91.86258265 </i>
   </energy>
  </scstep>
  <scstep>
   <time name="diag">    0.70    0.70</time>
   <time name="diis">    1.60    1.60</time>
   <time name="orth">    0.04    0.04</time>
   <time name="total">    2.34    2.34</time>
   <energy>
    <i name="e_fr_energy">   -106.71286893 </i>
    <i name="e_wo_entrp">   -106.66236180 </i>
    <i name="e_0_energy">   -106.69603322 </i>
   </energy>
  </scstep>
  <scstep>
   <time name="diag">    0.69    0.69</time>
   <time name="diis">    1.60    1.60</time>
   <time name="orth">    0.04    0.04</time>
   <time name="total">    2.33    2.34</time>
   <energy>
    <i name="e_fr_energy">   -112.32434680 </i>
    <i name="e_wo_entrp">   -112.29435448 </i>
    <i name="e_0_energy">   -112.31434936 </i>
   </energy>
  </scstep>
  <scstep>
   <time name="diag">    0.69    0.69</time>
   <time name="diis">    1.60    1.60</time>
   <time name="orth">    0.04    0.04</time>
   <time name="total">    2.34    2.34</time>
   <energy>
    <i name="e_fr_energy">   -114.25799579 </i>
    <i name="e_wo_entrp">   -114.18863267 </i>
    <i name="e_0_energy">   -114.23487475 </i>
   </energy>
  </scstep>
  <scstep>
   <time name="diag">    0.69    0.69</time>
   <time name="diis">    1.61    1.61</time>
   <time name="orth">    0.04    0.04</time>
   <time name="total">    2.34    2.34</time>
   <energy>
    <i name="e_fr_energy">   -115.01307810 </i>
    <i name="e_wo_entrp">   -114.91550361 </i>
    <i name="e_0_energy">   -114.98055327 </i>
   </energy>
  </scstep>
  <scstep>
   <time name="diag">    0.70    0.70</time>
   <time name="diis">    1.60    1.60</time>
   <time name="orth">    0.04    0.04</time>
   <time name="total">    2.34    2.34</time>
   <energy>
    <i name="e_fr_energy">   -115.32039565 </i>
    <i name="e_wo_entrp">   -115.21857905 </i>
    <i name="e_0_energy">   -115.28645679 </i>
   </energy>
  </scstep>
  <scstep>
   <time name="diag">    0.69    0.69</time>
   <time name="diis">    3.19    3.19</time>
   <time name="orth">    0.04    0.04</time>
   <time name="total">    3.92    3.92</time>
   <energy>
    <i name="e_fr_energy">   -115.52224025 </i>
    <i name="e_wo_entrp">   -115.42337798 </i>
    <i name="e_0_energy">   -115.48928616 </i>
   </energy>
  </scstep>
  <scstep>
   <time name="diag">    0.69    0.69</time>
   <time name="diis">    2.98    2.98</time>
   <time name="orth">    0.04    0.04</time>
   <time name="total">    3.72    3.72</time>
   <energy>
    <i name="e_fr_energy">   -115.55598172 </i>
    <i name="e_wo_entrp">   -115.46014324 </i>
    <i name="e_0_energy">   -115.52403556 </i>
   </energy>
  </scstep>
  <scstep>
   <time name="diag">    0.69    0.69</time>
   <time name="diis">    2.46    2.46</time>
   <time name="orth">    0.04    0.04</time>
   <time name="total">    3.20    3.20</time>
   <energy>
    <i name="e_fr_energy">   -115.55759420 </i>
    <i name="e_wo_entrp">   -115.46197498 </i>
    <i name="e_0_energy">   -115.52572113 </i>
   </energy>
  </scstep>
  <scstep>
   <time name="diag">    0.70    0.70</time>
   <time name="diis">    2.00    2.02</time>
   <time name="orth">    0.04    0.04</time>
   <time name="total">    3.14    3.16</time>
   <energy>
    <i name="e_fr_energy">   -115.55762606 </i>
    <i name="e_wo_entrp">   -115.46201148 </i>
    <i name="e_0_energy">   -115.52575453 </i>
   </energy>
  </scstep>
  <scstep>
   <time name="diag">    0.69    0.69</time>
   <time name="diis">    2.83    2.83</time>
   <time name="orth">    0.04    0.04</time>
   <time name="total">    4.23    4.24</time>
   <energy>
    <i name="e_fr_energy">   -113.77500088 </i>
    <i name="e_wo_entrp">   -113.79691005 </i>
    <i name="e_0_energy">   -113.78230394 </i>
   </energy>
  </scstep>
  <scstep>
   <time name="diag">    0.69    0.69</time>
   <time name="diis">    2.83    2.83</time>
   <time name="orth">    0.04    0.04</time>
   <time name="total">    4.24    4.24</time>
   <energy>
    <i name="e_fr_energy">   -113.40770432 </i>
    <i name="e_wo_entrp">   -113.38266898 </i>
    <i name="e_0_energy">   -113.39935921 </i>
   </energy>
  </scstep>
  <scstep>
   <time name="diag">    0.69    0.69</time>
   <time name="diis">    2.83    2.83</time>
   <time name="orth">    0.04    0.04</time>
   <time name="total">    4.23    4.24</time>
   <energy>
    <i name="e_fr_energy">   -113.26818494 </i>
    <i name="e_wo_entrp">   -113.23795611 </i>
    <i name="e_0_energy">   -113.25810867 </i>
   </energy>
  </scstep>
  <scstep>
   <time name="diag">    0.69    0.69</time>
   <time name="diis">    2.88    2.88</time>
   <time name="orth">    0.04    0.04</time>
   <time name="total">    4.28    4.29</time>
   <energy>
    <i name="e_fr_energy">   -113.25086672 </i>
    <i name="e_wo_entrp">   -113.22715484 </i>
    <i name="e_0_energy">   -113.24296276 </i>
   </energy>
  </scstep>
  <scstep>
   <time name="diag">    0.69    0.69</time>
   <time name="diis">    2.86    2.86</time>
   <time name="orth">    0.04    0.04</time>
   <time name="total">    4.27    4.27</time>
   <energy>
    <i name="e_fr_energy">   -113.24998694 </i>
    <i name="e_wo_entrp">   -113.22417535 </i>
    <i name="e_0_energy">   -113.24138308 </i>
   </energy>
  </scstep>
  <scstep>
   <time name="diag">    0.69    0.69</time>
   <time name="diis">    2.10    2.10</time>
   <time name="orth">    0.04    0.04</time>
   <time name="total">    3.11    3.11</time>
   <energy>
    <i name="alphaZ">     -8.27954604 </i>
    <i name="ewald">  -2349.57704412 </i>
    <i name="hartreedc">    -46.06156664 </i>
    <i name="XCdc">   -840.93615176 </i>
    <i name="pawpsdc">   1167.56431927 </i>
    <i name="pawaedc">   -135.09002351 </i>
    <i name="eentropy">     -0.02592321 </i>
    <i name="bandstr">    362.94931239 </i>
    <i name="atom">   1736.20668909 </i>
    <i name="e_fr_energy">   -113.24993452 </i>
    <i name="e_wo_entrp">   -113.22401131 </i>
    <i name="e_0_energy">   -113.24129345 </i>
   </energy>
  </scstep>
  <structure>
   <crystal>
    <varray name="basis" >
     <v>       8.08705200       0.00000000       0.00000000 </v>
     <v>       0.00000000       8.08705200       0.00000000 </v>
     <v>       0.00000000       0.00000000       8.08705200 </v>
    </varray>
    <i name="volume">    528.89651690 </i>
    <varray name="rec_basis" >
     <v>       0.12365445       0.00000000       0.00000000 </v>
     <v>       0.00000000       0.12365445       0.00000000 </v>
     <v>       0.00000000       0.00000000       0.12365445 </v>
    </varray>
   </crystal>
   <varray name="positions" >
    <v>       0.00975500       0.00975500       0.98879100 </v>
    <v>       0.24516600       0.02777400       0.26639400 </v>
    <v>       0.25166200       0.25166200       0.98256300 </v>
    <v>       0.02777400       0.24516600       0.26639400 </v>
    <v>       0.48776500       0.00540300       0.99457800 </v>
    <v>       0.77012900       0.04458900       0.23092100 </v>
    <v>       0.73517800       0.24333700       0.97002700 </v>
    <v>       0.48297100       0.23662400       0.24331900 </v>
    <v>       0.00540300       0.48776500       0.99457800 </v>
    <v>       0.23662400       0.48297100       0.24331900 </v>
    <v>       0.24333700       0.73517800       0.97002700 </v>
    <v>       0.04458900       0.77012900       0.23092100 </v>
    <v>       0.48725000       0.48725000       0.99361500 </v>
    <v>       0.76508700       0.39723800       0.23604200 </v>
    <v>       0.77068300       0.77068300       0.95441800 </v>
    <v>       0.39723800       0.76508700       0.23604200 </v>
    <v>       0.00645400       0.00645400       0.51576800 </v>
    <v>       0.25071200       0.01714300       0.74874000 </v>
    <v>       0.24313300       0.24313300       0.52180300 </v>
    <v>       0.01714300       0.25071200       0.74874000 </v>
    <v>       0.48816600       0.00748600       0.51290000 </v>
    <v>       0.73861100       0.02594300       0.75422800 </v>
    <v>       0.75741100       0.23563400       0.51829400 </v>
    <v>       0.48005500       0.24185100       0.75795000 </v>
    <v>       0.00748600       0.48816600       0.51290000 </v>
    <v>       0.24185100       0.48005500       0.75795000 </v>
    <v>       0.23563400       0.75741100       0.51829400 </v>
    <v>       0.02594300       0.73861100       0.75422800 </v>
    <v>       0.48786100       0.48786100       0.51395600 </v>
    <v>       0.75685300       0.48520400       0.76258600 </v>
    <v>       0.76522200       0.76522200       0.58909100 </v>
    <v>       0.48520400       0.75685300       0.76258600 </v>
    <v>       0.66000000       0.66000000       0.33000000 </v>
   </varray>
  </structure>
  <varray name="forces" >
   <v>      -0.17723626      -0.17723626       0.27733934 </v>
   <v>      -0.04797348      -0.16266839      -0.14730553 </v>
   <v>      -0.29479161      -0.29479161       1.23400709 </v>
   <v>      -0.16266839      -0.04797348      -0.14730553 </v>
   <v>       0.30926157      -0.60240063       0.56197442 </v>
   <v>      -0.40606671      -0.87117742       0.37198364 </v>
   <v>       0.15463875       0.12228884       0.35066637 </v>
   <v>       0.35278052       0.36304528       0.22270069 </v>
   <v>      -0.60240063       0.30926157       0.56197442 </v>
   <v>       0.36304528       0.35278052       0.22270069 </v>
   <v>       0.12228884       0.15463875       0.35066637 </v>
   <v>      -0.87117742      -0.40606671       0.37198364 </v>
   <v>       0.61935892       0.61935892       0.58839328 </v>
   <v>       0.09439933      -0.04016644      -0.18198753 </v>
   <v>      -0.45536082      -0.45536082       0.88474571 </v>
   <v>      -0.04016644       0.09439933      -0.18198753 </v>
   <v>      -0.56387809      -0.56387809      -0.43061696 </v>
   <v>      -0.17766240      -1.19968364       0.30905405 </v>
   <v>       0.59555135       0.59555135      -0.88035799 </v>
   <v>      -1.19968364      -0.17766240       0.30905405 </v>
   <v>       0.57518630      -0.63686105      -0.59531156 </v>
   <v>       0.07058626      -0.37011203      -0.04401662 </v>
   <v>      -0.24706651       0.43872376      -0.38635105 </v>
   <v>       0.84363803       0.58690065      -0.59277012 </v>
   <v>      -0.63686105       0.57518630      -0.59531156 </v>
   <v>       0.58690065       0.84363803      -0.59277012 </v>
   <v>       0.43872376      -0.24706651      -0.38635105 </v>
   <v>      -0.37011203       0.07058626      -0.04401662 </v>
   <v>      -0.63182397      -0.63182397       0.69122345 </v>
   <v>      -0.22764930       0.36890766      -0.34244757 </v>
   <v>       0.14148656       0.14148656       0.19728655 </v>
   <v>       0.36890766      -0.22764930      -0.34244757 </v>
   <v>       1.47582495       1.47582495      -1.61439890 </v>
  </varray>
  <varray name="stress" >
   <v>      91.47442989      -6.28823726       5.45032536 </v>
   <v>      -6.28823726      91.47442989       5.45032536 </v>
   <v>       5.45031835       5.45031835      90.10489803 </v>
  </varray>
  <energy>
   <i name="e_fr_energy">   -113.24993452 </i>
   <i name="e_wo_entrp">   -113.24129345 </i>
   <i name="e_0_energy">     -0.02592321 </i>
  </energy>
  <time name="totalsc">   62.19   63.44</time>
 </calculation>
 <calculation>
  <scstep>
   <time name="diag">    0.69    0.69</time>
   <time name="diis">    2.84    2.84</time>
   <time name="orth">    0.04    0.04</time>
   <time name="total">    4.25    4.25</time>
   <energy>
    <i name="alphaZ">     -8.27954604 </i>
    <i name="ewald">  -2362.77698554 </i>
    <i name="hartreedc">    -36.49465413 </i>
    <i name="XCdc">   -841.07768206 </i>
    <i name="pawpsdc">   1167.55606198 </i>
    <i name="pawaedc">   -135.08353695 </i>
    <i name="eentropy">     -0.00712721 </i>
    <i name="bandstr">    365.47197477 </i>
    <i name="atom">   1736.20668909 </i>
    <i name="e_fr_energy">   -114.48480609 </i>
    <i name="e_wo_entrp">   -114.47767888 </i>
    <i name="e_0_energy">   -114.48243035 </i>
   </energy>
  </scstep>
  <scstep>
   <time name="diag">    0.69    0.69</time>
   <time name="diis">    2.83    2.83</time>
   <time name="orth">    0.04    0.04</time>
   <time name="total">    4.23    4.24</time>
   <energy>
    <i name="e_fr_energy">   -114.39238350 </i>
    <i name="e_wo_entrp">   -114.37179912 </i>
    <i name="e_0_energy">   -114.38552204 </i>
   </energy>
  </scstep>
  <scstep>
   <time name="diag">    0.69    0.70</time>
   <time name="diis">    2.82    2.82</time>
   <time name="orth">    0.04    0.04</time>
   <time name="total">    4.23    4.23</time>
   <energy>
    <i name="e_fr_energy">   -114.38560224 </i>
    <i name="e_wo_entrp">   -114.37126085 </i>
    <i name="e_0_energy">   -114.38082178 </i>
   </energy>
  </scstep>
  <scstep>
   <time name="diag">    0.69    0.69</time>
   <time name="diis">    2.84    2.84</time>
   <time name="orth">    0.04    0.04</time>
   <time name="total">    4.25    4.25</time>
   <energy>
    <i name="e_fr_energy">   -114.38486826 </i>
    <i name="e_wo_entrp">   -114.37109911 </i>
    <i name="e_0_energy">   -114.38027855 </i>
   </energy>
  </scstep>
  <scstep>
   <time name="diag">    0.69    0.69</time>
   <time name="diis">    2.12    2.13</time>
   <time name="orth">    0.04    0.04</time>
   <time name="total">    3.13    3.14</time>
   <energy>
    <i name="alphaZ">     -8.27954604 </i>
    <i name="ewald">  -2362.77698554 </i>
    <i name="hartreedc">    -35.75030377 </i>
    <i name="XCdc">   -841.14416687 </i>
    <i name="pawpsdc">   1166.06987075 </i>
    <i name="pawaedc">   -133.51968565 </i>
    <i name="eentropy">     -0.01408364 </i>
    <i name="bandstr">    364.82332585 </i>
    <i name="atom">   1736.20668909 </i>
    <i name="e_fr_energy">   -114.38488582 </i>
    <i name="e_wo_entrp">   -114.37080218 </i>
    <i name="e_0_energy">   -114.38019128 </i>
   </energy>
  </scstep>
  <structure>
   <crystal>
    <varray name="basis" >
     <v>       8.08705200       0.00000000       0.00000000 </v>
     <v>       0.00000000       8.08705200       0.00000000 </v>
     <v>       0.00000000       0.00000000       8.08705200 </v>
    </varray>
    <i name="volume">    528.89651690 </i>
    <varray name="rec_basis" >
     <v>       0.12365445       0.00000000       0.00000000 </v>
     <v>       0.00000000       0.12365445       0.00000000 </v>
     <v>       0.00000000       0.00000000       0.12365445 </v>
    </varray>
   </crystal>
   <varray name="positions" >
    <v>       0.00869771       0.00869771       0.99044545 </v>
    <v>       0.24487982       0.02680361       0.26551526 </v>
    <v>       0.24990344       0.24990344       0.98992437 </v>
    <v>       0.02680361       0.24487982       0.26551526 </v>
    <v>       0.48960987       0.00180943       0.99793041 </v>
    <v>       0.76770664       0.03939206       0.23314004 </v>
    <v>       0.73610048       0.24406650       0.97211887 </v>
    <v>       0.48507548       0.23878972       0.24464750 </v>
    <v>       0.00180943       0.48960987       0.99793041 </v>
    <v>       0.23878972       0.48507548       0.24464750 </v>
    <v>       0.24406650       0.73610048       0.97211887 </v>
    <v>       0.03939206       0.76770664       0.23314004 </v>
    <v>       0.49094474       0.49094474       0.99712501 </v>
    <v>       0.76565013       0.39699839       0.23495637 </v>
    <v>       0.76796658       0.76796658       0.95969588 </v>
    <v>       0.39699839       0.76565013       0.23495637 </v>
    <v>       0.00309023       0.00309023       0.51319919 </v>
    <v>       0.24965217       0.00998638       0.75058364 </v>
    <v>       0.24668571       0.24668571       0.51655130 </v>
    <v>       0.00998638       0.24965217       0.75058364 </v>
    <v>       0.49159723       0.00368686       0.50934872 </v>
    <v>       0.73903208       0.02373513       0.75396542 </v>
    <v>       0.75593714       0.23825117       0.51598925 </v>
    <v>       0.48508765       0.24535211       0.75441388 </v>
    <v>       0.00368686       0.49159723       0.50934872 </v>
    <v>       0.24535211       0.48508765       0.75441388 </v>
    <v>       0.23825117       0.75593714       0.51598925 </v>
    <v>       0.02373513       0.73903208       0.75396542 </v>
    <v>       0.48409191       0.48409191       0.51807944 </v>
    <v>       0.75549498       0.48740469       0.76054316 </v>
    <v>       0.76606603       0.76606603       0.59026790 </v>
    <v>       0.48740469       0.75549498       0.76054316 </v>
    <v>       0.66880391       0.66880391       0.32036943 </v>
   </varray>
  </structure>
  <varray name="forces" >
   <v>      -0.22579381      -0.22579381       0.29070744 </v>
   <v>      -0.07478026      -0.11812343      -0.10729083 </v>
   <v>      -0.08304022      -0.08304022       0.63281825 </v>
   <v>      -0.11812343      -0.07478026      -0.10729083 </v>
   <v>       0.26052625      -0.42437392       0.40873132 </v>
   <v>      -0.36347997      -0.68449307       0.33956303 </v>
   <v>       0.09676812      -0.04410411       0.14055651 </v>
   <v>       0.32299033       0.22277374       0.22689391 </v>
   <v>      -0.42437392       0.26052625       0.40873132 </v>
   <v>       0.22277374       0.32299033       0.22689391 </v>
   <v>      -0.04410411       0.09676812       0.14055651 </v>
   <v>      -0.68449307      -0.36347997       0.33956303 </v>
   <v>       0.51386299       0.51386299       0.49424108 </v>
   <v>      -0.04323025       0.15401165       0.02916281 </v>
   <v>      -0.38431400      -0.38431400       0.70679462 </v>
   <v>       0.15401165      -0.04323025       0.02916281 </v>
   <v>      -0.38639434      -0.38639434      -0.33510978 </v>
   <v>      -0.02848388      -0.60756828       0.09236776 </v>
   <v>       0.22139113       0.22139113      -0.42233194 </v>
   <v>      -0.60756828      -0.02848388       0.09236776 </v>
   <v>       0.48506587      -0.52287967      -0.51488578 </v>
   <v>       0.03039523      -0.14188308       0.09551772 </v>
   <v>      -0.24312614       0.26868706      -0.33408451 </v>
   <v>       0.42184800       0.21630264      -0.21372527 </v>
   <v>      -0.52287967       0.48506587      -0.51488578 </v>
   <v>       0.21630264       0.42184800      -0.21372527 </v>
   <v>       0.26868706      -0.24312614      -0.33408451 </v>
   <v>      -0.14188308       0.03039523       0.09551772 </v>
   <v>       0.10255377       0.10255377      -0.09112904 </v>
   <v>      -0.23094218       0.33357030      -0.21670235 </v>
   <v>      -0.09821408      -0.09821408      -0.12272730 </v>
   <v>       0.33357030      -0.23094218      -0.21670235 </v>
   <v>       1.05447763       1.05447763      -1.04547197 </v>
  </varray>
  <varray name="stress" >
   <v>      80.57461244      -6.57090802       5.93063633 </v>
   <v>      -6.57090802      80.57461244       5.93063633 </v>
   <v>       5.93062839       5.93062839      79.63673706 </v>
  </varray>
  <energy>
   <i name="e_fr_energy">   -114.38488582 </i>
   <i name="e_wo_entrp">   -114.38019128 </i>
   <i name="e_0_energy">     -0.01408364 </i>
  </energy>
  <time name="totalsc">   24.95   24.97</time>
 </calculation>
 <calculation>
  <scstep>
   <time name="diag">    0.70    0.70</time>
   <time name="diis">    2.85    2.85</time>
   <time name="orth">    0.04    0.04</time>
   <time name="total">    4.26    4.26</time>
   <energy>
    <i name="alphaZ">     -8.27954604 </i>
    <i name="ewald">  -2377.22967069 </i>
    <i name="hartreedc">    -23.38845197 </i>
    <i name="XCdc">   -841.30523183 </i>
    <i name="pawpsdc">   1165.99957945 </i>
    <i name="pawaedc">   -133.44570116 </i>
    <i name="eentropy">     -0.02505174 </i>
    <i name="bandstr">    366.07155416 </i>
    <i name="atom">   1736.20668909 </i>
    <i name="e_fr_energy">   -115.39583072 </i>
    <i name="e_wo_entrp">   -115.37077898 </i>
    <i name="e_0_energy">   -115.38748014 </i>
   </energy>
  </scstep>
  <scstep>
   <time name="diag">    0.72    0.73</time>
   <time name="diis">    2.84    2.84</time>
   <time name="orth">    0.04    0.04</time>
   <time name="total">    4.28    4.28</time>
   <energy>
    <i name="e_fr_energy">   -115.12181685 </i>
    <i name="e_wo_entrp">   -115.09814611 </i>
    <i name="e_0_energy">   -115.11392660 </i>
   </energy>
  </scstep>
  <scstep>
   <time name="diag">    0.69    0.69</time>
   <time name="diis">    2.82    2.82</time>
   <time name="orth">    0.04    0.04</time>
   <time name="total">    4.23    4.23</time>
   <energy>
    <i name="e_fr_energy">   -115.10016236 </i>
    <i name="e_wo_entrp">   -115.07946500 </i>
    <i name="e_0_energy">   -115.09326324 </i>
   </energy>
  </scstep>
  <scstep>
   <time name="diag">    0.69    0.69</time>
   <time name="diis">    2.92    2.92</time>
   <time name="orth">    0.04    0.04</time>
   <time name="total">    4.32    4.32</time>
   <energy>
    <i name="e_fr_energy">   -115.09945174 </i>
    <i name="e_wo_entrp">   -115.07977922 </i>
    <i name="e_0_energy">   -115.09289423 </i>
   </energy>
  </scstep>
  <scstep>
   <time name="diag">    0.69    0.69</time>
   <time name="diis">    2.80    2.80</time>
   <time name="orth">    0.04    0.04</time>
   <time name="total">    4.20    4.21</time>
   <energy>
    <i name="e_fr_energy">   -115.09964228 </i>
    <i name="e_wo_entrp">   -115.07999766 </i>
    <i name="e_0_energy">   -115.09309407 </i>
   </energy>
  </scstep>
  <scstep>
   <time name="diag">    0.70    0.70</time>
   <time name="diis">    1.93    1.93</time>
   <time name="orth">    0.04    0.04</time>
   <time name="total">    2.95    2.95</time>
   <energy>
    <i name="alphaZ">     -8.27954604 </i>
    <i name="ewald">  -2377.22967069 </i>
    <i name="hartreedc">    -23.50498110 </i>
    <i name="XCdc">   -841.32478467 </i>
    <i name="pawpsdc">   1165.16703386 </i>
    <i name="pawaedc">   -132.56760807 </i>
    <i name="eentropy">     -0.01972426 </i>
    <i name="bandstr">    366.45292824 </i>
    <i name="atom">   1736.20668909 </i>
    <i name="e_fr_energy">   -115.09966364 </i>
    <i name="e_wo_entrp">   -115.07993938 </i>
    <i name="e_0_energy">   -115.09308888 </i>
   </energy>
  </scstep>
  <structure>
   <crystal>
    <varray name="basis" >
     <v>       8.08705200       0.00000000       0.00000000 </v>
     <v>       0.00000000       8.08705200       0.00000000 </v>
     <v>       0.00000000       0.00000000       8.08705200 </v>
    </varray>
    <i name="volume">    528.89651690 </i>
    <varray name="rec_basis" >
     <v>       0.12365445       0.00000000       0.00000000 </v>
     <v>       0.00000000       0.12365445       0.00000000 </v>
     <v>       0.00000000       0.00000000       0.12365445 </v>
    </varray>
   </crystal>
   <varray name="positions" >
    <v>       0.00637821       0.00637821       0.99407501 </v>
    <v>       0.24425199       0.02467476       0.26358746 </v>
    <v>       0.24604548       0.24604548       0.00607393 </v>
    <v>       0.02467476       0.24425199       0.26358746 </v>
    <v>       0.49365721      -0.00607424       0.00528502 </v>
    <v>       0.76239241       0.02799089       0.23800822 </v>
    <v>       0.73812426       0.24566691       0.97670807 </v>
    <v>       0.48969235       0.24354092       0.24756201 </v>
    <v>      -0.00607424       0.49365721       0.00528502 </v>
    <v>       0.24354092       0.48969235       0.24756201 </v>
    <v>       0.24566691       0.73812426       0.97670807 </v>
    <v>       0.02799089       0.76239241       0.23800822 </v>
    <v>       0.49905034       0.49905034       0.00482537 </v>
    <v>       0.76688554       0.39647273       0.23257468 </v>
    <v>       0.76200724       0.76200724       0.97127462 </v>
    <v>       0.39647273       0.76688554       0.23257468 </v>
    <v>      -0.00428929      -0.00428929       0.50756367 </v>
    <v>       0.24732709      -0.00571398       0.75462825 </v>
    <v>       0.25447974       0.25447974       0.50502998 </v>
    <v>      -0.00571398       0.24732709       0.75462825 </v>
    <v>       0.49912474      -0.00464780       0.50155782 </v>
    <v>       0.73995584       0.01889144       0.75338937 </v>
    <v>       0.75270376       0.24399279       0.51093305 </v>
    <v>       0.49612842       0.25303293       0.74665624 </v>
    <v>      -0.00464780       0.49912474       0.50155782 </v>
    <v>       0.25303293       0.49612842       0.74665624 </v>
    <v>       0.24399279       0.75270376       0.51093305 </v>
    <v>       0.01889144       0.73995584       0.75338937 </v>
    <v>       0.47582317       0.47582317       0.52712554 </v>
    <v>       0.75251571       0.49223261       0.75606152 </v>
    <v>       0.76791767       0.76791767       0.59284980 </v>
    <v>       0.49223261       0.75251571       0.75606152 </v>
    <v>       0.68811816       0.68811816       0.29924166 </v>
   </varray>
  </structure>
  <varray name="forces" >
   <v>      -0.23918469      -0.23918469       0.22087323 </v>
   <v>      -0.17605339       0.03443198       0.04104152 </v>
   <v>       0.18149583       0.18149583      -0.39932540 </v>
   <v>       0.03443198      -0.17605339       0.04104152 </v>
   <v>       0.10727601       0.01708360       0.00466788 </v>
   <v>      -0.16008124      -0.11351933       0.17364730 </v>
   <v>      -0.07660580      -0.43637690      -0.38370424 </v>
   <v>       0.16944264      -0.08031057       0.21690935 </v>
   <v>       0.01708360       0.10727601       0.00466788 </v>
   <v>      -0.08031057       0.16944264       0.21690935 </v>
   <v>      -0.43637690      -0.07660580      -0.38370424 </v>
   <v>      -0.11351933      -0.16008124       0.17364730 </v>
   <v>       0.28185874       0.28185874       0.22323746 </v>
   <v>      -0.35620137       0.81753434       0.55543518 </v>
   <v>      -0.12457426      -0.12457426       0.03799000 </v>
   <v>       0.81753434      -0.35620137       0.55543518 </v>
   <v>       0.05085983       0.05085983      -0.09551576 </v>
   <v>       0.13355693       0.38079751      -0.18014101 </v>
   <v>      -0.56580020      -0.56580020       0.24520416 </v>
   <v>       0.38079751       0.13355693      -0.18014101 </v>
   <v>       0.26998529      -0.22592885      -0.31944013 </v>
   <v>      -0.08952484       0.41965469       0.44553273 </v>
   <v>      -0.20477920      -0.08738140      -0.15577497 </v>
   <v>      -0.19279642      -0.60695657       0.59914382 </v>
   <v>      -0.22592885       0.26998529      -0.31944013 </v>
   <v>      -0.60695657      -0.19279642       0.59914382 </v>
   <v>      -0.08738140      -0.20477920      -0.15577497 </v>
   <v>       0.41965469      -0.08952484       0.44553273 </v>
   <v>       1.24911675       1.24911675      -1.30546940 </v>
   <v>      -0.21486663       0.18448826       0.06293010 </v>
   <v>      -0.63360793      -0.63360793      -1.03792886 </v>
   <v>       0.18448826      -0.21486663       0.06293010 </v>
   <v>       0.28696718       0.28696718      -0.00956049 </v>
  </varray>
  <varray name="stress" >
   <v>      73.67076663      -5.61934170       5.75576536 </v>
   <v>      -5.61934170      73.67076663       5.75576536 </v>
   <v>       5.75574602       5.75574602      71.72806373 </v>
  </varray>
  <energy>
   <i name="e_fr_energy">   -115.09966364 </i>
   <i name="e_wo_entrp">   -115.09308888 </i>
   <i name="e_0_energy">     -0.01972426 </i>
  </energy>
  <time name="totalsc">   29.11   29.13</time>
 </calculation>
 <calculation>
  <scstep>
   <time name="diag">    0.69    0.69</time>
   <time name="diis">    2.85    2.85</time>
   <time name="orth">    0.04    0.04</time>
   <time name="total">    4.26    4.26</time>
   <energy>
    <i name="alphaZ">     -8.27954604 </i>
    <i name="ewald">  -2385.15176829 </i>
    <i name="hartreedc">    -18.15081583 </i>
    <i name="XCdc">   -841.47464515 </i>
    <i name="pawpsdc">   1165.17111007 </i>
    <i name="pawaedc">   -132.57144110 </i>
    <i name="eentropy">     -0.00570535 </i>
    <i name="bandstr">    368.53649970 </i>
    <i name="atom">   1736.20668909 </i>
    <i name="e_fr_energy">   -115.71962290 </i>
    <i name="e_wo_entrp">   -115.71391755 </i>
    <i name="e_0_energy">   -115.71772112 </i>
   </energy>
  </scstep>
  <scstep>
   <time name="diag">    0.69    0.69</time>
   <time name="diis">    2.81    2.82</time>
   <time name="orth">    0.04    0.04</time>
   <time name="total">    4.22    4.23</time>
   <energy>
    <i name="e_fr_energy">   -115.64823368 </i>
    <i name="e_wo_entrp">   -115.64264871 </i>
    <i name="e_0_energy">   -115.64637202 </i>
   </energy>
  </scstep>
  <scstep>
   <time name="diag">    0.69    0.69</time>
   <time name="diis">    2.83    2.83</time>
   <time name="orth">    0.04    0.04</time>
   <time name="total">    4.23    4.23</time>
   <energy>
    <i name="e_fr_energy">   -115.63913818 </i>
    <i name="e_wo_entrp">   -115.63278049 </i>
    <i name="e_0_energy">   -115.63701895 </i>
   </energy>
  </scstep>
  <scstep>
   <time name="diag">    0.69    0.69</time>
   <time name="diis">    2.83    2.83</time>
   <time name="orth">    0.04    0.04</time>
   <time name="total">    4.24    4.24</time>
   <energy>
    <i name="e_fr_energy">   -115.63901556 </i>
    <i name="e_wo_entrp">   -115.63234719 </i>
    <i name="e_0_energy">   -115.63679277 </i>
   </energy>
  </scstep>
  <scstep>
   <time name="diag">    0.69    0.69</time>
   <time name="diis">    1.98    1.98</time>
   <time name="orth">    0.04    0.04</time>
   <time name="total">    2.99    2.99</time>
   <energy>
    <i name="alphaZ">     -8.27954604 </i>
    <i name="ewald">  -2385.15176829 </i>
    <i name="hartreedc">    -17.59554925 </i>
    <i name="XCdc">   -841.52786726 </i>
    <i name="pawpsdc">   1163.90613695 </i>
    <i name="pawaedc">   -131.25661522 </i>
    <i name="eentropy">     -0.00682187 </i>
    <i name="bandstr">    368.06632663 </i>
    <i name="atom">   1736.20668909 </i>
    <i name="e_fr_energy">   -115.63901527 </i>
    <i name="e_wo_entrp">   -115.63219339 </i>
    <i name="e_0_energy">   -115.63674131 </i>
   </energy>
  </scstep>
  <structure>
   <crystal>
    <varray name="basis" >
     <v>       8.08705200       0.00000000       0.00000000 </v>
     <v>       0.00000000       8.08705200       0.00000000 </v>
     <v>       0.00000000       0.00000000       8.08705200 </v>
    </varray>
    <i name="volume">    528.89651690 </i>
    <varray name="rec_basis" >
     <v>       0.12365445       0.00000000       0.00000000 </v>
     <v>       0.00000000       0.12365445       0.00000000 </v>
     <v>       0.00000000       0.00000000       0.12365445 </v>
    </varray>
   </crystal>
   <varray name="positions" >
    <v>       0.00432532       0.00432532       0.99597073 </v>
    <v>       0.24274095       0.02497028       0.26393971 </v>
    <v>       0.24760323       0.24760323       0.00264658 </v>
    <v>       0.02497028       0.24274095       0.26393971 </v>
    <v>       0.49457794      -0.00592761       0.00532508 </v>
    <v>       0.76101846       0.02701657       0.23949861 </v>
    <v>       0.73746676       0.24192156       0.97341480 </v>
    <v>       0.49114665       0.24285163       0.24942370 </v>
    <v>      -0.00592761       0.49457794       0.00532508 </v>
    <v>       0.24285163       0.49114665       0.24942370 </v>
    <v>       0.24192156       0.73746676       0.97341480 </v>
    <v>       0.02701657       0.76101846       0.23949861 </v>
    <v>       0.50146949       0.50146949       0.00674138 </v>
    <v>       0.76382833       0.40348949       0.23734189 </v>
    <v>       0.76093804       0.76093804       0.97160068 </v>
    <v>       0.40348949       0.76382833       0.23734189 </v>
    <v>      -0.00385277      -0.00385277       0.50674387 </v>
    <v>       0.24847338      -0.00244565       0.75308213 </v>
    <v>       0.24962357       0.24962357       0.50713452 </v>
    <v>      -0.00244565       0.24847338       0.75308213 </v>
    <v>       0.50144198      -0.00658691       0.49881612 </v>
    <v>       0.73918747       0.02249327       0.75721331 </v>
    <v>       0.75094618       0.24324281       0.50959605 </v>
    <v>       0.49447368       0.24782352       0.75179860 </v>
    <v>      -0.00658691       0.50144198       0.49881612 </v>
    <v>       0.24782352       0.49447368       0.75179860 </v>
    <v>       0.24324281       0.75094618       0.50959605 </v>
    <v>       0.02249327       0.73918747       0.75721331 </v>
    <v>       0.48654414       0.48654414       0.51592091 </v>
    <v>       0.75067155       0.49381605       0.75660164 </v>
    <v>       0.76247952       0.76247952       0.58394143 </v>
    <v>       0.49381605       0.75067155       0.75660164 </v>
    <v>       0.69058115       0.69058115       0.29915960 </v>
   </varray>
  </structure>
  <varray name="forces" >
   <v>      -0.14370924      -0.14370924       0.16787988 </v>
   <v>       0.11769616      -0.33555035      -0.13514776 </v>
   <v>       0.16204696       0.16204696      -0.02267019 </v>
   <v>      -0.33555035       0.11769616      -0.13514776 </v>
   <v>      -0.05160836      -0.10047865       0.11317746 </v>
   <v>      -0.07722801      -0.01797684       0.08227511 </v>
   <v>       0.11564428       0.20389429       0.46311645 </v>
   <v>      -0.00929850      -0.03682551       0.08517331 </v>
   <v>      -0.10047865      -0.05160836       0.11317746 </v>
   <v>      -0.03682551      -0.00929850       0.08517331 </v>
   <v>       0.20389429       0.11564428       0.46311645 </v>
   <v>      -0.01797684      -0.07722801       0.08227511 </v>
   <v>       0.12934535       0.12934535       0.26382861 </v>
   <v>       0.00247620       0.02537034      -0.07852110 </v>
   <v>      -0.05141789      -0.05141789       0.00113267 </v>
   <v>       0.02537034       0.00247620      -0.07852110 </v>
   <v>      -0.09101604      -0.09101604       0.05932135 </v>
   <v>       0.15438494       0.05141420      -0.18426233 </v>
   <v>       0.02504538       0.02504538       0.29820746 </v>
   <v>       0.05141420       0.15438494      -0.18426233 </v>
   <v>       0.12565289      -0.25618433      -0.12896571 </v>
   <v>       0.11172275      -0.47555361      -0.24054457 </v>
   <v>      -0.09463607      -0.06451400       0.04603356 </v>
   <v>      -0.31438251       0.05341011      -0.05527467 </v>
   <v>      -0.25618433       0.12565289      -0.12896571 </v>
   <v>       0.05341011      -0.31438251      -0.05527467 </v>
   <v>      -0.06451400      -0.09463607       0.04603356 </v>
   <v>      -0.47555361       0.11172275      -0.24054457 </v>
   <v>       0.40927014       0.40927014      -0.43885811 </v>
   <v>      -0.07978253      -0.02523291       0.03099449 </v>
   <v>       0.09048888       0.09048888       0.19117421 </v>
   <v>      -0.02523291      -0.07978253       0.03099449 </v>
   <v>       0.44753248       0.44753248      -0.51612437 </v>
  </varray>
  <varray name="stress" >
   <v>      66.79897694      -6.50460170       6.19711204 </v>
   <v>      -6.50460170      66.79897694       6.19711204 </v>
   <v>       6.19712103       6.19712103      65.27121235 </v>
  </varray>
  <energy>
   <i name="e_fr_energy">   -115.63901527 </i>
   <i name="e_wo_entrp">   -115.63674131 </i>
   <i name="e_0_energy">     -0.00682187 </i>
  </energy>
  <time name="totalsc">   24.80   24.82</time>
 </calculation>
 <calculation>
  <scstep>
   <time name="diag">    0.69    0.69</time>
   <time name="diis">    2.87    2.87</time>
   <time name="orth">    0.04    0.04</time>
   <time name="total">    4.28    4.28</time>
   <energy>
    <i name="alphaZ">     -8.27954604 </i>
    <i name="ewald">  -2385.68569488 </i>
    <i name="hartreedc">    -17.20471854 </i>
    <i name="XCdc">   -841.54109758 </i>
    <i name="pawpsdc">   1163.86481159 </i>
    <i name="pawaedc">   -131.21300319 </i>
    <i name="eentropy">     -0.00630661 </i>
    <i name="bandstr">    368.21558970 </i>
    <i name="atom">   1736.20668909 </i>
    <i name="e_fr_energy">   -115.64327645 </i>
    <i name="e_wo_entrp">   -115.63696985 </i>
    <i name="e_0_energy">   -115.64117425 </i>
   </energy>
  </scstep>
  <scstep>
   <time name="diag">    0.69    0.69</time>
   <time name="diis">    2.79    2.79</time>
   <time name="orth">    0.04    0.04</time>
   <time name="total">    4.19    4.20</time>
   <energy>
    <i name="e_fr_energy">   -115.64274464 </i>
    <i name="e_wo_entrp">   -115.63645325 </i>
    <i name="e_0_energy">   -115.64064751 </i>
   </energy>
  </scstep>
  <scstep>
   <time name="diag">    0.69    0.69</time>
   <time name="diis">    2.23    2.23</time>
   <time name="orth">    0.04    0.04</time>
   <time name="total">    3.23    3.24</time>
   <energy>
    <i name="alphaZ">     -8.27954604 </i>
    <i name="ewald">  -2385.68569488 </i>
    <i name="hartreedc">    -17.15850766 </i>
    <i name="XCdc">   -841.54361279 </i>
    <i name="pawpsdc">   1163.80953889 </i>
    <i name="pawaedc">   -131.15591952 </i>
    <i name="eentropy">     -0.00633473 </i>
    <i name="bandstr">    368.17071683 </i>
    <i name="atom">   1736.20668909 </i>
    <i name="e_fr_energy">   -115.64267079 </i>
    <i name="e_wo_entrp">   -115.63633606 </i>
    <i name="e_0_energy">   -115.64055922 </i>
   </energy>
  </scstep>
  <structure>
   <crystal>
    <varray name="basis" >
     <v>       8.08705200       0.00000000       0.00000000 </v>
     <v>       0.00000000       8.08705200       0.00000000 </v>
     <v>       0.00000000       0.00000000       8.08705200 </v>
    </varray>
    <i name="volume">    528.89651690 </i>
    <varray name="rec_basis" >
     <v>       0.12365445       0.00000000       0.00000000 </v>
     <v>       0.00000000       0.12365445       0.00000000 </v>
     <v>       0.00000000       0.00000000       0.12365445 </v>
    </varray>
   </crystal>
   <varray name="positions" >
    <v>       0.00413127       0.00413127       0.99614993 </v>
    <v>       0.24259811       0.02499822       0.26397301 </v>
    <v>       0.24775048       0.24775048       0.00232260 </v>
    <v>       0.02499822       0.24259811       0.26397301 </v>
    <v>       0.49466497      -0.00591375       0.00532887 </v>
    <v>       0.76088858       0.02692447       0.23963949 </v>
    <v>       0.73740461       0.24156752       0.97310350 </v>
    <v>       0.49128412       0.24278647       0.24959969 </v>
    <v>      -0.00591375       0.49466497       0.00532887 </v>
    <v>       0.24278647       0.49128412       0.24959969 </v>
    <v>       0.24156752       0.73740461       0.97310350 </v>
    <v>       0.02692447       0.76088858       0.23963949 </v>
    <v>       0.50169816       0.50169816       0.00692249 </v>
    <v>       0.76353933       0.40415277       0.23779252 </v>
    <v>       0.76083697       0.76083697       0.97163151 </v>
    <v>       0.40415277       0.76353933       0.23779252 </v>
    <v>      -0.00381150      -0.00381150       0.50666638 </v>
    <v>       0.24858174      -0.00213671       0.75293598 </v>
    <v>       0.24916453       0.24916453       0.50733346 </v>
    <v>      -0.00213671       0.24858174       0.75293598 </v>
    <v>       0.50166102      -0.00677021       0.49855695 </v>
    <v>       0.73911483       0.02283374       0.75757478 </v>
    <v>       0.75078004       0.24317191       0.50946967 </v>
    <v>       0.49431726       0.24733108       0.75228469 </v>
    <v>      -0.00677021       0.50166102       0.49855695 </v>
    <v>       0.24733108       0.49431726       0.75228469 </v>
    <v>       0.24317191       0.75078004       0.50946967 </v>
    <v>       0.02283374       0.73911483       0.75757478 </v>
    <v>       0.48755756       0.48755756       0.51486176 </v>
    <v>       0.75049722       0.49396573       0.75665269 </v>
    <v>       0.76196546       0.76196546       0.58309934 </v>
    <v>       0.49396573       0.75049722       0.75665269 </v>
    <v>       0.69081397       0.69081397       0.29915185 </v>
   </varray>
  </structure>
  <varray name="forces" >
   <v>      -0.13481166      -0.13481166       0.16311097 </v>
   <v>       0.14472064      -0.36790787      -0.15124912 </v>
   <v>       0.15928422       0.15928422       0.01342206 </v>
   <v>      -0.36790787       0.14472064      -0.15124912 </v>
   <v>      -0.06698688      -0.11204668       0.12370709 </v>
   <v>      -0.06908737      -0.00992799       0.07350936 </v>
   <v>       0.13348645       0.26489107       0.53840551 </v>
   <v>      -0.02534253      -0.03208874       0.07367801 </v>
   <v>      -0.11204668      -0.06698688       0.12370709 </v>
   <v>      -0.03208874      -0.02534253       0.07367801 </v>
   <v>       0.26489107       0.13348645       0.53840551 </v>
   <v>      -0.00992799      -0.06908737       0.07350936 </v>
   <v>       0.11484074       0.11484074       0.26664719 </v>
   <v>       0.03483444      -0.04733193      -0.13049420 </v>
   <v>      -0.04452137      -0.04452137      -0.00138952 </v>
   <v>      -0.04733193       0.03483444      -0.13049420 </v>
   <v>      -0.10419813      -0.10419813       0.07379009 </v>
   <v>       0.15529461       0.01911562      -0.18359656 </v>
   <v>       0.07013334       0.07013334       0.29926986 </v>
   <v>       0.01911562       0.15529461      -0.18359656 </v>
   <v>       0.11168926      -0.25734353      -0.11040851 </v>
   <v>       0.12983921      -0.55350956      -0.30401132 </v>
   <v>      -0.08522575      -0.06229046       0.06435873 </v>
   <v>      -0.32309343       0.10400230      -0.10569044 </v>
   <v>      -0.25734353       0.11168926      -0.11040851 </v>
   <v>       0.10400230      -0.32309343      -0.10569044 </v>
   <v>      -0.06229046      -0.08522575       0.06435873 </v>
   <v>      -0.55350956       0.12983921      -0.30401132 </v>
   <v>       0.34882283       0.34882283      -0.37670856 </v>
   <v>      -0.06792678      -0.04399773       0.02762243 </v>
   <v>       0.15024189       0.15024189       0.30566572 </v>
   <v>      -0.04399773      -0.06792678       0.02762243 </v>
   <v>       0.46644178       0.46644178      -0.57546977 </v>
  </varray>
  <varray name="stress" >
   <v>      66.47260209      -6.56823431       6.25416484 </v>
   <v>      -6.56823431      66.47260209       6.25416484 </v>
   <v>       6.25415255       6.25415255      65.02787680 </v>
  </varray>
  <energy>
   <i name="e_fr_energy">   -115.64267079 </i>
   <i name="e_wo_entrp">   -115.64055922 </i>
   <i name="e_0_energy">     -0.00633473 </i>
  </energy>
  <time name="totalsc">   16.56   16.58</time>
 </calculation>
 <calculation>
  <scstep>
   <time name="diag">    0.69    0.69</time>
   <time name="diis">    2.84    2.84</time>
   <time name="orth">    0.04    0.04</time>
   <time name="total">    4.24    4.24</time>
   <energy>
    <i name="alphaZ">     -8.27954604 </i>
    <i name="ewald">  -2388.77230312 </i>
    <i name="hartreedc">    -14.97234303 </i>
    <i name="XCdc">   -841.58858501 </i>
    <i name="pawpsdc">   1163.80338546 </i>
    <i name="pawaedc">   -131.14945412 </i>
    <i name="eentropy">     -0.01423527 </i>
    <i name="bandstr">    368.89749047 </i>
    <i name="atom">   1736.20668909 </i>
    <i name="e_fr_energy">   -115.86890158 </i>
    <i name="e_wo_entrp">   -115.85466631 </i>
    <i name="e_0_energy">   -115.86415649 </i>
   </energy>
  </scstep>
  <scstep>
   <time name="diag">    0.69    0.69</time>
   <time name="diis">    2.84    2.84</time>
   <time name="orth">    0.04    0.04</time>
   <time name="total">    4.24    4.25</time>
   <energy>
    <i name="e_fr_energy">   -115.85101250 </i>
    <i name="e_wo_entrp">   -115.83892227 </i>
    <i name="e_0_energy">   -115.84698242 </i>
   </energy>
  </scstep>
  <scstep>
   <time name="diag">    0.69    0.69</time>
   <time name="diis">    2.84    2.85</time>
   <time name="orth">    0.04    0.04</time>
   <time name="total">    4.25    4.25</time>
   <energy>
    <i name="e_fr_energy">   -115.84980103 </i>
    <i name="e_wo_entrp">   -115.83838288 </i>
    <i name="e_0_energy">   -115.84599498 </i>
   </energy>
  </scstep>
  <scstep>
   <time name="diag">    0.69    0.69</time>
   <time name="diis">    2.60    2.60</time>
   <time name="orth">    0.04    0.04</time>
   <time name="total">    3.61    3.61</time>
   <energy>
    <i name="alphaZ">     -8.27954604 </i>
    <i name="ewald">  -2388.77230312 </i>
    <i name="hartreedc">    -14.81485092 </i>
    <i name="XCdc">   -841.60528354 </i>
    <i name="pawpsdc">   1163.39305435 </i>
    <i name="pawaedc">   -130.72164383 </i>
    <i name="eentropy">     -0.01139827 </i>
    <i name="bandstr">    368.75551365 </i>
    <i name="atom">   1736.20668909 </i>
    <i name="e_fr_energy">   -115.84976862 </i>
    <i name="e_wo_entrp">   -115.83837036 </i>
    <i name="e_0_energy">   -115.84596920 </i>
   </energy>
  </scstep>
  <structure>
   <crystal>
    <varray name="basis" >
     <v>       8.08705200       0.00000000       0.00000000 </v>
     <v>       0.00000000       8.08705200       0.00000000 </v>
     <v>       0.00000000       0.00000000       8.08705200 </v>
    </varray>
    <i name="volume">    528.89651690 </i>
    <varray name="rec_basis" >
     <v>       0.12365445       0.00000000       0.00000000 </v>
     <v>       0.00000000       0.12365445       0.00000000 </v>
     <v>       0.00000000       0.00000000       0.12365445 </v>
    </varray>
   </crystal>
   <varray name="positions" >
    <v>       0.00234595       0.00234595       0.99813630 </v>
    <v>       0.24341738       0.02186812       0.26275437 </v>
    <v>       0.24960356       0.24960356       0.00142762 </v>
    <v>       0.02186812       0.24341738       0.26275437 </v>
    <v>       0.49435113      -0.00685030       0.00642254 </v>
    <v>       0.75987858       0.02654986       0.24072256 </v>
    <v>       0.73837775       0.24277773       0.97683915 </v>
    <v>       0.49149206       0.24230225       0.25079391 </v>
    <v>      -0.00685030       0.49435113       0.00642254 </v>
    <v>       0.24230225       0.49149206       0.25079391 </v>
    <v>       0.24277773       0.73837775       0.97683915 </v>
    <v>       0.02654986       0.75987858       0.24072256 </v>
    <v>       0.50341701       0.50341701       0.00982029 </v>
    <v>       0.76294093       0.40581143       0.23805946 </v>
    <v>       0.76013181       0.76013181       0.97171566 </v>
    <v>       0.40581143       0.76294093       0.23805946 </v>
    <v>      -0.00459379      -0.00459379       0.50706953 </v>
    <v>       0.25027840      -0.00100415       0.75087372 </v>
    <v>       0.24834346       0.24834346       0.51057224 </v>
    <v>      -0.00100415       0.25027840       0.75087372 </v>
    <v>       0.50332221      -0.00959347       0.49678159 </v>
    <v>       0.74002333       0.01905714       0.75604567 </v>
    <v>       0.74951558       0.24240565       0.50963758 </v>
    <v>       0.49100300       0.24670186       0.75287935 </v>
    <v>      -0.00959347       0.50332221       0.49678159 </v>
    <v>       0.24670186       0.49100300       0.75287935 </v>
    <v>       0.24240565       0.74951558       0.50963758 </v>
    <v>       0.01905714       0.74002333       0.75604567 </v>
    <v>       0.49377477       0.49377477       0.50825782 </v>
    <v>       0.74935847       0.49404867       0.75705379 </v>
    <v>       0.76167304       0.76167304       0.58314110 </v>
    <v>       0.49404867       0.74935847       0.75705379 </v>
    <v>       0.69562056       0.69562056       0.29409507 </v>
   </varray>
  </structure>
  <varray name="forces" >
   <v>       0.01915743       0.01915743      -0.00707756 </v>
   <v>      -0.06004184      -0.02931715      -0.07705867 </v>
   <v>       0.04367381       0.04367381       0.12387301 </v>
   <v>      -0.02931715      -0.06004184      -0.07705867 </v>
   <v>      -0.02104701      -0.02451600       0.02359684 </v>
   <v>      -0.05264111       0.12372041       0.06918853 </v>
   <v>       0.06508368      -0.00865246       0.10606099 </v>
   <v>      -0.08818169      -0.03534314       0.09179926 </v>
   <v>      -0.02451600      -0.02104701       0.02359684 </v>
   <v>      -0.03534314      -0.08818169       0.09179926 </v>
   <v>      -0.00865246       0.06508368       0.10606099 </v>
   <v>       0.12372041      -0.05264111       0.06918853 </v>
   <v>       0.06928167       0.06928167       0.17388743 </v>
   <v>      -0.10309287       0.02391935       0.05960721 </v>
   <v>      -0.03669977      -0.03669977      -0.15088664 </v>
   <v>       0.02391935      -0.10309287       0.05960721 </v>
   <v>      -0.02619195      -0.02619195       0.01507847 </v>
   <v>       0.03940250      -0.11655304      -0.04353399 </v>
   <v>       0.11944661       0.11944661       0.01015911 </v>
   <v>      -0.11655304       0.03940250      -0.04353399 </v>
   <v>       0.05711018      -0.17306273      -0.06996159 </v>
   <v>       0.05786491      -0.10676045      -0.00209103 </v>
   <v>      -0.09495319      -0.04390799       0.08275559 </v>
   <v>      -0.03568325       0.14231036      -0.12619151 </v>
   <v>      -0.17306273       0.05711018      -0.06996159 </v>
   <v>       0.14231036      -0.03568325      -0.12619151 </v>
   <v>      -0.04390799      -0.09495319       0.08275559 </v>
   <v>      -0.10676045       0.05786491      -0.00209103 </v>
   <v>       0.13973362       0.13973362      -0.17747126 </v>
   <v>      -0.08154574      -0.11491007       0.04403755 </v>
   <v>      -0.03471440      -0.03471440       0.05780900 </v>
   <v>      -0.11491007      -0.08154574       0.04403755 </v>
   <v>       0.38711133       0.38711133      -0.36178991 </v>
  </varray>
  <varray name="stress" >
   <v>      64.14454488      -5.17501852       4.71871426 </v>
   <v>      -5.17501852      64.14454488       4.71871426 </v>
   <v>       4.71868179       4.71868179      62.00084568 </v>
  </varray>
  <energy>
   <i name="e_fr_energy">   -115.84976862 </i>
   <i name="e_wo_entrp">   -115.84596920 </i>
   <i name="e_0_energy">     -0.01139827 </i>
  </energy>
  <time name="totalsc">   21.20   21.21</time>
 </calculation>
 <calculation>
  <scstep>
   <time name="diag">    0.69    0.69</time>
   <time name="diis">    2.84    2.84</time>
   <time name="orth">    0.04    0.04</time>
   <time name="total">    4.24    4.24</time>
   <energy>
    <i name="alphaZ">     -8.27954604 </i>
    <i name="ewald">  -2390.05590537 </i>
    <i name="hartreedc">    -13.82965170 </i>
    <i name="XCdc">   -841.62742254 </i>
    <i name="pawpsdc">   1163.35547060 </i>
    <i name="pawaedc">   -130.68214407 </i>
    <i name="eentropy">     -0.01900862 </i>
    <i name="bandstr">    369.04031930 </i>
    <i name="atom">   1736.20668909 </i>
    <i name="e_fr_energy">   -115.89119934 </i>
    <i name="e_wo_entrp">   -115.87219072 </i>
    <i name="e_0_energy">   -115.88486313 </i>
   </energy>
  </scstep>
  <scstep>
   <time name="diag">    0.69    0.71</time>
   <time name="diis">    2.84    2.85</time>
   <time name="orth">    0.04    0.04</time>
   <time name="total">    4.25    4.27</time>
   <energy>
    <i name="e_fr_energy">   -115.88458113 </i>
    <i name="e_wo_entrp">   -115.86715971 </i>
    <i name="e_0_energy">   -115.87877399 </i>
   </energy>
  </scstep>
  <scstep>
   <time name="diag">    0.69    0.69</time>
   <time name="diis">    2.83    2.83</time>
   <time name="orth">    0.04    0.04</time>
   <time name="total">    4.24    4.24</time>
   <energy>
    <i name="e_fr_energy">   -115.88416366 </i>
    <i name="e_wo_entrp">   -115.86725314 </i>
    <i name="e_0_energy">   -115.87852682 </i>
   </energy>
  </scstep>
  <scstep>
   <time name="diag">    0.69    0.69</time>
   <time name="diis">    2.06    2.06</time>
   <time name="orth">    0.04    0.04</time>
   <time name="total">    3.07    3.07</time>
   <energy>
    <i name="alphaZ">     -8.27954604 </i>
    <i name="ewald">  -2390.05590537 </i>
    <i name="hartreedc">    -13.77682297 </i>
    <i name="XCdc">   -841.63139065 </i>
    <i name="pawpsdc">   1163.21321178 </i>
    <i name="pawaedc">   -130.53430762 </i>
    <i name="eentropy">     -0.01690956 </i>
    <i name="bandstr">    368.99082389 </i>
    <i name="atom">   1736.20668909 </i>
    <i name="e_fr_energy">   -115.88415745 </i>
    <i name="e_wo_entrp">   -115.86724789 </i>
    <i name="e_0_energy">   -115.87852093 </i>
   </energy>
  </scstep>
  <structure>
   <crystal>
    <varray name="basis" >
     <v>       8.08705200       0.00000000       0.00000000 </v>
     <v>       0.00000000       8.08705200       0.00000000 </v>
     <v>       0.00000000       0.00000000       8.08705200 </v>
    </varray>
    <i name="volume">    528.89651690 </i>
    <varray name="rec_basis" >
     <v>       0.12365445       0.00000000       0.00000000 </v>
     <v>       0.00000000       0.12365445       0.00000000 </v>
     <v>       0.00000000       0.00000000       0.12365445 </v>
    </varray>
   </crystal>
   <varray name="positions" >
    <v>       0.00124289       0.00124289       0.99936359 </v>
    <v>       0.24392358       0.01993417       0.26200142 </v>
    <v>       0.25074850       0.25074850       0.00087465 </v>
    <v>       0.01993417       0.24392358       0.26200142 </v>
    <v>       0.49415722      -0.00742896       0.00709826 </v>
    <v>       0.75925454       0.02631840       0.24139174 </v>
    <v>       0.73897902       0.24352547       0.97914725 </v>
    <v>       0.49162054       0.24200307       0.25153177 </v>
    <v>      -0.00742896       0.49415722       0.00709826 </v>
    <v>       0.24200307       0.49162054       0.25153177 </v>
    <v>       0.24352547       0.73897902       0.97914725 </v>
    <v>       0.02631840       0.75925454       0.24139174 </v>
    <v>       0.50447902       0.50447902       0.01161072 </v>
    <v>       0.76257121       0.40683625       0.23822439 </v>
    <v>       0.75969612       0.75969612       0.97176766 </v>
    <v>       0.40683625       0.76257121       0.23822439 </v>
    <v>      -0.00507713      -0.00507713       0.50731862 </v>
    <v>       0.25132669      -0.00030440       0.74959954 </v>
    <v>       0.24783615       0.24783615       0.51257334 </v>
    <v>      -0.00030440       0.25132669       0.74959954 </v>
    <v>       0.50434859      -0.01133784       0.49568467 </v>
    <v>       0.74058465       0.01672374       0.75510089 </v>
    <v>       0.74873433       0.24193221       0.50974132 </v>
    <v>       0.48895527       0.24631309       0.75324676 </v>
    <v>      -0.01133784       0.50434859       0.49568467 </v>
    <v>       0.24631309       0.48895527       0.75324676 </v>
    <v>       0.24193221       0.74873433       0.50974132 </v>
    <v>       0.01672374       0.74058465       0.75510089 </v>
    <v>       0.49761612       0.49761612       0.50417754 </v>
    <v>       0.74865489       0.49409992       0.75730161 </v>
    <v>       0.76149237       0.76149237       0.58316690 </v>
    <v>       0.49409992       0.74865489       0.75730161 </v>
    <v>       0.69859035       0.69859035       0.29097070 </v>
   </varray>
  </structure>
  <varray name="forces" >
   <v>       0.10810622       0.10810622      -0.10637570 </v>
   <v>      -0.17639974       0.16067723      -0.03513628 </v>
   <v>      -0.02705206      -0.02705206       0.18833155 </v>
   <v>       0.16067723      -0.17639974      -0.03513628 </v>
   <v>       0.00630405       0.03208794      -0.04067007 </v>
   <v>      -0.04126847       0.21785233       0.06652200 </v>
   <v>       0.02688702      -0.16040875      -0.13454816 </v>
   <v>      -0.12713013      -0.03519846       0.10545781 </v>
   <v>       0.03208794       0.00630405      -0.04067007 </v>
   <v>      -0.03519846      -0.12713013       0.10545781 </v>
   <v>      -0.16040875       0.02688702      -0.13454816 </v>
   <v>       0.21785233      -0.04126847       0.06652200 </v>
   <v>       0.04062373       0.04062373       0.11507944 </v>
   <v>      -0.18625635       0.07731669       0.17731139 </v>
   <v>      -0.03146225      -0.03146225      -0.25739317 </v>
   <v>       0.07731669      -0.18625635       0.17731139 </v>
   <v>       0.02440716       0.02440716      -0.02044356 </v>
   <v>      -0.03115451      -0.19537377       0.04196784 </v>
   <v>       0.13949724       0.13949724      -0.16966372 </v>
   <v>      -0.19537377      -0.03115451       0.04196784 </v>
   <v>       0.02309593      -0.12024271      -0.04468981 </v>
   <v>       0.01718205       0.14717057       0.16945213 </v>
   <v>      -0.10368032      -0.03095084       0.09555016 </v>
   <v>       0.14018985       0.15577073      -0.12973850 </v>
   <v>      -0.12024271       0.02309593      -0.04468981 </v>
   <v>       0.15577073       0.14018985      -0.12973850 </v>
   <v>      -0.03095084      -0.10368032       0.09555016 </v>
   <v>       0.14717057       0.01718205       0.16945213 </v>
   <v>       0.03477368       0.03477368      -0.07759859 </v>
   <v>      -0.09305961      -0.15902760       0.05261844 </v>
   <v>      -0.14921333      -0.14921333      -0.10676879 </v>
   <v>      -0.15902760      -0.09305961       0.05261844 </v>
   <v>       0.31593647       0.31593647      -0.21336138 </v>
  </varray>
  <varray name="stress" >
   <v>      63.44858736      -4.25312799       3.81441529 </v>
   <v>      -4.25312799      63.44858736       3.81441529 </v>
   <v>       3.81440276       3.81440276      60.89351637 </v>
  </varray>
  <energy>
   <i name="e_fr_energy">   -115.88415745 </i>
   <i name="e_wo_entrp">   -115.87852093 </i>
   <i name="e_0_energy">     -0.01690956 </i>
  </energy>
  <time name="totalsc">   20.64   20.68</time>
 </calculation>
 <calculation>
  <scstep>
   <time name="diag">    0.70    0.70</time>
   <time name="diis">    2.84    2.84</time>
   <time name="orth">    0.04    0.04</time>
   <time name="total">    4.24    4.25</time>
   <energy>
    <i name="alphaZ">     -8.27954604 </i>
    <i name="ewald">  -2391.00859281 </i>
    <i name="hartreedc">    -13.13986713 </i>
    <i name="XCdc">   -841.64458587 </i>
    <i name="pawpsdc">   1163.19965792 </i>
    <i name="pawaedc">   -130.52006620 </i>
    <i name="eentropy">     -0.01519368 </i>
    <i name="bandstr">    369.21540849 </i>
    <i name="atom">   1736.20668909 </i>
    <i name="e_fr_energy">   -115.98609622 </i>
    <i name="e_wo_entrp">   -115.97090254 </i>
    <i name="e_0_energy">   -115.98103166 </i>
   </energy>
  </scstep>
  <scstep>
   <time name="diag">    0.69    0.70</time>
   <time name="diis">    2.85    2.85</time>
   <time name="orth">    0.04    0.04</time>
   <time name="total">    4.26    4.27</time>
   <energy>
    <i name="e_fr_energy">   -115.98374032 </i>
    <i name="e_wo_entrp">   -115.96864715 </i>
    <i name="e_0_energy">   -115.97870926 </i>
   </energy>
  </scstep>
  <scstep>
   <time name="diag">    0.69    0.69</time>
   <time name="diis">    2.85    2.85</time>
   <time name="orth">    0.04    0.04</time>
   <time name="total">    4.25    4.25</time>
   <energy>
    <i name="e_fr_energy">   -115.98349996 </i>
    <i name="e_wo_entrp">   -115.96849663 </i>
    <i name="e_0_energy">   -115.97849885 </i>
   </energy>
  </scstep>
  <scstep>
   <time name="diag">    0.69    0.69</time>
   <time name="diis">    2.23    2.25</time>
   <time name="orth">    0.04    0.04</time>
   <time name="total">    3.24    3.26</time>
   <energy>
    <i name="alphaZ">     -8.27954604 </i>
    <i name="ewald">  -2391.00859281 </i>
    <i name="hartreedc">    -13.05020756 </i>
    <i name="XCdc">   -841.65262996 </i>
    <i name="pawpsdc">   1162.99534427 </i>
    <i name="pawaedc">   -130.30692379 </i>
    <i name="eentropy">     -0.01501039 </i>
    <i name="bandstr">    369.12735523 </i>
    <i name="atom">   1736.20668909 </i>
    <i name="e_fr_energy">   -115.98352196 </i>
    <i name="e_wo_entrp">   -115.96851157 </i>
    <i name="e_0_energy">   -115.97851849 </i>
   </energy>
  </scstep>
  <structure>
   <crystal>
    <varray name="basis" >
     <v>       8.08705200       0.00000000       0.00000000 </v>
     <v>       0.00000000       8.08705200       0.00000000 </v>
     <v>       0.00000000       0.00000000       8.08705200 </v>
    </varray>
    <i name="volume">    528.89651690 </i>
    <varray name="rec_basis" >
     <v>       0.12365445       0.00000000       0.00000000 </v>
     <v>       0.00000000       0.12365445       0.00000000 </v>
     <v>       0.00000000       0.00000000       0.12365445 </v>
    </varray>
   </crystal>
   <varray name="positions" >
    <v>       0.00147877       0.00147877       0.99923777 </v>
    <v>       0.24256952       0.02006416       0.26109213 </v>
    <v>       0.25134040       0.25134040       0.00231091 </v>
    <v>       0.02006416       0.24256952       0.26109213 </v>
    <v>       0.49407390      -0.00754716       0.00720486 </v>
    <v>       0.75838156       0.02828557       0.24254668 </v>
    <v>       0.73969363       0.24250948       0.97955428 </v>
    <v>       0.49046764       0.24143310       0.25312072 </v>
    <v>      -0.00754716       0.49407390       0.00720486 </v>
    <v>       0.24143310       0.49046764       0.25312072 </v>
    <v>       0.24250948       0.73969363       0.97955428 </v>
    <v>       0.02828557       0.75838156       0.24254668 </v>
    <v>       0.50567376       0.50567376       0.01408272 </v>
    <v>       0.76046413       0.40836366       0.24009016 </v>
[...]
       <r>    7.2039    1.0000 </r>
       <r>    7.2754    1.0000 </r>
       <r>    7.2872    1.0000 </r>
       <r>    7.4532    1.0000 </r>
       <r>    7.9575    1.0218 </r>
       <r>    7.9673    1.0240 </r>
       <r>    8.0600    1.0333 </r>
       <r>    8.2543    0.6204 </r>
       <r>    8.3467    0.2455 </r>
       <r>    8.3713    0.1640 </r>
       <r>    8.4867   -0.0269 </r>
       <r>    8.5198   -0.0352 </r>
       <r>    8.6421   -0.0146 </r>
       <r>    9.2098    0.0000 </r>
       <r>    9.2209    0.0000 </r>
       <r>    9.4410    0.0000 </r>
       <r>    9.6258    0.0000 </r>
       <r>    9.6717    0.0000 </r>
       <r>    9.7510    0.0000 </r>
       <r>   10.1312    0.0000 </r>
       <r>   10.1332    0.0000 </r>
       <r>   10.2101    0.0000 </r>
       <r>   10.3620    0.0000 </r>
       <r>   10.3805    0.0000 </r>
       <r>   10.4633    0.0000 </r>
       <r>   10.4840    0.0000 </r>
       <r>   10.5968    0.0000 </r>
       <r>   10.9757    0.0000 </r>
       <r>   11.1248    0.0000 </r>
       <r>   11.1469    0.0000 </r>
       <r>   11.5076    0.0000 </r>
      </set>
      <set comment="kpoint 3">
       <r>   -2.6700    1.0000 </r>
       <r>   -1.6701    1.0000 </r>
       <r>   -1.6610    1.0000 </r>
       <r>   -1.3235    1.0000 </r>
       <r>   -0.5698    1.0000 </r>
       <r>   -0.5607    1.0000 </r>
       <r>   -0.1164    1.0000 </r>
       <r>    0.6120    1.0000 </r>
       <r>    0.6207    1.0000 </r>
       <r>    0.6859    1.0000 </r>
       <r>    0.9667    1.0000 </r>
       <r>    1.6119    1.0000 </r>
       <r>    1.6183    1.0000 </r>
       <r>    1.6588    1.0000 </r>
       <r>    1.9572    1.0000 </r>
       <r>    1.9704    1.0000 </r>
       <r>    2.1413    1.0000 </r>
       <r>    2.8274    1.0000 </r>
       <r>    2.9519    1.0000 </r>
       <r>    2.9521    1.0000 </r>
       <r>    3.8474    1.0000 </r>
       <r>    3.8540    1.0000 </r>
       <r>    3.9016    1.0000 </r>
       <r>    4.0432    1.0000 </r>
       <r>    4.0473    1.0000 </r>
       <r>    4.2541    1.0000 </r>
       <r>    4.7690    1.0000 </r>
       <r>    4.7742    1.0000 </r>
       <r>    4.8159    1.0000 </r>
       <r>    5.0348    1.0000 </r>
       <r>    5.1049    1.0000 </r>
       <r>    5.1076    1.0000 </r>
       <r>    5.2196    1.0000 </r>
       <r>    5.2321    1.0000 </r>
       <r>    5.2952    1.0000 </r>
       <r>    5.9803    1.0000 </r>
       <r>    5.9906    1.0000 </r>
       <r>    6.4274    1.0000 </r>
       <r>    6.9751    1.0000 </r>
       <r>    6.9981    1.0000 </r>
       <r>    7.0078    1.0000 </r>
       <r>    7.2099    1.0000 </r>
       <r>    7.2912    1.0000 </r>
       <r>    7.2992    1.0000 </r>
       <r>    7.4436    1.0000 </r>
       <r>    7.9582    1.0219 </r>
       <r>    7.9613    1.0226 </r>
       <r>    8.0464    1.0352 </r>
       <r>    8.2840    0.4964 </r>
       <r>    8.3514    0.2287 </r>
       <r>    8.3611    0.1960 </r>
       <r>    8.5190   -0.0351 </r>
       <r>    8.5253   -0.0354 </r>
       <r>    8.5462   -0.0343 </r>
       <r>    9.2193    0.0000 </r>
       <r>    9.2262    0.0000 </r>
       <r>    9.4669    0.0000 </r>
       <r>    9.6349    0.0000 </r>
       <r>    9.6402    0.0000 </r>
       <r>    9.7269    0.0000 </r>
       <r>   10.1337    0.0000 </r>
       <r>   10.1364    0.0000 </r>
       <r>   10.2284    0.0000 </r>
       <r>   10.3343    0.0000 </r>
       <r>   10.3439    0.0000 </r>
       <r>   10.4722    0.0000 </r>
       <r>   10.4818    0.0000 </r>
       <r>   10.5808    0.0000 </r>
       <r>   10.9740    0.0000 </r>
       <r>   11.1459    0.0000 </r>
       <r>   11.1552    0.0000 </r>
       <r>   11.4704    0.0000 </r>
      </set>
     </set>
    </set>
   </array>
  </eigenvalues>
  <separator name="orbital magnetization" >
   <v name="MAGDIPOLOUT">      0.00000000      0.00000000      0.00000000</v>
  </separator>
  <dos>
   <i name="efermi">      8.28311586 </i>
   <total>
    <array>
     <dimension dim="1">gridpoints</dimension>
     <dimension dim="2">spin</dimension>
     <field>energy</field>
     <field>total</field>
     <field>integrated</field>
     <set>
      <set comment="spin 1">
       <r>  -4.6700   0.0000   0.0000 </r>
       <r>  -4.6094   0.0000   0.0000 </r>
       <r>  -4.5488   0.0000   0.0000 </r>
       <r>  -4.4882   0.0000   0.0000 </r>
       <r>  -4.4275   0.0000   0.0000 </r>
       <r>  -4.3669   0.0000   0.0000 </r>
       <r>  -4.3063   0.0000   0.0000 </r>
       <r>  -4.2456   0.0000   0.0000 </r>
       <r>  -4.1850   0.0000   0.0000 </r>
       <r>  -4.1244   0.0000   0.0000 </r>
       <r>  -4.0638   0.0000   0.0000 </r>
       <r>  -4.0031   0.0000   0.0000 </r>
       <r>  -3.9425   0.0000   0.0000 </r>
       <r>  -3.8819   0.0000   0.0000 </r>
       <r>  -3.8213   0.0000   0.0000 </r>
       <r>  -3.7606   0.0000   0.0000 </r>
       <r>  -3.7000   0.0000   0.0000 </r>
       <r>  -3.6394   0.0000   0.0000 </r>
       <r>  -3.5788   0.0000   0.0000 </r>
       <r>  -3.5181   0.0000   0.0000 </r>
       <r>  -3.4575   0.0000   0.0000 </r>
       <r>  -3.3969  -0.0001   0.0000 </r>
       <r>  -3.3363  -0.0004   0.0000 </r>
       <r>  -3.2756  -0.0022  -0.0002 </r>
       <r>  -3.2150  -0.0105  -0.0008 </r>
       <r>  -3.1544  -0.0403  -0.0032 </r>
       <r>  -3.0938  -0.1219  -0.0106 </r>
       <r>  -3.0331  -0.2791  -0.0276 </r>
       <r>  -2.9725  -0.4368  -0.0540 </r>
       <r>  -2.9119  -0.2775  -0.0709 </r>
       <r>  -2.8512   0.7485  -0.0255 </r>
       <r>  -2.7906   2.9889   0.1557 </r>
       <r>  -2.7300   5.9149   0.5143 </r>
       <r>  -2.6694   8.0530   1.0025 </r>
       <r>  -2.6087   8.0410   1.4900 </r>
       <r>  -2.5481   5.8869   1.8469 </r>
       <r>  -2.4875   2.9615   2.0265 </r>
       <r>  -2.4269   0.7324   2.0709 </r>
       <r>  -2.3662  -0.2826   2.0537 </r>
       <r>  -2.3056  -0.4377   2.0272 </r>
       <r>  -2.2450  -0.2867   2.0098 </r>
       <r>  -2.1844  -0.1615   2.0000 </r>
       <r>  -2.1237  -0.1800   1.9891 </r>
       <r>  -2.0631  -0.3846   1.9658 </r>
       <r>  -2.0025  -0.7327   1.9214 </r>
       <r>  -1.9419  -0.8636   1.8690 </r>
       <r>  -1.8812   0.1222   1.8764 </r>
       <r>  -1.8206   3.2857   2.0756 </r>
       <r>  -1.7600   8.6116   2.5977 </r>
       <r>  -1.6994  14.0020   3.4466 </r>
       <r>  -1.6387  16.2918   4.4343 </r>
       <r>  -1.5781  14.0795   5.2879 </r>
       <r>  -1.5175   9.3725   5.8561 </r>
       <r>  -1.4568   5.8293   6.2095 </r>
       <r>  -1.3962   5.3733   6.5353 </r>
       <r>  -1.3356   6.8040   6.9478 </r>
       <r>  -1.2750   7.5341   7.4045 </r>
       <r>  -1.2143   6.2136   7.7813 </r>
       <r>  -1.1537   3.5658   7.9974 </r>
       <r>  -1.0931   1.1345   8.0662 </r>
       <r>  -1.0325  -0.2438   8.0514 </r>
       <r>  -0.9718  -0.7687   8.0048 </r>
       <r>  -0.9112  -0.9951   7.9445 </r>
       <r>  -0.8506  -1.0435   7.8812 </r>
       <r>  -0.7900  -0.2334   7.8671 </r>
       <r>  -0.7293   2.5561   8.0221 </r>
       <r>  -0.6687   7.6555   8.4862 </r>
       <r>  -0.6081  13.3701   9.2968 </r>
       <r>  -0.5475  16.5036  10.2973 </r>
       <r>  -0.4868  14.9228  11.2020 </r>
       <r>  -0.4262   9.6412  11.7865 </r>
       <r>  -0.3656   4.0173  12.0301 </r>
       <r>  -0.3050   1.0674  12.0948 </r>
       <r>  -0.2443   1.6531  12.1950 </r>
       <r>  -0.1837   4.5078  12.4683 </r>
       <r>  -0.1231   7.3001  12.9109 </r>
       <r>  -0.0624   8.0616  13.3996 </r>
       <r>  -0.0018   6.3965  13.7874 </r>
       <r>   0.0588   3.5222  14.0009 </r>
       <r>   0.1194   1.0231  14.0630 </r>
       <r>   0.1801  -0.3976  14.0389 </r>
       <r>   0.2407  -1.0302  13.9764 </r>
       <r>   0.3013  -1.3504  13.8945 </r>
       <r>   0.3619  -1.1606  13.8242 </r>
       <r>   0.4226   0.6566  13.8640 </r>
       <r>   0.4832   5.3449  14.1880 </r>
       <r>   0.5438  12.6295  14.9537 </r>
       <r>   0.6044  19.7484  16.1510 </r>
       <r>   0.6651  22.9268  17.5409 </r>
       <r>   0.7257  20.5874  18.7891 </r>
       <r>   0.7863  14.9564  19.6958 </r>
       <r>   0.8469  10.0057  20.3024 </r>
       <r>   0.9076   7.8580  20.7788 </r>
       <r>   0.9682   7.4942  21.2332 </r>
       <r>   1.0288   6.7074  21.6398 </r>
       <r>   1.0894   4.6024  21.9188 </r>
       <r>   1.1501   1.9717  22.0384 </r>
       <r>   1.2107  -0.1070  22.0319 </r>
       <r>   1.2713  -1.3026  21.9529 </r>
       <r>   1.3320  -1.6429  21.8533 </r>
       <r>   1.3926  -0.5503  21.8199 </r>
       <r>   1.4532   3.2232  22.0154 </r>
       <r>   1.5138  10.1345  22.6298 </r>
       <r>   1.5745  18.1023  23.7272 </r>
       <r>   1.6351  22.9782  25.1203 </r>
       <r>   1.6957  21.9338  26.4501 </r>
       <r>   1.7563  16.5530  27.4536 </r>
       <r>   1.8170  11.7428  28.1655 </r>
       <r>   1.8776  11.1529  28.8417 </r>
       <r>   1.9382  14.0539  29.6937 </r>
       <r>   1.9988  16.8677  30.7164 </r>
       <r>   2.0595  17.0262  31.7486 </r>
       <r>   2.1201  14.6514  32.6368 </r>
       <r>   2.1807  11.1222  33.3111 </r>
       <r>   2.2413   7.3976  33.7596 </r>
       <r>   2.3020   3.9615  33.9998 </r>
       <r>   2.3626   1.2991  34.0786 </r>
       <r>   2.4232  -0.2808  34.0615 </r>
       <r>   2.4838  -0.9662  34.0029 </r>
       <r>   2.5445  -1.1710  33.9320 </r>
       <r>   2.6051  -0.9331  33.8754 </r>
       <r>   2.6657   0.3583  33.8971 </r>
       <r>   2.7264   3.5852  34.1145 </r>
       <r>   2.7870   9.0218  34.6614 </r>
       <r>   2.8476  15.5182  35.6022 </r>
       <r>   2.9082  20.5332  36.8471 </r>
       <r>   2.9689  21.4601  38.1481 </r>
       <r>   3.0295  17.5698  39.2133 </r>
       <r>   3.0901  10.8076  39.8685 </r>
       <r>   3.1507   4.3827  40.1342 </r>
       <r>   3.2114   0.4341  40.1605 </r>
       <r>   3.2720  -0.9626  40.1022 </r>
       <r>   3.3326  -0.9552  40.0443 </r>
       <r>   3.3932  -0.6585  40.0044 </r>
       <r>   3.4539  -0.6413  39.9655 </r>
       <r>   3.5145  -1.0053  39.9045 </r>
       <r>   3.5751  -1.3889  39.8203 </r>
       <r>   3.6357  -0.7446  39.7752 </r>
       <r>   3.6964   2.4949  39.9264 </r>
       <r>   3.7570   9.2565  40.4876 </r>
       <r>   3.8176  18.3612  41.6008 </r>
       <r>   3.8782  26.5846  43.2125 </r>
       <r>   3.9389  30.7519  45.0769 </r>
       <r>   3.9995  29.8406  46.8860 </r>
       <r>   4.0601  25.1743  48.4122 </r>
       <r>   4.1207  19.1868  49.5754 </r>
       <r>   4.1814  14.0212  50.4255 </r>
       <r>   4.2420  10.4629  51.0598 </r>
       <r>   4.3026   7.7996  51.5327 </r>
       <r>   4.3633   4.9716  51.8341 </r>
       <r>   4.4239   1.8652  51.9472 </r>
       <r>   4.4845  -0.5376  51.9146 </r>
       <r>   4.5451  -0.7782  51.8674 </r>
       <r>   4.6058   2.4270  52.0145 </r>
       <r>   4.6664   9.1684  52.5704 </r>
       <r>   4.7270  17.1621  53.6108 </r>
       <r>   4.7876  22.3802  54.9677 </r>
       <r>   4.8483  22.3729  56.3240 </r>
       <r>   4.9089  19.1572  57.4855 </r>
       <r>   4.9695  17.7319  58.5605 </r>
       <r>   5.0301  21.2450  59.8485 </r>
       <r>   5.0908  28.0948  61.5518 </r>
       <r>   5.1514  33.7570  63.5983 </r>
       <r>   5.2120  34.6685  65.7001 </r>
       <r>   5.2726  30.2525  67.5342 </r>
       <r>   5.3333  22.3213  68.8875 </r>
       <r>   5.3939  13.5330  69.7079 </r>
       <r>   5.4545   6.1657  70.0817 </r>
       <r>   5.5151   1.3909  70.1661 </r>
       <r>   5.5758  -0.9110  70.1108 </r>
       <r>   5.6364  -1.6556  70.0105 </r>
       <r>   5.6970  -1.6071  69.9130 </r>
       <r>   5.7577  -0.6231  69.8753 </r>
       <r>   5.8183   2.2020  70.0088 </r>
       <r>   5.8789   7.2679  70.4494 </r>
       <r>   5.9395  13.0526  71.2407 </r>
       <r>   6.0002  16.4265  72.2366 </r>
       <r>   6.0608  15.1327  73.1540 </r>
       <r>   6.1214   9.9976  73.7601 </r>
       <r>   6.1820   4.3196  74.0220 </r>
       <r>   6.2427   1.2109  74.0954 </r>
       <r>   6.3033   1.6575  74.1959 </r>
       <r>   6.3639   4.4469  74.4655 </r>
       <r>   6.4245   7.2272  74.9037 </r>
       <r>   6.4852   7.9600  75.3863 </r>
       <r>   6.5458   6.1387  75.7584 </r>
       <r>   6.6064   2.8868  75.9334 </r>
       <r>   6.6670  -0.0632  75.9296 </r>
       <r>   6.7277  -1.2306  75.8550 </r>
       <r>   6.7883   0.5803  75.8902 </r>
       <r>   6.8489   6.0290  76.2557 </r>
       <r>   6.9095  14.0339  77.1065 </r>
       <r>   6.9702  21.2849  78.3969 </r>
       <r>   7.0308  24.4952  79.8820 </r>
       <r>   7.0914  23.6907  81.3183 </r>
       <r>   7.1521  22.1860  82.6633 </r>
       <r>   7.2127  22.6560  84.0369 </r>
       <r>   7.2733  24.2076  85.5045 </r>
       <r>   7.3339  23.9960  86.9593 </r>
       <r>   7.3946  20.6605  88.2118 </r>
       <r>   7.4552  15.2155  89.1343 </r>
       <r>   7.5158   9.4049  89.7045 </r>
       <r>   7.5764   4.3633  89.9690 </r>
       <r>   7.6371   0.6511  90.0085 </r>
       <r>   7.6977  -1.2456  89.9329 </r>
       <r>   7.7583  -0.6243  89.8951 </r>
       <r>   7.8189   3.2238  90.0905 </r>
       <r>   7.8796   9.9980  90.6967 </r>
       <r>   7.9402  17.3526  91.7487 </r>
       <r>   8.0008  21.6940  93.0639 </r>
       <r>   8.0614  21.0511  94.3402 </r>
       <r>   8.1221  17.2245  95.3844 </r>
       <r>   8.1827  14.4732  96.2619 </r>
       <r>   8.2433  15.7903  97.2192 </r>
       <r>   8.3039  20.6053  98.4684 </r>
       <r>   8.3646  25.9638 100.0425 </r>
       <r>   8.4252  29.2787 101.8175 </r>
       <r>   8.4858  29.5896 103.6114 </r>
       <r>   8.5465  26.9247 105.2438 </r>
       <r>   8.6071  21.6716 106.5576 </r>
       <r>   8.6677  14.8162 107.4559 </r>
       <r>   8.7283   8.0036 107.9411 </r>
       <r>   8.7890   2.7528 108.1080 </r>
       <r>   8.8496  -0.3682 108.0857 </r>
       <r>   8.9102  -1.6586 107.9851 </r>
       <r>   8.9708  -1.4184 107.8991 </r>
       <r>   9.0315   0.6787 107.9403 </r>
       <r>   9.0921   5.0375 108.2457 </r>
       <r>   9.1527  10.7802 108.8993 </r>
       <r>   9.2133  15.4036 109.8331 </r>
       <r>   9.2740  16.6048 110.8398 </r>
       <r>   9.3346  14.5265 111.7205 </r>
       <r>   9.3952  11.6666 112.4278 </r>
       <r>   9.4558  10.6740 113.0749 </r>
       <r>   9.5165  12.6474 113.8417 </r>
       <r>   9.5771  16.9011 114.8663 </r>
       <r>   9.6377  21.2431 116.1542 </r>
       <r>   9.6983  22.7623 117.5342 </r>
       <r>   9.7590  19.6571 118.7259 </r>
       <r>   9.8196  12.8807 119.5068 </r>
       <r>   9.8802   5.8059 119.8588 </r>
       <r>   9.9409   2.1697 119.9904 </r>
       <r>  10.0015   3.9718 120.2312 </r>
       <r>  10.0621  10.3842 120.8607 </r>
       <r>  10.1227  18.1656 121.9620 </r>
       <r>  10.1834  23.8688 123.4091 </r>
       <r>  10.2440  26.4849 125.0148 </r>
       <r>  10.3046  27.7432 126.6967 </r>
       <r>  10.3652  29.4951 128.4849 </r>
       <r>  10.4259  31.2871 130.3817 </r>
       <r>  10.4865  30.8938 132.2547 </r>
       <r>  10.5471  26.7540 133.8767 </r>
       <r>  10.6077  19.4482 135.0558 </r>
       <r>  10.6684  11.2015 135.7349 </r>
       <r>  10.7290   4.4990 136.0076 </r>
       <r>  10.7896   1.0209 136.0695 </r>
       <r>  10.8502   1.2354 136.1444 </r>
       <r>  10.9109   4.5203 136.4185 </r>
       <r>  10.9715   9.6003 137.0005 </r>
       <r>  11.0321  14.9214 137.9051 </r>
       <r>  11.0927  18.7038 139.0390 </r>
       <r>  11.1534  19.1976 140.2029 </r>
       <r>  11.2140  15.8152 141.1617 </r>
       <r>  11.2746  10.2429 141.7827 </r>
       <r>  11.3353   5.6846 142.1274 </r>
       <r>  11.3959   4.3559 142.3914 </r>
       <r>  11.4565   5.7266 142.7386 </r>
       <r>  11.5171   7.3147 143.1821 </r>
       <r>  11.5778   7.0672 143.6105 </r>
       <r>  11.6384   4.9116 143.9083 </r>
       <r>  11.6990   2.2491 144.0447 </r>
       <r>  11.7596   0.3881 144.0682 </r>
       <r>  11.8203  -0.3568 144.0466 </r>
       <r>  11.8809  -0.4003 144.0223 </r>
       <r>  11.9415  -0.2324 144.0082 </r>
       <r>  12.0021  -0.0957 144.0024 </r>
       <r>  12.0628  -0.0302 144.0006 </r>
       <r>  12.1234  -0.0075 144.0001 </r>
       <r>  12.1840  -0.0015 144.0000 </r>
       <r>  12.2446  -0.0002 144.0000 </r>
       <r>  12.3053   0.0000 144.0000 </r>
       <r>  12.3659   0.0000 144.0000 </r>
       <r>  12.4265   0.0000 144.0000 </r>
       <r>  12.4871   0.0000 144.0000 </r>
       <r>  12.5478   0.0000 144.0000 </r>
       <r>  12.6084   0.0000 144.0000 </r>
       <r>  12.6690   0.0000 144.0000 </r>
       <r>  12.7297   0.0000 144.0000 </r>
       <r>  12.7903   0.0000 144.0000 </r>
       <r>  12.8509   0.0000 144.0000 </r>
       <r>  12.9115   0.0000 144.0000 </r>
       <r>  12.9722   0.0000 144.0000 </r>
       <r>  13.0328   0.0000 144.0000 </r>
       <r>  13.0934   0.0000 144.0000 </r>
       <r>  13.1540   0.0000 144.0000 </r>
       <r>  13.2147   0.0000 144.0000 </r>
       <r>  13.2753   0.0000 144.0000 </r>
       <r>  13.3359   0.0000 144.0000 </r>
       <r>  13.3965   0.0000 144.0000 </r>
       <r>  13.4572   0.0000 144.0000 </r>
       <r>  13.5178   0.0000 144.0000 </r>
      </set>
     </set>
    </array>
   </total>
  </dos>
 </calculation>
 <structure name="finalpos" >
  <crystal>
   <varray name="basis" >
    <v>       8.08705200       0.00000000       0.00000000 </v>
    <v>       0.00000000       8.08705200       0.00000000 </v>
    <v>       0.00000000       0.00000000       8.08705200 </v>
   </varray>
   <i name="volume">    528.89651690 </i>
   <varray name="rec_basis" >
    <v>       0.12365445       0.00000000       0.00000000 </v>
    <v>       0.00000000       0.12365445       0.00000000 </v>
    <v>       0.00000000       0.00000000       0.12365445 </v>
   </varray>
  </crystal>
  <varray name="positions" >
   <v>       0.00375280       0.00375280       0.99675475 </v>
   <v>       0.24247484       0.01744353       0.25804129 </v>
   <v>       0.25195632       0.25195632       0.00080001 </v>
   <v>       0.01744353       0.24247484       0.25804129 </v>
   <v>       0.49425460      -0.00702625       0.00677863 </v>
   <v>       0.75655898       0.04760932       0.24497392 </v>
   <v>       0.74143831       0.24229970       0.98369541 </v>
   <v>       0.48249514       0.23982675       0.25876339 </v>
   <v>      -0.00702625       0.49425460       0.00677863 </v>
   <v>       0.23982675       0.48249514       0.25876339 </v>
   <v>       0.24229970       0.74143831       0.98369541 </v>
   <v>       0.04760932       0.75655898       0.24497392 </v>
   <v>       0.50663786       0.50663786       0.02068871 </v>
   <v>       0.75148270       0.41259701       0.24789452 </v>
   <v>       0.75639758       0.75639758       0.94990761 </v>
   <v>       0.41259701       0.75148270       0.24789452 </v>
   <v>      -0.00501174      -0.00501174       0.50707951 </v>
   <v>       0.25205385      -0.00042041       0.74874261 </v>
   <v>       0.25004671       0.25004671       0.50980301 </v>
   <v>      -0.00042041       0.25205385       0.74874261 </v>
   <v>       0.50532208      -0.02025085       0.49399500 </v>
   <v>       0.74185279       0.01601133       0.75531805 </v>
   <v>       0.74075920       0.24007787       0.51842586 </v>
   <v>       0.49069114       0.24987852       0.75081727 </v>
   <v>      -0.02025085       0.50532208       0.49399500 </v>
   <v>       0.24987852       0.49069114       0.75081727 </v>
   <v>       0.24007787       0.74075920       0.51842586 </v>
   <v>       0.01601133       0.74185279       0.75531805 </v>
   <v>       0.50872266       0.50872266       0.49063001 </v>
   <v>       0.74114025       0.48330505       0.75879521 </v>
   <v>       0.75237963       0.75237963       0.58274943 </v>
   <v>       0.48330505       0.74114025       0.75879521 </v>
   <v>       0.72159270       0.72159270       0.27106764 </v>
  </varray>
 </structure>
</modeling>
