Processors received = 12
script running on host compute-1-31.local
PBS_NODEFILE
compute-1-31
compute-1-31
compute-1-31
compute-1-31
compute-1-31
compute-1-31
compute-1-31
compute-1-31
compute-1-31
compute-1-31
compute-1-31
compute-1-31
 running on   12 nodes
 distr:  one band on    1 nodes,   12 groups
 vasp.5.2.2 15Apr09 complex 
 POSCAR found type information on POSCAR  Al
 POSCAR found :  1 types and   31 ions

 ----------------------------------------------------------------------------- 
|                                                                             |
|  ADVICE TO THIS USER RUNNING 'VASP/VAMP'   (HEAR YOUR MASTER'S VOICE ...):  |
|                                                                             |
|      You have a (more or less) 'large supercell' and for larger cells       |
|      it might be more efficient to use real space projection operators      |
|      So try LREAL= Auto  in the INCAR   file.                               |
|      Mind: If you want to do a very accurate calculations keep the          |
|      reciprocal projection scheme          (i.e. LREAL=.FALSE.)             |
|                                                                             |
 ----------------------------------------------------------------------------- 

 LDA part: xc-table for Pade appr. of Perdew
 POSCAR, INCAR and KPOINTS ok, starting setup
 FFT: planning ...(           1 )
 reading WAVECAR
 entering main loop
       N       E                     dE             d eps       ncg     rms          rms(c)
RMM:   1     0.230155177526E+03    0.23016E+03   -0.15596E+04   144   0.535E+02
RMM:   2    -0.388914812279E+02   -0.26905E+03   -0.25854E+03   144   0.111E+02
RMM:   3    -0.962098917436E+02   -0.57318E+02   -0.55362E+02   144   0.360E+01
RMM:   4    -0.108384121651E+03   -0.12174E+02   -0.11128E+02   144   0.197E+01
RMM:   5    -0.112724504529E+03   -0.43404E+01   -0.32783E+01   144   0.963E+00
RMM:   6    -0.114208109169E+03   -0.14836E+01   -0.10860E+01   144   0.531E+00
RMM:   7    -0.114669697714E+03   -0.46159E+00   -0.36837E+00   144   0.288E+00
RMM:   8    -0.114827711669E+03   -0.15801E+00   -0.13095E+00   144   0.162E+00
RMM:   9    -0.114900177985E+03   -0.72466E-01   -0.65236E-01   374   0.912E-01
RMM:  10    -0.114914988437E+03   -0.14810E-01   -0.96105E-02   334   0.245E-01
RMM:  11    -0.114915515682E+03   -0.52725E-03   -0.30703E-03   283   0.532E-02
RMM:  12    -0.114915524417E+03   -0.87350E-05   -0.70289E-05   209   0.156E-02    0.545E+00
RMM:  13    -0.114317597434E+03    0.59793E+00   -0.49249E-01   311   0.105E+00    0.333E+00
RMM:  14    -0.114053878905E+03    0.26372E+00   -0.16278E-01   322   0.821E-01    0.113E+00
RMM:  15    -0.114017348005E+03    0.36531E-01   -0.25843E-02   336   0.363E-01    0.154E-01
RMM:  16    -0.114015991358E+03    0.13566E-02   -0.24987E-03   336   0.104E-01    0.487E-02
RMM:  17    -0.114015942233E+03    0.49125E-04   -0.28557E-04   259   0.390E-02
   1 F= -.11401594E+03 E0= -.11399085E+03  d E =-.752785E-01
