  31  31   0   0
  0.1706118E+02  0.8087052E-09  0.8087052E-09  0.8087052E-09  0.5000000E-15
  1.000000000000000E-004
  CAR 
 unknown system                          
     13.29739984     -4.93734991  301      7.87415440      1.00000000
     -4.937  0.0000E+00  0.0000E+00
     -4.877  0.0000E+00  0.0000E+00
     -4.816  0.0000E+00  0.0000E+00
     -4.755  0.0000E+00  0.0000E+00
     -4.694  0.0000E+00  0.0000E+00
     -4.633  0.0000E+00  0.0000E+00
     -4.573 -0.6903E-27 -0.4196E-28
     -4.512 -0.8663E-25 -0.5307E-26
     -4.451 -0.9081E-23 -0.5573E-24
     -4.390 -0.7899E-21 -0.4857E-22
     -4.330 -0.5699E-19 -0.3513E-20
     -4.269 -0.3410E-17 -0.2108E-18
     -4.208 -0.1692E-15 -0.1049E-16
     -4.147 -0.6957E-14 -0.4333E-15
     -4.086 -0.2297E-12 -0.1439E-13
     -4.026 -0.6463E-11 -0.4072E-12
     -3.965 -0.1503E-09 -0.9541E-11
     -3.904 -0.2887E-08 -0.1850E-09
     -3.843 -0.4579E-07 -0.2968E-08
     -3.782 -0.5986E-06 -0.3935E-07
     -3.722 -0.6439E-05 -0.4307E-06
     -3.661 -0.5686E-04 -0.3887E-05
     -3.600 -0.4108E-03 -0.2885E-04
     -3.539 -0.2416E-02 -0.1757E-03
     -3.479 -0.1150E-01 -0.8744E-03
     -3.418 -0.4372E-01 -0.3532E-02
     -3.357 -0.1304E+00 -0.1146E-01
     -3.296 -0.2924E+00 -0.2923E-01
     -3.235 -0.4416E+00 -0.5607E-01
     -3.175 -0.2368E+00 -0.7046E-01
     -3.114  0.8817E+00 -0.1687E-01
     -3.053  0.3218E+01  0.1787E+00
     -2.992  0.6149E+01  0.5525E+00
     -2.932  0.8148E+01  0.1048E+01
     -2.871  0.7922E+01  0.1529E+01
     -2.810  0.5624E+01  0.1871E+01
     -2.749  0.2704E+01  0.2035E+01
     -2.688  0.5817E+00  0.2071E+01
     -2.628 -0.3266E+00  0.2051E+01
     -2.567 -0.4268E+00  0.2025E+01
     -2.506 -0.2610E+00  0.2009E+01
     -2.445 -0.1227E+00  0.2002E+01
     -2.384 -0.8858E-01  0.1996E+01
     -2.324 -0.1709E+00  0.1986E+01
     -2.263 -0.3779E+00  0.1963E+01
     -2.202 -0.6265E+00  0.1925E+01
     -2.141 -0.5671E+00  0.1890E+01
     -2.081  0.4632E+00  0.1919E+01
     -2.020  0.3095E+01  0.2107E+01
     -1.959  0.7310E+01  0.2551E+01
     -1.898  0.1215E+02  0.3290E+01
     -1.837  0.1616E+02  0.4272E+01
     -1.777  0.1807E+02  0.5371E+01
     -1.716  0.1721E+02  0.6417E+01
     -1.655  0.1378E+02  0.7254E+01
     -1.594  0.8884E+01  0.7794E+01
     -1.534  0.4204E+01  0.8050E+01
     -1.473  0.1020E+01  0.8112E+01
     -1.412 -0.4140E+00  0.8087E+01
     -1.351 -0.6681E+00  0.8046E+01
     -1.290 -0.4778E+00  0.8017E+01
     -1.230 -0.3094E+00  0.7998E+01
     -1.169 -0.3353E+00  0.7978E+01
     -1.108 -0.5373E+00  0.7945E+01
     -1.047 -0.6727E+00  0.7904E+01
     -0.986 -0.1615E+00  0.7895E+01
     -0.926  0.1751E+01  0.8001E+01
     -0.865  0.5350E+01  0.8326E+01
     -0.804  0.9832E+01  0.8924E+01
     -0.743  0.1359E+02  0.9750E+01
     -0.683  0.1539E+02  0.1069E+02
     -0.622  0.1517E+02  0.1161E+02
     -0.561  0.1360E+02  0.1243E+02
     -0.500  0.1122E+02  0.1312E+02
     -0.439  0.8221E+01  0.1362E+02
     -0.379  0.4985E+01  0.1392E+02
     -0.318  0.2186E+01  0.1405E+02
     -0.257  0.3845E+00  0.1407E+02
     -0.196 -0.3849E+00  0.1405E+02
     -0.136 -0.5384E+00  0.1402E+02
     -0.075 -0.5703E+00  0.1398E+02
     -0.014 -0.7521E+00  0.1394E+02
      0.047 -0.9562E+00  0.1388E+02
      0.108 -0.5300E+00  0.1385E+02
      0.168  0.1573E+01  0.1394E+02
      0.229  0.6094E+01  0.1431E+02
      0.290  0.1249E+02  0.1507E+02
      0.351  0.1872E+02  0.1621E+02
      0.412  0.2239E+02  0.1757E+02
      0.472  0.2237E+02  0.1893E+02
      0.533  0.1930E+02  0.2010E+02
      0.594  0.1471E+02  0.2100E+02
      0.655  0.9871E+01  0.2160E+02
      0.715  0.5552E+01  0.2194E+02
      0.776  0.2265E+01  0.2207E+02
      0.837  0.2922E+00  0.2209E+02
      0.898 -0.5134E+00  0.2206E+02
      0.959 -0.6732E+00  0.2202E+02
      1.019 -0.7696E+00  0.2197E+02
      1.080 -0.1134E+01  0.2190E+02
      1.141 -0.1555E+01  0.2181E+02
      1.202 -0.9639E+00  0.2175E+02
      1.262  0.2455E+01  0.2190E+02
      1.323  0.9986E+01  0.2251E+02
      1.384  0.2043E+02  0.2375E+02
      1.445  0.2961E+02  0.2555E+02
      1.506  0.3291E+02  0.2755E+02
      1.566  0.2895E+02  0.2931E+02
      1.627  0.2076E+02  0.3057E+02
      1.688  0.1317E+02  0.3137E+02
      1.749  0.9204E+01  0.3193E+02
      1.810  0.8589E+01  0.3245E+02
      1.870  0.8969E+01  0.3300E+02
      1.931  0.8207E+01  0.3350E+02
      1.992  0.5852E+01  0.3385E+02
      2.053  0.2927E+01  0.3403E+02
      2.113  0.6594E+00  0.3407E+02
      2.174 -0.5228E+00  0.3404E+02
      2.235 -0.9409E+00  0.3398E+02
      2.296 -0.9639E+00  0.3392E+02
      2.357 -0.4473E+00  0.3390E+02
      2.417  0.1232E+01  0.3397E+02
      2.478  0.4580E+01  0.3425E+02
      2.539  0.9279E+01  0.3481E+02
      2.600  0.1404E+02  0.3567E+02
      2.660  0.1721E+02  0.3671E+02
      2.721  0.1770E+02  0.3779E+02
      2.782  0.1548E+02  0.3873E+02
      2.843  0.1146E+02  0.3943E+02
      2.904  0.6962E+01  0.3985E+02
      2.964  0.3182E+01  0.4004E+02
      3.025  0.7495E+00  0.4009E+02
      3.086 -0.3918E+00  0.4006E+02
      3.147 -0.7719E+00  0.4002E+02
      3.208 -0.9958E+00  0.3996E+02
      3.268 -0.1335E+01  0.3988E+02
      3.329 -0.1378E+01  0.3979E+02
      3.390  0.1135E+00  0.3980E+02
      3.451  0.4703E+01  0.4008E+02
      3.511  0.1296E+02  0.4087E+02
      3.572  0.2318E+02  0.4228E+02
      3.633  0.3162E+02  0.4420E+02
      3.694  0.3466E+02  0.4631E+02
      3.755  0.3120E+02  0.4821E+02
      3.815  0.2330E+02  0.4962E+02
      3.876  0.1468E+02  0.5051E+02
      3.937  0.8286E+01  0.5102E+02
      3.998  0.5024E+01  0.5132E+02
      4.058  0.3922E+01  0.5156E+02
      4.119  0.3360E+01  0.5177E+02
      4.180  0.2287E+01  0.5190E+02
      4.241  0.6447E+00  0.5194E+02
      4.302 -0.9518E+00  0.5189E+02
      4.362 -0.1555E+01  0.5179E+02
      4.423  0.1428E+00  0.5180E+02
      4.484  0.5545E+01  0.5214E+02
      4.545  0.1501E+02  0.5305E+02
      4.606  0.2662E+02  0.5467E+02
      4.666  0.3640E+02  0.5688E+02
      4.727  0.4043E+02  0.5934E+02
      4.788  0.3757E+02  0.6162E+02
      4.849  0.3037E+02  0.6347E+02
      4.909  0.2327E+02  0.6488E+02
      4.970  0.1936E+02  0.6606E+02
      5.031  0.1835E+02  0.6717E+02
      5.092  0.1759E+02  0.6824E+02
      5.153  0.1484E+02  0.6914E+02
      5.213  0.1002E+02  0.6975E+02
      5.274  0.4858E+01  0.7005E+02
      5.335  0.1060E+01  0.7011E+02
      5.396 -0.8561E+00  0.7006E+02
      5.456 -0.1343E+01  0.6998E+02
      5.517 -0.8349E+00  0.6993E+02
      5.578  0.7862E+00  0.6998E+02
      5.639  0.3785E+01  0.7021E+02
      5.700  0.7755E+01  0.7068E+02
      5.760  0.1136E+02  0.7137E+02
      5.821  0.1307E+02  0.7216E+02
      5.882  0.1224E+02  0.7291E+02
      5.943  0.9746E+01  0.7350E+02
      6.003  0.7431E+01  0.7395E+02
      6.064  0.6738E+01  0.7436E+02
      6.125  0.7445E+01  0.7481E+02
      6.186  0.7900E+01  0.7529E+02
      6.247  0.6720E+01  0.7570E+02
      6.307  0.4083E+01  0.7595E+02
      6.368  0.1254E+01  0.7603E+02
      6.429 -0.7677E+00  0.7598E+02
      6.490 -0.1690E+01  0.7588E+02
      6.551 -0.1229E+01  0.7580E+02
      6.611  0.1499E+01  0.7589E+02
      6.672  0.7429E+01  0.7635E+02
      6.733  0.1628E+02  0.7733E+02
      6.794  0.2598E+02  0.7891E+02
      6.854  0.3365E+02  0.8096E+02
      6.915  0.3717E+02  0.8322E+02
      6.976  0.3595E+02  0.8540E+02
      7.037  0.3067E+02  0.8727E+02
      7.098  0.2288E+02  0.8866E+02
      7.158  0.1451E+02  0.8954E+02
      7.219  0.7361E+01  0.8999E+02
      7.280  0.2470E+01  0.9014E+02
      7.341 -0.1066E+00  0.9013E+02
      7.401 -0.1058E+01  0.9007E+02
      7.462 -0.1289E+01  0.8999E+02
      7.523 -0.1361E+01  0.8991E+02
      7.584 -0.1123E+01  0.8984E+02
      7.645  0.3063E+00  0.8986E+02
      7.705  0.4014E+01  0.9010E+02
      7.766  0.1035E+02  0.9073E+02
      7.827  0.1820E+02  0.9184E+02
      7.888  0.2533E+02  0.9338E+02
      7.949  0.2978E+02  0.9519E+02
      8.009  0.3133E+02  0.9709E+02
      8.070  0.3147E+02  0.9900E+02
      8.131  0.3165E+02  0.1009E+03
      8.192  0.3148E+02  0.1028E+03
      8.252  0.2919E+02  0.1046E+03
      8.313  0.2384E+02  0.1061E+03
      8.374  0.1662E+02  0.1071E+03
      8.435  0.9786E+01  0.1077E+03
      8.496  0.4808E+01  0.1080E+03
      8.556  0.1797E+01  0.1081E+03
      8.617  0.2087E+00  0.1081E+03
      8.678 -0.5177E+00  0.1080E+03
      8.739 -0.8475E+00  0.1080E+03
      8.799 -0.1116E+01  0.1079E+03
      8.860 -0.1276E+01  0.1079E+03
      8.921 -0.6119E+00  0.1078E+03
      8.982  0.2100E+01  0.1079E+03
      9.043  0.7697E+01  0.1084E+03
      9.103  0.1552E+02  0.1094E+03
      9.164  0.2333E+02  0.1108E+03
      9.225  0.2866E+02  0.1125E+03
      9.286  0.3027E+02  0.1144E+03
      9.347  0.2836E+02  0.1161E+03
      9.407  0.2391E+02  0.1175E+03
      9.468  0.1807E+02  0.1186E+03
      9.529  0.1196E+02  0.1194E+03
      9.590  0.6402E+01  0.1197E+03
      9.650  0.2071E+01  0.1199E+03
      9.711 -0.1026E+00  0.1199E+03
      9.772  0.1203E+01  0.1199E+03
      9.833  0.6934E+01  0.1204E+03
      9.894  0.1637E+02  0.1214E+03
      9.954  0.2659E+02  0.1230E+03
     10.015  0.3382E+02  0.1250E+03
     10.076  0.3559E+02  0.1272E+03
     10.137  0.3197E+02  0.1291E+03
     10.197  0.2515E+02  0.1307E+03
     10.258  0.1817E+02  0.1318E+03
     10.319  0.1358E+02  0.1326E+03
     10.380  0.1236E+02  0.1333E+03
     10.441  0.1362E+02  0.1342E+03
     10.501  0.1543E+02  0.1351E+03
     10.562  0.1590E+02  0.1361E+03
     10.623  0.1401E+02  0.1369E+03
     10.684  0.1009E+02  0.1375E+03
     10.745  0.5620E+01  0.1379E+03
     10.805  0.2404E+01  0.1380E+03
     10.866  0.1535E+01  0.1381E+03
     10.927  0.2963E+01  0.1383E+03
     10.988  0.5828E+01  0.1387E+03
     11.048  0.9142E+01  0.1392E+03
     11.109  0.1223E+02  0.1400E+03
     11.170  0.1467E+02  0.1408E+03
     11.231  0.1589E+02  0.1418E+03
     11.292  0.1509E+02  0.1427E+03
     11.352  0.1195E+02  0.1435E+03
     11.413  0.7364E+01  0.1439E+03
     11.474  0.3064E+01  0.1441E+03
     11.535  0.3615E+00  0.1441E+03
     11.595 -0.6365E+00  0.1441E+03
     11.656 -0.6384E+00  0.1440E+03
     11.717 -0.3617E+00  0.1440E+03
     11.778 -0.1479E+00  0.1440E+03
     11.839 -0.4668E-01  0.1440E+03
     11.899 -0.1169E-01  0.1440E+03
     11.960 -0.2360E-02  0.1440E+03
     12.021 -0.3872E-03  0.1440E+03
     12.082 -0.5193E-04  0.1440E+03
     12.143 -0.5715E-05  0.1440E+03
     12.203 -0.5176E-06  0.1440E+03
     12.264 -0.3865E-07  0.1440E+03
     12.325 -0.2384E-08  0.1440E+03
     12.386 -0.1215E-09  0.1440E+03
     12.446 -0.5122E-11  0.1440E+03
     12.507 -0.1827E-12  0.1440E+03
     12.568 -0.3653E-14  0.1440E+03
     12.629  0.0000E+00  0.1440E+03
     12.690  0.0000E+00  0.1440E+03
     12.750  0.0000E+00  0.1440E+03
     12.811  0.0000E+00  0.1440E+03
     12.872  0.0000E+00  0.1440E+03
     12.933  0.0000E+00  0.1440E+03
     12.993  0.0000E+00  0.1440E+03
     13.054  0.0000E+00  0.1440E+03
     13.115  0.0000E+00  0.1440E+03
     13.176  0.0000E+00  0.1440E+03
     13.237  0.0000E+00  0.1440E+03
     13.297  0.0000E+00  0.1440E+03
