   31   31    1    1
  0.1706118E+02  0.8087052E-09  0.8087052E-09  0.8087052E-09  0.5000000E-15
  1.000000000000000E-004
  CAR 
 unknown system                          
   93    2   72
 
  0.2500000E+00  0.2500000E+00  0.2500000E+00  0.5000000E+00
   1       -2.936997
   2       -1.905462
   3       -1.820806
   4       -1.662974
   5       -0.774804
   6       -0.714812
   7       -0.468906
   8        0.314856
   9        0.366355
  10        0.416800
  11        0.628222
  12        1.405929
  13        1.427693
  14        1.463652
  15        1.526462
  16        1.731843
  17        1.854995
  18        2.588339
  19        2.657986
  20        2.745551
  21        3.547083
  22        3.595970
  23        3.647600
  24        3.695245
  25        3.731014
  26        4.072508
  27        4.593974
  28        4.614112
  29        4.663637
  30        4.744919
  31        4.750789
  32        4.774197
  33        4.903997
  34        5.071427
  35        5.097138
  36        5.754546
  37        5.845367
  38        6.162424
  39        6.755171
  40        6.823256
  41        6.839454
  42        6.913033
  43        6.978293
  44        7.000261
  45        7.139409
  46        7.791526
  47        7.914324
  48        7.917925
  49        7.948814
  50        8.026953
  51        8.119626
  52        8.208717
  53        8.245658
  54        8.431332
  55        9.096406
  56        9.192209
  57        9.240032
  58        9.340431
  59        9.347801
  60        9.459271
  61        9.940171
  62        9.986822
  63        9.990576
  64       10.092356
  65       10.105871
  66       10.190417
  67       10.369128
  68       10.509059
  69       10.580658
  70       10.970672
  71       11.121623
  72       11.284746
 
 -0.2500000E+00  0.2500000E+00  0.2500000E+00  0.5000000E+00
   1       -2.937350
   2       -1.914981
   3       -1.740882
   4       -1.739878
   5       -0.792012
   6       -0.627932
   7       -0.553481
   8        0.305434
   9        0.427101
  10        0.476961
  11        0.563767
  12        1.413024
  13        1.452832
  14        1.455997
  15        1.550443
  16        1.563028
  17        1.898851
  18        2.543952
  19        2.698742
  20        2.838598
  21        3.569832
  22        3.603252
  23        3.688886
  24        3.695280
  25        3.776124
  26        3.873454
  27        4.566525
  28        4.649704
  29        4.659728
  30        4.707837
  31        4.771117
  32        4.788596
  33        4.968105
  34        5.011144
  35        5.144276
  36        5.722200
  37        5.906995
  38        6.152625
  39        6.732390
  40        6.804127
  41        6.836830
  42        6.909647
  43        6.974581
  44        6.996273
  45        7.084859
  46        7.811022
  47        7.866217
  48        7.963602
  49        8.023622
  50        8.123934
  51        8.152504
  52        8.227791
  53        8.233299
  54        8.302400
  55        9.131233
  56        9.176186
  57        9.187148
  58        9.323487
  59        9.356529
  60        9.539154
  61        9.897610
  62        9.947524
  63       10.013948
  64       10.028614
  65       10.149481
  66       10.172423
  67       10.370333
  68       10.512622
  69       10.649724
  70       11.102546
  71       11.247222
  72       11.297400
