<?xml version="1.0" encoding="ISO-8859-1"?>
<modeling>
 <generator>
  <i name="program" type="string">vasp </i>
  <i name="version" type="string">5.2.2  </i>
  <i name="subversion" type="string">15Apr09 complex  parallel </i>
  <i name="platform" type="string">LinuxIFC </i>
  <i name="date" type="string">2017 03 17 </i>
  <i name="time" type="string">11:35:25 </i>
 </generator>
 <incar>
  <i type="string" name="PREC">accurate</i>
  <i type="int" name="IALGO">    48</i>
  <i type="int" name="IBRION">    -1</i>
  <i name="EDIFFG">      0.05000000</i>
  <i type="int" name="NSW">     0</i>
  <i type="int" name="ISIF">     2</i>
  <i name="ENCUT">    300.00000000</i>
  <i name="NELECT">     93.00000000</i>
  <i type="int" name="ISMEAR">     1</i>
  <i name="SIGMA">      0.20000000</i>
  <i type="logical" name="LWAVE"> F  </i>
  <i type="logical" name="LCHARG"> F  </i>
  <i type="logical" name="LPEAD"> F  </i>
  <i type="logical" name="LCALCPOL"> F  </i>
  <i type="logical" name="LCALCEPS"> F  </i>
  <v name="EFIELD_PEAD">      0.00000000      0.00000000      0.00000000</v>
  <i type="logical" name="LEFG"> F  </i>
 </incar>
 <kpoints>
  <generation param="Monkhorst-Pack">
   <v type="int" name="divisions">       2        2        2 </v>
   <v name="usershift">      0.00000000       0.00000000       0.00000000 </v>
   <v name="genvec1">      0.50000000       0.00000000       0.00000000 </v>
   <v name="genvec2">      0.00000000       0.50000000       0.00000000 </v>
   <v name="genvec3">      0.00000000       0.00000000       0.50000000 </v>
   <v name="shift">      0.50000000       0.50000000       0.50000000 </v>
  </generation>
  <varray name="kpointlist" >
   <v>       0.25000000       0.25000000       0.25000000 </v>
   <v>      -0.25000000       0.25000000       0.25000000 </v>
  </varray>
  <varray name="weights" >
   <v>       0.50000000 </v>
   <v>       0.50000000 </v>
  </varray>
 </kpoints>
 <parameters>
  <separator name="general" >
   <i type="string" name="SYSTEM">unknown system</i>
   <i type="logical" name="LCOMPAT"> F  </i>
  </separator>
  <separator name="electronic" >
   <i type="string" name="PREC">accura</i>
   <i name="ENMAX">    300.00000000</i>
   <i name="ENAUG">    291.05200000</i>
   <i name="EDIFF">      0.00010000</i>
   <i type="int" name="IALGO">    48</i>
   <i type="int" name="IWAVPR">    10</i>
   <i type="int" name="NBANDS">    72</i>
   <i name="NELECT">     93.00000000</i>
   <separator name="electronic smearing" >
    <i type="int" name="ISMEAR">     1</i>
    <i name="SIGMA">      0.20000000</i>
   </separator>
   <separator name="electronic projectors" >
    <i type="logical" name="LREAL"> F  </i>
    <v name="ROPT">      0.00000000</v>
    <i type="int" name="LMAXPAW">  -100</i>
    <i type="int" name="LMAXMIX">     2</i>
   </separator>
   <separator name="electronic startup" >
    <i type="int" name="ISTART">     0</i>
    <i type="int" name="ICHARG">     2</i>
    <i type="int" name="INIWAV">     1</i>
   </separator>
   <separator name="electronic spin" >
    <i type="int" name="ISPIN">     1</i>
    <i type="logical" name="LNONCOLLINEAR"> F  </i>
    <v name="MAGMOM">      1.00000000      1.00000000      1.00000000      1.00000000      1.00000000      1.00000000      1.00000000      1.00000000      1.00000000      1.00000000      1.00000000      1.00000000      1.00000000      1.00000000      1.00000000      1.00000000      1.00000000      1.00000000      1.00000000      1.00000000
      1.00000000      1.00000000      1.00000000      1.00000000      1.00000000      1.00000000      1.00000000      1.00000000      1.00000000      1.00000000      1.00000000</v>
    <i name="NUPDOWN">     -1.00000000</i>
    <i type="logical" name="LSORBIT"> F  </i>
    <v name="SAXIS">      0.00000000      0.00000000      1.00000000</v>
    <i type="logical" name="LSPIRAL"> F  </i>
    <v name="QSPIRAL">      0.00000000      0.00000000      0.00000000</v>
    <i type="logical" name="LZEROZ"> F  </i>
   </separator>
   <separator name="electronic exchange-correlation" >
    <i type="logical" name="LASPH"> F  </i>
    <i type="logical" name="LMETAGGA"> F  </i>
   </separator>
   <separator name="electronic convergence" >
    <i type="int" name="NELM">    60</i>
    <i type="int" name="NELMDL">   -12</i>
    <i type="int" name="NELMIN">     2</i>
    <i name="ENINI">    300.00000000</i>
    <separator name="electronic convergence detail" >
     <i type="logical" name="LDIAG"> T  </i>
     <i name="WEIMIN">      0.00000000</i>
     <i name="EBREAK">      0.00000040</i>
     <i name="DEPER">      0.30000000</i>
     <i type="int" name="NRMM">     4</i>
     <i name="TIME">      0.40000000</i>
    </separator>
   </separator>
   <separator name="electronic mixer" >
    <i name="AMIX">      0.40000000</i>
    <i name="BMIX">      1.00000000</i>
    <i name="AMIN">      0.10000000</i>
    <i name="AMIX_MAG">      1.60000000</i>
    <i name="BMIX_MAG">      1.00000000</i>
    <separator name="electronic mixer details" >
     <i type="int" name="IMIX">     4</i>
     <i type="int" name="MAXMIX">   -45</i>
     <i name="WC">    100.00000000</i>
     <i type="int" name="INIMIX">     1</i>
     <i type="int" name="MIXPRE">     1</i>
     <i type="int" name="MREMOVE">     5</i>
    </separator>
   </separator>
   <separator name="electronic dipolcorrection" >
    <i type="logical" name="LDIPOL"> F  </i>
    <i type="logical" name="LMONO"> F  </i>
    <i type="int" name="IDIPOL">     0</i>
    <i name="EPSILON">      1.00000000</i>
    <v name="DIPOL">   -100.00000000   -100.00000000   -100.00000000</v>
    <i name="EFIELD">      0.00000000</i>
   </separator>
  </separator>
  <separator name="grids" >
   <i type="int" name="NGX">    48</i>
   <i type="int" name="NGY">    48</i>
   <i type="int" name="NGZ">    48</i>
   <i type="int" name="NGXF">    96</i>
   <i type="int" name="NGYF">    96</i>
   <i type="int" name="NGZF">    96</i>
   <i type="logical" name="ADDGRID"> F  </i>
  </separator>
  <separator name="ionic" >
   <i type="int" name="NSW">     0</i>
   <i type="int" name="IBRION">    -1</i>
   <i type="int" name="ISIF">     2</i>
   <i name="PSTRESS">      0.00000000</i>
   <i name="EDIFFG">      0.05000000</i>
   <i type="int" name="NFREE">     0</i>
   <i name="POTIM">      0.50000000</i>
   <i name="SMASS">     -3.00000000</i>
  </separator>
  <separator name="ionic md" >
   <i name="TEBEG">      0.00010000</i>
   <i name="TEEND">      0.00010000</i>
   <i type="int" name="NBLOCK">     1</i>
   <i type="int" name="KBLOCK">     1</i>
   <i type="int" name="NPACO">   256</i>
   <i name="APACO">     16.00000000</i>
  </separator>
  <separator name="symmetry" >
   <i type="int" name="ISYM">     2</i>
   <i name="SYMPREC">      0.00001000</i>
  </separator>
  <separator name="dos" >
   <i type="logical" name="LORBIT"> F  </i>
   <v name="RWIGS">     -1.00000000</v>
   <i type="int" name="NEDOS">   301</i>
   <i name="EMIN">     10.00000000</i>
   <i name="EMAX">    -10.00000000</i>
   <i name="EFERMI">      0.00000000</i>
  </separator>
  <separator name="writing" >
   <i type="int" name="NWRITE">     2</i>
   <i type="logical" name="LWAVE"> F  </i>
   <i type="logical" name="LCHARG"> F  </i>
   <i type="logical" name="LPARD"> F  </i>
   <i type="logical" name="LVTOT"> F  </i>
   <i type="logical" name="LELF"> F  </i>
   <i type="logical" name="LOPTICS"> F  </i>
   <v name="STM">      0.00000000      0.00000000      0.00000000      0.00000000      0.00000000</v>
  </separator>
  <separator name="performance" >
   <i type="int" name="NPAR">    12</i>
   <i type="int" name="NSIM">     4</i>
   <i type="int" name="NBLK">    32</i>
   <i type="logical" name="LPLANE"> T  </i>
   <i type="logical" name="LSCALAPACK"> F  </i>
   <i type="logical" name="LSCAAWARE"> F  </i>
   <i type="logical" name="LSCALU"> F  </i>
   <i type="logical" name="LASYNC"> F  </i>
  </separator>
  <separator name="miscellaneous" >
   <i type="int" name="IDIOT">     3</i>
   <i type="logical" name="LMUSIC"> F  </i>
   <v name="POMASS">     26.98200000</v>
   <i type="logical" name="LCORR"> T  </i>
  </separator>
  <i type="logical" name="LREAL_COMPAT"> F  </i>
  <i type="logical" name="GGA_COMPAT"> T  </i>
  <i type="logical" name="LBERRY"> F  </i>
  <i type="int" name="ICORELEVEL">     0</i>
  <i type="logical" name="LDAU"> F  </i>
  <i type="int" name="I_CONSTRAINED_M">     0</i>
  <separator name="electronic exchange-correlation" >
   <i type="string" name="GGA">--</i>
   <i type="int" name="VOSKOWN">     0</i>
   <i type="logical" name="LHFCALC"> F  </i>
   <i type="logical" name="LHFONE"> F  </i>
   <i type="logical" name="LRHFCALC"> F  </i>
   <i type="logical" name="LTHOMAS"> F  </i>
   <i type="logical" name="LMODELHF"> F  </i>
   <i name="ENCUTFOCK">      0.00000000</i>
   <i name="ENCUT4O">     -1.00000000</i>
   <i type="int" name="EXXOEP">     0</i>
   <i type="int" name="FOURORBIT">     0</i>
   <i name="AEXX">      0.00000000</i>
   <i name="HFALPHA">      0.00000000</i>
   <i name="ALDAX">      1.00000000</i>
   <i name="AGGAX">      1.00000000</i>
   <i name="ALDAC">      1.00000000</i>
   <i name="AGGAC">      1.00000000</i>
   <i type="int" name="NKREDX">     1</i>
   <i type="int" name="NKREDY">     1</i>
   <i type="int" name="NKREDZ">     1</i>
   <i type="logical" name="SHIFTRED"> F  </i>
   <i type="logical" name="ODDONLY"> F  </i>
   <i type="logical" name="EVENONLY"> F  </i>
   <i type="int" name="LMAXFOCK">     0</i>
   <i type="int" name="NMAXFOCKAE">     0</i>
   <i name="HFSCREEN">      0.00000000</i>
   <i name="HFSCREENC">      0.00000000</i>
  </separator>
  <separator name="model GW" >
   <i type="int" name="MODEL_GW">     0</i>
   <i name="MODEL_EPS0">     10.23670678</i>
   <i name="MODEL_ALPHA">      1.00000000</i>
  </separator>
  <separator name="linear response parameters" >
   <i type="logical" name="LEPSILON"> F  </i>
   <i type="logical" name="LRPA"> F  </i>
   <i type="logical" name="LNABLA"> F  </i>
   <i type="logical" name="LVEL"> F  </i>
   <i type="int" name="KINTER">     0</i>
   <i name="CSHIFT">      0.10000000</i>
   <i name="OMEGAMAX">     -1.00000000</i>
  </separator>
  <separator name="orbital magnetization" >
   <i type="logical" name="ORBITALMAG"> F  </i>
   <i type="logical" name="LMAGBLOCH"> F  </i>
   <i type="logical" name="LCHIMAG"> F  </i>
   <i type="logical" name="LGAUGE"> T  </i>
   <i type="int" name="MAGATOM">     0</i>
   <v name="MAGDIPOL">      0.00000000      0.00000000      0.00000000</v>
   <v name="AVECCONST">      0.00000000      0.00000000      0.00000000</v>
  </separator>
  <separator name="response functions" >
   <i type="logical" name="LRPA"> T  </i>
   <i type="logical" name="LTCTE"> F  </i>
   <i type="logical" name="LTETE"> F  </i>
   <i type="logical" name="L2ORDER"> F  </i>
   <i type="logical" name="LGWLF"> F  </i>
   <i name="ENCUTGW">    200.00000000</i>
   <i name="ENCUTGWSOFT">     -2.00000000</i>
   <i name="ENCUTLF">     -1.00000000</i>
   <i type="int" name="LMAXMP2">    -1</i>
   <i name="SCISSOR">      0.00000000</i>
   <i type="int" name="NOMEGA">     0</i>
   <i type="int" name="NOMEGAR">     0</i>
   <i type="int" name="NBANDSGW">    -1</i>
   <i type="int" name="NBANDSLF">    -1</i>
   <i type="int" name="NELM">     1</i>
   <i type="int" name="DIM">     3</i>
   <i type="int" name="ANTIRES">     0</i>
   <i type="logical" name="LUSEW"> F  </i>
   <i name="OMEGAMAX">    -30.00000000</i>
   <i name="OMEGATL">   -200.00000000</i>
   <i type="int" name="OMEGAGRID">     0</i>
   <i name="CSHIFT">     -0.10000000</i>
   <i type="logical" name="SELFENERGY"> F  </i>
   <i type="logical" name="LSPECTRAL"> F  </i>
   <i type="logical" name="ODDONLYGW"> F  </i>
   <i type="logical" name="EVENONLYGW"> F  </i>
   <i type="int" name="NKREDLFX">     1</i>
   <i type="int" name="NKREDLFY">     1</i>
   <i type="int" name="NKREDLFZ">     1</i>
   <i type="int" name="MAXMEM">  1024</i>
   <i type="int" name="TELESCOPE">     0</i>
  </separator>
 </parameters>
 <atominfo>
  <atoms>      31 </atoms>
  <types>       1 </types>
  <array name="atoms" >
   <dimension dim="1">ion</dimension>
   <field type="string">element</field>
   <field type="int">atomtype</field>
   <set>
    <rc><c>Al</c><c>   1</c></rc>
    <rc><c>Al</c><c>   1</c></rc>
    <rc><c>Al</c><c>   1</c></rc>
    <rc><c>Al</c><c>   1</c></rc>
    <rc><c>Al</c><c>   1</c></rc>
    <rc><c>Al</c><c>   1</c></rc>
    <rc><c>Al</c><c>   1</c></rc>
    <rc><c>Al</c><c>   1</c></rc>
    <rc><c>Al</c><c>   1</c></rc>
    <rc><c>Al</c><c>   1</c></rc>
    <rc><c>Al</c><c>   1</c></rc>
    <rc><c>Al</c><c>   1</c></rc>
    <rc><c>Al</c><c>   1</c></rc>
    <rc><c>Al</c><c>   1</c></rc>
    <rc><c>Al</c><c>   1</c></rc>
    <rc><c>Al</c><c>   1</c></rc>
    <rc><c>Al</c><c>   1</c></rc>
    <rc><c>Al</c><c>   1</c></rc>
    <rc><c>Al</c><c>   1</c></rc>
    <rc><c>Al</c><c>   1</c></rc>
    <rc><c>Al</c><c>   1</c></rc>
    <rc><c>Al</c><c>   1</c></rc>
    <rc><c>Al</c><c>   1</c></rc>
    <rc><c>Al</c><c>   1</c></rc>
    <rc><c>Al</c><c>   1</c></rc>
    <rc><c>Al</c><c>   1</c></rc>
    <rc><c>Al</c><c>   1</c></rc>
    <rc><c>Al</c><c>   1</c></rc>
    <rc><c>Al</c><c>   1</c></rc>
    <rc><c>Al</c><c>   1</c></rc>
    <rc><c>Al</c><c>   1</c></rc>
   </set>
  </array>
  <array name="atomtypes" >
   <dimension dim="1">type</dimension>
   <field type="int">atomspertype</field>
   <field type="string">element</field>
   <field>mass</field>
   <field>valence</field>
   <field type="string">pseudopotential</field>
   <set>
    <rc><c>  31</c><c>Al</c><c>     26.98200000</c><c>      3.00000000</c><c> PAW_PBE Al 04Jan2001                   </c></rc>
   </set>
  </array>
 </atominfo>
 <structure name="initialpos" >
  <crystal>
   <varray name="basis" >
    <v>       8.08705200       0.00000000       0.00000000 </v>
    <v>       0.00000000       8.08705200       0.00000000 </v>
    <v>       0.00000000       0.00000000       8.08705200 </v>
   </varray>
   <i name="volume">    528.89651690 </i>
   <varray name="rec_basis" >
    <v>       0.12365445       0.00000000       0.00000000 </v>
    <v>       0.00000000       0.12365445       0.00000000 </v>
    <v>       0.00000000       0.00000000       0.12365445 </v>
   </varray>
  </crystal>
  <varray name="positions" >
   <v>       0.99969100       0.00000000       0.99969100 </v>
   <v>       0.24846600       0.00000000       0.24846600 </v>
   <v>       0.24812100       0.25336800       0.00238000 </v>
   <v>       0.00238000       0.25336800       0.24812100 </v>
   <v>       0.50053500       0.00000000       0.99307300 </v>
   <v>       0.75692600       0.00000000       0.24946600 </v>
   <v>       0.75133600       0.25081000       0.99866300 </v>
   <v>       0.50656300       0.23697200       0.24343500 </v>
   <v>       0.00091700       0.50000000       0.00091700 </v>
   <v>       0.24812100       0.74663200       0.00238000 </v>
   <v>       0.00238000       0.74663200       0.24812100 </v>
   <v>       0.49482900       0.50000000       0.00542100 </v>
   <v>       0.74458100       0.50000000       0.25516900 </v>
   <v>       0.75133600       0.74918900       0.99866300 </v>
   <v>       0.50656300       0.76302900       0.24343500 </v>
   <v>       0.99307300       0.00000000       0.50053500 </v>
   <v>       0.24946600       0.00000000       0.75692600 </v>
   <v>       0.24343500       0.23697200       0.50656300 </v>
   <v>       0.99866300       0.25081000       0.75133600 </v>
   <v>       0.50153500       0.00000000       0.50153500 </v>
   <v>       0.75030800       0.00000000       0.75030800 </v>
   <v>       0.74762200       0.25336600       0.50188000 </v>
   <v>       0.50188000       0.25336600       0.74762200 </v>
   <v>       0.00542100       0.50000000       0.49482900 </v>
   <v>       0.25516900       0.50000000       0.74458100 </v>
   <v>       0.24343500       0.76302900       0.50656300 </v>
   <v>       0.99866300       0.74918900       0.75133600 </v>
   <v>       0.74908500       0.50000000       0.74908500 </v>
   <v>       0.74762200       0.74663400       0.50188000 </v>
   <v>       0.50188000       0.74663400       0.74762200 </v>
   <v>       0.37500000       0.50000000       0.37500000 </v>
  </varray>
 </structure>
 <calculation>
  <scstep>
   <time name="diag">    0.30    0.30</time>
   <time name="diis">    0.70    0.70</time>
   <time name="orth">    0.02    0.02</time>
   <time name="total">    1.20    1.20</time>
   <energy>
    <i name="alphaZ">     -6.10292983 </i>
    <i name="ewald">  -2233.45052967 </i>
    <i name="hartreedc">    -14.87170164 </i>
    <i name="XCdc">   -814.89415827 </i>
    <i name="pawpsdc">   1102.18190231 </i>
    <i name="pawaedc">   -111.56847430 </i>
    <i name="eentropy">     -0.04468970 </i>
    <i name="bandstr">    649.23941456 </i>
    <i name="atom">   1659.66634407 </i>
    <i name="e_fr_energy">    230.15517753 </i>
    <i name="e_wo_entrp">    230.19986723 </i>
    <i name="e_0_energy">    230.17007409 </i>
   </energy>
  </scstep>
  <scstep>
   <time name="diag">    0.31    0.31</time>
   <time name="diis">    0.70    0.70</time>
   <time name="orth">    0.02    0.02</time>
   <time name="total">    1.03    1.03</time>
   <energy>
    <i name="e_fr_energy">    -38.89148123 </i>
    <i name="e_wo_entrp">    -38.92320031 </i>
    <i name="e_0_energy">    -38.90205425 </i>
   </energy>
  </scstep>
  <scstep>
   <time name="diag">    0.30    0.30</time>
   <time name="diis">    0.70    0.70</time>
   <time name="orth">    0.02    0.02</time>
   <time name="total">    1.02    1.03</time>
   <energy>
    <i name="e_fr_energy">    -96.20989174 </i>
    <i name="e_wo_entrp">    -96.27015266 </i>
    <i name="e_0_energy">    -96.22997872 </i>
   </energy>
  </scstep>
  <scstep>
   <time name="diag">    0.31    0.31</time>
   <time name="diis">    0.70    0.70</time>
   <time name="orth">    0.02    0.02</time>
   <time name="total">    1.03    1.03</time>
   <energy>
    <i name="e_fr_energy">   -108.38412165 </i>
    <i name="e_wo_entrp">   -108.28279036 </i>
    <i name="e_0_energy">   -108.35034455 </i>
   </energy>
  </scstep>
  <scstep>
   <time name="diag">    0.30    0.30</time>
   <time name="diis">    0.70    0.70</time>
   <time name="orth">    0.02    0.02</time>
   <time name="total">    1.02    1.02</time>
   <energy>
    <i name="e_fr_energy">   -112.72450453 </i>
    <i name="e_wo_entrp">   -112.66733242 </i>
    <i name="e_0_energy">   -112.70544716 </i>
   </energy>
  </scstep>
  <scstep>
   <time name="diag">    0.30    0.30</time>
   <time name="diis">    0.70    0.70</time>
   <time name="orth">    0.02    0.02</time>
   <time name="total">    1.02    1.03</time>
   <energy>
    <i name="e_fr_energy">   -114.20810917 </i>
    <i name="e_wo_entrp">   -114.15930153 </i>
    <i name="e_0_energy">   -114.19183995 </i>
   </energy>
  </scstep>
  <scstep>
   <time name="diag">    0.30    0.30</time>
   <time name="diis">    0.69    0.69</time>
   <time name="orth">    0.02    0.02</time>
   <time name="total">    1.02    1.02</time>
   <energy>
    <i name="e_fr_energy">   -114.66969771 </i>
    <i name="e_wo_entrp">   -114.62050149 </i>
    <i name="e_0_energy">   -114.65329897 </i>
   </energy>
  </scstep>
  <scstep>
   <time name="diag">    0.31    0.31</time>
   <time name="diis">    0.69    0.69</time>
   <time name="orth">    0.02    0.02</time>
   <time name="total">    1.02    1.02</time>
   <energy>
    <i name="e_fr_energy">   -114.82771167 </i>
    <i name="e_wo_entrp">   -114.77697859 </i>
    <i name="e_0_energy">   -114.81080064 </i>
   </energy>
  </scstep>
  <scstep>
   <time name="diag">    0.30    0.30</time>
   <time name="diis">    1.55    1.58</time>
   <time name="orth">    0.02    0.02</time>
   <time name="total">    1.87    1.90</time>
   <energy>
    <i name="e_fr_energy">   -114.90017798 </i>
    <i name="e_wo_entrp">   -114.85129679 </i>
    <i name="e_0_energy">   -114.88388425 </i>
   </energy>
  </scstep>
  <scstep>
   <time name="diag">    0.30    0.30</time>
   <time name="diis">    1.44    1.44</time>
   <time name="orth">    0.02    0.02</time>
   <time name="total">    1.76    1.77</time>
   <energy>
    <i name="e_fr_energy">   -114.91498844 </i>
    <i name="e_wo_entrp">   -114.86326312 </i>
    <i name="e_0_energy">   -114.89774666 </i>
   </energy>
  </scstep>
  <scstep>
   <time name="diag">    0.30    0.30</time>
   <time name="diis">    1.28    1.28</time>
   <time name="orth">    0.02    0.02</time>
   <time name="total">    1.60    1.60</time>
   <energy>
    <i name="e_fr_energy">   -114.91551568 </i>
    <i name="e_wo_entrp">   -114.86365672 </i>
    <i name="e_0_energy">   -114.89822936 </i>
   </energy>
  </scstep>
  <scstep>
   <time name="diag">    0.30    0.30</time>
   <time name="diis">    1.09    1.09</time>
   <time name="orth">    0.02    0.02</time>
   <time name="total">    1.61    1.61</time>
   <energy>
    <i name="e_fr_energy">   -114.91552442 </i>
    <i name="e_wo_entrp">   -114.86366482 </i>
    <i name="e_0_energy">   -114.89823788 </i>
   </energy>
  </scstep>
  <scstep>
   <time name="diag">    0.30    0.30</time>
   <time name="diis">    1.36    1.36</time>
   <time name="orth">    0.02    0.02</time>
   <time name="total">    2.03    2.04</time>
   <energy>
    <i name="e_fr_energy">   -114.31759743 </i>
    <i name="e_wo_entrp">   -114.24282209 </i>
    <i name="e_0_energy">   -114.29267232 </i>
   </energy>
  </scstep>
  <scstep>
   <time name="diag">    0.30    0.30</time>
   <time name="diis">    1.44    1.44</time>
   <time name="orth">    0.02    0.02</time>
   <time name="total">    2.12    2.12</time>
   <energy>
    <i name="e_fr_energy">   -114.05387890 </i>
    <i name="e_wo_entrp">   -113.97815309 </i>
    <i name="e_0_energy">   -114.02863697 </i>
   </energy>
  </scstep>
  <scstep>
   <time name="diag">    0.30    0.30</time>
   <time name="diis">    1.47    1.47</time>
   <time name="orth">    0.02    0.02</time>
   <time name="total">    2.15    2.15</time>
   <energy>
    <i name="e_fr_energy">   -114.01734800 </i>
    <i name="e_wo_entrp">   -113.94148514 </i>
    <i name="e_0_energy">   -113.99206038 </i>
   </energy>
  </scstep>
  <scstep>
   <time name="diag">    0.30    0.30</time>
   <time name="diis">    1.46    1.47</time>
   <time name="orth">    0.02    0.02</time>
   <time name="total">    2.14    2.14</time>
   <energy>
    <i name="e_fr_energy">   -114.01599136 </i>
    <i name="e_wo_entrp">   -113.94060000 </i>
    <i name="e_0_energy">   -113.99086090 </i>
   </energy>
  </scstep>
  <scstep>
   <time name="diag">    0.30    0.30</time>
   <time name="diis">    1.21    1.21</time>
   <time name="orth">    0.02    0.02</time>
   <time name="total">    1.68    1.69</time>
   <energy>
    <i name="alphaZ">     -6.10292983 </i>
    <i name="ewald">  -2233.45052967 </i>
    <i name="hartreedc">    -17.29855254 </i>
    <i name="XCdc">   -811.45520764 </i>
    <i name="pawpsdc">   1107.94039598 </i>
    <i name="pawaedc">   -117.79175677 </i>
    <i name="eentropy">     -0.07527853 </i>
    <i name="bandstr">    304.55157270 </i>
    <i name="atom">   1659.66634407 </i>
    <i name="e_fr_energy">   -114.01594223 </i>
    <i name="e_wo_entrp">   -113.94066370 </i>
    <i name="e_0_energy">   -113.99084939 </i>
   </energy>
  </scstep>
  <structure>
   <crystal>
    <varray name="basis" >
     <v>       8.08705200       0.00000000       0.00000000 </v>
     <v>       0.00000000       8.08705200       0.00000000 </v>
     <v>       0.00000000       0.00000000       8.08705200 </v>
    </varray>
    <i name="volume">    528.89651690 </i>
    <varray name="rec_basis" >
     <v>       0.12365445       0.00000000       0.00000000 </v>
     <v>       0.00000000       0.12365445       0.00000000 </v>
     <v>       0.00000000       0.00000000       0.12365445 </v>
    </varray>
   </crystal>
   <varray name="positions" >
    <v>       0.99969100       0.00000000       0.99969100 </v>
    <v>       0.24846600       0.00000000       0.24846600 </v>
    <v>       0.24812100       0.25336800       0.00238000 </v>
    <v>       0.00238000       0.25336800       0.24812100 </v>
    <v>       0.50053500       0.00000000       0.99307300 </v>
    <v>       0.75692600       0.00000000       0.24946600 </v>
    <v>       0.75133600       0.25081000       0.99866300 </v>
    <v>       0.50656300       0.23697200       0.24343500 </v>
    <v>       0.00091700       0.50000000       0.00091700 </v>
    <v>       0.24812100       0.74663200       0.00238000 </v>
    <v>       0.00238000       0.74663200       0.24812100 </v>
    <v>       0.49482900       0.50000000       0.00542100 </v>
    <v>       0.74458100       0.50000000       0.25516900 </v>
    <v>       0.75133600       0.74918900       0.99866300 </v>
    <v>       0.50656300       0.76302900       0.24343500 </v>
    <v>       0.99307300       0.00000000       0.50053500 </v>
    <v>       0.24946600       0.00000000       0.75692600 </v>
    <v>       0.24343500       0.23697200       0.50656300 </v>
    <v>       0.99866300       0.25081000       0.75133600 </v>
    <v>       0.50153500       0.00000000       0.50153500 </v>
    <v>       0.75030800       0.00000000       0.75030800 </v>
    <v>       0.74762200       0.25336600       0.50188000 </v>
    <v>       0.50188000       0.25336600       0.74762200 </v>
    <v>       0.00542100       0.50000000       0.49482900 </v>
    <v>       0.25516900       0.50000000       0.74458100 </v>
    <v>       0.24343500       0.76302900       0.50656300 </v>
    <v>       0.99866300       0.74918900       0.75133600 </v>
    <v>       0.74908500       0.50000000       0.74908500 </v>
    <v>       0.74762200       0.74663400       0.50188000 </v>
    <v>       0.50188000       0.74663400       0.74762200 </v>
    <v>       0.37500000       0.50000000       0.37500000 </v>
   </varray>
  </structure>
  <varray name="forces" >
   <v>       0.00628833       0.00000000       0.00628833 </v>
   <v>      -0.00919375       0.00000000      -0.00919375 </v>
   <v>      -0.00289942       0.05027965       0.03935796 </v>
   <v>       0.03935796       0.05027965      -0.00289942 </v>
   <v>       0.02717835       0.00000000      -0.03962217 </v>
   <v>       0.03962217       0.00000000      -0.02717835 </v>
   <v>      -0.02025469       0.03906813       0.02025469 </v>
   <v>       0.01979000      -0.05469632      -0.01979000 </v>
   <v>      -0.00187401       0.00000000      -0.00187401 </v>
   <v>      -0.00289942      -0.05027965       0.03935796 </v>
   <v>       0.03935796      -0.05027965      -0.00289942 </v>
   <v>       0.00330706       0.00000000       0.02182101 </v>
   <v>      -0.02182101       0.00000000      -0.00330706 </v>
   <v>      -0.02025469      -0.03906813       0.02025469 </v>
   <v>       0.01979000       0.05469632      -0.01979000 </v>
   <v>      -0.03962217       0.00000000       0.02717835 </v>
   <v>      -0.02717835       0.00000000       0.03962217 </v>
   <v>      -0.01979000      -0.05469632       0.01979000 </v>
   <v>       0.02025469       0.03906813      -0.02025469 </v>
   <v>       0.00919375       0.00000000       0.00919375 </v>
   <v>      -0.00628833       0.00000000      -0.00628833 </v>
   <v>      -0.03935796       0.05027965       0.00289942 </v>
   <v>       0.00289942       0.05027965      -0.03935796 </v>
   <v>       0.02182101       0.00000000       0.00330706 </v>
   <v>      -0.00330706       0.00000000      -0.02182101 </v>
   <v>      -0.01979000       0.05469632       0.01979000 </v>
   <v>       0.02025469      -0.03906813      -0.02025469 </v>
   <v>       0.00187401       0.00000000       0.00187401 </v>
   <v>      -0.03935796      -0.05027965       0.00289942 </v>
   <v>       0.00289942      -0.05027965      -0.03935796 </v>
   <v>       0.00000000       0.00000000       0.00000000 </v>
  </varray>
  <varray name="stress" >
   <v>      -4.50158441       0.00000000      -3.75941688 </v>
   <v>       0.00000000       5.36721899       0.00000000 </v>
   <v>      -3.75941688       0.00000000      -4.50158441 </v>
  </varray>
  <energy>
   <i name="e_fr_energy">   -114.01594223 </i>
   <i name="e_wo_entrp">   -113.99084939 </i>
   <i name="e_0_energy">     -0.07527853 </i>
  </energy>
  <time name="totalsc">   27.38   27.45</time>
  <eigenvalues>
   <array>
    <dimension dim="1">band</dimension>
    <dimension dim="2">kpoint</dimension>
    <dimension dim="3">spin</dimension>
    <field>eigene</field>
    <field>occ</field>
    <set>
     <set comment="spin 1">
      <set comment="kpoint 1">
       <r>   -2.9370    1.0000 </r>
       <r>   -1.9055    1.0000 </r>
       <r>   -1.8208    1.0000 </r>
       <r>   -1.6630    1.0000 </r>
       <r>   -0.7748    1.0000 </r>
       <r>   -0.7148    1.0000 </r>
       <r>   -0.4689    1.0000 </r>
       <r>    0.3149    1.0000 </r>
       <r>    0.3664    1.0000 </r>
       <r>    0.4168    1.0000 </r>
       <r>    0.6282    1.0000 </r>
       <r>    1.4059    1.0000 </r>
       <r>    1.4277    1.0000 </r>
       <r>    1.4637    1.0000 </r>
       <r>    1.5265    1.0000 </r>
       <r>    1.7318    1.0000 </r>
       <r>    1.8550    1.0000 </r>
       <r>    2.5883    1.0000 </r>
       <r>    2.6580    1.0000 </r>
       <r>    2.7456    1.0000 </r>
       <r>    3.5471    1.0000 </r>
       <r>    3.5960    1.0000 </r>
       <r>    3.6476    1.0000 </r>
       <r>    3.6952    1.0000 </r>
       <r>    3.7310    1.0000 </r>
       <r>    4.0725    1.0000 </r>
       <r>    4.5940    1.0000 </r>
       <r>    4.6141    1.0000 </r>
       <r>    4.6636    1.0000 </r>
       <r>    4.7449    1.0000 </r>
       <r>    4.7508    1.0000 </r>
       <r>    4.7742    1.0000 </r>
       <r>    4.9040    1.0000 </r>
       <r>    5.0714    1.0000 </r>
       <r>    5.0971    1.0000 </r>
       <r>    5.7545    1.0000 </r>
       <r>    5.8454    1.0000 </r>
       <r>    6.1624    1.0000 </r>
       <r>    6.7552    1.0000 </r>
       <r>    6.8233    1.0000 </r>
       <r>    6.8395    1.0000 </r>
       <r>    6.9130    1.0000 </r>
       <r>    6.9783    1.0000 </r>
       <r>    7.0003    1.0000 </r>
       <r>    7.1394    1.0000 </r>
       <r>    7.7915    0.8187 </r>
       <r>    7.9143    0.3338 </r>
       <r>    7.9179    0.3196 </r>
       <r>    7.9488    0.2072 </r>
       <r>    8.0270    0.0197 </r>
       <r>    8.1196   -0.0355 </r>
       <r>    8.2087   -0.0197 </r>
       <r>    8.2457   -0.0123 </r>
       <r>    8.4313   -0.0003 </r>
       <r>    9.0964    0.0000 </r>
       <r>    9.1922    0.0000 </r>
       <r>    9.2400    0.0000 </r>
       <r>    9.3404    0.0000 </r>
       <r>    9.3478    0.0000 </r>
       <r>    9.4593    0.0000 </r>
       <r>    9.9402    0.0000 </r>
       <r>    9.9868    0.0000 </r>
       <r>    9.9906    0.0000 </r>
       <r>   10.0924    0.0000 </r>
       <r>   10.1059    0.0000 </r>
       <r>   10.1904    0.0000 </r>
       <r>   10.3691    0.0000 </r>
       <r>   10.5091    0.0000 </r>
       <r>   10.5807    0.0000 </r>
       <r>   10.9707    0.0000 </r>
       <r>   11.1216    0.0000 </r>
       <r>   11.2847    0.0000 </r>
      </set>
      <set comment="kpoint 2">
       <r>   -2.9373    1.0000 </r>
       <r>   -1.9150    1.0000 </r>
       <r>   -1.7409    1.0000 </r>
       <r>   -1.7399    1.0000 </r>
       <r>   -0.7920    1.0000 </r>
       <r>   -0.6279    1.0000 </r>
       <r>   -0.5535    1.0000 </r>
       <r>    0.3054    1.0000 </r>
       <r>    0.4271    1.0000 </r>
       <r>    0.4770    1.0000 </r>
       <r>    0.5638    1.0000 </r>
       <r>    1.4130    1.0000 </r>
       <r>    1.4528    1.0000 </r>
       <r>    1.4560    1.0000 </r>
       <r>    1.5504    1.0000 </r>
       <r>    1.5630    1.0000 </r>
       <r>    1.8989    1.0000 </r>
       <r>    2.5440    1.0000 </r>
       <r>    2.6987    1.0000 </r>
       <r>    2.8386    1.0000 </r>
       <r>    3.5698    1.0000 </r>
       <r>    3.6033    1.0000 </r>
       <r>    3.6889    1.0000 </r>
       <r>    3.6953    1.0000 </r>
       <r>    3.7761    1.0000 </r>
       <r>    3.8735    1.0000 </r>
       <r>    4.5665    1.0000 </r>
       <r>    4.6497    1.0000 </r>
       <r>    4.6597    1.0000 </r>
       <r>    4.7078    1.0000 </r>
       <r>    4.7711    1.0000 </r>
       <r>    4.7886    1.0000 </r>
       <r>    4.9681    1.0000 </r>
       <r>    5.0111    1.0000 </r>
       <r>    5.1443    1.0000 </r>
       <r>    5.7222    1.0000 </r>
       <r>    5.9070    1.0000 </r>
       <r>    6.1526    1.0000 </r>
       <r>    6.7324    1.0000 </r>
       <r>    6.8041    1.0000 </r>
       <r>    6.8368    1.0000 </r>
       <r>    6.9096    1.0000 </r>
       <r>    6.9746    1.0000 </r>
       <r>    6.9963    1.0000 </r>
       <r>    7.0849    1.0000 </r>
       <r>    7.8110    0.7530 </r>
       <r>    7.8662    0.5336 </r>
       <r>    7.9636    0.1602 </r>
       <r>    8.0236    0.0247 </r>
       <r>    8.1239   -0.0354 </r>
       <r>    8.1525   -0.0321 </r>
       <r>    8.2278   -0.0157 </r>
       <r>    8.2333   -0.0146 </r>
       <r>    8.3024   -0.0049 </r>
       <r>    9.1312    0.0000 </r>
       <r>    9.1762    0.0000 </r>
       <r>    9.1871    0.0000 </r>
       <r>    9.3235    0.0000 </r>
       <r>    9.3565    0.0000 </r>
       <r>    9.5392    0.0000 </r>
       <r>    9.8976    0.0000 </r>
       <r>    9.9475    0.0000 </r>
       <r>   10.0139    0.0000 </r>
       <r>   10.0286    0.0000 </r>
       <r>   10.1495    0.0000 </r>
       <r>   10.1724    0.0000 </r>
       <r>   10.3703    0.0000 </r>
       <r>   10.5126    0.0000 </r>
       <r>   10.6497    0.0000 </r>
       <r>   11.1025    0.0000 </r>
       <r>   11.2472    0.0000 </r>
       <r>   11.2974    0.0000 </r>
      </set>
     </set>
    </set>
   </array>
  </eigenvalues>
  <separator name="orbital magnetization" >
   <v name="MAGDIPOLOUT">      0.00000000      0.00000000      0.00000000</v>
  </separator>
  <dos>
   <i name="efermi">      7.87415440 </i>
   <total>
    <array>
     <dimension dim="1">gridpoints</dimension>
     <dimension dim="2">spin</dimension>
     <field>energy</field>
     <field>total</field>
     <field>integrated</field>
     <set>
      <set comment="spin 1">
       <r>  -4.9373   0.0000   0.0000 </r>
       <r>  -4.8766   0.0000   0.0000 </r>
       <r>  -4.8158   0.0000   0.0000 </r>
       <r>  -4.7550   0.0000   0.0000 </r>
       <r>  -4.6942   0.0000   0.0000 </r>
       <r>  -4.6334   0.0000   0.0000 </r>
       <r>  -4.5727   0.0000   0.0000 </r>
       <r>  -4.5119   0.0000   0.0000 </r>
       <r>  -4.4511   0.0000   0.0000 </r>
       <r>  -4.3903   0.0000   0.0000 </r>
       <r>  -4.3295   0.0000   0.0000 </r>
       <r>  -4.2687   0.0000   0.0000 </r>
       <r>  -4.2080   0.0000   0.0000 </r>
       <r>  -4.1472   0.0000   0.0000 </r>
       <r>  -4.0864   0.0000   0.0000 </r>
       <r>  -4.0256   0.0000   0.0000 </r>
       <r>  -3.9648   0.0000   0.0000 </r>
       <r>  -3.9040   0.0000   0.0000 </r>
       <r>  -3.8433   0.0000   0.0000 </r>
       <r>  -3.7825   0.0000   0.0000 </r>
       <r>  -3.7217   0.0000   0.0000 </r>
       <r>  -3.6609  -0.0001   0.0000 </r>
       <r>  -3.6001  -0.0004   0.0000 </r>
       <r>  -3.5394  -0.0024  -0.0002 </r>
       <r>  -3.4786  -0.0115  -0.0009 </r>
       <r>  -3.4178  -0.0437  -0.0035 </r>
       <r>  -3.3570  -0.1304  -0.0115 </r>
       <r>  -3.2962  -0.2924  -0.0292 </r>
       <r>  -3.2354  -0.4416  -0.0561 </r>
       <r>  -3.1747  -0.2368  -0.0705 </r>
       <r>  -3.1139   0.8817  -0.0169 </r>
       <r>  -3.0531   3.2176   0.1787 </r>
       <r>  -2.9923   6.1493   0.5525 </r>
       <r>  -2.9315   8.1485   1.0478 </r>
       <r>  -2.8707   7.9217   1.5293 </r>
       <r>  -2.8100   5.6235   1.8711 </r>
       <r>  -2.7492   2.7043   2.0354 </r>
       <r>  -2.6884   0.5817   2.0708 </r>
       <r>  -2.6276  -0.3266   2.0510 </r>
       <r>  -2.5668  -0.4268   2.0250 </r>
       <r>  -2.5060  -0.2610   2.0091 </r>
       <r>  -2.4453  -0.1227   2.0017 </r>
       <r>  -2.3845  -0.0886   1.9963 </r>
       <r>  -2.3237  -0.1709   1.9859 </r>
       <r>  -2.2629  -0.3779   1.9629 </r>
       <r>  -2.2021  -0.6265   1.9249 </r>
       <r>  -2.1414  -0.5671   1.8904 </r>
       <r>  -2.0806   0.4632   1.9186 </r>
       <r>  -2.0198   3.0955   2.1067 </r>
       <r>  -1.9590   7.3098   2.5510 </r>
       <r>  -1.8982  12.1534   3.2897 </r>
       <r>  -1.8374  16.1649   4.2723 </r>
       <r>  -1.7767  18.0716   5.3707 </r>
       <r>  -1.7159  17.2148   6.4171 </r>
       <r>  -1.6551  13.7766   7.2544 </r>
       <r>  -1.5943   8.8843   7.7945 </r>
       <r>  -1.5335   4.2043   8.0500 </r>
       <r>  -1.4727   1.0198   8.1120 </r>
       <r>  -1.4120  -0.4140   8.0868 </r>
       <r>  -1.3512  -0.6681   8.0462 </r>
       <r>  -1.2904  -0.4778   8.0172 </r>
       <r>  -1.2296  -0.3094   7.9984 </r>
       <r>  -1.1688  -0.3353   7.9780 </r>
       <r>  -1.1081  -0.5373   7.9453 </r>
       <r>  -1.0473  -0.6727   7.9044 </r>
       <r>  -0.9865  -0.1615   7.8946 </r>
       <r>  -0.9257   1.7506   8.0010 </r>
       <r>  -0.8649   5.3499   8.3262 </r>
       <r>  -0.8041   9.8318   8.9238 </r>
       <r>  -0.7434  13.5896   9.7498 </r>
       <r>  -0.6826  15.3895  10.6852 </r>
       <r>  -0.6218  15.1691  11.6073 </r>
       <r>  -0.5610  13.6031  12.4341 </r>
       <r>  -0.5002  11.2158  13.1158 </r>
       <r>  -0.4394   8.2206  13.6155 </r>
       <r>  -0.3787   4.9847  13.9185 </r>
       <r>  -0.3179   2.1857  14.0513 </r>
       <r>  -0.2571   0.3845  14.0747 </r>
       <r>  -0.1963  -0.3849  14.0513 </r>
       <r>  -0.1355  -0.5384  14.0186 </r>
       <r>  -0.0747  -0.5703  13.9839 </r>
       <r>  -0.0140  -0.7521  13.9382 </r>
       <r>   0.0468  -0.9562  13.8801 </r>
       <r>   0.1076  -0.5300  13.8479 </r>
       <r>   0.1684   1.5728  13.9435 </r>
       <r>   0.2292   6.0936  14.3139 </r>
       <r>   0.2899  12.4919  15.0731 </r>
       <r>   0.3507  18.7243  16.2113 </r>
       <r>   0.4115  22.3924  17.5723 </r>
       <r>   0.4723  22.3659  18.9318 </r>
       <r>   0.5331  19.2981  20.1048 </r>
       <r>   0.5939  14.7089  20.9988 </r>
       <r>   0.6546   9.8713  21.5988 </r>
       <r>   0.7154   5.5516  21.9362 </r>
       <r>   0.7762   2.2651  22.0739 </r>
       <r>   0.8370   0.2922  22.0917 </r>
       <r>   0.8978  -0.5134  22.0605 </r>
       <r>   0.9586  -0.6732  22.0196 </r>
       <r>   1.0193  -0.7696  21.9728 </r>
       <r>   1.0801  -1.1337  21.9039 </r>
       <r>   1.1409  -1.5555  21.8093 </r>
       <r>   1.2017  -0.9639  21.7507 </r>
       <r>   1.2625   2.4547  21.8999 </r>
       <r>   1.3232   9.9864  22.5069 </r>
       <r>   1.3840  20.4292  23.7487 </r>
       <r>   1.4448  29.6100  25.5485 </r>
       <r>   1.5056  32.9086  27.5487 </r>
       <r>   1.5664  28.9527  29.3085 </r>
       <r>   1.6272  20.7610  30.5704 </r>
       <r>   1.6879  13.1685  31.3709 </r>
       <r>   1.7487   9.2036  31.9303 </r>
       <r>   1.8095   8.5894  32.4524 </r>
       <r>   1.8703   8.9691  32.9975 </r>
       <r>   1.9311   8.2073  33.4964 </r>
       <r>   1.9919   5.8518  33.8521 </r>
       <r>   2.0526   2.9275  34.0300 </r>
       <r>   2.1134   0.6594  34.0701 </r>
       <r>   2.1742  -0.5228  34.0383 </r>
       <r>   2.2350  -0.9409  33.9811 </r>
       <r>   2.2958  -0.9639  33.9225 </r>
       <r>   2.3565  -0.4473  33.8953 </r>
       <r>   2.4173   1.2321  33.9702 </r>
       <r>   2.4781   4.5795  34.2486 </r>
       <r>   2.5389   9.2793  34.8126 </r>
       <r>   2.5997  14.0380  35.6659 </r>
       <r>   2.6605  17.2091  36.7119 </r>
       <r>   2.7212  17.7015  37.7878 </r>
       <r>   2.7820  15.4834  38.7289 </r>
       <r>   2.8428  11.4591  39.4255 </r>
       <r>   2.9036   6.9618  39.8486 </r>
       <r>   2.9644   3.1822  40.0420 </r>
       <r>   3.0252   0.7495  40.0876 </r>
       <r>   3.0859  -0.3918  40.0638 </r>
       <r>   3.1467  -0.7719  40.0169 </r>
       <r>   3.2075  -0.9958  39.9563 </r>
       <r>   3.2683  -1.3352  39.8752 </r>
       <r>   3.3291  -1.3779  39.7914 </r>
       <r>   3.3899   0.1135  39.7983 </r>
       <r>   3.4506   4.7031  40.0842 </r>
       <r>   3.5114  12.9592  40.8719 </r>
       <r>   3.5722  23.1760  42.2806 </r>
       <r>   3.6330  31.6210  44.2026 </r>
       <r>   3.6938  34.6631  46.3095 </r>
       <r>   3.7545  31.1976  48.2058 </r>
       <r>   3.8153  23.3036  49.6222 </r>
       <r>   3.8761  14.6766  50.5143 </r>
       <r>   3.9369   8.2863  51.0180 </r>
       <r>   3.9977   5.0243  51.3233 </r>
       <r>   4.0585   3.9216  51.5617 </r>
       <r>   4.1192   3.3605  51.7660 </r>
       <r>   4.1800   2.2870  51.9050 </r>
       <r>   4.2408   0.6447  51.9442 </r>
       <r>   4.3016  -0.9518  51.8863 </r>
       <r>   4.3624  -1.5546  51.7918 </r>
       <r>   4.4232   0.1428  51.8005 </r>
       <r>   4.4839   5.5446  52.1375 </r>
       <r>   4.5447  15.0129  53.0500 </r>
       <r>   4.6055  26.6246  54.6683 </r>
       <r>   4.6663  36.3956  56.8805 </r>
       <r>   4.7271  40.4311  59.3380 </r>
       <r>   4.7878  37.5733  61.6218 </r>
       <r>   4.8486  30.3673  63.4677 </r>
       <r>   4.9094  23.2702  64.8821 </r>
       <r>   4.9702  19.3572  66.0587 </r>
       <r>   5.0310  18.3456  67.1737 </r>
       <r>   5.0918  17.5928  68.2431 </r>
       <r>   5.1525  14.8370  69.1449 </r>
       <r>   5.2133  10.0219  69.7541 </r>
       <r>   5.2741   4.8580  70.0493 </r>
       <r>   5.3349   1.0603  70.1138 </r>
       <r>   5.3957  -0.8561  70.0617 </r>
       <r>   5.4565  -1.3429  69.9801 </r>
       <r>   5.5172  -0.8349  69.9294 </r>
       <r>   5.5780   0.7862  69.9772 </r>
       <r>   5.6388   3.7850  70.2072 </r>
       <r>   5.6996   7.7548  70.6786 </r>
       <r>   5.7604  11.3616  71.3692 </r>
       <r>   5.8212  13.0661  72.1634 </r>
       <r>   5.8819  12.2409  72.9074 </r>
       <r>   5.9427   9.7459  73.4998 </r>
       <r>   6.0035   7.4310  73.9514 </r>
       <r>   6.0643   6.7381  74.3610 </r>
       <r>   6.1251   7.4446  74.8135 </r>
       <r>   6.1858   7.9000  75.2937 </r>
       <r>   6.2466   6.7196  75.7021 </r>
       <r>   6.3074   4.0832  75.9503 </r>
       <r>   6.3682   1.2538  76.0265 </r>
       <r>   6.4290  -0.7677  75.9798 </r>
       <r>   6.4898  -1.6905  75.8771 </r>
       <r>   6.5505  -1.2286  75.8024 </r>
       <r>   6.6113   1.4989  75.8935 </r>
       <r>   6.6721   7.4291  76.3451 </r>
       <r>   6.7329  16.2788  77.3346 </r>
       <r>   6.7937  25.9804  78.9137 </r>
       <r>   6.8545  33.6494  80.9590 </r>
       <r>   6.9152  37.1694  83.2183 </r>
       <r>   6.9760  35.9461  85.4031 </r>
       <r>   7.0368  30.6723  87.2675 </r>
       <r>   7.0976  22.8761  88.6580 </r>
       <r>   7.1584  14.5084  89.5398 </r>
       <r>   7.2191   7.3606  89.9872 </r>
       <r>   7.2799   2.4705  90.1374 </r>
       <r>   7.3407  -0.1066  90.1309 </r>
       <r>   7.4015  -1.0582  90.0666 </r>
       <r>   7.4623  -1.2886  89.9882 </r>
       <r>   7.5231  -1.3613  89.9055 </r>
       <r>   7.5838  -1.1231  89.8372 </r>
       <r>   7.6446   0.3063  89.8559 </r>
       <r>   7.7054   4.0136  90.0998 </r>
       <r>   7.7662  10.3474  90.7288 </r>
       <r>   7.8270  18.2024  91.8351 </r>
       <r>   7.8878  25.3343  93.3750 </r>
       <r>   7.9485  29.7835  95.1853 </r>
       <r>   8.0093  31.3292  97.0896 </r>
       <r>   8.0701  31.4716  99.0025 </r>
       <r>   8.1309  31.6475 100.9261 </r>
       <r>   8.1917  31.4772 102.8394 </r>
       <r>   8.2525  29.1880 104.6135 </r>
       <r>   8.3132  23.8366 106.0624 </r>
       <r>   8.3740  16.6164 107.0724 </r>
       <r>   8.4348   9.7860 107.6672 </r>
       <r>   8.4956   4.8082 107.9594 </r>
       <r>   8.5564   1.7968 108.0687 </r>
       <r>   8.6171   0.2087 108.0813 </r>
       <r>   8.6779  -0.5177 108.0499 </r>
       <r>   8.7387  -0.8475 107.9984 </r>
       <r>   8.7995  -1.1164 107.9305 </r>
       <r>   8.8603  -1.2762 107.8529 </r>
       <r>   8.9211  -0.6119 107.8157 </r>
       <r>   8.9818   2.1003 107.9434 </r>
       <r>   9.0426   7.6970 108.4112 </r>
       <r>   9.1034  15.5210 109.3546 </r>
       <r>   9.1642  23.3334 110.7729 </r>
       <r>   9.2250  28.6611 112.5150 </r>
       <r>   9.2858  30.2665 114.3547 </r>
       <r>   9.3465  28.3610 116.0785 </r>
       <r>   9.4073  23.9070 117.5317 </r>
       <r>   9.4681  18.0709 118.6301 </r>
       <r>   9.5289  11.9574 119.3569 </r>
       <r>   9.5897   6.4022 119.7460 </r>
       <r>   9.6504   2.0715 119.8719 </r>
       <r>   9.7112  -0.1026 119.8657 </r>
       <r>   9.7720   1.2026 119.9388 </r>
       <r>   9.8328   6.9342 120.3602 </r>
       <r>   9.8936  16.3659 121.3550 </r>
       <r>   9.9544  26.5943 122.9715 </r>
       <r>  10.0151  33.8241 125.0274 </r>
       <r>  10.0759  35.5881 127.1905 </r>
       <r>  10.1367  31.9671 129.1336 </r>
       <r>  10.1975  25.1479 130.6621 </r>
       <r>  10.2583  18.1707 131.7666 </r>
       <r>  10.3191  13.5844 132.5923 </r>
       <r>  10.3798  12.3550 133.3432 </r>
       <r>  10.4406  13.6168 134.1709 </r>
       <r>  10.5014  15.4341 135.1090 </r>
       <r>  10.5622  15.9045 136.0757 </r>
       <r>  10.6230  14.0146 136.9276 </r>
       <r>  10.6838  10.0893 137.5408 </r>
       <r>  10.7445   5.6197 137.8824 </r>
       <r>  10.8053   2.4038 138.0285 </r>
       <r>  10.8661   1.5349 138.1218 </r>
       <r>  10.9269   2.9628 138.3019 </r>
       <r>  10.9877   5.8282 138.6562 </r>
       <r>  11.0484   9.1416 139.2118 </r>
       <r>  11.1092  12.2321 139.9553 </r>
       <r>  11.1700  14.6731 140.8472 </r>
       <r>  11.2308  15.8885 141.8129 </r>
       <r>  11.2916  15.0878 142.7300 </r>
       <r>  11.3524  11.9506 143.4564 </r>
       <r>  11.4131   7.3640 143.9040 </r>
       <r>  11.4739   3.0642 144.0902 </r>
       <r>  11.5347   0.3615 144.1122 </r>
       <r>  11.5955  -0.6365 144.0735 </r>
       <r>  11.6563  -0.6384 144.0347 </r>
       <r>  11.7171  -0.3617 144.0127 </r>
       <r>  11.7778  -0.1479 144.0037 </r>
       <r>  11.8386  -0.0467 144.0009 </r>
       <r>  11.8994  -0.0117 144.0002 </r>
       <r>  11.9602  -0.0024 144.0000 </r>
       <r>  12.0210  -0.0004 144.0000 </r>
       <r>  12.0817  -0.0001 144.0000 </r>
       <r>  12.1425   0.0000 144.0000 </r>
       <r>  12.2033   0.0000 144.0000 </r>
       <r>  12.2641   0.0000 144.0000 </r>
       <r>  12.3249   0.0000 144.0000 </r>
       <r>  12.3857   0.0000 144.0000 </r>
       <r>  12.4464   0.0000 144.0000 </r>
       <r>  12.5072   0.0000 144.0000 </r>
       <r>  12.5680   0.0000 144.0000 </r>
       <r>  12.6288   0.0000 144.0000 </r>
       <r>  12.6896   0.0000 144.0000 </r>
       <r>  12.7504   0.0000 144.0000 </r>
       <r>  12.8111   0.0000 144.0000 </r>
       <r>  12.8719   0.0000 144.0000 </r>
       <r>  12.9327   0.0000 144.0000 </r>
       <r>  12.9935   0.0000 144.0000 </r>
       <r>  13.0543   0.0000 144.0000 </r>
       <r>  13.1151   0.0000 144.0000 </r>
       <r>  13.1758   0.0000 144.0000 </r>
       <r>  13.2366   0.0000 144.0000 </r>
       <r>  13.2974   0.0000 144.0000 </r>
      </set>
     </set>
    </array>
   </total>
  </dos>
 </calculation>
 <structure name="finalpos" >
  <crystal>
   <varray name="basis" >
    <v>       8.08705200       0.00000000       0.00000000 </v>
    <v>       0.00000000       8.08705200       0.00000000 </v>
    <v>       0.00000000       0.00000000       8.08705200 </v>
   </varray>
   <i name="volume">    528.89651690 </i>
   <varray name="rec_basis" >
    <v>       0.12365445       0.00000000       0.00000000 </v>
    <v>       0.00000000       0.12365445       0.00000000 </v>
    <v>       0.00000000       0.00000000       0.12365445 </v>
   </varray>
  </crystal>
  <varray name="positions" >
   <v>       0.99969100       0.00000000       0.99969100 </v>
   <v>       0.24846600       0.00000000       0.24846600 </v>
   <v>       0.24812100       0.25336800       0.00238000 </v>
   <v>       0.00238000       0.25336800       0.24812100 </v>
   <v>       0.50053500       0.00000000       0.99307300 </v>
   <v>       0.75692600       0.00000000       0.24946600 </v>
   <v>       0.75133600       0.25081000       0.99866300 </v>
   <v>       0.50656300       0.23697200       0.24343500 </v>
   <v>       0.00091700       0.50000000       0.00091700 </v>
   <v>       0.24812100       0.74663200       0.00238000 </v>
   <v>       0.00238000       0.74663200       0.24812100 </v>
   <v>       0.49482900       0.50000000       0.00542100 </v>
   <v>       0.74458100       0.50000000       0.25516900 </v>
   <v>       0.75133600       0.74918900       0.99866300 </v>
   <v>       0.50656300       0.76302900       0.24343500 </v>
   <v>       0.99307300       0.00000000       0.50053500 </v>
   <v>       0.24946600       0.00000000       0.75692600 </v>
   <v>       0.24343500       0.23697200       0.50656300 </v>
   <v>       0.99866300       0.25081000       0.75133600 </v>
   <v>       0.50153500       0.00000000       0.50153500 </v>
   <v>       0.75030800       0.00000000       0.75030800 </v>
   <v>       0.74762200       0.25336600       0.50188000 </v>
   <v>       0.50188000       0.25336600       0.74762200 </v>
   <v>       0.00542100       0.50000000       0.49482900 </v>
   <v>       0.25516900       0.50000000       0.74458100 </v>
   <v>       0.24343500       0.76302900       0.50656300 </v>
   <v>       0.99866300       0.74918900       0.75133600 </v>
   <v>       0.74908500       0.50000000       0.74908500 </v>
   <v>       0.74762200       0.74663400       0.50188000 </v>
   <v>       0.50188000       0.74663400       0.74762200 </v>
   <v>       0.37500000       0.50000000       0.37500000 </v>
  </varray>
 </structure>
</modeling>
