    4    4    1    1
  0.1706784E+02  0.4087078E-09  0.4087078E-09  0.4087078E-09  0.5000000E-15
  1.000000000000000E-004
  CAR 
 unknown system                          
   12    1   10
 
  0.2500000E+00  0.2500000E+00  0.2500000E+00  0.1000000E+01
   1       -1.623121
   2        2.685162
   3        2.685162
   4        2.685162
   5        6.880900
   6        6.880900
   7        6.880900
   8       10.987513
   9       11.187461
  10       11.187461
