 vasp.5.2.2 15Apr09 complex 
 executed on             LinuxIFC date 2013.06.20  09:05:27
 running on    1 nodes
 each image running on    1 nodes
 distr:  one band on    1 nodes,    1 groups


--------------------------------------------------------------------------------------------------------


 INCAR:
 POTCAR:   PAW_GGA Fe 03Mar1998                   
 POTCAR:   PAW_GGA Fe 03Mar1998                   
   VRHFIN =Fe:  d7 s1                                                           
   LEXCH  = 91                                                                  
   EATOM  =   595.5622 eV,   43.7726 Ry                                         
                                                                                
   TITEL  = PAW_GGA Fe 03Mar1998                                                
   LULTRA =        F    use ultrasoft PP ?                                      
   IUNSCR =        1    unscreen: 0-lin 1-nonlin 2-no                           
   RPACOR =    2.000    partial core radius                                     
   POMASS =   55.847; ZVAL   =    8.000    mass and valenz                      
   RCORE  =    2.300    outmost cutoff radius                                   
   RWIGS  =    2.460; RWIGS  =    1.302    wigner-seitz radius (au A)           
   ENMAX  =  267.907; ENMIN  =  200.930 eV                                      
   RCLOC  =    1.701    cutoff for local pot                                    
   LCOR   =        T    correct aug charges                                     
   LPAW   =        T    paw PP                                                  
   EAUG   =  511.368                                                            
   DEXC   =    -.007                                                            
   RMAX   =    2.817    core radius for proj-oper                               
   RAUG   =    1.300    factor for augmentation sphere                          
   RDEP   =    2.442    core radius for depl-charge                             
   QCUT   =   -4.437; QGAM   =    8.875    optimization parameters              
                                                                                
   Description                                                                  
     l     E      TYP  RCUT    TYP  RCUT                                        
     2   .000     23  2.300                                                     
     2   .000     23  2.300                                                     
     0   .000     23  2.300                                                     
     0   .000     23  2.300                                                     
     1  -.200     23  2.300                                                     
     1   .000     23  2.300                                                     
     3   .000      7   .000                                                     
  local pseudopotential read in
  partial core-charges read in
  atomic valenz-charges read in
  non local Contribution for L=           2  read in
    real space projection operators read in
  non local Contribution for L=           2  read in
    real space projection operators read in
  non local Contribution for L=           0  read in
    real space projection operators read in
  non local Contribution for L=           0  read in
    real space projection operators read in
  non local Contribution for L=           1  read in
    real space projection operators read in
  non local Contribution for L=           1  read in
    real space projection operators read in
    PAW grid and wavefunctions read in
 
   number of l-projection  operators is LMAX  =           6
   number of lm-projection operators is LMMAX =          18
 
 PAW_GGA Fe 03Mar1998                   :
 energy of atom  1       EATOM= -595.5622
 kinetic energy error for atom=    0.0239 (will be added to EATOM!!)
 
 
 POSCAR: Fe3                                     
  positions in direct lattice
  No initial velocities read in
 exchange correlation table for  LEXCH =        7
   RHO(1)=    0.500       N(1)  =     2000
   RHO(2)=  100.500       N(2)  =     4000

 VTST: version 2.03d, (02/18/09)

 CHAIN: initializing optimizer
 
 OPT: Using VASP QUASI-newton optimizer
 CHAIN: Read ICHAIN            0
 CHAIN: Running the NEB
 NEB:          SPRING     -5.000000
 NEB:          LCLIMB      T
 NEB:     LTANGENTOLD      F
 NEB:           LDNEB      F
 NEB:        LDNEBORG      F
 NEB:          EFIRST      0.000000
 NEB:           ELAST      0.000000
 
 POSCAR: Fe3                                     
  positions in direct lattice
  No initial velocities read in
 
 POSCAR: Fe3                                     
  positions in direct lattice
  No initial velocities read in
 


--------------------------------------------------------------------------------------------------------


 ion  position               nearest neighbor table
   1  0.000  0.250  0.250-   2 2.32   3 2.32   2 2.32   3 2.32
   2  0.500  0.961  0.539-   3 2.14   1 2.32   1 2.32   3 2.57   3 2.57   3 2.93
   3  0.500  0.539  0.961-   2 2.14   1 2.32   1 2.32   2 2.57   2 2.57   2 2.93
 
  LATTYP: Found a simple cubic cell.
 ALAT       =     3.5850510000
  
  Lattice vectors:
  
 A1 = (   3.5850510000,   0.0000000000,   0.0000000000)
 A2 = (   0.0000000000,   3.5850510000,   0.0000000000)
 A3 = (   0.0000000000,   0.0000000000,   3.5850510000)
 Subroutine PRICEL returns:
 Original cell was already a primitive cell.
 

Analysis of symmetry for initial positions (statically):

 Routine SETGRP: Setting up the symmetry group for a 
 simple cubic supercell.


 Subroutine GETGRP returns: Found  8 space group operations
 (whereof  4 operations were pure point group operations)
 out of a pool of 48 trial point group operations.


The static configuration has the point symmetry C_2v.
 The point group associated with its full space group is D_2h.

Analysis of symmetry for dynamics (positions and initial velocities):

 Subroutine DYNSYM returns: Found  8 space group operations
 (whereof  4 operations were pure point group operations)
 out of a pool of  8 trial space group operations
 (whereof  4 operations were pure point group operations)
 and found also     1 'primitive' translations


The dynamic configuration has the point symmetry C_2v.
 The point group associated with its full space group is D_2h.
 
 
 KPOINTS: Automatic kpoint scheme                 

Automatic generation of k-mesh.
 
 Subroutine IBZKPT returns following result:
 ===========================================
 
 Found      1 irreducible k-points:
 
 Following reciprocal coordinates:
            Coordinates               Weight
  0.000000  0.000000  0.000000      1.000000
 
 Following cartesian coordinates:
            Coordinates               Weight
  0.000000  0.000000  0.000000      1.000000
 


--------------------------------------------------------------------------------------------------------




 Dimension of arrays:
   k-points           NKPTS =      1   k-points in BZ     NKDIM =      1   number of bands    NBANDS=     16
   number of dos      NEDOS =    301   number of ions     NIONS =      3
   non local maximal  LDIM  =      6   non local SUM 2l+1 LMDIM =     18
   total plane-waves  NPLWV =  13824
   max r-space proj   IRMAX =      1   max aug-charges    IRDMAX=  10886
   dimension x,y,z NGX =    24 NGY =   24 NGZ =   24
   dimension x,y,z NGXF=    48 NGYF=   48 NGZF=   48
   support grid    NGXF=    48 NGYF=   48 NGZF=   48
   ions per type =               3
 NGX,Y,Z   is equivalent  to a cutoff of  11.13, 11.13, 11.13 a.u.
 NGXF,Y,Z  is equivalent  to a cutoff of  22.26, 22.26, 22.26 a.u.


 I would recommend the setting:
   dimension x,y,z NGX =    21 NGY =   21 NGZ =   21
 SYSTEM =  unknown system                          
 POSCAR =  Fe3                                     

 Startparameter for this run:
   NWRITE =      2    write-flag & timer
   PREC   = accura    medium, high low
   ISTART =      0    job   : 0-new  1-cont  2-samecut
   ICHARG =      2    charge: 1-file 2-atom 10-const
   ISPIN  =      1    spin polarized calculation?
   LNONCOLLINEAR =      F non collinear calculations
   LSORBIT =      F    spin-orbit coupling
   INIWAV =      1    electr: 0-lowe 1-rand  2-diag
   LASPH  =      F    aspherical Exc in radial PAW
   METAGGA=      F    non-selfconsistent MetaGGA calc.

 Electronic Relaxation 1
   ENCUT  =  334.9 eV  24.61 Ry    4.96 a.u.   5.35  5.35  5.35*2*pi/ulx,y,z
   ENINI  =  334.9     initial cutoff
   ENAUG  =  511.4 eV  augmentation charge cutoff
   NELM   =     60;   NELMIN=  2; NELMDL= -5     # of ELM steps 
   EDIFF  = 0.1E-03   stopping-criterion for ELM
   LREAL  =      F    real-space projection
   LCOMPAT=      F    compatible to vasp.4.4
   LREAL_COMPAT= F    compatible to vasp.4.5.1-3
   GGA_COMPAT  = T    GGA compatible to vasp.4.4-vasp.4.6
   LMAXPAW     = -100 max onsite density
   LMAXMIX     =    2 max onsite mixed and CHGCAR
   VOSKOWN=      0    Vosko Wilk Nusair interpolation
   ROPT   =    0.00000
 Ionic relaxation
   EDIFFG = 0.1E-02   stopping-criterion for IOM
   NSW    =    191    number of steps for IOM
   NBLOCK =      1;   KBLOCK =    191    inner block; outer block 
   IBRION =      1    ionic relax: 0-MD 1-quasi-New 2-CG
   NFREE  =      0    steps in history (QN), initial steepest desc. (CG)
   ISIF   =      2    stress and relaxation
   IWAVPR =     11    prediction:  0-non 1-charg 2-wave 3-comb
   ISYM   =      2    0-nonsym 1-usesym 2-fastsym
   LCORR  =      T    Harris-Foulkes like correction to forces

   POTIM  = 0.5000    time-step for ionic-motion
   TEIN   =    0.0    initial temperature
   TEBEG  =    0.0;   TEEND  =   0.0 temperature during run
   SMASS  =  -3.00    Nose mass-parameter (am)
   estimated Nose-frequenzy (Omega)   =  0.10E-29 period in steps =****** mass=  -0.294E-27a.u.
   NPACO  =    256;   APACO  = 16.0  distance and # of slots for P.C.
   PSTRESS=    0.0 pullay stress

  Mass of Ions in am
   POMASS =  55.85
  Ionic Valenz
   ZVAL   =   8.00
  Atomic Wigner-Seitz radii
   RWIGS  =  -1.00
   NELECT =      24.0000    total number of electrons
   NUPDOWN=      -1.0000    fix difference up-down

 DOS related values:
   EMIN   =  10.00;   EMAX   =-10.00  energy-range for DOS
   EFERMI =   0.00
   ISMEAR =     1;   SIGMA  =   0.20  broadening in eV -4-tet -1-fermi 0-gaus

 Electronic relaxation 2 (details)
   IALGO  =     38    algorithm
   LDIAG  =      T    sub-space diagonalisation
   IMIX   =      4    mixing-type and parameters
     AMIX     =   0.40;   BMIX     =  1.00
     AMIX_MAG =   1.60;   BMIX_MAG =  1.00
     AMIN     =   0.10
     WC   =   100.;   INIMIX=   1;  MIXPRE=   1

 Intra band minimization:
   WEIMIN = 0.0010     energy-eigenvalue tresh-hold
   EBREAK =  0.16E-05  absolut break condition
   DEPER  =   0.30     relativ break condition  

   TIME   =   0.40     timestep for ELM

  volume/ion in A,a.u.               =      15.36       103.65
  Fermi-wavevector in a.u.,A,eV,Ry     =   1.317194  2.489137 23.606126  1.735001
  Thomas-Fermi vector in A             =   2.447253
 
 Write flags
   LWAVE  =      F    write WAVECAR
   LCHARG =      F    write CHGCAR
   LVTOT  =      F    write LOCPOT, local potential
   LELF   =      F    write electronic localiz. function (ELF)
   LORBIT =      0    0 simple, 1 ext, 2 COOP (PROOUT)


 Dipole corrections
   LMONO  =      F    monopole corrections only (constant potential shift)
   LDIPOL =      F    correct potential (dipole corrections)
   IDIPOL =      0    1-x, 2-y, 3-z, 4-all directions 
   EPSILON=  1.0000000 bulk dielectric constant

 Exchange correlation treatment:
   GGA     =    --    GGA type
   LEXCH   =     7    internal setting for exchange type
   VOSKOWN=      0    Vosko Wilk Nusair interpolation
   LHFCALC =     F    Hartree Fock is set to
   LHFONE  =     F    Hartree Fock one center treatment
   AEXX    =    0.0000 exact exchange contribution

 Linear response parameters
   LEPSILON=     F    determine dielectric tensor
   LRPA    =     F    only Hartree local field effects (RPA)
   LNABLA  =     F    use nabla operator in PAW spheres
   LVEL    =     F    velocity operator in full k-point grid
   LINTERFAST=   F  fast interpolation
   KINTER  =     0    interpolate to denser k-point grid
   CSHIFT  =0.1000    complex shift for real part using Kramers Kronig
   OMEGAMAX=  -1.0    maximum frequency

 Orbital magnetization related:
   ORBITALMAG=     F  switch on orbital magnetization
   LCHIMAG   =     F  perturbation theory with respect to B field



--------------------------------------------------------------------------------------------------------


 quasi-Newton-method for relaxation of ions
 charge density and potential will be updated during run
 non-spin polarized calculation
 Variant of blocked Davidson
 Davidson routine will perform the subspace rotation
 perform sub-space diagonalisation
    after iterative eigenvector-optimisation
 modified Broyden-mixing scheme, WC =      100.0
 initial mixing is a Kerker type mixing with AMIX =  0.4000 and BMIX =      1.0000
 Hartree-type preconditioning will be used
 using additional bands            4
 reciprocal scheme for non local part
 use partial core corrections
 calculate Harris-corrections to forces 
   (improved forces if not selfconsistent)
 use gradient corrections 
 use of overlap-Matrix (Vanderbilt PP)
 Methfessel and Paxton  Order N= 1 SIGMA  =   0.20


--------------------------------------------------------------------------------------------------------


  energy-cutoff  :      334.88
  volume of cell :       46.08
      direct lattice vectors                 reciprocal lattice vectors
     3.585051000  0.000000000  0.000000000     0.278936060  0.000000000  0.000000000
     0.000000000  3.585051000  0.000000000     0.000000000  0.278936060  0.000000000
     0.000000000  0.000000000  3.585051000     0.000000000  0.000000000  0.278936060

  length of vectors
     3.585051000  3.585051000  3.585051000     0.278936060  0.278936060  0.278936060


 
 k-points in units of 2pi/SCALE and weight: Automatic kpoint scheme                 
   0.00000000  0.00000000  0.00000000       1.000
 
 k-points in reciprocal lattice and weights: Automatic kpoint scheme                 
   0.00000000  0.00000000  0.00000000       1.000
 
 position of ions in fractional coordinates (direct lattice) 
   0.00000000  0.25000000  0.25000000
   0.50000000  0.96072100  0.53927900
   0.50000000  0.53927900  0.96072100
 
 position of ions in cartesian coordinates  (Angst):
   0.00000000  0.89626275  0.89626275
   1.79252550  3.44423378  1.93334272
   1.79252550  1.93334272  3.44423378
 


--------------------------------------------------------------------------------------------------------


 k-point  1 :  0.00000.00000.0000  plane waves:     619

 maximum and minimum number of plane-waves per node :     619    619

 maximum number of plane-waves:     619
 maximal index in each direction: 
   IXMAX=  5   IYMAX=  5   IZMAX=  5
   IXMIN= -5   IYMIN= -5   IZMIN= -5

 NGX is ok and might be reduce to  22
 NGY is ok and might be reduce to  22
 NGZ is ok and might be reduce to  22

 serial   3D FFT for wavefunctions
 parallel 3D FFT for charge:
    minimum data exchange during FFTs selected (reduces bandwidth)


 total amount of memory used by VASP on root node  40270. kBytes
========================================================================

   base      :    30000. kBytes
   nonl-proj :      118. kBytes
   fftplans  :     3916. kBytes
   grid      :     6018. kBytes
   one-center:       46. kBytes
   wavefun   :      172. kBytes
 
 Broyden mixing: mesh for mixing (old mesh)
   NGX = 11   NGY = 11   NGZ = 11
  (NGX  = 48   NGY  = 48   NGZ  = 48)
  gives a total of   1331 points

 initial charge density was supplied:
 charge density of overlapping atoms calculated
 number of electron   24.0000000 magnetization 
 keeping initial charge density in first step


--------------------------------------------------------------------------------------------------------


 Maximum index for augmentation-charges        10395 (set IRDMAX)


--------------------------------------------------------------------------------------------------------


 First call to EWALD:  gamma=   0.494
 Maximum number of real-space cells 3x 3x 3
 Maximum number of reciprocal cells 3x 3x 3

    FEWALD:  cpu time    0.02: real time    0.01
   RESPFUN:  cpu time    0.00: real time    0.00


----------------------------------------- Iteration    1(   1)  ---------------------------------------


    POTLOK:  cpu time    0.67: real time    0.50
    SETDIJ:  cpu time    0.07: real time    0.07
     EDDAV:  cpu time    0.90: real time    0.24
       DOS:  cpu time    0.00: real time    0.00
    --------------------------------------------
      LOOP:  cpu time    1.65: real time    0.81

 eigenvalue-minimisations  :    32
 total energy-change (2. order) : 0.1366869E+03  (-0.8012381E+03)
 number of electron   24.0000000 magnetization 
 augmentation part    24.0000000 magnetization 

 Free energy of the ion-electron system (eV)
  ---------------------------------------------------
  alpha Z        PSCENC =       134.15010455
  Ewald energy   TEWEN  =     -1542.80039103
  -1/2 Hartree   DENC   =      -456.74791899
  -exchange  EXHF       =         0.00000000
  -V(xc)+E(xc)   XCENC  =         9.13194114
  PAW double counting   =      1438.89509626    -1462.21758594
  entropy T*S    EENTRO =         0.02375753
  eigenvalues    EBANDS =       229.63701911
  atomic energy  EATOM  =      1786.61487174
  ---------------------------------------------------
  free energy    TOTEN  =       136.68689435 eV

  energy without entropy =      136.66313683  energy(sigma->0) =      136.67897518


--------------------------------------------------------------------------------------------------------




----------------------------------------- Iteration    1(   2)  ---------------------------------------


     EDDAV:  cpu time    0.95: real time    0.24
       DOS:  cpu time    0.00: real time    0.00
    --------------------------------------------
      LOOP:  cpu time    0.96: real time    0.24

 eigenvalue-minimisations  :    32
 total energy-change (2. order) :-0.1532862E+03  (-0.1474575E+03)
 number of electron   24.0000000 magnetization 
 augmentation part    24.0000000 magnetization 

 Free energy of the ion-electron system (eV)
  ---------------------------------------------------
  alpha Z        PSCENC =       134.15010455
  Ewald energy   TEWEN  =     -1542.80039103
  -1/2 Hartree   DENC   =      -456.74791899
  -exchange  EXHF       =         0.00000000
  -V(xc)+E(xc)   XCENC  =         9.13194114
  PAW double counting   =      1438.89509626    -1462.21758594
  entropy T*S    EENTRO =         0.01229411
  eigenvalues    EBANDS =        76.36232799
  atomic energy  EATOM  =      1786.61487174
  ---------------------------------------------------
  free energy    TOTEN  =       -16.59926018 eV

  energy without entropy =      -16.61155429  energy(sigma->0) =      -16.60335822


--------------------------------------------------------------------------------------------------------




----------------------------------------- Iteration    1(   3)  ---------------------------------------


     EDDAV:  cpu time    1.12: real time    0.28
       DOS:  cpu time    0.00: real time    0.00
    --------------------------------------------
      LOOP:  cpu time    1.13: real time    0.28

 eigenvalue-minimisations  :    48
 total energy-change (2. order) :-0.9876906E+01  (-0.9588145E+01)
 number of electron   24.0000000 magnetization 
 augmentation part    24.0000000 magnetization 

 Free energy of the ion-electron system (eV)
  ---------------------------------------------------
  alpha Z        PSCENC =       134.15010455
  Ewald energy   TEWEN  =     -1542.80039103
  -1/2 Hartree   DENC   =      -456.74791899
  -exchange  EXHF       =         0.00000000
  -V(xc)+E(xc)   XCENC  =         9.13194114
  PAW double counting   =      1438.89509626    -1462.21758594
  entropy T*S    EENTRO =        -0.10876994
  eigenvalues    EBANDS =        66.60648577
  atomic energy  EATOM  =      1786.61487174
  ---------------------------------------------------
  free energy    TOTEN  =       -26.47616644 eV

  energy without entropy =      -26.36739651  energy(sigma->0) =      -26.43990980


--------------------------------------------------------------------------------------------------------




----------------------------------------- Iteration    1(   4)  ---------------------------------------


     EDDAV:  cpu time    0.52: real time    0.13
       DOS:  cpu time    0.00: real time    0.00
    --------------------------------------------
      LOOP:  cpu time    0.53: real time    0.13

 eigenvalue-minimisations  :    32
 total energy-change (2. order) :-0.1788431E+00  (-0.1787858E+00)
 number of electron   24.0000000 magnetization 
 augmentation part    24.0000000 magnetization 

 Free energy of the ion-electron system (eV)
  ---------------------------------------------------
  alpha Z        PSCENC =       134.15010455
  Ewald energy   TEWEN  =     -1542.80039103
  -1/2 Hartree   DENC   =      -456.74791899
  -exchange  EXHF       =         0.00000000
  -V(xc)+E(xc)   XCENC  =         9.13194114
  PAW double counting   =      1438.89509626    -1462.21758594
  entropy T*S    EENTRO =        -0.10933960
  eigenvalues    EBANDS =        66.42821237
  atomic energy  EATOM  =      1786.61487174
  ---------------------------------------------------
  free energy    TOTEN  =       -26.65500951 eV

  energy without entropy =      -26.54566991  energy(sigma->0) =      -26.61856298


--------------------------------------------------------------------------------------------------------




----------------------------------------- Iteration    1(   5)  ---------------------------------------


     EDDAV:  cpu time    0.70: real time    0.18
       DOS:  cpu time    0.00: real time    0.00
    CHARGE:  cpu time    0.20: real time    0.06
    MIXING:  cpu time    0.02: real time    0.01
    --------------------------------------------
      LOOP:  cpu time    0.93: real time    0.24

 eigenvalue-minimisations  :    48
 total energy-change (2. order) :-0.5855930E-02  (-0.5855881E-02)
 number of electron   24.0000011 magnetization 
 augmentation part    11.8826669 magnetization 

 Broyden mixing:
  rms(total) = 0.10862E+01    rms(broyden)= 0.10852E+01
  rms(prec ) = 0.26119E+01
  weight for this iteration     100.00

 Free energy of the ion-electron system (eV)
  ---------------------------------------------------
  alpha Z        PSCENC =       134.15010455
  Ewald energy   TEWEN  =     -1542.80039103
  -1/2 Hartree   DENC   =      -456.74791899
  -exchange  EXHF       =         0.00000000
  -V(xc)+E(xc)   XCENC  =         9.13194114
  PAW double counting   =      1438.89509626    -1462.21758594
  entropy T*S    EENTRO =        -0.10933717
  eigenvalues    EBANDS =        66.42235401
  atomic energy  EATOM  =      1786.61487174
  ---------------------------------------------------
  free energy    TOTEN  =       -26.66086544 eV

  energy without entropy =      -26.55152826  energy(sigma->0) =      -26.62441971


--------------------------------------------------------------------------------------------------------




----------------------------------------- Iteration    1(   6)  ---------------------------------------


    POTLOK:  cpu time    0.28: real time    0.28
    SETDIJ:  cpu time    0.04: real time    0.04
     EDDAV:  cpu time    0.58: real time    0.15
       DOS:  cpu time    0.00: real time    0.00
    CHARGE:  cpu time    0.20: real time    0.06
    MIXING:  cpu time    0.02: real time    0.01
    --------------------------------------------
      LOOP:  cpu time    1.12: real time    0.53

 eigenvalue-minimisations  :    40
 total energy-change (2. order) :-0.8639969E+01  (-0.1036730E+02)
 number of electron   24.0000006 magnetization 
 augmentation part    13.7503388 magnetization 

 Broyden mixing:
  rms(total) = 0.42788E+01    rms(broyden)= 0.42776E+01
  rms(prec ) = 0.13227E+02
  weight for this iteration     100.00

 eigenvalues of (default mixing * dielectric matrix)
  average eigenvalue GAMMA=   0.1503
  0.1503

 Free energy of the ion-electron system (eV)
  ---------------------------------------------------
  alpha Z        PSCENC =       134.15010455
  Ewald energy   TEWEN  =     -1542.80039103
  -1/2 Hartree   DENC   =      -425.26763548
  -exchange  EXHF       =         0.00000000
  -V(xc)+E(xc)   XCENC  =         7.66070330
  PAW double counting   =      1447.83025958    -1465.37240339
  entropy T*S    EENTRO =        -0.11033851
  eigenvalues    EBANDS =        21.99399437
  atomic energy  EATOM  =      1786.61487174
  ---------------------------------------------------
  free energy    TOTEN  =       -35.30083487 eV

  energy without entropy =      -35.19049636  energy(sigma->0) =      -35.26405537


--------------------------------------------------------------------------------------------------------




----------------------------------------- Iteration    1(   7)  ---------------------------------------


    POTLOK:  cpu time    0.28: real time    0.28
    SETDIJ:  cpu time    0.04: real time    0.04
     EDDAV:  cpu time    0.58: real time    0.15
       DOS:  cpu time    0.00: real time    0.00
    CHARGE:  cpu time    0.20: real time    0.06
    MIXING:  cpu time    0.02: real time    0.01
    --------------------------------------------
      LOOP:  cpu time    1.12: real time    0.53

 eigenvalue-minimisations  :    40
 total energy-change (2. order) : 0.9198159E+01  (-0.8235223E+01)
 number of electron   24.0000008 magnetization 
 augmentation part    12.9387270 magnetization 

 Broyden mixing:
  rms(total) = 0.16655E+01    rms(broyden)= 0.16602E+01
  rms(prec ) = 0.50389E+01
  weight for this iteration     100.00

 eigenvalues of (default mixing * dielectric matrix)
  average eigenvalue GAMMA=   0.4358
  0.0905  0.7811

 Free energy of the ion-electron system (eV)
  ---------------------------------------------------
  alpha Z        PSCENC =       134.15010455
  Ewald energy   TEWEN  =     -1542.80039103
  -1/2 Hartree   DENC   =      -428.19338284
  -exchange  EXHF       =         0.00000000
  -V(xc)+E(xc)   XCENC  =         7.79575614
  PAW double counting   =      1456.50194220    -1475.05310295
  entropy T*S    EENTRO =         0.02512352
  eigenvalues    EBANDS =        34.85640300
  atomic energy  EATOM  =      1786.61487174
  ---------------------------------------------------
  free energy    TOTEN  =       -26.10267569 eV

  energy without entropy =      -26.12779920  energy(sigma->0) =      -26.11105019


--------------------------------------------------------------------------------------------------------




----------------------------------------- Iteration    1(   8)  ---------------------------------------


    POTLOK:  cpu time    0.31: real time    0.28
    SETDIJ:  cpu time    0.04: real time    0.04
     EDDAV:  cpu time    0.67: real time    0.17
       DOS:  cpu time    0.00: real time    0.00
    CHARGE:  cpu time    0.20: real time    0.06
    MIXING:  cpu time    0.02: real time    0.01
    --------------------------------------------
      LOOP:  cpu time    1.25: real time    0.56

 eigenvalue-minimisations  :    48
 total energy-change (2. order) : 0.1360987E+01  (-0.6344409E+00)
 number of electron   24.0000006 magnetization 
 augmentation part    12.7172772 magnetization 

 Broyden mixing:
  rms(total) = 0.59590E+00    rms(broyden)= 0.58496E+00
  rms(prec ) = 0.14060E+01
  weight for this iteration     100.00

 eigenvalues of (default mixing * dielectric matrix)
  average eigenvalue GAMMA=   0.4293
  0.9186  0.0896  0.2798

 Free energy of the ion-electron system (eV)
  ---------------------------------------------------
  alpha Z        PSCENC =       134.15010455
  Ewald energy   TEWEN  =     -1542.80039103
  -1/2 Hartree   DENC   =      -434.41253859
  -exchange  EXHF       =         0.00000000
  -V(xc)+E(xc)   XCENC  =         8.11714172
  PAW double counting   =      1492.11367243    -1513.39502017
  entropy T*S    EENTRO =        -0.09847475
  eigenvalues    EBANDS =        44.96894557
  atomic energy  EATOM  =      1786.61487174
  ---------------------------------------------------
  free energy    TOTEN  =       -24.74168853 eV

  energy without entropy =      -24.64321378  energy(sigma->0) =      -24.70886362


--------------------------------------------------------------------------------------------------------




----------------------------------------- Iteration    1(   9)  ---------------------------------------


    POTLOK:  cpu time    0.37: real time    0.28
    SETDIJ:  cpu time    0.04: real time    0.04
     EDDAV:  cpu time    0.49: real time    0.13
       DOS:  cpu time    0.00: real time    0.00
    CHARGE:  cpu time    0.20: real time    0.06
    MIXING:  cpu time    0.02: real time    0.01
    --------------------------------------------
      LOOP:  cpu time    1.13: real time    0.51

 eigenvalue-minimisations  :    32
 total energy-change (2. order) : 0.1056652E+00  (-0.2679995E+00)
 number of electron   24.0000008 magnetization 
 augmentation part    12.6665158 magnetization 

 Broyden mixing:
  rms(total) = 0.65076E+00    rms(broyden)= 0.64335E+00
  rms(prec ) = 0.18320E+01
  weight for this iteration     100.00

 eigenvalues of (default mixing * dielectric matrix)
  average eigenvalue GAMMA=   0.5421
  1.3157  0.5432  0.0889  0.2206

 Free energy of the ion-electron system (eV)
  ---------------------------------------------------
  alpha Z        PSCENC =       134.15010455
  Ewald energy   TEWEN  =     -1542.80039103
  -1/2 Hartree   DENC   =      -433.43291060
  -exchange  EXHF       =         0.00000000
  -V(xc)+E(xc)   XCENC  =         8.08287805
  PAW double counting   =      1502.21922046    -1523.64701499
  entropy T*S    EENTRO =        -0.01366021
  eigenvalues    EBANDS =        44.19087874
  atomic energy  EATOM  =      1786.61487174
  ---------------------------------------------------
  free energy    TOTEN  =       -24.63602330 eV

  energy without entropy =      -24.62236308  energy(sigma->0) =      -24.63146989


--------------------------------------------------------------------------------------------------------




----------------------------------------- Iteration    1(  10)  ---------------------------------------


    POTLOK:  cpu time    0.44: real time    0.28
    SETDIJ:  cpu time    0.04: real time    0.04
     EDDAV:  cpu time    0.49: real time    0.13
       DOS:  cpu time    0.00: real time    0.00
    CHARGE:  cpu time    0.20: real time    0.06
    MIXING:  cpu time    0.02: real time    0.01
    --------------------------------------------
      LOOP:  cpu time    1.20: real time    0.51

 eigenvalue-minimisations  :    32
 total energy-change (2. order) :-0.5090163E-01  (-0.4477784E+00)
 number of electron   24.0000002 magnetization 
 augmentation part    12.8275574 magnetization 

 Broyden mixing:
  rms(total) = 0.72134E+00    rms(broyden)= 0.71099E+00
  rms(prec ) = 0.19343E+01
  weight for this iteration     100.00

 eigenvalues of (default mixing * dielectric matrix)
  average eigenvalue GAMMA=   0.4958
  0.9132  0.6498  0.6498  0.0887  0.1773

 Free energy of the ion-electron system (eV)
  ---------------------------------------------------
  alpha Z        PSCENC =       134.15010455
  Ewald energy   TEWEN  =     -1542.80039103
  -1/2 Hartree   DENC   =      -431.16967824
  -exchange  EXHF       =         0.00000000
  -V(xc)+E(xc)   XCENC  =         8.00094186
  PAW double counting   =      1524.20648286    -1545.82616400
  entropy T*S    EENTRO =        -0.01465738
  eigenvalues    EBANDS =        42.15156473
  atomic energy  EATOM  =      1786.61487174
  ---------------------------------------------------
  free energy    TOTEN  =       -24.68692492 eV

  energy without entropy =      -24.67226754  energy(sigma->0) =      -24.68203913


--------------------------------------------------------------------------------------------------------




----------------------------------------- Iteration    1(  11)  ---------------------------------------


    POTLOK:  cpu time    0.43: real time    0.28
    SETDIJ:  cpu time    0.04: real time    0.04
     EDDAV:  cpu time    0.57: real time    0.15
       DOS:  cpu time    0.00: real time    0.00
    CHARGE:  cpu time    0.19: real time    0.05
    MIXING:  cpu time    0.02: real time    0.01
    --------------------------------------------
      LOOP:  cpu time    1.27: real time    0.53

 eigenvalue-minimisations  :    40
 total energy-change (2. order) : 0.1059479E+00  (-0.3011010E+00)
 number of electron   24.0000008 magnetization 
 augmentation part    12.7408507 magnetization 

 Broyden mixing:
  rms(total) = 0.37683E+00    rms(broyden)= 0.36277E+00
  rms(prec ) = 0.10069E+01
  weight for this iteration     100.00

 eigenvalues of (default mixing * dielectric matrix)
  average eigenvalue GAMMA=   0.8250
  2.1065  1.5840  0.6647  0.0886  0.3479  0.1582

 Free energy of the ion-electron system (eV)
  ---------------------------------------------------
  alpha Z        PSCENC =       134.15010455
  Ewald energy   TEWEN  =     -1542.80039103
  -1/2 Hartree   DENC   =      -431.32297524
  -exchange  EXHF       =         0.00000000
  -V(xc)+E(xc)   XCENC  =         8.00626175
  PAW double counting   =      1523.94041760    -1545.64999095
  entropy T*S    EENTRO =        -0.06995435
  eigenvalues    EBANDS =        42.55067896
  atomic energy  EATOM  =      1786.61487174
  ---------------------------------------------------
  free energy    TOTEN  =       -24.58097698 eV

  energy without entropy =      -24.51102263  energy(sigma->0) =      -24.55765886


--------------------------------------------------------------------------------------------------------




----------------------------------------- Iteration    1(  12)  ---------------------------------------


    POTLOK:  cpu time    0.43: real time    0.28
    SETDIJ:  cpu time    0.04: real time    0.04
     EDDAV:  cpu time    0.66: real time    0.17
       DOS:  cpu time    0.00: real time    0.00
    CHARGE:  cpu time    0.19: real time    0.05
    MIXING:  cpu time    0.02: real time    0.01
    --------------------------------------------
      LOOP:  cpu time    1.36: real time    0.55

 eigenvalue-minimisations  :    48
 total energy-change (2. order) :-0.6270778E-01  (-0.2768093E+00)
 number of electron   24.0000002 magnetization 
 augmentation part    12.8566014 magnetization 

 Broyden mixing:
  rms(total) = 0.55694E+00    rms(broyden)= 0.54820E+00
  rms(prec ) = 0.14501E+01
  weight for this iteration     100.00

 eigenvalues of (default mixing * dielectric matrix)
  average eigenvalue GAMMA=   0.7576
  2.0020  1.7283  0.6602  0.0886  0.4074  0.1536  0.2630

 Free energy of the ion-electron system (eV)
  ---------------------------------------------------
  alpha Z        PSCENC =       134.15010455
  Ewald energy   TEWEN  =     -1542.80039103
  -1/2 Hartree   DENC   =      -430.22000426
  -exchange  EXHF       =         0.00000000
  -V(xc)+E(xc)   XCENC  =         7.98147911
  PAW double counting   =      1544.96930290    -1566.86731028
  entropy T*S    EENTRO =        -0.02123142
  eigenvalues    EBANDS =        41.54949394
  atomic energy  EATOM  =      1786.61487174
  ---------------------------------------------------
  free energy    TOTEN  =       -24.64368476 eV

  energy without entropy =      -24.62245334  energy(sigma->0) =      -24.63660762


--------------------------------------------------------------------------------------------------------




----------------------------------------- Iteration    1(  13)  ---------------------------------------


    POTLOK:  cpu time    0.43: real time    0.28
    SETDIJ:  cpu time    0.04: real time    0.04
     EDDAV:  cpu time    0.66: real time    0.17
       DOS:  cpu time    0.00: real time    0.00
    CHARGE:  cpu time    0.19: real time    0.05
    MIXING:  cpu time    0.03: real time    0.01
    --------------------------------------------
      LOOP:  cpu time    1.37: real time    0.55

 eigenvalue-minimisations  :    48
 total energy-change (2. order) : 0.8758038E-01  (-0.1331665E+00)
 number of electron   24.0000007 magnetization 
 augmentation part    12.7839636 magnetization 

 Broyden mixing:
  rms(total) = 0.13194E+00    rms(broyden)= 0.10695E+00
  rms(prec ) = 0.25125E+00
  weight for this iteration     100.00
  WARNING: grid for Broyden might be to small

 eigenvalues of (default mixing * dielectric matrix)
  average eigenvalue GAMMA=   0.9658
  2.4128  2.4128  1.2257  0.6597  0.0886  0.4737  0.1549  0.2985

 Free energy of the ion-electron system (eV)
  ---------------------------------------------------
  alpha Z        PSCENC =       134.15010455
  Ewald energy   TEWEN  =     -1542.80039103
  -1/2 Hartree   DENC   =      -430.58792949
  -exchange  EXHF       =         0.00000000
  -V(xc)+E(xc)   XCENC  =         8.00178434
  PAW double counting   =      1545.64247573    -1567.71895627
  entropy T*S    EENTRO =        -0.10695878
  eigenvalues    EBANDS =        42.24889484
  atomic energy  EATOM  =      1786.61487174
  ---------------------------------------------------
  free energy    TOTEN  =       -24.55610437 eV

  energy without entropy =      -24.44914559  energy(sigma->0) =      -24.52045145


--------------------------------------------------------------------------------------------------------




----------------------------------------- Iteration    1(  14)  ---------------------------------------


    POTLOK:  cpu time    0.43: real time    0.28
    SETDIJ:  cpu time    0.04: real time    0.04
     EDDAV:  cpu time    0.66: real time    0.17
       DOS:  cpu time    0.00: real time    0.00
    CHARGE:  cpu time    0.19: real time    0.05
    MIXING:  cpu time    0.03: real time    0.01
    --------------------------------------------
      LOOP:  cpu time    1.36: real time    0.55

 eigenvalue-minimisations  :    48
 total energy-change (2. order) :-0.1254671E-01  (-0.1000088E+00)
 number of electron   24.0000003 magnetization 
 augmentation part    12.8331625 magnetization 

 Broyden mixing:
  rms(total) = 0.42198E+00    rms(broyden)= 0.41704E+00
  rms(prec ) = 0.11154E+01
  weight for this iteration     100.00

 eigenvalues of (default mixing * dielectric matrix)
  average eigenvalue GAMMA=   0.8759
  2.5337  1.8571  0.9125  0.9125  0.6892  0.0886  0.4416  0.1548  0.2928

 Free energy of the ion-electron system (eV)
  ---------------------------------------------------
  alpha Z        PSCENC =       134.15010455
  Ewald energy   TEWEN  =     -1542.80039103
  -1/2 Hartree   DENC   =      -430.53335440
  -exchange  EXHF       =         0.00000000
  -V(xc)+E(xc)   XCENC  =         8.00023996
  PAW double counting   =      1547.72233905    -1569.67542771
  entropy T*S    EENTRO =        -0.06235418
  eigenvalues    EBANDS =        42.01532094
  atomic energy  EATOM  =      1786.61487174
  ---------------------------------------------------
  free energy    TOTEN  =       -24.56865109 eV

  energy without entropy =      -24.50629691  energy(sigma->0) =      -24.54786636


--------------------------------------------------------------------------------------------------------




----------------------------------------- Iteration    1(  15)  ---------------------------------------


    POTLOK:  cpu time    0.43: real time    0.28
    SETDIJ:  cpu time    0.04: real time    0.04
     EDDAV:  cpu time    0.58: real time    0.15
       DOS:  cpu time    0.00: real time    0.00
    CHARGE:  cpu time    0.20: real time    0.05
    MIXING:  cpu time    0.03: real time    0.01
    --------------------------------------------
      LOOP:  cpu time    1.28: real time    0.53

 eigenvalue-minimisations  :    40
 total energy-change (2. order) : 0.3949148E-01  (-0.6547466E-01)
 number of electron   24.0000006 magnetization 
 augmentation part    12.7888939 magnetization 

 Broyden mixing:
  rms(total) = 0.10860E+00    rms(broyden)= 0.92471E-01
  rms(prec ) = 0.24602E+00
  weight for this iteration     100.00
  WARNING: grid for Broyden might be to small

 eigenvalues of (default mixing * dielectric matrix)
  average eigenvalue GAMMA=   0.8226
  2.4828  1.8644  0.9957  0.9957  0.6688  0.0886  0.4422  0.1547  0.3001  0.2330

 Free energy of the ion-electron system (eV)
  ---------------------------------------------------
  alpha Z        PSCENC =       134.15010455
  Ewald energy   TEWEN  =     -1542.80039103
  -1/2 Hartree   DENC   =      -430.52892745
  -exchange  EXHF       =         0.00000000
  -V(xc)+E(xc)   XCENC  =         8.00397163
  PAW double counting   =      1548.63882270    -1570.68718647
  entropy T*S    EENTRO =        -0.10204996
  eigenvalues    EBANDS =        42.18162470
  atomic energy  EATOM  =      1786.61487174
  ---------------------------------------------------
  free energy    TOTEN  =       -24.52915960 eV

  energy without entropy =      -24.42710965  energy(sigma->0) =      -24.49514295


--------------------------------------------------------------------------------------------------------




----------------------------------------- Iteration    1(  16)  ---------------------------------------


    POTLOK:  cpu time    0.43: real time    0.28
    SETDIJ:  cpu time    0.04: real time    0.04
     EDDAV:  cpu time    0.57: real time    0.15
       DOS:  cpu time    0.00: real time    0.00
    CHARGE:  cpu time    0.19: real time    0.05
    MIXING:  cpu time    0.03: real time    0.01
    --------------------------------------------
      LOOP:  cpu time    1.27: real time    0.53

 eigenvalue-minimisations  :    40
 total energy-change (2. order) :-0.1671496E-01  (-0.5627521E-01)
 number of electron   24.0000003 magnetization 
 augmentation part    12.8283427 magnetization 

 Broyden mixing:
  rms(total) = 0.35749E+00    rms(broyden)= 0.35391E+00
  rms(prec ) = 0.95128E+00
  weight for this iteration     100.00

 eigenvalues of (default mixing * dielectric matrix)
  average eigenvalue GAMMA=   0.9498
  2.5039  1.7978  1.7978  1.3567  0.8104  0.6525  0.6525  0.0886  0.1547  0.3560
  0.2772

 Free energy of the ion-electron system (eV)
  ---------------------------------------------------
  alpha Z        PSCENC =       134.15010455
  Ewald energy   TEWEN  =     -1542.80039103
  -1/2 Hartree   DENC   =      -430.52496635
  -exchange  EXHF       =         0.00000000
  -V(xc)+E(xc)   XCENC  =         8.00301953
  PAW double counting   =      1548.63204850    -1570.58281349
  entropy T*S    EENTRO =        -0.07643904
  eigenvalues    EBANDS =        42.03869104
  atomic energy  EATOM  =      1786.61487174
  ---------------------------------------------------
  free energy    TOTEN  =       -24.54587456 eV

  energy without entropy =      -24.46943552  energy(sigma->0) =      -24.52039488


--------------------------------------------------------------------------------------------------------




----------------------------------------- Iteration    1(  17)  ---------------------------------------


    POTLOK:  cpu time    0.43: real time    0.28
    SETDIJ:  cpu time    0.04: real time    0.04
     EDDAV:  cpu time    0.57: real time    0.15
       DOS:  cpu time    0.00: real time    0.00
    CHARGE:  cpu time    0.19: real time    0.05
    MIXING:  cpu time    0.03: real time    0.01
    --------------------------------------------
      LOOP:  cpu time    1.28: real time    0.53

 eigenvalue-minimisations  :    40
 total energy-change (2. order) : 0.2479685E-01  (-0.3705699E-01)
 number of electron   24.0000006 magnetization 
 augmentation part    12.7928697 magnetization 

 Broyden mixing:
  rms(total) = 0.75081E-01    rms(broyden)= 0.59755E-01
  rms(prec ) = 0.15895E+00
  weight for this iteration     100.00
  WARNING: grid for Broyden might be to small

 eigenvalues of (default mixing * dielectric matrix)
  average eigenvalue GAMMA=   1.0179
  2.5716  2.5716  1.6078  1.6078  0.9191  0.9191  0.6844  0.0886  0.4925  0.1547
  0.3285  0.2692

 Free energy of the ion-electron system (eV)
  ---------------------------------------------------
  alpha Z        PSCENC =       134.15010455
  Ewald energy   TEWEN  =     -1542.80039103
  -1/2 Hartree   DENC   =      -430.53027929
  -exchange  EXHF       =         0.00000000
  -V(xc)+E(xc)   XCENC  =         8.00523796
  PAW double counting   =      1548.68273850    -1570.69656315
  entropy T*S    EENTRO =        -0.10207409
  eigenvalues    EBANDS =        42.15527710
  atomic energy  EATOM  =      1786.61487174
  ---------------------------------------------------
  free energy    TOTEN  =       -24.52107770 eV

  energy without entropy =      -24.41900362  energy(sigma->0) =      -24.48705301


--------------------------------------------------------------------------------------------------------




----------------------------------------- Iteration    1(  18)  ---------------------------------------


    POTLOK:  cpu time    0.43: real time    0.28
    SETDIJ:  cpu time    0.04: real time    0.04
     EDDAV:  cpu time    0.57: real time    0.15
       DOS:  cpu time    0.00: real time    0.00
    CHARGE:  cpu time    0.19: real time    0.05
    MIXING:  cpu time    0.08: real time    0.03
    --------------------------------------------
      LOOP:  cpu time    1.33: real time    0.55

 eigenvalue-minimisations  :    40
 total energy-change (2. order) :-0.1213659E-01  (-0.3208809E-01)
 number of electron   24.0000004 magnetization 
 augmentation part    12.8244301 magnetization 

 Broyden mixing:
  rms(total) = 0.30432E+00    rms(broyden)= 0.30164E+00
  rms(prec ) = 0.81639E+00
  weight for this iteration     100.00

 eigenvalues of (default mixing * dielectric matrix)
  average eigenvalue GAMMA=   0.9486
  2.5837  2.5837  1.6270  1.6270  0.9073  0.9073  0.6835  0.4914  0.3290  0.0886
  0.1547  0.2697  0.0794

 Free energy of the ion-electron system (eV)
  ---------------------------------------------------
  alpha Z        PSCENC =       134.15010455
  Ewald energy   TEWEN  =     -1542.80039103
  -1/2 Hartree   DENC   =      -430.53725119
  -exchange  EXHF       =         0.00000000
  -V(xc)+E(xc)   XCENC  =         8.00480891
  PAW double counting   =      1548.59687935    -1570.53456145
  entropy T*S    EENTRO =        -0.08417734
  eigenvalues    EBANDS =        42.05650217
  atomic energy  EATOM  =      1786.61487174
  ---------------------------------------------------
  free energy    TOTEN  =       -24.53321429 eV

  energy without entropy =      -24.44903695  energy(sigma->0) =      -24.50515518


--------------------------------------------------------------------------------------------------------




----------------------------------------- Iteration    1(  19)  ---------------------------------------


    POTLOK:  cpu time    0.42: real time    0.28
    SETDIJ:  cpu time    0.04: real time    0.04
     EDDAV:  cpu time    0.63: real time    0.17
       DOS:  cpu time    0.00: real time    0.00
    CHARGE:  cpu time    0.19: real time    0.05
    MIXING:  cpu time    0.03: real time    0.01
    --------------------------------------------
      LOOP:  cpu time    1.33: real time    0.55

 eigenvalue-minimisations  :    40
 total energy-change (2. order) : 0.1611333E-01  (-0.2348854E-01)
 number of electron   24.0000006 magnetization 
 augmentation part    12.7941419 magnetization 

 Broyden mixing:
  rms(total) = 0.61914E-01    rms(broyden)= 0.49108E-01
  rms(prec ) = 0.13110E+00
  weight for this iteration     100.00
  WARNING: grid for Broyden might be to small

 eigenvalues of (default mixing * dielectric matrix)
  average eigenvalue GAMMA=   1.0976
  3.1499  3.1499  2.1326  1.3826  0.8478  0.8478  1.0625  0.7908  0.7104  0.0886
  0.4638  0.1547  0.3198  0.2654

 Free energy of the ion-electron system (eV)
  ---------------------------------------------------
  alpha Z        PSCENC =       134.15010455
  Ewald energy   TEWEN  =     -1542.80039103
  -1/2 Hartree   DENC   =      -430.55564324
  -exchange  EXHF       =         0.00000000
  -V(xc)+E(xc)   XCENC  =         8.00720741
  PAW double counting   =      1548.64585049    -1570.63660995
  entropy T*S    EENTRO =        -0.10103760
  eigenvalues    EBANDS =        42.15854668
  atomic energy  EATOM  =      1786.61487174
  ---------------------------------------------------
  free energy    TOTEN  =       -24.51710096 eV

  energy without entropy =      -24.41606337  energy(sigma->0) =      -24.48342176


--------------------------------------------------------------------------------------------------------




----------------------------------------- Iteration    1(  20)  ---------------------------------------


    POTLOK:  cpu time    0.43: real time    0.28
    SETDIJ:  cpu time    0.04: real time    0.04
     EDDAV:  cpu time    0.57: real time    0.15
       DOS:  cpu time    0.00: real time    0.00
    CHARGE:  cpu time    0.19: real time    0.05
    MIXING:  cpu time    0.03: real time    0.01
    --------------------------------------------
      LOOP:  cpu time    1.28: real time    0.53

 eigenvalue-minimisations  :    40
 total energy-change (2. order) :-0.8694648E-02  (-0.2044374E-01)
 number of electron   24.0000004 magnetization 
 augmentation part    12.8207834 magnetization 

 Broyden mixing:
  rms(total) = 0.25782E+00    rms(broyden)= 0.25565E+00
  rms(prec ) = 0.69575E+00
  weight for this iteration     100.00

 eigenvalues of (default mixing * dielectric matrix)
  average eigenvalue GAMMA=   1.0450
  3.0409  3.0409  2.1386  1.0116  1.0116  1.2093  1.2093  0.8093  0.7050  0.0886
  0.4735  0.1547  0.3229  0.2671  0.1925

 Free energy of the ion-electron system (eV)
  ---------------------------------------------------
  alpha Z        PSCENC =       134.15010455
  Ewald energy   TEWEN  =     -1542.80039103
  -1/2 Hartree   DENC   =      -430.56039775
  -exchange  EXHF       =         0.00000000
  -V(xc)+E(xc)   XCENC  =         8.00693600
  PAW double counting   =      1548.61206154    -1570.54381918
  entropy T*S    EENTRO =        -0.08881168
  eigenvalues    EBANDS =        42.08365020
  atomic energy  EATOM  =      1786.61487174
  ---------------------------------------------------
  free energy    TOTEN  =       -24.52579561 eV

  energy without entropy =      -24.43698394  energy(sigma->0) =      -24.49619172


--------------------------------------------------------------------------------------------------------




----------------------------------------- Iteration    1(  21)  ---------------------------------------


    POTLOK:  cpu time    0.43: real time    0.28
    SETDIJ:  cpu time    0.04: real time    0.04
     EDDAV:  cpu time    0.57: real time    0.15
       DOS:  cpu time    0.00: real time    0.00
    CHARGE:  cpu time    0.19: real time    0.05
    MIXING:  cpu time    0.03: real time    0.01
    --------------------------------------------
      LOOP:  cpu time    1.27: real time    0.53

 eigenvalue-minimisations  :    40
 total energy-change (2. order) : 0.1059848E-01  (-0.1662157E-01)
 number of electron   24.0000006 magnetization 
 augmentation part    12.7944319 magnetization 

 Broyden mixing:
  rms(total) = 0.58825E-01    rms(broyden)= 0.49223E-01
  rms(prec ) = 0.13177E+00
  weight for this iteration     100.00
  WARNING: grid for Broyden might be to small

 eigenvalues of (default mixing * dielectric matrix)
  average eigenvalue GAMMA=   1.0970
  3.3405  3.3405  2.3466  1.2184  1.2184  1.1609  1.1609  0.8404  0.6993  0.0886
  0.4738  0.4738  0.4546  0.1547  0.3165  0.2642

 Free energy of the ion-electron system (eV)
  ---------------------------------------------------
  alpha Z        PSCENC =       134.15010455
  Ewald energy   TEWEN  =     -1542.80039103
  -1/2 Hartree   DENC   =      -430.58153351
  -exchange  EXHF       =         0.00000000
  -V(xc)+E(xc)   XCENC  =         8.00906391
  PAW double counting   =      1548.62673210    -1570.60032544
  entropy T*S    EENTRO =        -0.09982204
  eigenvalues    EBANDS =        42.16610260
  atomic energy  EATOM  =      1786.61487174
  ---------------------------------------------------
  free energy    TOTEN  =       -24.51519713 eV

  energy without entropy =      -24.41537509  energy(sigma->0) =      -24.48192312


--------------------------------------------------------------------------------------------------------




----------------------------------------- Iteration    1(  22)  ---------------------------------------


    POTLOK:  cpu time    0.43: real time    0.28
    SETDIJ:  cpu time    0.04: real time    0.04
     EDDAV:  cpu time    0.57: real time    0.15
       DOS:  cpu time    0.00: real time    0.00
    CHARGE:  cpu time    0.19: real time    0.05
    MIXING:  cpu time    0.03: real time    0.01
    --------------------------------------------
      LOOP:  cpu time    1.28: real time    0.53

 eigenvalue-minimisations  :    40
 total energy-change (2. order) :-0.5772996E-02  (-0.1444154E-01)
 number of electron   24.0000004 magnetization 
 augmentation part    12.8177398 magnetization 

 Broyden mixing:
  rms(total) = 0.21582E+00    rms(broyden)= 0.21396E+00
  rms(prec ) = 0.58533E+00
  weight for this iteration     100.00

 eigenvalues of (default mixing * dielectric matrix)
  average eigenvalue GAMMA=   1.1044
  3.5710  3.2209  2.4622  1.4954  1.4954  1.1238  1.1238  0.8950  0.0886  0.6946
  0.5668  0.5668  0.4626  0.1547  0.3212  0.2733  0.2582

 Free energy of the ion-electron system (eV)
  ---------------------------------------------------
  alpha Z        PSCENC =       134.15010455
  Ewald energy   TEWEN  =     -1542.80039103
  -1/2 Hartree   DENC   =      -430.58460786
  -exchange  EXHF       =         0.00000000
  -V(xc)+E(xc)   XCENC  =         8.00894505
  PAW double counting   =      1548.64636795    -1570.57290032
  entropy T*S    EENTRO =        -0.09194473
  eigenvalues    EBANDS =        42.10858453
  atomic energy  EATOM  =      1786.61487174
  ---------------------------------------------------
  free energy    TOTEN  =       -24.52097013 eV

  energy without entropy =      -24.42902540  energy(sigma->0) =      -24.49032188


--------------------------------------------------------------------------------------------------------




----------------------------------------- Iteration    1(  23)  ---------------------------------------


    POTLOK:  cpu time    0.43: real time    0.28
    SETDIJ:  cpu time    0.04: real time    0.04
     EDDAV:  cpu time    0.57: real time    0.15
       DOS:  cpu time    0.00: real time    0.00
    CHARGE:  cpu time    0.19: real time    0.05
    MIXING:  cpu time    0.04: real time    0.01
    --------------------------------------------
      LOOP:  cpu time    1.27: real time    0.53

 eigenvalue-minimisations  :    40
 total energy-change (2. order) : 0.6765318E-02  (-0.1307582E-01)
 number of electron   24.0000006 magnetization 
 augmentation part    12.7942463 magnetization 

 Broyden mixing:
  rms(total) = 0.62914E-01    rms(broyden)= 0.56262E-01
  rms(prec ) = 0.15117E+00
  weight for this iteration     100.00
  WARNING: grid for Broyden might be to small

 eigenvalues of (default mixing * dielectric matrix)
  average eigenvalue GAMMA=   1.1425
  4.0068  1.9044  2.7124  2.1051  1.4352  1.4352  1.3795  1.0876  0.8406  0.6561
  0.6561  0.6995  0.0886  0.1547  0.4696  0.2634  0.3109  0.3597

 Free energy of the ion-electron system (eV)
  ---------------------------------------------------
  alpha Z        PSCENC =       134.15010455
  Ewald energy   TEWEN  =     -1542.80039103
  -1/2 Hartree   DENC   =      -430.61031482
  -exchange  EXHF       =         0.00000000
  -V(xc)+E(xc)   XCENC  =         8.01099449
  PAW double counting   =      1548.64336459    -1570.60385641
  entropy T*S    EENTRO =        -0.09872771
  eigenvalues    EBANDS =        42.17974980
  atomic energy  EATOM  =      1786.61487174
  ---------------------------------------------------
  free energy    TOTEN  =       -24.51420481 eV

  energy without entropy =      -24.41547710  energy(sigma->0) =      -24.48129557


--------------------------------------------------------------------------------------------------------




----------------------------------------- Iteration    1(  24)  ---------------------------------------


    POTLOK:  cpu time    0.43: real time    0.28
    SETDIJ:  cpu time    0.04: real time    0.04
     EDDAV:  cpu time    0.57: real time    0.15
       DOS:  cpu time    0.00: real time    0.00
    CHARGE:  cpu time    0.19: real time    0.05
    MIXING:  cpu time    0.04: real time    0.01
    --------------------------------------------
      LOOP:  cpu time    1.28: real time    0.53

 eigenvalue-minimisations  :    40
 total energy-change (2. order) :-0.3394626E-02  (-0.1127135E-01)
 number of electron   24.0000004 magnetization 
 augmentation part    12.8148178 magnetization 

 Broyden mixing:
  rms(total) = 0.17676E+00    rms(broyden)= 0.17505E+00
  rms(prec ) = 0.48135E+00
  weight for this iteration     100.00

 eigenvalues of (default mixing * dielectric matrix)
  average eigenvalue GAMMA=   1.1522
  4.0369  3.1492  2.6806  2.0755  1.3845  1.3845  1.4908  1.0581  0.8268  0.6563
  0.6563  0.7001  0.0886  0.4701  0.1547  0.3589  0.2634  0.3106  0.1459

 Free energy of the ion-electron system (eV)
  ---------------------------------------------------
  alpha Z        PSCENC =       134.15010455
  Ewald energy   TEWEN  =     -1542.80039103
  -1/2 Hartree   DENC   =      -430.61372749
  -exchange  EXHF       =         0.00000000
  -V(xc)+E(xc)   XCENC  =         8.01104454
  PAW double counting   =      1548.68713648    -1570.60927749
  entropy T*S    EENTRO =        -0.09431639
  eigenvalues    EBANDS =        42.13695566
  atomic energy  EATOM  =      1786.61487174
  ---------------------------------------------------
  free energy    TOTEN  =       -24.51759943 eV

  energy without entropy =      -24.42328304  energy(sigma->0) =      -24.48616064


--------------------------------------------------------------------------------------------------------




----------------------------------------- Iteration    1(  25)  ---------------------------------------


    POTLOK:  cpu time    0.42: real time    0.28
    SETDIJ:  cpu time    0.04: real time    0.04
     EDDAV:  cpu time    0.57: real time    0.15
       DOS:  cpu time    0.00: real time    0.00
    CHARGE:  cpu time    0.19: real time    0.05
    MIXING:  cpu time    0.04: real time    0.01
    --------------------------------------------
      LOOP:  cpu time    1.28: real time    0.53

 eigenvalue-minimisations  :    40
 total energy-change (2. order) : 0.3981626E-02  (-0.1097774E-01)
 number of electron   24.0000005 magnetization 
 augmentation part    12.7938332 magnetization 

 Broyden mixing:
  rms(total) = 0.70833E-01    rms(broyden)= 0.66309E-01
  rms(prec ) = 0.17838E+00
  weight for this iteration     100.00

 eigenvalues of (default mixing * dielectric matrix)
  average eigenvalue GAMMA=   1.0968
  4.0099  2.9172  2.6763  2.0764  1.3770  1.3770  1.4883  1.0525  0.2303  0.8302
  0.6601  0.6601  0.0886  0.6998  0.4715  0.1547  0.3594  0.3104  0.2633  0.2342

 Free energy of the ion-electron system (eV)
  ---------------------------------------------------
  alpha Z        PSCENC =       134.15010455
  Ewald energy   TEWEN  =     -1542.80039103
  -1/2 Hartree   DENC   =      -430.63943573
  -exchange  EXHF       =         0.00000000
  -V(xc)+E(xc)   XCENC  =         8.01284654
  PAW double counting   =      1548.67442831    -1570.62384461
  entropy T*S    EENTRO =        -0.09796951
  eigenvalues    EBANDS =        42.19577194
  atomic energy  EATOM  =      1786.61487174
  ---------------------------------------------------
  free energy    TOTEN  =       -24.51361781 eV

  energy without entropy =      -24.41564830  energy(sigma->0) =      -24.48096131


--------------------------------------------------------------------------------------------------------




----------------------------------------- Iteration    1(  26)  ---------------------------------------


    POTLOK:  cpu time    0.42: real time    0.28
    SETDIJ:  cpu time    0.04: real time    0.04
     EDDAV:  cpu time    0.66: real time    0.17
       DOS:  cpu time    0.00: real time    0.00
    CHARGE:  cpu time    0.19: real time    0.05
    MIXING:  cpu time    0.04: real time    0.01
    --------------------------------------------
      LOOP:  cpu time    1.36: real time    0.55

 eigenvalue-minimisations  :    48
 total energy-change (2. order) :-0.1495134E-02  (-0.9327988E-02)
 number of electron   24.0000004 magnetization 
 augmentation part    12.8119890 magnetization 

 Broyden mixing:
  rms(total) = 0.14005E+00    rms(broyden)= 0.13840E+00
  rms(prec ) = 0.38278E+00
  weight for this iteration     100.00

 eigenvalues of (default mixing * dielectric matrix)
  average eigenvalue GAMMA=   1.1064
  4.0645  3.4289  2.7019  2.0877  1.4311  1.4311  1.4723  1.0338  0.8453  0.6563
  0.6563  0.6979  0.3987  0.3987  0.0886  0.4711  0.1547  0.3591  0.3097  0.2635
  0.2835

 Free energy of the ion-electron system (eV)
  ---------------------------------------------------
  alpha Z        PSCENC =       134.15010455
  Ewald energy   TEWEN  =     -1542.80039103
  -1/2 Hartree   DENC   =      -430.64359913
  -exchange  EXHF       =         0.00000000
  -V(xc)+E(xc)   XCENC  =         8.01304303
  PAW double counting   =      1548.73120890    -1570.64899566
  entropy T*S    EENTRO =        -0.09631380
  eigenvalues    EBANDS =        42.16495845
  atomic energy  EATOM  =      1786.61487174
  ---------------------------------------------------
  free energy    TOTEN  =       -24.51511294 eV

  energy without entropy =      -24.41879914  energy(sigma->0) =      -24.48300834


--------------------------------------------------------------------------------------------------------




----------------------------------------- Iteration    1(  27)  ---------------------------------------


    POTLOK:  cpu time    0.42: real time    0.28
    SETDIJ:  cpu time    0.04: real time    0.04
     EDDAV:  cpu time    0.57: real time    0.15
       DOS:  cpu time    0.00: real time    0.00
    CHARGE:  cpu time    0.19: real time    0.05
    MIXING:  cpu time    0.04: real time    0.01
    --------------------------------------------
      LOOP:  cpu time    1.28: real time    0.53

 eigenvalue-minimisations  :    40
 total energy-change (2. order) : 0.1893207E-02  (-0.9408601E-02)
 number of electron   24.0000005 magnetization 
 augmentation part    12.7934046 magnetization 

 Broyden mixing:
  rms(total) = 0.80160E-01    rms(broyden)= 0.77060E-01
  rms(prec ) = 0.20743E+00
  weight for this iteration     100.00

 eigenvalues of (default mixing * dielectric matrix)
  average eigenvalue GAMMA=   1.0918
  4.0718  1.9484  1.9484  2.6989  1.9991  1.4463  1.4463  1.5346  1.0493  0.8482
  0.6966  0.6432  0.6432  0.5277  0.5277  0.0886  0.1547  0.4727  0.2635  0.3654
  0.3118  0.3334

 Free energy of the ion-electron system (eV)
  ---------------------------------------------------
  alpha Z        PSCENC =       134.15010455
  Ewald energy   TEWEN  =     -1542.80039103
  -1/2 Hartree   DENC   =      -430.66565219
  -exchange  EXHF       =         0.00000000
  -V(xc)+E(xc)   XCENC  =         8.01447946
  PAW double counting   =      1548.71997202    -1570.65982800
  entropy T*S    EENTRO =        -0.09760142
  eigenvalues    EBANDS =        42.21082513
  atomic energy  EATOM  =      1786.61487174
  ---------------------------------------------------
  free energy    TOTEN  =       -24.51321974 eV

  energy without entropy =      -24.41561832  energy(sigma->0) =      -24.48068593


--------------------------------------------------------------------------------------------------------




----------------------------------------- Iteration    1(  28)  ---------------------------------------


    POTLOK:  cpu time    0.42: real time    0.28
    SETDIJ:  cpu time    0.04: real time    0.04
     EDDAV:  cpu time    0.66: real time    0.17
       DOS:  cpu time    0.00: real time    0.00
    CHARGE:  cpu time    0.19: real time    0.05
    MIXING:  cpu time    0.04: real time    0.01
    --------------------------------------------
      LOOP:  cpu time    1.37: real time    0.55

 eigenvalue-minimisations  :    48
 total energy-change (2. order) :-0.3737759E-04  (-0.7844983E-02)
 number of electron   24.0000004 magnetization 
 augmentation part    12.8096164 magnetization 

 Broyden mixing:
  rms(total) = 0.10595E+00    rms(broyden)= 0.10426E+00
  rms(prec ) = 0.29035E+00
  weight for this iteration     100.00

 eigenvalues of (default mixing * dielectric matrix)
  average eigenvalue GAMMA=   1.3746
  6.0191  6.0191  2.7952  2.7952  1.9220  1.9220  1.2002  1.0914  1.0914  0.6317
  0.6317  0.0886  0.1547  0.8587  0.6654  0.6654  0.6865  0.5070  0.5070  0.4343
  0.2634  0.3113  0.3546

 Free energy of the ion-electron system (eV)
  ---------------------------------------------------
  alpha Z        PSCENC =       134.15010455
  Ewald energy   TEWEN  =     -1542.80039103
  -1/2 Hartree   DENC   =      -430.67134821
  -exchange  EXHF       =         0.00000000
  -V(xc)+E(xc)   XCENC  =         8.01481602
  PAW double counting   =      1548.77737231    -1570.69108691
  entropy T*S    EENTRO =        -0.09805801
  eigenvalues    EBANDS =        42.19046243
  atomic energy  EATOM  =      1786.61487174
  ---------------------------------------------------
  free energy    TOTEN  =       -24.51325711 eV

  energy without entropy =      -24.41519911  energy(sigma->0) =      -24.48057111


--------------------------------------------------------------------------------------------------------




----------------------------------------- Iteration    1(  29)  ---------------------------------------


    POTLOK:  cpu time    0.42: real time    0.28
    SETDIJ:  cpu time    0.04: real time    0.04
     EDDAV:  cpu time    0.57: real time    0.15
       DOS:  cpu time    0.00: real time    0.00
    CHARGE:  cpu time    0.19: real time    0.05
    MIXING:  cpu time    0.05: real time    0.01
    --------------------------------------------
      LOOP:  cpu time    1.28: real time    0.53

 eigenvalue-minimisations  :    40
 total energy-change (2. order) : 0.3970010E-03  (-0.7966824E-02)
 number of electron   24.0000005 magnetization 
 augmentation part    12.7930005 magnetization 

 Broyden mixing:
  rms(total) = 0.88899E-01    rms(broyden)= 0.86739E-01
  rms(prec ) = 0.23349E+00
  weight for this iteration     100.00

 eigenvalues of (default mixing * dielectric matrix)
  average eigenvalue GAMMA= ********
********  1.0000****************  1.0000 37.2339******** 18.1078  1.0000  1.0000
********  1.0000  1.6435  1.0000 22.2644  0.8027  0.6421  0.6421  0.7160  0.4951
  0.2646  0.4040  0.3123  0.3503

 Free energy of the ion-electron system (eV)
  ---------------------------------------------------
  alpha Z        PSCENC =       134.15010455
  Ewald energy   TEWEN  =     -1542.80039103
  -1/2 Hartree   DENC   =      -430.69402351
  -exchange  EXHF       =         0.00000000
  -V(xc)+E(xc)   XCENC  =         8.01612446
  PAW double counting   =      1548.77036793    -1570.70302409
  entropy T*S    EENTRO =        -0.09764476
  eigenvalues    EBANDS =        42.23075461
  atomic energy  EATOM  =      1786.61487174
  ---------------------------------------------------
  free energy    TOTEN  =       -24.51286011 eV

  energy without entropy =      -24.41521535  energy(sigma->0) =      -24.48031186


--------------------------------------------------------------------------------------------------------




----------------------------------------- Iteration    1(  30)  ---------------------------------------


    POTLOK:  cpu time    0.42: real time    0.28
    SETDIJ:  cpu time    0.04: real time    0.04
     EDDAV:  cpu time    0.66: real time    0.17
       DOS:  cpu time    0.00: real time    0.00
    CHARGE:  cpu time    0.19: real time    0.05
    MIXING:  cpu time    0.05: real time    0.01
    --------------------------------------------
      LOOP:  cpu time    1.36: real time    0.56

 eigenvalue-minimisations  :    48
 total energy-change (2. order) : 0.9620915E-03  (-0.6497237E-02)
 number of electron   24.0000005 magnetization 
 augmentation part    12.8073879 magnetization 

 Broyden mixing:
  rms(total) = 0.74992E-01    rms(broyden)= 0.73161E-01
  rms(prec ) = 0.20566E+00
  weight for this iteration     100.00

 eigenvalues of (default mixing * dielectric matrix)
  average eigenvalue GAMMA=   1.4306
  7.4076  7.4076  2.5661  2.5661  2.1223  2.1223  1.4150  0.8731  0.8731  0.9825
  0.9825  0.0886  0.6078  0.6078  0.1547  0.6421  0.6421  0.7227  0.7227  0.4836
  0.2635  0.4239  0.4239  0.3113  0.3525

 Free energy of the ion-electron system (eV)
  ---------------------------------------------------
  alpha Z        PSCENC =       134.15010455
  Ewald energy   TEWEN  =     -1542.80039103
  -1/2 Hartree   DENC   =      -430.69902575
  -exchange  EXHF       =         0.00000000
  -V(xc)+E(xc)   XCENC  =         8.01647214
  PAW double counting   =      1548.82569371    -1570.73682240
  entropy T*S    EENTRO =        -0.09953694
  eigenvalues    EBANDS =        42.21673596
  atomic energy  EATOM  =      1786.61487174
  ---------------------------------------------------
  free energy    TOTEN  =       -24.51189802 eV

  energy without entropy =      -24.41236108  energy(sigma->0) =      -24.47871904


--------------------------------------------------------------------------------------------------------




----------------------------------------- Iteration    1(  31)  ---------------------------------------


    POTLOK:  cpu time    0.42: real time    0.28
    SETDIJ:  cpu time    0.04: real time    0.04
     EDDAV:  cpu time    0.57: real time    0.15
       DOS:  cpu time    0.00: real time    0.00
    CHARGE:  cpu time    0.19: real time    0.05
    MIXING:  cpu time    0.05: real time    0.01
    --------------------------------------------
      LOOP:  cpu time    1.28: real time    0.53

 eigenvalue-minimisations  :    40
 total energy-change (2. order) :-0.6099256E-03  (-0.6562485E-02)
 number of electron   24.0000005 magnetization 
 augmentation part    12.7927165 magnetization 

 Broyden mixing:
  rms(total) = 0.96339E-01    rms(broyden)= 0.94817E-01
  rms(prec ) = 0.25545E+00
  weight for this iteration     100.00

 eigenvalues of (default mixing * dielectric matrix)
  average eigenvalue GAMMA=   1.4676
  7.7541  7.7541  2.7725  2.7725  1.9758  1.9758  1.1445  1.1445  1.3634  0.9861
  0.9861  0.7318  0.7318  0.0886  0.1547  0.6851  0.6851  0.7286  0.7286  0.5903
  0.5903  0.4878  0.2634  0.3113  0.4008  0.3489

 Free energy of the ion-electron system (eV)
  ---------------------------------------------------
  alpha Z        PSCENC =       134.15010455
  Ewald energy   TEWEN  =     -1542.80039103
  -1/2 Hartree   DENC   =      -430.71919564
  -exchange  EXHF       =         0.00000000
  -V(xc)+E(xc)   XCENC  =         8.01754862
  PAW double counting   =      1548.82111958    -1570.74852478
  entropy T*S    EENTRO =        -0.09796287
  eigenvalues    EBANDS =        42.24992190
  atomic energy  EATOM  =      1786.61487174
  ---------------------------------------------------
  free energy    TOTEN  =       -24.51250795 eV

  energy without entropy =      -24.41454507  energy(sigma->0) =      -24.47985365


--------------------------------------------------------------------------------------------------------




----------------------------------------- Iteration    1(  32)  ---------------------------------------


    POTLOK:  cpu time    0.42: real time    0.28
    SETDIJ:  cpu time    0.04: real time    0.04
     EDDAV:  cpu time    0.66: real time    0.17
       DOS:  cpu time    0.00: real time    0.00
    CHARGE:  cpu time    0.20: real time    0.05
    MIXING:  cpu time    0.05: real time    0.01
    --------------------------------------------
      LOOP:  cpu time    1.37: real time    0.56

 eigenvalue-minimisations  :    48
 total energy-change (2. order) : 0.1552970E-02  (-0.5233179E-02)
 number of electron   24.0000005 magnetization 
 augmentation part    12.8053965 magnetization 

 Broyden mixing:
  rms(total) = 0.47906E-01    rms(broyden)= 0.45700E-01
  rms(prec ) = 0.13028E+00
  weight for this iteration     100.00

 eigenvalues of (default mixing * dielectric matrix)
  average eigenvalue GAMMA=   1.4068
  7.4290  7.4290  2.7419  2.7419  2.0293  2.0293  1.1889  1.1889  1.2915  1.0350
  1.0350  0.7342  0.7342  0.0886  0.1547  0.5948  0.5948  0.7378  0.7378  0.6745
  0.6745  0.4967  0.4054  0.2634  0.3112  0.3502  0.2897

 Free energy of the ion-electron system (eV)
  ---------------------------------------------------
  alpha Z        PSCENC =       134.15010455
  Ewald energy   TEWEN  =     -1542.80039103
  -1/2 Hartree   DENC   =      -430.72321119
  -exchange  EXHF       =         0.00000000
  -V(xc)+E(xc)   XCENC  =         8.01786017
  PAW double counting   =      1548.86952811    -1570.77936407
  entropy T*S    EENTRO =        -0.10071549
  eigenvalues    EBANDS =        42.24036224
  atomic energy  EATOM  =      1786.61487174
  ---------------------------------------------------
  free energy    TOTEN  =       -24.51095498 eV

  energy without entropy =      -24.41023949  energy(sigma->0) =      -24.47738315


--------------------------------------------------------------------------------------------------------




----------------------------------------- Iteration    1(  33)  ---------------------------------------


    POTLOK:  cpu time    0.41: real time    0.28
    SETDIJ:  cpu time    0.04: real time    0.04
     EDDAV:  cpu time    0.57: real time    0.15
       DOS:  cpu time    0.00: real time    0.00
    CHARGE:  cpu time    0.19: real time    0.05
    MIXING:  cpu time    0.05: real time    0.01
    --------------------------------------------
      LOOP:  cpu time    1.28: real time    0.53

 eigenvalue-minimisations  :    40
 total energy-change (2. order) :-0.1207518E-02  (-0.5200957E-02)
 number of electron   24.0000005 magnetization 
 augmentation part    12.7925522 magnetization 

 Broyden mixing:
  rms(total) = 0.10169E+00    rms(broyden)= 0.10060E+00
  rms(prec ) = 0.27148E+00
  weight for this iteration     100.00

 eigenvalues of (default mixing * dielectric matrix)
  average eigenvalue GAMMA=   1.3987
  6.9832  6.9832  2.6478  2.6478  2.1443  2.1443  1.5738  1.5738  1.1933  1.1933
  1.1614  0.8079  0.8079  0.0886  0.1547  0.7905  0.7905  0.6172  0.6172  0.6832
  0.6832  0.5849  0.5247  0.2634  0.4515  0.3113  0.3479  0.3919

 Free energy of the ion-electron system (eV)
  ---------------------------------------------------
  alpha Z        PSCENC =       134.15010455
  Ewald energy   TEWEN  =     -1542.80039103
  -1/2 Hartree   DENC   =      -430.74011591
  -exchange  EXHF       =         0.00000000
  -V(xc)+E(xc)   XCENC  =         8.01869881
  PAW double counting   =      1548.86892816    -1570.79264709
  entropy T*S    EENTRO =        -0.09843747
  eigenvalues    EBANDS =        42.26682575
  atomic energy  EATOM  =      1786.61487174
  ---------------------------------------------------
  free energy    TOTEN  =       -24.51216249 eV

  energy without entropy =      -24.41372502  energy(sigma->0) =      -24.47935000


--------------------------------------------------------------------------------------------------------




----------------------------------------- Iteration    1(  34)  ---------------------------------------


    POTLOK:  cpu time    0.42: real time    0.28
    SETDIJ:  cpu time    0.04: real time    0.04
     EDDAV:  cpu time    0.66: real time    0.17
       DOS:  cpu time    0.00: real time    0.00
    CHARGE:  cpu time    0.19: real time    0.05
    MIXING:  cpu time    0.05: real time    0.02
    --------------------------------------------
      LOOP:  cpu time    1.37: real time    0.56

 eigenvalue-minimisations  :    48
 total energy-change (2. order) : 0.1821338E-02  (-0.4067584E-02)
 number of electron   24.0000005 magnetization 
 augmentation part    12.8037079 magnetization 

 Broyden mixing:
  rms(total) = 0.25817E-01    rms(broyden)= 0.22588E-01
  rms(prec ) = 0.65930E-01
  weight for this iteration     100.00
  WARNING: grid for Broyden might be to small

 eigenvalues of (default mixing * dielectric matrix)
  average eigenvalue GAMMA=   1.3527
  6.8933  6.8933  2.9829  2.9829  1.9393  1.9393  1.5182  1.5182  1.2055  1.0418
  1.0418  0.8231  0.8231  0.0886  0.7744  0.7744  0.7243  0.7243  0.1547  0.5656
  0.5656  0.5377  0.5092  0.5092  0.2634  0.3113  0.4150  0.3626  0.3439

 Free energy of the ion-electron system (eV)
  ---------------------------------------------------
  alpha Z        PSCENC =       134.15010455
  Ewald energy   TEWEN  =     -1542.80039103
  -1/2 Hartree   DENC   =      -430.74241617
  -exchange  EXHF       =         0.00000000
  -V(xc)+E(xc)   XCENC  =         8.01891654
  PAW double counting   =      1548.90883965    -1570.81813844
  entropy T*S    EENTRO =        -0.10156247
  eigenvalues    EBANDS =        42.25943448
  atomic energy  EATOM  =      1786.61487174
  ---------------------------------------------------
  free energy    TOTEN  =       -24.51034116 eV

  energy without entropy =      -24.40877869  energy(sigma->0) =      -24.47648700


--------------------------------------------------------------------------------------------------------




----------------------------------------- Iteration    1(  35)  ---------------------------------------


    POTLOK:  cpu time    0.42: real time    0.28
    SETDIJ:  cpu time    0.04: real time    0.04
     EDDAV:  cpu time    0.57: real time    0.15
       DOS:  cpu time    0.00: real time    0.00
    CHARGE:  cpu time    0.20: real time    0.05
    MIXING:  cpu time    0.06: real time    0.02
    --------------------------------------------
      LOOP:  cpu time    1.28: real time    0.54

 eigenvalue-minimisations  :    40
 total energy-change (2. order) :-0.1480711E-02  (-0.3950556E-02)
 number of electron   24.0000005 magnetization 
 augmentation part    12.7925627 magnetization 

 Broyden mixing:
  rms(total) = 0.10445E+00    rms(broyden)= 0.10367E+00
  rms(prec ) = 0.28031E+00
  weight for this iteration     100.00

 eigenvalues of (default mixing * dielectric matrix)
  average eigenvalue GAMMA=   1.3150
  6.6498  6.6498  3.0000  3.0000  1.9214  1.9214  1.5190  1.5190  1.2319  1.0996
  1.0996  0.8265  0.8265  0.7525  0.7525  0.0886  0.5013  0.5013  0.7404  0.7167
  0.1547  0.5828  0.5828  0.2634  0.3113  0.5315  0.4811  0.4811  0.3481  0.3945

 Free energy of the ion-electron system (eV)
  ---------------------------------------------------
  alpha Z        PSCENC =       134.15010455
  Ewald energy   TEWEN  =     -1542.80039103
  -1/2 Hartree   DENC   =      -430.75630469
  -exchange  EXHF       =         0.00000000
  -V(xc)+E(xc)   XCENC  =         8.01955805
  PAW double counting   =      1548.91046510    -1570.83184565
  entropy T*S    EENTRO =        -0.09896020
  eigenvalues    EBANDS =        42.28068028
  atomic energy  EATOM  =      1786.61487174
  ---------------------------------------------------
  free energy    TOTEN  =       -24.51182187 eV

  energy without entropy =      -24.41286167  energy(sigma->0) =      -24.47883513


--------------------------------------------------------------------------------------------------------




[...]
 number of electron   24.0000006 magnetization 
 augmentation part    12.7677023 magnetization 

 Broyden mixing:
  rms(total) = 0.56301E-01    rms(broyden)= 0.56256E-01
  rms(prec ) = 0.15761E+00
  weight for this iteration     100.00

 eigenvalues of (default mixing * dielectric matrix)
  average eigenvalue GAMMA=   1.1296
  3.8676  2.5949  2.4487  1.1594  1.1594  1.2924  1.0680  0.0330  0.8551  0.1267
  0.5230  0.5230  0.5206  0.3859  0.3859

 Free energy of the ion-electron system (eV)
  ---------------------------------------------------
  alpha Z        PSCENC =       134.15010455
  Ewald energy   TEWEN  =     -1518.21459529
  -1/2 Hartree   DENC   =      -452.23678987
  -exchange  EXHF       =         0.00000000
  -V(xc)+E(xc)   XCENC  =         8.13307023
  PAW double counting   =      1563.63439235    -1585.89373705
  entropy T*S    EENTRO =        -0.09598212
  eigenvalues    EBANDS =        38.69584538
  atomic energy  EATOM  =      1786.61487174
  ---------------------------------------------------
  free energy    TOTEN  =       -25.21282008 eV

  energy without entropy =      -25.11683796  energy(sigma->0) =      -25.18082604


--------------------------------------------------------------------------------------------------------




----------------------------------------- Iteration    3(  17)  ---------------------------------------


    POTLOK:  cpu time    0.43: real time    0.28
    SETDIJ:  cpu time    0.04: real time    0.04
     EDDAV:  cpu time    0.31: real time    0.09
       DOS:  cpu time    0.00: real time    0.00
    CHARGE:  cpu time    0.19: real time    0.05
    MIXING:  cpu time    0.03: real time    0.01
    --------------------------------------------
      LOOP:  cpu time    1.01: real time    0.47

 eigenvalue-minimisations  :    16
 total energy-change (2. order) : 0.2357006E-03  (-0.2169418E-05)
 number of electron   24.0000006 magnetization 
 augmentation part    12.7657032 magnetization 

 Broyden mixing:
  rms(total) = 0.32426E-01    rms(broyden)= 0.32366E-01
  rms(prec ) = 0.90653E-01
  weight for this iteration     100.00

 eigenvalues of (default mixing * dielectric matrix)
  average eigenvalue GAMMA=   1.1629
  5.0245  2.6584  2.2142  1.2264  1.2264  1.2223  1.0606  0.9030  0.6022  0.6022
  0.0330  0.1267  0.5204  0.3895  0.3980  0.3980

 Free energy of the ion-electron system (eV)
  ---------------------------------------------------
  alpha Z        PSCENC =       134.15010455
  Ewald energy   TEWEN  =     -1518.21459529
  -1/2 Hartree   DENC   =      -452.23581506
  -exchange  EXHF       =         0.00000000
  -V(xc)+E(xc)   XCENC  =         8.13306057
  PAW double counting   =      1563.63346517    -1585.89768478
  entropy T*S    EENTRO =        -0.09825181
  eigenvalues    EBANDS =        38.70226054
  atomic energy  EATOM  =      1786.61487174
  ---------------------------------------------------
  free energy    TOTEN  =       -25.21258438 eV

  energy without entropy =      -25.11433257  energy(sigma->0) =      -25.17983378


--------------------------------------------------------------------------------------------------------




----------------------------------------- Iteration    3(  18)  ---------------------------------------


    POTLOK:  cpu time    0.43: real time    0.27
    SETDIJ:  cpu time    0.04: real time    0.04
     EDDAV:  cpu time    0.31: real time    0.09
       DOS:  cpu time    0.00: real time    0.00
    CHARGE:  cpu time    0.19: real time    0.05
    MIXING:  cpu time    0.03: real time    0.01
    --------------------------------------------
      LOOP:  cpu time    1.01: real time    0.46

 eigenvalue-minimisations  :    16
 total energy-change (2. order) :-0.1019767E-03  (-0.1290195E-05)
 number of electron   24.0000006 magnetization 
 augmentation part    12.7670468 magnetization 

 Broyden mixing:
  rms(total) = 0.48231E-01    rms(broyden)= 0.48214E-01
  rms(prec ) = 0.13506E+00
  weight for this iteration     100.00

 eigenvalues of (default mixing * dielectric matrix)
  average eigenvalue GAMMA=   1.2310
  6.4225  2.6779  2.2873  1.1881  1.1881  1.2772  0.7674  0.7674  1.0028  0.9200
  0.0330  0.1267  0.5381  0.4824  0.4824  0.3997  0.3666

 Free energy of the ion-electron system (eV)
  ---------------------------------------------------
  alpha Z        PSCENC =       134.15010455
  Ewald energy   TEWEN  =     -1518.21459529
  -1/2 Hartree   DENC   =      -452.23996148
  -exchange  EXHF       =         0.00000000
  -V(xc)+E(xc)   XCENC  =         8.13320618
  PAW double counting   =      1563.64103408    -1585.90102625
  entropy T*S    EENTRO =        -0.09677591
  eigenvalues    EBANDS =        38.70045602
  atomic energy  EATOM  =      1786.61487174
  ---------------------------------------------------
  free energy    TOTEN  =       -25.21268636 eV

  energy without entropy =      -25.11591045  energy(sigma->0) =      -25.18042772


--------------------------------------------------------------------------------------------------------




----------------------------------------- Iteration    3(  19)  ---------------------------------------


    POTLOK:  cpu time    0.42: real time    0.27
    SETDIJ:  cpu time    0.04: real time    0.04
     EDDAV:  cpu time    0.31: real time    0.09
       DOS:  cpu time    0.00: real time    0.00
    CHARGE:  cpu time    0.19: real time    0.05
    MIXING:  cpu time    0.03: real time    0.01
    --------------------------------------------
      LOOP:  cpu time    1.01: real time    0.46

 eigenvalue-minimisations  :    16
 total energy-change (2. order) : 0.1281915E-03  (-0.8205119E-06)
 number of electron   24.0000006 magnetization 
 augmentation part    12.7658177 magnetization 

 Broyden mixing:
  rms(total) = 0.33909E-01    rms(broyden)= 0.33888E-01
  rms(prec ) = 0.94903E-01
  weight for this iteration     100.00

 eigenvalues of (default mixing * dielectric matrix)
  average eigenvalue GAMMA=   1.3685
  8.9607  2.7687  2.3825  1.4883  1.0051  1.0051  1.0574  1.0574  0.0330  0.9240
  0.9240  0.1267  0.5649  0.5649  0.5099  0.4383  0.4383  0.3835

 Free energy of the ion-electron system (eV)
  ---------------------------------------------------
  alpha Z        PSCENC =       134.15010455
  Ewald energy   TEWEN  =     -1518.21459529
  -1/2 Hartree   DENC   =      -452.24064236
  -exchange  EXHF       =         0.00000000
  -V(xc)+E(xc)   XCENC  =         8.13325798
  PAW double counting   =      1563.64271595    -1585.90565583
  entropy T*S    EENTRO =        -0.09812360
  eigenvalues    EBANDS =        38.70550870
  atomic energy  EATOM  =      1786.61487174
  ---------------------------------------------------
  free energy    TOTEN  =       -25.21255817 eV

  energy without entropy =      -25.11443456  energy(sigma->0) =      -25.17985030


--------------------------------------------------------------------------------------------------------




----------------------------------------- Iteration    3(  20)  ---------------------------------------


    POTLOK:  cpu time    0.43: real time    0.28
    SETDIJ:  cpu time    0.04: real time    0.04
     EDDAV:  cpu time    0.31: real time    0.09
       DOS:  cpu time    0.00: real time    0.00
    --------------------------------------------
      LOOP:  cpu time    0.78: real time    0.40

 eigenvalue-minimisations  :    16
 total energy-change (2. order) :-0.4932969E-04  (-0.5140242E-06)
 number of electron   24.0000006 magnetization 
 augmentation part    12.7658177 magnetization 

 Free energy of the ion-electron system (eV)
  ---------------------------------------------------
  alpha Z        PSCENC =       134.15010455
  Ewald energy   TEWEN  =     -1518.21459529
  -1/2 Hartree   DENC   =      -452.24339675
  -exchange  EXHF       =         0.00000000
  -V(xc)+E(xc)   XCENC  =         8.13335608
  PAW double counting   =      1563.64809697    -1585.90842486
  entropy T*S    EENTRO =        -0.09733715
  eigenvalues    EBANDS =        38.70471722
  atomic energy  EATOM  =      1786.61487174
  ---------------------------------------------------
  free energy    TOTEN  =       -25.21260750 eV

  energy without entropy =      -25.11527034  energy(sigma->0) =      -25.18016178


--------------------------------------------------------------------------------------------------------




 average (electrostatic) potential at core
  the test charge radii are     1.0103
  (the norm of the test charge is              1.0000)
       1 -45.2545       2 -45.6333       3 -45.6333
 
 
 
 E-fermi :   4.0302     XC(G=0): -11.2308     alpha+bet :-10.0907
   add alpha+bet to get absolut eigen values

 k-point   1 :       0.0000    0.0000    0.0000
  band No.  band energies     occupation 
      1      -3.4550      2.00000
      2       0.0061      2.00000
      3       0.2947      2.00000
      4       0.9790      2.00000
      5       1.4422      2.00000
      6       2.2932      2.00000
      7       2.3576      2.00000
      8       2.5135      2.00000
      9       2.6870      2.00000
     10       3.0053      2.00000
     11       3.2129      2.00000
     12       3.9908      1.32653
     13       4.0689      0.67922
     14       4.4961     -0.00480
     15       4.5683     -0.00095
     16       5.1695      0.00000


--------------------------------------------------------------------------------------------------------


 soft charge-density along one line, spin component           1
         0         1         2         3         4         5         6         7         8         9
 total charge-density along one line
 
 pseudopotential strength for first ion, spin component:           1
 -6.032   0.000   0.000   0.165   0.000  -0.523   0.000   0.000
  0.000  -6.004   0.105   0.000  -0.181   0.000  -0.529  -0.031
  0.000   0.105  -5.926   0.000   0.024   0.000  -0.031  -0.552
  0.165   0.000   0.000  -6.032   0.000  -0.048   0.000   0.000
  0.000  -0.181   0.024   0.000  -5.954   0.000   0.054  -0.006
 -0.523   0.000   0.000  -0.048   0.000   0.892   0.000   0.000
  0.000  -0.529  -0.031   0.000   0.054   0.000   0.892   0.009
  0.000  -0.031  -0.552   0.000  -0.006   0.000   0.009   0.900
 -0.048   0.000   0.000  -0.523   0.000   0.014   0.000   0.000
  0.000   0.054  -0.006   0.000  -0.546   0.000  -0.016   0.001
  0.000  -0.054  -0.001   0.000   0.001   0.000   0.015  -0.001
  0.000   0.006   0.000   0.000  -0.001   0.000  -0.002   0.000
  0.000   0.000   0.000   0.000   0.000   0.000   0.000   0.000
  0.000   0.000   0.000   0.000   0.000   0.000   0.000   0.000
  0.000   0.000   0.000   0.000   0.000   0.000   0.000   0.000
  0.000   0.000   0.000   0.000   0.000   0.000   0.000   0.000
  0.000   0.000   0.000   0.000   0.000   0.000   0.000   0.000
  0.000   0.000   0.000   0.000   0.000   0.000   0.000   0.000
 total augmentation occupancy for first ion, spin component:           1
  1.355   0.000   0.000  -0.054   0.000   0.256   0.000   0.000  -0.114   0.000   0.000   0.000   0.000   0.000   0.000   0.000
  0.000   1.114   0.121   0.000  -0.209   0.000   0.022  -0.018   0.000   0.031  -0.230   0.007   0.000   0.000   0.000   0.000
  0.000   0.121   1.768   0.000  -0.013   0.000   0.000   0.285   0.000  -0.035  -0.100  -0.015   0.000   0.000   0.000   0.000
 -0.054   0.000   0.000   1.355   0.000  -0.114   0.000   0.000   0.256   0.000   0.000   0.000   0.000   0.000   0.000   0.000
  0.000  -0.209  -0.013   0.000   1.783   0.000   0.000  -0.035   0.000   0.325   0.173   0.025   0.000   0.000   0.000   0.000
  0.256   0.000   0.000  -0.114   0.000   0.056   0.000   0.000  -0.041   0.000   0.000   0.000   0.000   0.000   0.000   0.000
  0.000   0.022   0.000   0.000   0.000   0.000   0.106  -0.031   0.000   0.054  -0.187   0.020   0.000   0.000   0.000   0.000
  0.000  -0.018   0.285   0.000  -0.035   0.000  -0.031   0.094   0.000  -0.084  -0.044   0.026   0.000   0.000   0.000   0.000
 -0.114   0.000   0.000   0.256   0.000  -0.041   0.000   0.000   0.056   0.000   0.000   0.000   0.000   0.000   0.000   0.000
  0.000   0.031  -0.035   0.000   0.325   0.000   0.054  -0.084   0.000   0.192   0.076  -0.046   0.000   0.000   0.000   0.000
  0.000  -0.230  -0.100   0.000   0.173   0.000  -0.187  -0.044   0.000   0.076   1.258  -0.409   0.000   0.000   0.000   0.000
  0.000   0.007  -0.015   0.000   0.025   0.000   0.020   0.026   0.000  -0.046  -0.409   0.165   0.000   0.000   0.000   0.000
  0.000   0.000   0.000   0.000   0.000   0.000   0.000   0.000   0.000   0.000   0.000   0.000   0.124  -0.071   0.000  -0.004
  0.000   0.000   0.000   0.000   0.000   0.000   0.000   0.000   0.000   0.000   0.000   0.000  -0.071   0.124   0.000   0.000
  0.000   0.000   0.000   0.000   0.000   0.000   0.000   0.000   0.000   0.000   0.000   0.000   0.000   0.000   0.180   0.000
  0.000   0.000   0.000   0.000   0.000   0.000   0.000   0.000   0.000   0.000   0.000   0.000  -0.004   0.000   0.000   0.000
  0.000   0.000   0.000   0.000   0.000   0.000   0.000   0.000   0.000   0.000   0.000   0.000   0.000  -0.004   0.000   0.000
  0.000   0.000   0.000   0.000   0.000   0.000   0.000   0.000   0.000   0.000   0.000   0.000   0.000   0.000  -0.005   0.000


------------------------ aborting loop because EDIFF is reached ----------------------------------------




--------------------------------------------------------------------------------------------------------



  FREE ENERGIE OF THE ION-ELECTRON SYSTEM (eV)
  ---------------------------------------------------
  free  energy   TOTEN  =       -25.212607 eV

  energy  without entropy=      -25.115270  energy(sigma->0) =      -25.180162
 
    CHARGE:  cpu time    0.18: real time    0.05
    FORLOC:  cpu time    0.02: real time    0.01
    FORNL :  cpu time    0.16: real time    0.16
    STRESS:  cpu time    0.51: real time    0.28
    FORCOR:  cpu time    0.28: real time    0.28
    FORHAR:  cpu time    0.07: real time    0.07
    MIXING:  cpu time    0.02: real time    0.01

  FORCE on cell =-STRESS in cart. coord.  units (eV):
  Direction    XX          YY          ZZ          XY          YZ          ZX
  --------------------------------------------------------------------------------------
  Alpha Z   134.15010   134.15010   134.15010
  Ewald    -414.33347  -551.94093  -551.94093     0.00000   -92.57036     0.00000
  Hartree   197.52597   127.49329   127.49329     0.00000   -42.11636     0.00000
  E(xc)    -117.99722  -116.65820  -116.65820     0.00000    -0.09644     0.00000
  Local     -48.72303   166.55399   166.55399     0.00000   129.45863     0.00000
  n-local  -101.67305  -100.56352  -100.56352     0.00000    -4.14029     0.00000
  augment   116.14273   109.00915   109.00916    -0.00004     2.96582    -0.00002
  Kinetic   222.58439   222.82348   222.82347     0.00000     5.34158     0.00000
  Fock        0.00000     0.00000     0.00000     0.00000     0.00000     0.00000
  -------------------------------------------------------------------------------------
  Total     -12.32357    -9.13264    -9.13264     0.00000    -1.15743     0.00000
  in kB    -428.51030  -317.55644  -317.55644     0.00000   -40.24554     0.00000
  external pressure =     -354.54 kB  Pullay stress =        0.00 kB


 VOLUME and BASIS-vectors are now :
 -----------------------------------------------------------------------------
  energy-cutoff  :      334.88
  volume of cell :       46.08
      direct lattice vectors                 reciprocal lattice vectors
     3.585051000  0.000000000  0.000000000     0.278936060  0.000000000  0.000000000
     0.000000000  3.585051000  0.000000000     0.000000000  0.278936060  0.000000000
     0.000000000  0.000000000  3.585051000     0.000000000  0.000000000  0.278936060

  length of vectors
     3.585051000  3.585051000  3.585051000     0.278936060  0.278936060  0.278936060


 FORCES acting on ions
    electron-ion (+dipol)            ewald-force                    non-local-force                 convergence-correction
 -----------------------------------------------------------------------------------------------
   0.320E-14 0.165E-12 0.268E-13   0.376E-14 0.160E-13 0.124E-13   0.000E+00 -.155E-24 -.414E-24   -.114E-13 -.712E-13 -.427E-13
   0.230E-12 0.745E+02 -.745E+02   -.122E-13 -.744E+02 0.744E+02   0.000E+00 -.401E+00 0.401E+00   -.106E-12 0.284E+00 -.284E+00
   0.229E-12 -.745E+02 0.745E+02   0.920E-14 0.744E+02 -.744E+02   0.000E+00 0.401E+00 -.401E+00   0.485E-13 -.284E+00 0.284E+00
 -----------------------------------------------------------------------------------------------
   0.462E-12 0.227E-11 -.703E-12   0.733E-15 0.000E+00 0.000E+00   0.000E+00 0.000E+00 0.000E+00   -.694E-13 -.137E-12 -.339E-14
 
 
 POSITION                                       TOTAL-FORCE (eV/Angst)
 -----------------------------------------------------------------------------------
      0.00000      0.89626      0.89626         0.000000      0.000000      0.000000
      1.79253      3.57979      1.79779         0.000000     -0.004627      0.004627
      1.79253      1.79779      3.57979         0.000000      0.004627     -0.004627
 -----------------------------------------------------------------------------------
    total drift:                                0.000000      0.000000      0.000000
 d Force = 0.5003087E-02[-0.215E-03, 0.102E-01]  d Energy = 0.5055114E-02-0.520E-04
 d Force =-0.3344018E+01[-0.345E+01,-0.323E+01]  d Ewald  =-0.3344161E+01 0.144E-03


--------------------------------------------------------------------------------------------------------


    POTLOK:  cpu time    0.47: real time    0.31


--------------------------------------------------------------------------------------------------------


 NEB: the previous image is higher in energy: F
 NEB: the next image is higher in energy    : F
 NEB: image is at an extrema
 NEB: diff energy (min, max):    25.212607   25.212607

 NEB: Tangent
 ----------------------------------------------
      0.00000     -0.70711     -0.70711
      0.00000      0.00000      0.00000
      0.00000      0.00000      0.00000

 NEB: forces: par spring, perp REAL, dneb     0.000000    0.009255    0.000000
 NEB: distance to prev, next image, angle between     1.267551    1.267551  179.049002
 NEB: projections on to tangent (spring, REAL)     0.000000    0.000000

  FORCES: max atom, RMS     0.006544    0.005343
  FORCE total and by dimension    0.009255    0.004627
 Quasi-Newton relaxation of ions (Broydens 2nd method)
  g(Force)  = 0.413E-05   g(Stress)= 0.000E+00

 retain information from N=  1 steps
 eigenvalues of (default step * inverse Hessian matrix)
  average eigenvalue of G=   1.0712
 eigenvalue spectrum of G is  1.0712


--------------------------------------------------------------------------------------------------------


  
 reached required accuracy - stopping structural energy minimisation
     LOOP+:  cpu time   24.86: real time   11.32
    4ORBIT:  cpu time    0.00: real time    0.00

 total amount of memory used by VASP on root node  40270. kBytes
========================================================================

   base      :    30000. kBytes
   nonl-proj :      118. kBytes
   fftplans  :     3916. kBytes
   grid      :     6018. kBytes
   one-center:       46. kBytes
   wavefun   :      172. kBytes
 
  
  
 General timing and accounting informations for this job:
 ========================================================
  
                  Total CPU time used (sec):      130.170
                            User time (sec):      129.026
                          System time (sec):        1.144
                         Elapsed time (sec):       57.179
  
                   Maximum memory used (kb):           0.
                   Average memory used (kb):           0.
  
                          Minor page faults:       135244
                          Major page faults:            0
                 Voluntary context switches:         1343
