  32  32   0   0
  0.1652794E+02  0.8087040E-09  0.8087040E-09  0.8087040E-09  0.5000000E-15
  1.000000000000000E-004
  CAR 
 unknown system                          
     13.53294436     -4.79402875  301      7.84523283      1.00000000
     -4.794  0.0000E+00  0.0000E+00
     -4.733  0.0000E+00  0.0000E+00
     -4.672  0.0000E+00  0.0000E+00
     -4.611  0.0000E+00  0.0000E+00
     -4.550  0.0000E+00  0.0000E+00
     -4.489  0.0000E+00  0.0000E+00
     -4.427 -0.3929E-29 -0.2400E-30
     -4.366 -0.5034E-27 -0.3099E-28
     -4.305 -0.5376E-25 -0.3315E-26
     -4.244 -0.4755E-23 -0.2938E-24
     -4.183 -0.3483E-21 -0.2157E-22
     -4.122 -0.2111E-19 -0.1311E-20
     -4.061 -0.1059E-17 -0.6601E-19
     -4.000 -0.4395E-16 -0.2751E-17
     -3.939 -0.1463E-14 -0.9212E-16
     -3.878 -0.4134E-13 -0.2617E-14
     -3.817 -0.9643E-12 -0.6153E-13
     -3.756 -0.1855E-10 -0.1195E-11
     -3.694 -0.2941E-09 -0.1916E-10
     -3.633 -0.3834E-08 -0.2534E-09
     -3.572 -0.4104E-07 -0.2761E-08
     -3.511 -0.3599E-06 -0.2474E-07
     -3.450 -0.2575E-05 -0.1821E-06
     -3.389 -0.1497E-04 -0.1097E-05
     -3.328 -0.7014E-04 -0.5382E-05
     -3.267 -0.2618E-03 -0.2138E-04
     -3.206 -0.7616E-03 -0.6790E-04
     -3.145 -0.1650E-02 -0.1687E-03
     -3.084 -0.2332E-02 -0.3112E-03
     -3.022 -0.8053E-03 -0.3604E-03
     -2.961  0.5920E-02  0.1295E-05
     -2.900  0.1898E-01  0.1160E-02
     -2.839  0.3424E-01  0.3252E-02
     -2.778  0.4331E-01  0.5898E-02
     -2.717  0.4016E-01  0.8351E-02
     -2.656  0.2696E-01  0.9998E-02
     -2.595  0.1189E-01  0.1072E-01
     -2.534  0.1806E-02  0.1083E-01
     -2.473 -0.2017E-02  0.1071E-01
     -2.412 -0.2112E-02  0.1058E-01
     -2.350 -0.1184E-02  0.1051E-01
     -2.289 -0.5046E-03  0.1048E-01
     -2.228 -0.3145E-03  0.1046E-01
     -2.167 -0.6565E-03  0.1042E-01
     -2.106 -0.1762E-02  0.1031E-01
     -2.045 -0.3717E-02  0.1009E-01
     -1.984 -0.5228E-02  0.9766E-02
     -1.923 -0.2136E-02  0.9636E-02
     -1.862  0.1185E-01  0.1036E-01
     -1.801  0.4003E-01  0.1281E-01
     -1.740  0.7625E-01  0.1746E-01
     -1.678  0.1051E+00  0.2389E-01
     -1.617  0.1121E+00  0.3074E-01
     -1.556  0.9430E-01  0.3650E-01
     -1.495  0.6196E-01  0.4028E-01
     -1.434  0.2985E-01  0.4210E-01
     -1.373  0.7907E-02  0.4259E-01
     -1.312 -0.2164E-02  0.4246E-01
     -1.251 -0.4204E-02  0.4220E-01
     -1.190 -0.3024E-02  0.4201E-01
     -1.129 -0.1667E-02  0.4191E-01
     -1.068 -0.1300E-02  0.4183E-01
     -1.006 -0.2187E-02  0.4170E-01
     -0.945 -0.3971E-02  0.4146E-01
     -0.884 -0.4631E-02  0.4117E-01
     -0.823  0.5688E-03  0.4121E-01
     -0.762  0.1709E-01  0.4225E-01
     -0.701  0.4517E-01  0.4501E-01
     -0.640  0.7547E-01  0.4962E-01
     -0.579  0.9417E-01  0.5538E-01
     -0.518  0.9420E-01  0.6113E-01
     -0.457  0.7976E-01  0.6600E-01
     -0.396  0.5945E-01  0.6963E-01
     -0.334  0.3890E-01  0.7201E-01
     -0.273  0.2073E-01  0.7328E-01
     -0.212  0.7165E-02  0.7371E-01
     -0.151 -0.3688E-03  0.7369E-01
     -0.090 -0.2876E-02  0.7352E-01
     -0.029 -0.3143E-02  0.7332E-01
      0.032 -0.3762E-02  0.7309E-01
      0.093 -0.5592E-02  0.7275E-01
      0.154 -0.6452E-02  0.7236E-01
      0.215 -0.2078E-03  0.7235E-01
      0.276  0.2082E-01  0.7362E-01
      0.338  0.5834E-01  0.7718E-01
      0.399  0.1015E+00  0.8338E-01
      0.460  0.1311E+00  0.9139E-01
      0.521  0.1340E+00  0.9958E-01
      0.582  0.1125E+00  0.1064E+00
      0.643  0.7926E-01  0.1113E+00
      0.704  0.4644E-01  0.1141E+00
      0.765  0.2032E-01  0.1154E+00
      0.826  0.2807E-02  0.1155E+00
      0.887 -0.6449E-02  0.1151E+00
      0.948 -0.8068E-02  0.1147E+00
      1.010 -0.8518E-03  0.1146E+00
      1.071  0.1805E-01  0.1157E+00
      1.132  0.4936E-01  0.1187E+00
      1.193  0.8787E-01  0.1241E+00
      1.254  0.1230E+00  0.1316E+00
      1.315  0.1441E+00  0.1404E+00
      1.376  0.1464E+00  0.1493E+00
      1.437  0.1332E+00  0.1575E+00
      1.498  0.1129E+00  0.1644E+00
      1.559  0.9274E-01  0.1701E+00
      1.620  0.7563E-01  0.1747E+00
      1.682  0.6222E-01  0.1785E+00
      1.743  0.5411E-01  0.1818E+00
      1.804  0.5368E-01  0.1851E+00
      1.865  0.6129E-01  0.1888E+00
      1.926  0.7495E-01  0.1934E+00
      1.987  0.9255E-01  0.1990E+00
      2.048  0.1123E+00  0.2059E+00
      2.109  0.1303E+00  0.2139E+00
      2.170  0.1411E+00  0.2225E+00
      2.231  0.1410E+00  0.2311E+00
      2.292  0.1314E+00  0.2391E+00
      2.353  0.1169E+00  0.2463E+00
      2.415  0.1028E+00  0.2525E+00
      2.476  0.9218E-01  0.2582E+00
      2.537  0.8512E-01  0.2634E+00
      2.598  0.7872E-01  0.2682E+00
      2.659  0.6995E-01  0.2724E+00
      2.720  0.5982E-01  0.2761E+00
      2.781  0.5334E-01  0.2794E+00
      2.842  0.5434E-01  0.2827E+00
      2.903  0.6151E-01  0.2864E+00
      2.964  0.7060E-01  0.2908E+00
      3.025  0.7837E-01  0.2955E+00
      3.087  0.8227E-01  0.3006E+00
      3.148  0.7898E-01  0.3054E+00
      3.209  0.6811E-01  0.3096E+00
      3.270  0.5722E-01  0.3130E+00
      3.331  0.5790E-01  0.3166E+00
      3.392  0.7384E-01  0.3211E+00
      3.453  0.9457E-01  0.3269E+00
      3.514  0.1036E+00  0.3332E+00
      3.575  0.9261E-01  0.3389E+00
      3.636  0.6825E-01  0.3430E+00
      3.697  0.4533E-01  0.3458E+00
      3.759  0.3586E-01  0.3480E+00
      3.820  0.4258E-01  0.3506E+00
      3.881  0.5992E-01  0.3542E+00
      3.942  0.7883E-01  0.3591E+00
      4.003  0.9143E-01  0.3646E+00
      4.064  0.9441E-01  0.3704E+00
      4.125  0.9020E-01  0.3759E+00
      4.186  0.8488E-01  0.3811E+00
      4.247  0.8368E-01  0.3862E+00
      4.308  0.8703E-01  0.3915E+00
      4.369  0.9031E-01  0.3971E+00
      4.431  0.8840E-01  0.4025E+00
      4.492  0.8109E-01  0.4074E+00
      4.553  0.7307E-01  0.4119E+00
      4.614  0.6799E-01  0.4160E+00
      4.675  0.6386E-01  0.4199E+00
      4.736  0.5581E-01  0.4233E+00
      4.797  0.4291E-01  0.4260E+00
      4.858  0.3160E-01  0.4279E+00
      4.919  0.3160E-01  0.4298E+00
      4.980  0.4728E-01  0.4327E+00
      5.041  0.7281E-01  0.4372E+00
      5.103  0.9687E-01  0.4431E+00
      5.164  0.1122E+00  0.4499E+00
      5.225  0.1190E+00  0.4572E+00
      5.286  0.1209E+00  0.4646E+00
      5.347  0.1199E+00  0.4719E+00
      5.408  0.1159E+00  0.4790E+00
      5.469  0.1086E+00  0.4856E+00
      5.530  0.9857E-01  0.4916E+00
      5.591  0.8860E-01  0.4971E+00
      5.652  0.8271E-01  0.5021E+00
      5.713  0.8243E-01  0.5071E+00
      5.775  0.8337E-01  0.5122E+00
      5.836  0.7753E-01  0.5170E+00
      5.897  0.6052E-01  0.5207E+00
      5.958  0.3621E-01  0.5229E+00
      6.019  0.1374E-01  0.5237E+00
      6.080  0.8911E-03  0.5238E+00
      6.141  0.2816E-03  0.5238E+00
      6.202  0.9849E-02  0.5244E+00
      6.263  0.2473E-01  0.5259E+00
      6.324  0.3942E-01  0.5283E+00
      6.385  0.5023E-01  0.5314E+00
      6.447  0.5607E-01  0.5348E+00
      6.508  0.5672E-01  0.5383E+00
      6.569  0.5165E-01  0.5414E+00
      6.630  0.4187E-01  0.5440E+00
      6.691  0.3147E-01  0.5459E+00
      6.752  0.2533E-01  0.5475E+00
      6.813  0.2465E-01  0.5490E+00
      6.874  0.2631E-01  0.5506E+00
      6.935  0.2789E-01  0.5523E+00
      6.996  0.3216E-01  0.5542E+00
      7.057  0.4435E-01  0.5569E+00
      7.119  0.6498E-01  0.5609E+00
      7.180  0.8772E-01  0.5663E+00
      7.241  0.1051E+00  0.5727E+00
      7.302  0.1135E+00  0.5796E+00
      7.363  0.1132E+00  0.5865E+00
      7.424  0.1069E+00  0.5931E+00
      7.485  0.9840E-01  0.5991E+00
      7.546  0.9056E-01  0.6046E+00
      7.607  0.8200E-01  0.6096E+00
      7.668  0.7050E-01  0.6139E+00
      7.729  0.5826E-01  0.6175E+00
      7.790  0.4990E-01  0.6205E+00
      7.852  0.4533E-01  0.6233E+00
      7.913  0.3871E-01  0.6257E+00
      7.974  0.2596E-01  0.6273E+00
      8.035  0.1044E-01  0.6279E+00
      8.096  0.6999E-03  0.6279E+00
      8.157  0.4373E-02  0.6282E+00
      8.218  0.2331E-01  0.6296E+00
      8.279  0.5099E-01  0.6327E+00
      8.340  0.7510E-01  0.6373E+00
      8.401  0.8732E-01  0.6427E+00
      8.462  0.9194E-01  0.6483E+00
      8.524  0.1012E+00  0.6545E+00
      8.585  0.1206E+00  0.6618E+00
      8.646  0.1427E+00  0.6706E+00
      8.707  0.1552E+00  0.6800E+00
      8.768  0.1538E+00  0.6894E+00
      8.829  0.1428E+00  0.6982E+00
      8.890  0.1273E+00  0.7059E+00
      8.951  0.1076E+00  0.7125E+00
      9.012  0.8209E-01  0.7175E+00
      9.073  0.5274E-01  0.7207E+00
      9.134  0.2524E-01  0.7223E+00
      9.196  0.5462E-02  0.7226E+00
      9.257 -0.3095E-02  0.7224E+00
      9.318  0.1072E-02  0.7225E+00
      9.379  0.1744E-01  0.7236E+00
      9.440  0.4164E-01  0.7261E+00
      9.501  0.6550E-01  0.7301E+00
      9.562  0.8158E-01  0.7351E+00
      9.623  0.8807E-01  0.7405E+00
      9.684  0.8810E-01  0.7459E+00
      9.745  0.8535E-01  0.7511E+00
      9.806  0.8211E-01  0.7561E+00
      9.868  0.8056E-01  0.7610E+00
      9.929  0.8233E-01  0.7660E+00
      9.990  0.8530E-01  0.7712E+00
     10.051  0.8322E-01  0.7763E+00
     10.112  0.7181E-01  0.7807E+00
     10.173  0.5563E-01  0.7841E+00
     10.234  0.4657E-01  0.7870E+00
     10.295  0.5376E-01  0.7902E+00
     10.356  0.7475E-01  0.7948E+00
     10.417  0.9629E-01  0.8007E+00
     10.478  0.1044E+00  0.8071E+00
     10.540  0.9591E-01  0.8129E+00
     10.601  0.8085E-01  0.8179E+00
     10.662  0.7203E-01  0.8223E+00
     10.723  0.7368E-01  0.8268E+00
     10.784  0.8050E-01  0.8317E+00
     10.845  0.8493E-01  0.8369E+00
     10.906  0.8297E-01  0.8419E+00
     10.967  0.7569E-01  0.8466E+00
     11.028  0.6787E-01  0.8507E+00
     11.089  0.6405E-01  0.8546E+00
     11.150  0.6442E-01  0.8586E+00
     11.212  0.6477E-01  0.8625E+00
     11.273  0.6094E-01  0.8662E+00
     11.334  0.5296E-01  0.8695E+00
     11.395  0.4442E-01  0.8722E+00
     11.456  0.3817E-01  0.8745E+00
     11.517  0.3328E-01  0.8766E+00
     11.578  0.2671E-01  0.8782E+00
     11.639  0.1751E-01  0.8793E+00
     11.700  0.8093E-02  0.8798E+00
     11.761  0.1530E-02  0.8798E+00
     11.822 -0.1264E-02  0.8798E+00
     11.884 -0.1533E-02  0.8797E+00
     11.945 -0.9378E-03  0.8796E+00
     12.006 -0.4046E-03  0.8796E+00
     12.067 -0.1334E-03  0.8796E+00
     12.128 -0.3470E-04  0.8796E+00
     12.189 -0.7243E-05  0.8796E+00
     12.250 -0.1224E-05  0.8796E+00
     12.311 -0.1685E-06  0.8796E+00
     12.372 -0.1898E-07  0.8796E+00
     12.433 -0.1753E-08  0.8796E+00
     12.494 -0.1332E-09  0.8796E+00
     12.556 -0.8325E-11  0.8796E+00
     12.617 -0.4291E-12  0.8796E+00
     12.678 -0.1827E-13  0.8796E+00
     12.739 -0.6375E-15  0.8796E+00
     12.800 -0.1903E-16  0.8796E+00
     12.861  0.0000E+00  0.8796E+00
     12.922  0.0000E+00  0.8796E+00
     12.983  0.0000E+00  0.8796E+00
     13.044  0.0000E+00  0.8796E+00
     13.105  0.0000E+00  0.8796E+00
     13.166  0.0000E+00  0.8796E+00
     13.227  0.0000E+00  0.8796E+00
     13.289  0.0000E+00  0.8796E+00
     13.350  0.0000E+00  0.8796E+00
     13.411  0.0000E+00  0.8796E+00
     13.472  0.0000E+00  0.8796E+00
     13.533  0.0000E+00  0.8796E+00
