   32   32  191    1
  0.1652794E+02  0.8087040E-09  0.8087040E-09  0.8087040E-09  0.5000000E-15
  1.000000000000000E-004
  CAR 
 unknown system                          
  119    4   84
 
  0.2500000E+00  0.2500000E+00  0.2500000E+00  0.2500000E+00
   1       -2.794029
   2       -1.704436
   3       -1.676608
   4       -1.586862
   5       -0.619576
   6       -0.592331
   7       -0.423343
   8        0.403293
   9        0.417962
  10        0.492516
  11        0.607393
  12        1.164517
  13        1.230844
  14        1.346647
  15        1.383239
  16        1.467404
  17        1.633677
  18        1.733807
  19        1.882479
  20        2.081289
  21        2.109835
  22        2.160811
  23        2.221057
  24        2.388514
  25        2.479108
  26        2.682444
  27        2.842491
  28        2.902714
  29        3.037286
  30        3.159664
  31        3.411874
  32        3.461577
  33        3.601232
  34        3.870513
  35        3.963924
  36        4.046353
  37        4.171643
  38        4.353695
  39        4.388426
  40        4.447651
  41        4.672352
  42        5.028773
  43        5.117641
  44        5.234656
  45        5.264617
  46        5.420130
  47        5.507748
  48        5.626182
  49        5.746142
  50        5.807810
  51        6.329977
  52        6.539683
  53        6.922170
  54        7.145219
  55        7.157888
  56        7.292419
  57        7.363300
  58        7.577267
  59        7.632721
  60        7.873863
  61        8.314870
  62        8.371001
  63        8.529702
  64        8.636716
  65        8.688219
  66        8.757315
  67        8.895675
  68        8.952310
  69        8.997757
  70        9.458475
  71        9.520066
  72        9.655664
  73        9.799312
  74       10.062870
  75       10.092934
  76       10.344225
  77       10.451804
  78       10.469991
  79       10.656584
  80       10.877864
  81       10.910597
  82       11.052721
  83       11.258040
  84       11.333542
 
 -0.2500000E+00  0.2500000E+00  0.2500000E+00  0.2500000E+00
   1       -2.791307
   2       -1.724496
   3       -1.689571
   4       -1.561079
   5       -0.629639
   6       -0.593935
   7       -0.440527
   8        0.422492
   9        0.452024
  10        0.511866
  11        0.646317
  12        1.271358
  13        1.300047
  14        1.328619
  15        1.347953
  16        1.460808
  17        1.625762
  18        1.669249
  19        1.832620
  20        2.019683
  21        2.081390
  22        2.193757
  23        2.217266
  24        2.322821
  25        2.363797
  26        2.591282
  27        2.788482
  28        2.923555
  29        3.089829
  30        3.182733
  31        3.401150
  32        3.503269
  33        3.511247
  34        3.902712
  35        3.987498
  36        4.112648
  37        4.250981
  38        4.342788
  39        4.522365
  40        4.631711
  41        4.747431
  42        5.044422
  43        5.097945
  44        5.219918
  45        5.281171
  46        5.362314
  47        5.458443
  48        5.595897
  49        5.723345
  50        5.841513
  51        6.418068
  52        6.464614
  53        6.674867
  54        7.220812
  55        7.278495
  56        7.345198
  57        7.404822
  58        7.487960
  59        7.551827
  60        7.843521
  61        8.329503
  62        8.369134
  63        8.577662
  64        8.618330
  65        8.630616
  66        8.676706
  67        8.792160
  68        8.808527
  69        8.834857
  70        9.625476
  71        9.672732
  72        9.768242
  73        9.900794
  74        9.941050
  75        9.964671
  76       10.261411
  77       10.442637
  78       10.460535
  79       10.688565
  80       10.742694
  81       10.768916
  82       11.138149
  83       11.219475
  84       11.532944
 
  0.2500000E+00 -0.2500000E+00  0.2500000E+00  0.2500000E+00
   1       -2.793792
   2       -1.707037
   3       -1.679256
   4       -1.579845
   5       -0.622928
   6       -0.594119
   7       -0.424848
   8        0.408710
   9        0.429654
  10        0.462034
  11        0.629516
  12        1.162094
  13        1.199152
  14        1.309862
  15        1.389954
  16        1.511331
  17        1.544035
  18        1.867489
  19        1.947086
  20        2.062754
  21        2.122304
  22        2.229600
  23        2.267379
  24        2.373754
  25        2.477691
  26        2.571695
  27        2.656209
  28        2.933065
  29        3.110826
  30        3.156991
  31        3.379504
  32        3.459831
  33        3.582907
  34        3.801250
  35        3.943377
  36        4.033015
  37        4.177398
  38        4.347831
  39        4.428534
  40        4.597633
  41        4.726555
  42        5.046085
  43        5.095154
  44        5.201448
  45        5.319334
  46        5.382034
  47        5.491934
  48        5.561855
  49        5.760763
  50        5.866709
  51        6.300842
  52        6.559025
  53        6.864477
  54        7.124530
  55        7.169924
  56        7.309801
  57        7.387593
  58        7.578210
  59        7.634942
  60        7.868284
  61        8.307922
  62        8.395991
  63        8.548103
  64        8.631526
  65        8.687435
  66        8.747202
  67        8.859510
  68        8.916388
  69        8.972507
  70        9.479311
  71        9.534060
  72        9.716425
  73        9.811450
  74       10.047434
  75       10.071049
  76       10.308837
  77       10.456437
  78       10.469312
  79       10.668517
  80       10.864184
  81       10.890427
  82       11.016653
  83       11.274437
  84       11.441622
 
 -0.2500000E+00 -0.2500000E+00  0.2500000E+00  0.2500000E+00
   1       -2.793099
   2       -1.723227
   3       -1.684097
   4       -1.559475
   5       -0.626407
   6       -0.618077
   7       -0.379866
   8        0.406473
   9        0.414647
  10        0.480324
  11        0.608863
  12        1.167561
  13        1.228983
  14        1.300275
  15        1.361236
  16        1.474710
  17        1.582584
  18        1.883189
  19        1.954266
  20        2.055398
  21        2.122220
  22        2.202035
  23        2.282359
  24        2.361002
  25        2.463521
  26        2.590249
  27        2.615059
  28        2.922631
  29        3.067777
  30        3.180221
  31        3.439487
  32        3.494083
  33        3.563043
  34        3.767491
  35        3.982490
  36        4.076691
  37        4.191672
  38        4.298874
  39        4.423902
  40        4.613614
  41        4.808839
  42        5.025402
  43        5.088738
  44        5.250216
  45        5.272803
  46        5.406349
  47        5.441205
  48        5.568969
  49        5.739101
  50        5.853356
  51        6.286534
  52        6.527725
  53        6.847124
  54        7.118863
  55        7.164330
  56        7.360242
  57        7.382434
  58        7.545750
  59        7.654865
  60        7.848440
  61        8.318702
  62        8.361772
  63        8.529582
  64        8.623058
  65        8.675637
  66        8.724210
  67        8.857906
  68        8.930934
  69        9.067703
  70        9.486141
  71        9.531264
  72        9.697670
  73        9.849683
  74       10.014008
  75       10.054881
  76       10.352925
  77       10.466317
  78       10.478619
  79       10.698424
  80       10.825211
  81       10.932233
  82       11.127066
  83       11.161717
  84       11.525529
