       N       E                     dE             d eps       ncg     rms          rms(c)
RMM:   1     0.465004140491E+03    0.46500E+03   -0.22585E+04   336   0.627E+02
RMM:   2     0.382029292203E+02   -0.42680E+03   -0.41526E+03   336   0.143E+02
RMM:   3    -0.654030788293E+02   -0.10361E+03   -0.93343E+02   336   0.616E+01
RMM:   4    -0.100835836404E+03   -0.35433E+02   -0.25730E+02   336   0.525E+01
RMM:   5    -0.114504394497E+03   -0.13669E+02   -0.10905E+02   336   0.396E+01
RMM:   6    -0.121015754984E+03   -0.65114E+01   -0.57901E+01   336   0.269E+01
RMM:   7    -0.124634680084E+03   -0.36189E+01   -0.31172E+01   336   0.202E+01
RMM:   8    -0.126487987676E+03   -0.18533E+01   -0.16943E+01   336   0.139E+01
RMM:   9    -0.128470841621E+03   -0.19829E+01   -0.18802E+01   789   0.103E+01
RMM:  10    -0.128630654625E+03   -0.15981E+00   -0.12557E+00   775   0.130E+00
RMM:  11    -0.128641074416E+03   -0.10420E-01   -0.58683E-02   697   0.690E-01
RMM:  12    -0.128642158693E+03   -0.10843E-02   -0.99717E-03   610   0.113E-01    0.141E+01
RMM:  13    -0.125103425462E+03    0.35387E+01   -0.61586E+01   676   0.224E+01    0.631E+00
RMM:  14    -0.122916340862E+03    0.21871E+01   -0.30519E+00   672   0.628E+00    0.278E+00
RMM:  15    -0.122709762207E+03    0.20658E+00   -0.17372E+00   672   0.385E+00    0.172E+00
RMM:  16    -0.122612407141E+03    0.97355E-01   -0.74956E-02   673   0.912E-01    0.533E-01
RMM:  17    -0.122602024476E+03    0.10383E-01   -0.59580E-02   674   0.780E-01    0.893E-02
RMM:  18    -0.122602104950E+03   -0.80474E-04   -0.24121E-03   654   0.135E-01    0.845E-02
RMM:  19    -0.122602013674E+03    0.91276E-04   -0.18201E-03   640   0.136E-01    0.399E-02
RMM:  20    -0.122601923132E+03    0.90541E-04   -0.20176E-04   435   0.490E-02
   1 F= -.12260192E+03 E0= -.12259602E+03  d E =-.122602E+03
       N       E                     dE             d eps       ncg     rms          rms(c)
RMM:   1    -0.123012697664E+03   -0.41068E+00   -0.40441E+00   672   0.528E+00    0.395E-01
RMM:   2    -0.123002861088E+03    0.98366E-02   -0.63716E-02   692   0.803E-01    0.180E-01
RMM:   3    -0.123002037151E+03    0.82394E-03   -0.83236E-03   677   0.305E-01    0.824E-02
RMM:   4    -0.123001981501E+03    0.55649E-04   -0.92344E-04   620   0.119E-01
   2 F= -.12300198E+03 E0= -.12299731E+03  d E =-.400058E+00
       N       E                     dE             d eps       ncg     rms          rms(c)
RMM:   1    -0.123329145027E+03   -0.32711E+00   -0.12417E+01   672   0.926E+00    0.702E-01
RMM:   2    -0.123296851933E+03    0.32293E-01   -0.19841E-01   693   0.135E+00    0.318E-01
RMM:   3    -0.123294543272E+03    0.23087E-02   -0.20763E-02   679   0.554E-01    0.153E-01
RMM:   4    -0.123294387862E+03    0.15541E-03   -0.30640E-03   680   0.175E-01    0.855E-02
RMM:   5    -0.123294358411E+03    0.29451E-04   -0.41400E-04   530   0.716E-02
   3 F= -.12329436E+03 E0= -.12329213E+03  d E =-.692435E+00
       N       E                     dE             d eps       ncg     rms          rms(c)
RMM:   1    -0.123326562525E+03   -0.32175E-01   -0.45690E+00   672   0.516E+00    0.221E-01
RMM:   2    -0.123332893032E+03   -0.63305E-02   -0.11174E-01   802   0.917E-01    0.241E-01
RMM:   3    -0.123331785263E+03    0.11078E-02   -0.61451E-03   712   0.249E-01    0.145E-01
RMM:   4    -0.123331422616E+03    0.36265E-03   -0.59430E-04   527   0.769E-02    0.972E-02
RMM:   5    -0.123331204904E+03    0.21771E-03   -0.84279E-04   578   0.809E-02    0.209E-02
RMM:   6    -0.123331201715E+03    0.31894E-05   -0.13795E-04   419   0.516E-02
   4 F= -.12333120E+03 E0= -.12332900E+03  d E =-.368433E-01
       N       E                     dE             d eps       ncg     rms          rms(c)
RMM:   1    -0.123342850529E+03   -0.11646E-01   -0.81787E+00   672   0.691E+00    0.342E-01
RMM:   2    -0.123350614225E+03   -0.77637E-02   -0.20401E-01   715   0.144E+00    0.346E-01
RMM:   3    -0.123349504913E+03    0.11093E-02   -0.31356E-02   713   0.425E-01    0.227E-01
RMM:   4    -0.123348739013E+03    0.76590E-03   -0.20116E-03   621   0.193E-01    0.154E-01
RMM:   5    -0.123348136936E+03    0.60208E-03   -0.21275E-03   664   0.124E-01    0.303E-02
RMM:   6    -0.123348137253E+03   -0.31650E-06   -0.22246E-04   450   0.701E-02
   5 F= -.12334814E+03 E0= -.12334602E+03  d E =-.537788E-01
