   31   31  191    1
  0.1645095E+02  0.7989462E-09  0.7989462E-09  0.7989462E-09  0.5000000E-15
  1.000000000000000E-004
  CAR 
 unknown system                          
   93    1   62
 
  0.0000000E+00  0.0000000E+00  0.0000000E+00  0.1000000E+01
   1       -3.235080
   2       -1.143906
   3       -1.018803
   4       -0.983712
   5       -0.898429
   6       -0.841554
   7       -0.650809
   8        1.100337
   9        1.133266
  10        1.206230
  11        1.221818
  12        1.270470
  13        1.299973
  14        1.335412
  15        1.352953
  16        1.465528
  17        1.497827
  18        1.518766
  19        2.197414
  20        3.311855
  21        3.505524
  22        3.513410
  23        3.539740
  24        3.633087
  25        3.655744
  26        3.765981
  27        4.382091
  28        5.179835
  29        5.184201
  30        5.193701
  31        6.464931
  32        6.550039
  33        6.752553
  34        7.022790
  35        7.059549
  36        7.086224
  37        7.219226
  38        7.227094
  39        7.282077
  40        7.313901
  41        7.330922
  42        7.413587
  43        7.535793
  44        7.561792
  45        7.607212
  46        7.962755
  47        8.209798
  48        8.367522
  49        8.369711
  50        8.433666
  51        8.543234
  52        9.088012
  53        9.143605
  54        9.256982
  55        9.277818
  56        9.318495
  57        9.323079
  58        9.326646
  59        9.390541
  60        9.416235
  61        9.417870
  62        9.476654
