    3    3  191    1
  0.1535906E+02  0.3585051E-09  0.3585051E-09  0.3585051E-09  0.5000000E-15
  1.000000000000000E-004
  CAR 
 unknown system                          
   24    1   16
 
  0.0000000E+00  0.0000000E+00  0.0000000E+00  0.1000000E+01
   1       -3.647266
   2        0.069651
   3        1.458344
   4        1.458344
   5        1.458344
   6        1.751912
   7        1.751913
   8        4.504187
   9        4.504187
  10        4.504188
  11        4.867625
  12        4.867626
  13        5.584795
  14        5.584795
  15        5.584796
  16        5.674820
