       N       E                     dE             d eps       ncg     rms          rms(c)
DAV:   1     0.130144539576E+03    0.13014E+03   -0.79000E+03    32   0.125E+03
DAV:   2    -0.146426275668E+02   -0.14479E+03   -0.13936E+03    32   0.307E+02
DAV:   3    -0.229008945870E+02   -0.82583E+01   -0.81959E+01    40   0.864E+01
DAV:   4    -0.246257665647E+02   -0.17249E+01   -0.17455E+01    48   0.176E+01
DAV:   5    -0.246437536525E+02   -0.17987E-01   -0.17978E-01    32   0.340E+00    0.729E+00
DAV:   6    -0.238280100790E+02    0.81574E+00   -0.28843E+00    32   0.263E+01    0.367E+00
DAV:   7    -0.239076605523E+02   -0.79650E-01   -0.46843E-02    32   0.355E+00    0.194E+00
DAV:   8    -0.239538773188E+02   -0.46217E-01   -0.21680E-02    40   0.197E+00    0.896E-02
DAV:   9    -0.239540115076E+02   -0.13419E-03   -0.11609E-03    32   0.463E-01    0.429E-02
DAV:  10    -0.239540887748E+02   -0.77267E-04   -0.15145E-04    16   0.193E-01
   1 F= -.23954089E+02 E0= -.23962828E+02  d E =-.239541E+02
