<?xml version="1.0" encoding="ISO-8859-1"?>
<modeling>
 <generator>
  <i name="program" type="string">vasp </i>
  <i name="version" type="string">5.2.2  </i>
  <i name="subversion" type="string">15Apr09 complex  parallel </i>
  <i name="platform" type="string">LinuxIFC </i>
  <i name="date" type="string">2013 06 14 </i>
  <i name="time" type="string">22:46:26 </i>
 </generator>
 <incar>
  <i type="string" name="PREC">accurate</i>
  <i type="int" name="IBRION">     2</i>
  <i type="int" name="NSW">   191</i>
  <i type="int" name="ISIF">     2</i>
  <i name="ENCUT">    334.88375000</i>
  <i type="int" name="ISMEAR">     1</i>
  <i name="SIGMA">      0.20000000</i>
  <i type="logical" name="LWAVE"> F  </i>
  <i type="logical" name="LCHARG"> F  </i>
  <i type="logical" name="LPEAD"> F  </i>
  <i type="logical" name="LCALCPOL"> F  </i>
  <i type="logical" name="LCALCEPS"> F  </i>
  <v name="EFIELD_PEAD">      0.00000000      0.00000000      0.00000000</v>
  <i type="logical" name="LEFG"> F  </i>
 </incar>
 <kpoints>
  <generation param="Gamma">
   <v type="int" name="divisions">       1        1        1 </v>
   <v name="usershift">      0.00000000       0.00000000       0.00000000 </v>
   <v name="genvec1">      1.00000000       0.00000000       0.00000000 </v>
   <v name="genvec2">      0.00000000       1.00000000       0.00000000 </v>
   <v name="genvec3">      0.00000000       0.00000000       1.00000000 </v>
   <v name="shift">      0.00000000       0.00000000       0.00000000 </v>
  </generation>
  <varray name="kpointlist" >
   <v>       0.00000000       0.00000000       0.00000000 </v>
  </varray>
  <varray name="weights" >
   <v>       1.00000000 </v>
  </varray>
 </kpoints>
 <parameters>
  <separator name="general" >
   <i type="string" name="SYSTEM">unknown system</i>
   <i type="logical" name="LCOMPAT"> F  </i>
  </separator>
  <separator name="electronic" >
   <i type="string" name="PREC">accura</i>
   <i name="ENMAX">    334.88375000</i>
   <i name="ENAUG">    511.36800000</i>
   <i name="EDIFF">      0.00010000</i>
   <i type="int" name="IALGO">    38</i>
   <i type="int" name="IWAVPR">    11</i>
   <i type="int" name="NBANDS">    16</i>
   <i name="NELECT">     24.00000000</i>
   <separator name="electronic smearing" >
    <i type="int" name="ISMEAR">     1</i>
    <i name="SIGMA">      0.20000000</i>
   </separator>
   <separator name="electronic projectors" >
    <i type="logical" name="LREAL"> F  </i>
    <v name="ROPT">      0.00000000</v>
    <i type="int" name="LMAXPAW">  -100</i>
    <i type="int" name="LMAXMIX">     2</i>
   </separator>
   <separator name="electronic startup" >
    <i type="int" name="ISTART">     0</i>
    <i type="int" name="ICHARG">     2</i>
    <i type="int" name="INIWAV">     1</i>
   </separator>
   <separator name="electronic spin" >
    <i type="int" name="ISPIN">     1</i>
    <i type="logical" name="LNONCOLLINEAR"> F  </i>
    <v name="MAGMOM">      1.00000000      1.00000000      1.00000000</v>
    <i name="NUPDOWN">     -1.00000000</i>
    <i type="logical" name="LSORBIT"> F  </i>
    <v name="SAXIS">      0.00000000      0.00000000      1.00000000</v>
    <i type="logical" name="LSPIRAL"> F  </i>
    <v name="QSPIRAL">      0.00000000      0.00000000      0.00000000</v>
    <i type="logical" name="LZEROZ"> F  </i>
   </separator>
   <separator name="electronic exchange-correlation" >
    <i type="logical" name="LASPH"> F  </i>
    <i type="logical" name="LMETAGGA"> F  </i>
   </separator>
   <separator name="electronic convergence" >
    <i type="int" name="NELM">    60</i>
    <i type="int" name="NELMDL">    -5</i>
    <i type="int" name="NELMIN">     2</i>
    <i name="ENINI">    334.88375000</i>
    <separator name="electronic convergence detail" >
     <i type="logical" name="LDIAG"> T  </i>
     <i name="WEIMIN">      0.00100000</i>
     <i name="EBREAK">      0.00000156</i>
     <i name="DEPER">      0.30000000</i>
     <i type="int" name="NRMM">     4</i>
     <i name="TIME">      0.40000000</i>
    </separator>
   </separator>
   <separator name="electronic mixer" >
    <i name="AMIX">      0.40000000</i>
    <i name="BMIX">      1.00000000</i>
    <i name="AMIN">      0.10000000</i>
    <i name="AMIX_MAG">      1.60000000</i>
    <i name="BMIX_MAG">      1.00000000</i>
    <separator name="electronic mixer details" >
     <i type="int" name="IMIX">     4</i>
     <i type="int" name="MAXMIX">   -45</i>
     <i name="WC">    100.00000000</i>
     <i type="int" name="INIMIX">     1</i>
     <i type="int" name="MIXPRE">     1</i>
     <i type="int" name="MREMOVE">     5</i>
    </separator>
   </separator>
   <separator name="electronic dipolcorrection" >
    <i type="logical" name="LDIPOL"> F  </i>
    <i type="logical" name="LMONO"> F  </i>
    <i type="int" name="IDIPOL">     0</i>
    <i name="EPSILON">      1.00000000</i>
    <v name="DIPOL">   -100.00000000   -100.00000000   -100.00000000</v>
    <i name="EFIELD">      0.00000000</i>
   </separator>
  </separator>
  <separator name="grids" >
   <i type="int" name="NGX">    24</i>
   <i type="int" name="NGY">    24</i>
   <i type="int" name="NGZ">    24</i>
   <i type="int" name="NGXF">    48</i>
   <i type="int" name="NGYF">    48</i>
   <i type="int" name="NGZF">    48</i>
   <i type="logical" name="ADDGRID"> F  </i>
  </separator>
  <separator name="ionic" >
   <i type="int" name="NSW">   191</i>
   <i type="int" name="IBRION">     2</i>
   <i type="int" name="ISIF">     2</i>
   <i name="PSTRESS">      0.00000000</i>
   <i name="EDIFFG">      0.00100000</i>
   <i type="int" name="NFREE">     1</i>
   <i name="POTIM">      0.50000000</i>
   <i name="SMASS">     -3.00000000</i>
  </separator>
  <separator name="ionic md" >
   <i name="TEBEG">      0.00010000</i>
   <i name="TEEND">      0.00010000</i>
   <i type="int" name="NBLOCK">     1</i>
   <i type="int" name="KBLOCK">   191</i>
   <i type="int" name="NPACO">   256</i>
   <i name="APACO">     16.00000000</i>
  </separator>
  <separator name="symmetry" >
   <i type="int" name="ISYM">     2</i>
   <i name="SYMPREC">      0.00001000</i>
  </separator>
  <separator name="dos" >
   <i type="logical" name="LORBIT"> F  </i>
   <v name="RWIGS">     -1.00000000</v>
   <i type="int" name="NEDOS">   301</i>
   <i name="EMIN">     10.00000000</i>
   <i name="EMAX">    -10.00000000</i>
   <i name="EFERMI">      0.00000000</i>
  </separator>
  <separator name="writing" >
   <i type="int" name="NWRITE">     2</i>
   <i type="logical" name="LWAVE"> F  </i>
   <i type="logical" name="LCHARG"> F  </i>
   <i type="logical" name="LPARD"> F  </i>
   <i type="logical" name="LVTOT"> F  </i>
   <i type="logical" name="LELF"> F  </i>
   <i type="logical" name="LOPTICS"> F  </i>
   <v name="STM">      0.00000000      0.00000000      0.00000000      0.00000000      0.00000000</v>
  </separator>
  <separator name="performance" >
   <i type="int" name="NPAR">     1</i>
   <i type="int" name="NSIM">     4</i>
   <i type="int" name="NBLK">    32</i>
   <i type="logical" name="LPLANE"> T  </i>
   <i type="logical" name="LSCALAPACK"> F  </i>
   <i type="logical" name="LSCAAWARE"> F  </i>
   <i type="logical" name="LSCALU"> F  </i>
   <i type="logical" name="LASYNC"> F  </i>
  </separator>
  <separator name="miscellaneous" >
   <i type="int" name="IDIOT">     3</i>
   <i type="logical" name="LMUSIC"> F  </i>
   <v name="POMASS">     55.84700000</v>
   <i type="logical" name="LCORR"> T  </i>
  </separator>
  <i type="logical" name="LREAL_COMPAT"> F  </i>
  <i type="logical" name="GGA_COMPAT"> T  </i>
  <i type="logical" name="LBERRY"> F  </i>
  <i type="int" name="ICORELEVEL">     0</i>
  <i type="logical" name="LDAU"> F  </i>
  <i type="int" name="I_CONSTRAINED_M">     0</i>
  <separator name="electronic exchange-correlation" >
   <i type="string" name="GGA">--</i>
   <i type="int" name="VOSKOWN">     0</i>
   <i type="logical" name="LHFCALC"> F  </i>
   <i type="logical" name="LHFONE"> F  </i>
   <i type="logical" name="LRHFCALC"> F  </i>
   <i type="logical" name="LTHOMAS"> F  </i>
   <i type="logical" name="LMODELHF"> F  </i>
   <i name="ENCUTFOCK">      0.00000000</i>
   <i name="ENCUT4O">     -1.00000000</i>
   <i type="int" name="EXXOEP">     0</i>
   <i type="int" name="FOURORBIT">     0</i>
   <i name="AEXX">      0.00000000</i>
   <i name="HFALPHA">      0.00000000</i>
   <i name="ALDAX">      1.00000000</i>
   <i name="AGGAX">      1.00000000</i>
   <i name="ALDAC">      1.00000000</i>
   <i name="AGGAC">      1.00000000</i>
   <i type="int" name="NKREDX">     1</i>
   <i type="int" name="NKREDY">     1</i>
   <i type="int" name="NKREDZ">     1</i>
   <i type="logical" name="SHIFTRED"> F  </i>
   <i type="logical" name="ODDONLY"> F  </i>
   <i type="logical" name="EVENONLY"> F  </i>
   <i type="int" name="LMAXFOCK">     0</i>
   <i type="int" name="NMAXFOCKAE">     0</i>
   <i name="HFSCREEN">      0.00000000</i>
   <i name="HFSCREENC">      0.00000000</i>
  </separator>
  <separator name="model GW" >
   <i type="int" name="MODEL_GW">     0</i>
   <i name="MODEL_EPS0">      9.21543861</i>
   <i name="MODEL_ALPHA">      1.00000000</i>
  </separator>
  <separator name="linear response parameters" >
   <i type="logical" name="LEPSILON"> F  </i>
   <i type="logical" name="LRPA"> F  </i>
   <i type="logical" name="LNABLA"> F  </i>
   <i type="logical" name="LVEL"> F  </i>
   <i type="int" name="KINTER">     0</i>
   <i name="CSHIFT">      0.10000000</i>
   <i name="OMEGAMAX">     -1.00000000</i>
  </separator>
  <separator name="orbital magnetization" >
   <i type="logical" name="ORBITALMAG"> F  </i>
   <i type="logical" name="LMAGBLOCH"> F  </i>
   <i type="logical" name="LCHIMAG"> F  </i>
   <i type="logical" name="LGAUGE"> T  </i>
   <i type="int" name="MAGATOM">     0</i>
   <v name="MAGDIPOL">      0.00000000      0.00000000      0.00000000</v>
   <v name="AVECCONST">      0.00000000      0.00000000      0.00000000</v>
  </separator>
  <separator name="response functions" >
   <i type="logical" name="LRPA"> T  </i>
   <i type="logical" name="LTCTE"> F  </i>
   <i type="logical" name="LTETE"> F  </i>
   <i type="logical" name="L2ORDER"> F  </i>
   <i type="logical" name="LGWLF"> F  </i>
   <i name="ENCUTGW">    223.25583333</i>
   <i name="ENCUTGWSOFT">     -2.00000000</i>
   <i name="ENCUTLF">     -1.00000000</i>
   <i type="int" name="LMAXMP2">    -1</i>
   <i name="SCISSOR">      0.00000000</i>
   <i type="int" name="NOMEGA">     0</i>
   <i type="int" name="NOMEGAR">     0</i>
   <i type="int" name="NBANDSGW">    -1</i>
   <i type="int" name="NBANDSLF">    -1</i>
   <i type="int" name="NELM">     1</i>
   <i type="int" name="DIM">     3</i>
   <i type="int" name="ANTIRES">     0</i>
   <i type="logical" name="LUSEW"> F  </i>
   <i name="OMEGAMAX">    -30.00000000</i>
   <i name="OMEGATL">   -200.00000000</i>
   <i type="int" name="OMEGAGRID">     0</i>
   <i name="CSHIFT">     -0.10000000</i>
   <i type="logical" name="SELFENERGY"> F  </i>
   <i type="logical" name="LSPECTRAL"> F  </i>
   <i type="logical" name="ODDONLYGW"> F  </i>
   <i type="logical" name="EVENONLYGW"> F  </i>
   <i type="int" name="NKREDLFX">     1</i>
   <i type="int" name="NKREDLFY">     1</i>
   <i type="int" name="NKREDLFZ">     1</i>
   <i type="int" name="MAXMEM">  1024</i>
   <i type="int" name="TELESCOPE">     0</i>
  </separator>
 </parameters>
 <atominfo>
  <atoms>       3 </atoms>
  <types>       1 </types>
  <array name="atoms" >
   <dimension dim="1">ion</dimension>
   <field type="string">element</field>
   <field type="int">atomtype</field>
   <set>
    <rc><c>Fe</c><c>   1</c></rc>
    <rc><c>Fe</c><c>   1</c></rc>
    <rc><c>Fe</c><c>   1</c></rc>
   </set>
  </array>
  <array name="atomtypes" >
   <dimension dim="1">type</dimension>
   <field type="int">atomspertype</field>
   <field type="string">element</field>
   <field>mass</field>
   <field>valence</field>
   <field type="string">pseudopotential</field>
   <set>
    <rc><c>   3</c><c>Fe</c><c>     55.84700000</c><c>      8.00000000</c><c> PAW_GGA Fe 03Mar1998                   </c></rc>
   </set>
  </array>
 </atominfo>
 <structure name="initialpos" >
  <crystal>
   <varray name="basis" >
    <v>       3.58505100       0.00000000       0.00000000 </v>
    <v>       0.00000000       3.58505100       0.00000000 </v>
    <v>       0.00000000       0.00000000       3.58505100 </v>
   </varray>
   <i name="volume">     46.07719304 </i>
   <varray name="rec_basis" >
    <v>       0.27893606       0.00000000       0.00000000 </v>
    <v>       0.00000000       0.27893606       0.00000000 </v>
    <v>       0.00000000       0.00000000       0.27893606 </v>
   </varray>
  </crystal>
  <varray name="positions" >
   <v>       0.00000000       0.50000000       0.50000000 </v>
   <v>       0.50000000       0.00000000       0.50000000 </v>
   <v>       0.50000000       0.50000000       0.00000000 </v>
  </varray>
 </structure>
 <calculation>
  <scstep>
   <time name="dav">    0.48    0.13</time>
   <time name="total">    0.93    0.42</time>
   <energy>
    <i name="alphaZ">    134.15010455 </i>
    <i name="ewald">  -1543.28455601 </i>
    <i name="hartreedc">   -459.34008321 </i>
    <i name="XCdc">      9.08913340 </i>
    <i name="pawpsdc">   1438.89509626 </i>
    <i name="pawaedc">  -1462.21758594 </i>
    <i name="eentropy">      0.05031767 </i>
    <i name="bandstr">    226.18724111 </i>
    <i name="atom">   1786.61487174 </i>
    <i name="e_fr_energy">    130.14453958 </i>
    <i name="e_wo_entrp">    130.09422190 </i>
    <i name="e_0_energy">    130.12776702 </i>
   </energy>
  </scstep>
  <scstep>
   <time name="dav">    0.51    0.13</time>
   <time name="total">    0.52    0.13</time>
   <energy>
    <i name="e_fr_energy">    -14.64262757 </i>
    <i name="e_wo_entrp">    -14.67708298 </i>
    <i name="e_0_energy">    -14.65411270 </i>
   </energy>
  </scstep>
  <scstep>
   <time name="dav">    0.60    0.15</time>
   <time name="total">    0.61    0.15</time>
   <energy>
    <i name="e_fr_energy">    -22.90089459 </i>
    <i name="e_wo_entrp">    -22.96347557 </i>
    <i name="e_0_energy">    -22.92175491 </i>
   </energy>
  </scstep>
  <scstep>
   <time name="dav">    0.69    0.17</time>
   <time name="total">    0.70    0.18</time>
   <energy>
    <i name="e_fr_energy">    -24.62576656 </i>
    <i name="e_wo_entrp">    -24.64977798 </i>
    <i name="e_0_energy">    -24.63377037 </i>
   </energy>
  </scstep>
  <scstep>
   <time name="dav">    0.51    0.13</time>
   <time name="total">    0.73    0.19</time>
   <energy>
    <i name="e_fr_energy">    -24.64375365 </i>
    <i name="e_wo_entrp">    -24.66775207 </i>
    <i name="e_0_energy">    -24.65175313 </i>
   </energy>
  </scstep>
  <scstep>
   <time name="dav">    0.48    0.13</time>
   <time name="total">    0.99    0.48</time>
   <energy>
    <i name="e_fr_energy">    -23.82801008 </i>
    <i name="e_wo_entrp">    -23.88762748 </i>
    <i name="e_0_energy">    -23.84788255 </i>
   </energy>
  </scstep>
  <scstep>
   <time name="dav">    0.48    0.13</time>
   <time name="total">    1.00    0.48</time>
   <energy>
    <i name="e_fr_energy">    -23.90766055 </i>
    <i name="e_wo_entrp">    -23.94035391 </i>
    <i name="e_0_energy">    -23.91855834 </i>
   </energy>
  </scstep>
  <scstep>
   <time name="dav">    0.57    0.15</time>
   <time name="total">    1.15    0.50</time>
   <energy>
    <i name="e_fr_energy">    -23.95387732 </i>
    <i name="e_wo_entrp">    -23.98003792 </i>
    <i name="e_0_energy">    -23.96259752 </i>
   </energy>
  </scstep>
  <scstep>
   <time name="dav">    0.48    0.13</time>
   <time name="total">    1.09    0.48</time>
   <energy>
    <i name="e_fr_energy">    -23.95401151 </i>
    <i name="e_wo_entrp">    -23.98021297 </i>
    <i name="e_0_energy">    -23.96274533 </i>
   </energy>
  </scstep>
  <scstep>
   <time name="dav">    0.31    0.09</time>
   <time name="total">    0.76    0.37</time>
   <energy>
    <i name="alphaZ">    134.15010455 </i>
    <i name="ewald">  -1543.28455601 </i>
    <i name="hartreedc">   -444.21178391 </i>
    <i name="XCdc">      8.69058139 </i>
    <i name="pawpsdc">   1559.03346313 </i>
    <i name="pawaedc">  -1580.06828081 </i>
    <i name="eentropy">      0.02621669 </i>
    <i name="bandstr">     55.09529445 </i>
    <i name="atom">   1786.61487174 </i>
    <i name="e_fr_energy">    -23.95408877 </i>
    <i name="e_wo_entrp">    -23.98030547 </i>
    <i name="e_0_energy">    -23.96282767 </i>
   </energy>
  </scstep>
  <structure>
   <crystal>
    <varray name="basis" >
     <v>       3.58505100       0.00000000       0.00000000 </v>
     <v>       0.00000000       3.58505100       0.00000000 </v>
     <v>       0.00000000       0.00000000       3.58505100 </v>
    </varray>
    <i name="volume">     46.07719304 </i>
    <varray name="rec_basis" >
     <v>       0.27893606       0.00000000       0.00000000 </v>
     <v>       0.00000000       0.27893606       0.00000000 </v>
     <v>       0.00000000       0.00000000       0.27893606 </v>
    </varray>
   </crystal>
   <varray name="positions" >
    <v>       0.00000000       0.50000000       0.50000000 </v>
    <v>       0.50000000       0.00000000       0.50000000 </v>
    <v>       0.50000000       0.50000000       0.00000000 </v>
   </varray>
  </structure>
  <varray name="forces" >
   <v>       0.00000000       0.00000000       0.00000000 </v>
   <v>       0.00000000       0.00000000       0.00000000 </v>
   <v>       0.00000000       0.00000000       0.00000000 </v>
  </varray>
  <varray name="stress" >
   <v>    -392.29840444       0.00000000       0.00000000 </v>
   <v>       0.00000000    -392.29840444       0.00000000 </v>
   <v>       0.00000000       0.00000000    -392.29840444 </v>
  </varray>
  <energy>
   <i name="e_fr_energy">    -23.95408877 </i>
   <i name="e_wo_entrp">    -23.96282767 </i>
   <i name="e_0_energy">      0.02621669 </i>
  </energy>
  <time name="totalsc">   10.19    4.51</time>
  <eigenvalues>
   <array>
    <dimension dim="1">band</dimension>
    <dimension dim="2">kpoint</dimension>
    <dimension dim="3">spin</dimension>
    <field>eigene</field>
    <field>occ</field>
    <set>
     <set comment="spin 1">
      <set comment="kpoint 1">
       <r>   -3.6473    1.0000 </r>
       <r>    0.0697    1.0000 </r>
       <r>    1.4583    1.0000 </r>
       <r>    1.4583    1.0000 </r>
       <r>    1.4583    1.0000 </r>
       <r>    1.7519    1.0000 </r>
       <r>    1.7519    1.0000 </r>
       <r>    4.5042    1.0006 </r>
       <r>    4.5042    1.0006 </r>
       <r>    4.5042    1.0006 </r>
       <r>    4.8676    0.9997 </r>
       <r>    4.8676    0.9997 </r>
       <r>    5.5848   -0.0004 </r>
       <r>    5.5848   -0.0004 </r>
       <r>    5.5848   -0.0004 </r>
       <r>    5.6748    0.0000 </r>
      </set>
     </set>
    </set>
   </array>
  </eigenvalues>
  <separator name="orbital magnetization" >
   <v name="MAGDIPOLOUT">      0.00000000      0.00000000      0.00000000</v>
  </separator>
  <dos>
   <i name="efermi">      5.03575033 </i>
   <total>
    <array>
     <dimension dim="1">gridpoints</dimension>
     <dimension dim="2">spin</dimension>
     <field>energy</field>
     <field>total</field>
     <field>integrated</field>
     <set>
      <set comment="spin 1">
       <r>  -5.6473   0.0000   0.0000 </r>
       <r>  -5.6029   0.0000   0.0000 </r>
       <r>  -5.5585   0.0000   0.0000 </r>
       <r>  -5.5140   0.0000   0.0000 </r>
       <r>  -5.4696   0.0000   0.0000 </r>
       <r>  -5.4252   0.0000   0.0000 </r>
       <r>  -5.3808   0.0000   0.0000 </r>
       <r>  -5.3364   0.0000   0.0000 </r>
       <r>  -5.2920   0.0000   0.0000 </r>
       <r>  -5.2476   0.0000   0.0000 </r>
       <r>  -5.2032   0.0000   0.0000 </r>
       <r>  -5.1588   0.0000   0.0000 </r>
       <r>  -5.1144   0.0000   0.0000 </r>
       <r>  -5.0700   0.0000   0.0000 </r>
       <r>  -5.0256   0.0000   0.0000 </r>
       <r>  -4.9812   0.0000   0.0000 </r>
       <r>  -4.9368   0.0000   0.0000 </r>
       <r>  -4.8923   0.0000   0.0000 </r>
       <r>  -4.8479   0.0000   0.0000 </r>
       <r>  -4.8035   0.0000   0.0000 </r>
       <r>  -4.7591   0.0000   0.0000 </r>
       <r>  -4.7147   0.0000   0.0000 </r>
       <r>  -4.6703   0.0000   0.0000 </r>
       <r>  -4.6259   0.0000   0.0000 </r>
       <r>  -4.5815   0.0000   0.0000 </r>
       <r>  -4.5371   0.0000   0.0000 </r>
       <r>  -4.4927   0.0000   0.0000 </r>
       <r>  -4.4483   0.0000   0.0000 </r>
       <r>  -4.4039   0.0000   0.0000 </r>
       <r>  -4.3595  -0.0001   0.0000 </r>
       <r>  -4.3151  -0.0004   0.0000 </r>
       <r>  -4.2707  -0.0016  -0.0001 </r>
       <r>  -4.2262  -0.0053  -0.0003 </r>
       <r>  -4.1818  -0.0158  -0.0010 </r>
       <r>  -4.1374  -0.0415  -0.0029 </r>
       <r>  -4.0930  -0.0958  -0.0071 </r>
       <r>  -4.0486  -0.1917  -0.0156 </r>
       <r>  -4.0042  -0.3245  -0.0301 </r>
       <r>  -3.9598  -0.4399  -0.0496 </r>
       <r>  -3.9154  -0.4011  -0.0674 </r>
       <r>  -3.8710   0.0107  -0.0669 </r>
       <r>  -3.8266   1.0206  -0.0216 </r>
       <r>  -3.7822   2.7082   0.0987 </r>
       <r>  -3.7378   4.8533   0.3142 </r>
       <r>  -3.6934   6.9130   0.6212 </r>
       <r>  -3.6490   8.2093   0.9857 </r>
       <r>  -3.6045   8.2604   1.3525 </r>
       <r>  -3.5601   7.0465   1.6655 </r>
       <r>  -3.5157   5.0213   1.8884 </r>
       <r>  -3.4713   2.8602   2.0154 </r>
       <r>  -3.4269   1.1257   2.0654 </r>
       <r>  -3.3825   0.0641   2.0683 </r>
       <r>  -3.3381  -0.3860   2.0511 </r>
       <r>  -3.2937  -0.4447   2.0314 </r>
       <r>  -3.2493  -0.3350   2.0165 </r>
       <r>  -3.2049  -0.2008   2.0076 </r>
       <r>  -3.1605  -0.1015   2.0031 </r>
       <r>  -3.1161  -0.0444   2.0011 </r>
       <r>  -3.0717  -0.0171   2.0004 </r>
       <r>  -3.0273  -0.0058   2.0001 </r>
       <r>  -2.9828  -0.0018   2.0000 </r>
       <r>  -2.9384  -0.0005   2.0000 </r>
       <r>  -2.8940  -0.0001   2.0000 </r>
       <r>  -2.8496   0.0000   2.0000 </r>
       <r>  -2.8052   0.0000   2.0000 </r>
       <r>  -2.7608   0.0000   2.0000 </r>
       <r>  -2.7164   0.0000   2.0000 </r>
       <r>  -2.6720   0.0000   2.0000 </r>
       <r>  -2.6276   0.0000   2.0000 </r>
       <r>  -2.5832   0.0000   2.0000 </r>
       <r>  -2.5388   0.0000   2.0000 </r>
       <r>  -2.4944   0.0000   2.0000 </r>
       <r>  -2.4500   0.0000   2.0000 </r>
       <r>  -2.4056   0.0000   2.0000 </r>
       <r>  -2.3612   0.0000   2.0000 </r>
       <r>  -2.3167   0.0000   2.0000 </r>
       <r>  -2.2723   0.0000   2.0000 </r>
       <r>  -2.2279   0.0000   2.0000 </r>
       <r>  -2.1835   0.0000   2.0000 </r>
       <r>  -2.1391   0.0000   2.0000 </r>
       <r>  -2.0947   0.0000   2.0000 </r>
       <r>  -2.0503   0.0000   2.0000 </r>
       <r>  -2.0059   0.0000   2.0000 </r>
       <r>  -1.9615   0.0000   2.0000 </r>
       <r>  -1.9171   0.0000   2.0000 </r>
       <r>  -1.8727   0.0000   2.0000 </r>
       <r>  -1.8283   0.0000   2.0000 </r>
       <r>  -1.7839   0.0000   2.0000 </r>
       <r>  -1.7395   0.0000   2.0000 </r>
       <r>  -1.6950   0.0000   2.0000 </r>
       <r>  -1.6506   0.0000   2.0000 </r>
       <r>  -1.6062   0.0000   2.0000 </r>
       <r>  -1.5618   0.0000   2.0000 </r>
       <r>  -1.5174   0.0000   2.0000 </r>
       <r>  -1.4730   0.0000   2.0000 </r>
       <r>  -1.4286   0.0000   2.0000 </r>
       <r>  -1.3842   0.0000   2.0000 </r>
       <r>  -1.3398   0.0000   2.0000 </r>
       <r>  -1.2954   0.0000   2.0000 </r>
       <r>  -1.2510   0.0000   2.0000 </r>
       <r>  -1.2066   0.0000   2.0000 </r>
       <r>  -1.1622   0.0000   2.0000 </r>
       <r>  -1.1178   0.0000   2.0000 </r>
       <r>  -1.0733   0.0000   2.0000 </r>
       <r>  -1.0289   0.0000   2.0000 </r>
       <r>  -0.9845   0.0000   2.0000 </r>
       <r>  -0.9401   0.0000   2.0000 </r>
       <r>  -0.8957   0.0000   2.0000 </r>
       <r>  -0.8513   0.0000   2.0000 </r>
       <r>  -0.8069   0.0000   2.0000 </r>
       <r>  -0.7625   0.0000   2.0000 </r>
       <r>  -0.7181   0.0000   2.0000 </r>
       <r>  -0.6737   0.0000   2.0000 </r>
       <r>  -0.6293  -0.0002   2.0000 </r>
       <r>  -0.5849  -0.0006   2.0000 </r>
       <r>  -0.5405  -0.0023   1.9999 </r>
       <r>  -0.4961  -0.0075   1.9995 </r>
       <r>  -0.4517  -0.0214   1.9986 </r>
       <r>  -0.4072  -0.0540   1.9962 </r>
       <r>  -0.3628  -0.1197   1.9909 </r>
       <r>  -0.3184  -0.2287   1.9807 </r>
       <r>  -0.2740  -0.3652   1.9645 </r>
       <r>  -0.2296  -0.4531   1.9444 </r>
       <r>  -0.1852  -0.3283   1.9298 </r>
       <r>  -0.1408   0.2418   1.9405 </r>
       <r>  -0.0964   1.4570   2.0052 </r>
       <r>  -0.0520   3.3203   2.1527 </r>
       <r>  -0.0076   5.5085   2.3973 </r>
       <r>   0.0368   7.4090   2.7263 </r>
       <r>   0.0812   8.3662   3.0978 </r>
       <r>   0.1256   8.0174   3.4538 </r>
       <r>   0.1700   6.4970   3.7424 </r>
       <r>   0.2145   4.3596   3.9359 </r>
       <r>   0.2589   2.2793   4.0372 </r>
       <r>   0.3033   0.7360   4.0698 </r>
       <r>   0.3477  -0.1259   4.0643 </r>
       <r>   0.3921  -0.4334   4.0450 </r>
       <r>   0.4365  -0.4212   4.0263 </r>
       <r>   0.4809  -0.2934   4.0133 </r>
       <r>   0.5253  -0.1665   4.0059 </r>
       <r>   0.5697  -0.0805   4.0023 </r>
       <r>   0.6141  -0.0338   4.0008 </r>
       <r>   0.6585  -0.0125   4.0003 </r>
       <r>   0.7029  -0.0042   4.0001 </r>
       <r>   0.7473  -0.0015   4.0000 </r>
       <r>   0.7917  -0.0016   3.9999 </r>
       <r>   0.8361  -0.0050   3.9997 </r>
       <r>   0.8806  -0.0165   3.9990 </r>
       <r>   0.9250  -0.0487   3.9968 </r>
       <r>   0.9694  -0.1276   3.9911 </r>
       <r>   1.0138  -0.2934   3.9781 </r>
       <r>   1.0582  -0.5850   3.9521 </r>
       <r>   1.1026  -0.9861   3.9083 </r>
       <r>   1.1470  -1.3304   3.8493 </r>
       <r>   1.1914  -1.2050   3.7958 </r>
       <r>   1.2358   0.0394   3.7975 </r>
       <r>   1.2802   3.0522   3.9330 </r>
       <r>   1.3246   8.0239   4.2894 </r>
       <r>   1.3690  14.2498   4.9222 </r>
       <r>   1.4134  20.1212   5.8157 </r>
       <r>   1.4578  23.7774   6.8716 </r>
       <r>   1.5023  24.1511   7.9440 </r>
       <r>   1.5467  21.6965   8.9075 </r>
       <r>   1.5911  18.1762   9.7147 </r>
       <r>   1.6355  15.5581  10.4055 </r>
       <r>   1.6799  14.7838  11.0620 </r>
       <r>   1.7243  15.2962  11.7413 </r>
       <r>   1.7687  15.6153  12.4347 </r>
       <r>   1.8131  14.4549  13.0766 </r>
       <r>   1.8575  11.5365  13.5889 </r>
       <r>   1.9019   7.6092  13.9268 </r>
       <r>   1.9463   3.8312  14.0970 </r>
       <r>   1.9907   1.0704  14.1445 </r>
       <r>   2.0351  -0.4227  14.1257 </r>
       <r>   2.0795  -0.9047  14.0856 </r>
       <r>   2.1240  -0.8234  14.0490 </r>
       <r>   2.1684  -0.5556  14.0243 </r>
       <r>   2.2128  -0.3084  14.0106 </r>
       <r>   2.2572  -0.1465  14.0041 </r>
       <r>   2.3016  -0.0606  14.0014 </r>
       <r>   2.3460  -0.0221  14.0004 </r>
       <r>   2.3904  -0.0072  14.0001 </r>
       <r>   2.4348  -0.0021  14.0000 </r>
       <r>   2.4792  -0.0005  14.0000 </r>
       <r>   2.5236  -0.0001  14.0000 </r>
       <r>   2.5680   0.0000  14.0000 </r>
       <r>   2.6124   0.0000  14.0000 </r>
       <r>   2.6568   0.0000  14.0000 </r>
       <r>   2.7012   0.0000  14.0000 </r>
       <r>   2.7456   0.0000  14.0000 </r>
       <r>   2.7901   0.0000  14.0000 </r>
       <r>   2.8345   0.0000  14.0000 </r>
       <r>   2.8789   0.0000  14.0000 </r>
       <r>   2.9233   0.0000  14.0000 </r>
       <r>   2.9677   0.0000  14.0000 </r>
       <r>   3.0121   0.0000  14.0000 </r>
       <r>   3.0565   0.0000  14.0000 </r>
       <r>   3.1009   0.0000  14.0000 </r>
       <r>   3.1453   0.0000  14.0000 </r>
       <r>   3.1897   0.0000  14.0000 </r>
       <r>   3.2341   0.0000  14.0000 </r>
       <r>   3.2785   0.0000  14.0000 </r>
       <r>   3.3229   0.0000  14.0000 </r>
       <r>   3.3673   0.0000  14.0000 </r>
       <r>   3.4118   0.0000  14.0000 </r>
       <r>   3.4562   0.0000  14.0000 </r>
       <r>   3.5006   0.0000  14.0000 </r>
       <r>   3.5450   0.0000  14.0000 </r>
       <r>   3.5894   0.0000  14.0000 </r>
       <r>   3.6338   0.0000  14.0000 </r>
       <r>   3.6782   0.0000  14.0000 </r>
       <r>   3.7226   0.0000  14.0000 </r>
       <r>   3.7670  -0.0001  14.0000 </r>
       <r>   3.8114  -0.0006  14.0000 </r>
       <r>   3.8558  -0.0023  13.9999 </r>
       <r>   3.9002  -0.0082  13.9995 </r>
       <r>   3.9446  -0.0261  13.9983 </r>
       <r>   3.9890  -0.0734  13.9951 </r>
       <r>   4.0334  -0.1825  13.9870 </r>
       <r>   4.0779  -0.3966  13.9694 </r>
       <r>   4.1223  -0.7407  13.9365 </r>
       <r>   4.1667  -1.1493  13.8854 </r>
       <r>   4.2111  -1.3612  13.8250 </r>
       <r>   4.2555  -0.8486  13.7873 </r>
       <r>   4.2999   1.0924  13.8358 </r>
       <r>   4.3443   5.0003  14.0579 </r>
       <r>   4.3887  10.7439  14.5350 </r>
       <r>   4.4331  17.1839  15.2981 </r>
       <r>   4.4775  22.3869  16.2922 </r>
       <r>   4.5219  24.4766  17.3791 </r>
       <r>   4.5663  22.6976  18.3871 </r>
       <r>   4.6107  17.9815  19.1856 </r>
       <r>   4.6551  12.5663  19.7436 </r>
       <r>   4.6996   8.8518  20.1367 </r>
       <r>   4.7440   8.1784  20.4998 </r>
       <r>   4.7884  10.2293  20.9541 </r>
       <r>   4.8328  13.3409  21.5465 </r>
       <r>   4.8772  15.4791  22.2339 </r>
       <r>   4.9216  15.2994  22.9133 </r>
       <r>   4.9660  12.7086  23.4776 </r>
       <r>   5.0104   8.6867  23.8634 </r>
       <r>   5.0548   4.5861  24.0671 </r>
       <r>   5.0992   1.4078  24.1296 </r>
       <r>   5.1436  -0.5391  24.1056 </r>
       <r>   5.1880  -1.5160  24.0383 </r>
       <r>   5.2324  -1.9697  23.9508 </r>
       <r>   5.2768  -2.1390  23.8559 </r>
       <r>   5.3213  -1.8180  23.7751 </r>
       <r>   5.3657  -0.3591  23.7592 </r>
       <r>   5.4101   3.0368  23.8940 </r>
       <r>   5.4545   8.7840  24.2841 </r>
       <r>   5.4989  16.3614  25.0107 </r>
       <r>   5.5433  24.1373  26.0825 </r>
       <r>   5.5877  29.8512  27.4081 </r>
       <r>   5.6321  31.6139  28.8120 </r>
       <r>   5.6765  28.8525  30.0933 </r>
       <r>   5.7209  22.5881  31.0963 </r>
       <r>   5.7653  14.8759  31.7569 </r>
       <r>   5.8097   7.8051  32.1035 </r>
       <r>   5.8541   2.6853  32.2228 </r>
       <r>   5.8985  -0.1973  32.2140 </r>
       <r>   5.9429  -1.3032  32.1561 </r>
       <r>   5.9874  -1.3631  32.0956 </r>
       <r>   6.0318  -1.0054  32.0510 </r>
       <r>   6.0762  -0.6059  32.0240 </r>
       <r>   6.1206  -0.3132  32.0101 </r>
       <r>   6.1650  -0.1419  32.0038 </r>
       <r>   6.2094  -0.0570  32.0013 </r>
       <r>   6.2538  -0.0204  32.0004 </r>
       <r>   6.2982  -0.0066  32.0001 </r>
       <r>   6.3426  -0.0019  32.0000 </r>
       <r>   6.3870  -0.0005  32.0000 </r>
       <r>   6.4314  -0.0001  32.0000 </r>
       <r>   6.4758   0.0000  32.0000 </r>
       <r>   6.5202   0.0000  32.0000 </r>
       <r>   6.5646   0.0000  32.0000 </r>
       <r>   6.6091   0.0000  32.0000 </r>
       <r>   6.6535   0.0000  32.0000 </r>
       <r>   6.6979   0.0000  32.0000 </r>
       <r>   6.7423   0.0000  32.0000 </r>
       <r>   6.7867   0.0000  32.0000 </r>
       <r>   6.8311   0.0000  32.0000 </r>
       <r>   6.8755   0.0000  32.0000 </r>
       <r>   6.9199   0.0000  32.0000 </r>
       <r>   6.9643   0.0000  32.0000 </r>
       <r>   7.0087   0.0000  32.0000 </r>
       <r>   7.0531   0.0000  32.0000 </r>
       <r>   7.0975   0.0000  32.0000 </r>
       <r>   7.1419   0.0000  32.0000 </r>
       <r>   7.1863   0.0000  32.0000 </r>
       <r>   7.2308   0.0000  32.0000 </r>
       <r>   7.2752   0.0000  32.0000 </r>
       <r>   7.3196   0.0000  32.0000 </r>
       <r>   7.3640   0.0000  32.0000 </r>
       <r>   7.4084   0.0000  32.0000 </r>
       <r>   7.4528   0.0000  32.0000 </r>
       <r>   7.4972   0.0000  32.0000 </r>
       <r>   7.5416   0.0000  32.0000 </r>
       <r>   7.5860   0.0000  32.0000 </r>
       <r>   7.6304   0.0000  32.0000 </r>
       <r>   7.6748   0.0000  32.0000 </r>
      </set>
     </set>
    </array>
   </total>
  </dos>
 </calculation>
 <structure name="finalpos" >
  <crystal>
   <varray name="basis" >
    <v>       3.58505100       0.00000000       0.00000000 </v>
    <v>       0.00000000       3.58505100       0.00000000 </v>
    <v>       0.00000000       0.00000000       3.58505100 </v>
   </varray>
   <i name="volume">     46.07719304 </i>
   <varray name="rec_basis" >
    <v>       0.27893606       0.00000000       0.00000000 </v>
    <v>       0.00000000       0.27893606       0.00000000 </v>
    <v>       0.00000000       0.00000000       0.27893606 </v>
   </varray>
  </crystal>
  <varray name="positions" >
   <v>       0.00000000       0.50000000       0.50000000 </v>
   <v>       0.50000000       0.00000000       0.50000000 </v>
   <v>       0.50000000       0.50000000       0.00000000 </v>
  </varray>
 </structure>
</modeling>
