ITEM: TIMESTEP
0
ITEM: NUMBER OF ATOMS
128
ITEM: BOX BOUNDS pp pp pp
-6 5.97232
-6 5.97232
-6 5.97232
ITEM: ATOMS id type x y z 
4 2 -3.91434 -4.62125 -4.37785 
1 2 -0.573929 -4.81777 -3.82132 
28 1 -2.11706 -3.5446 -4.39542 
71 2 2.85595 -5.04582 -4.36738 
109 1 1.11801 -3.71176 -4.36311 
113 1 4.07373 -3.45057 -3.18817 
128 1 5.20116 -5.19945 -4.60335 
5 2 -5.55513 -0.735868 -4.02997 
21 2 -3.55703 -2.18931 -3.41537 
36 1 -3.61784 -0.0905728 -3.84399 
116 1 -5.34833 -2.91932 -4.14207 
120 1 -5.88484 -0.047997 -5.97954 
68 1 -0.807991 -0.980262 -4.81184 
49 2 2.72953 -2.40528 -4.14877 
50 2 0.320361 -1.97469 -3.32075 
91 2 5.89846 -2.16619 -5.89082 
92 1 3.75737 -2.21999 -5.88512 
9 2 -4.83444 1.8724 -5.37872 
35 2 -2.4768 0.101462 -5.50375 
44 1 -2.23312 2.21759 -5.77043 
70 1 0.0223187 1.66336 -4.38534 
85 2 1.8592 0.974511 -3.84542 
55 2 3.2806 2.49172 -3.93269 
93 2 4.74773 2.38544 -3.16776 
94 1 3.04744 1.16358 -5.53349 
14 2 -5.98488 5.32673 -3.30327 
38 1 -3.14314 3.49477 -3.27932 
48 1 -3.52547 5.86294 -5.88629 
121 1 -5.75815 3.39902 -4.13329 
37 2 -2.35398 4.25297 -5.01909 
72 1 -0.504279 5.1129 -4.66013 
39 2 0.98681 3.56564 -5.0543 
63 2 2.5796 3.88758 -4.47504 
101 2 5.80061 4.20081 -5.93743 
2 2 -5.10531 -4.12253 -2.29227 
24 1 -3.10639 -4.50849 -0.0533302 
45 1 -4.0327 -5.89299 -2.74946 
18 2 -2.50438 -5.80603 -1.34933 
77 1 -0.770238 -4.88947 -1.82843 
19 2 0.628893 -5.53388 -0.478286 
78 1 2.10312 -4.14948 -0.342379 
81 2 3.36618 -4.75798 -1.86094 
125 1 5.21897 -4.86627 -0.991601 
22 1 -3.9333 -2.47379 -1.37671 
53 2 -1.67931 -0.56838 -2.88313 
54 1 -1.01622 -2.11312 -1.57223 
86 1 2.00779 -0.83146 -2.94081 
88 1 5.5891 -2.42285 -1.0875 
10 2 -5.30273 2.93918 -0.595378 
29 2 -3.23457 1.42124 -2.48761 
30 1 -4.69807 0.994304 -1.00274 
40 1 -1.16636 1.20139 -1.92291 
62 1 2.19256 2.1819 -2.20288 
87 2 1.07742 0.620204 -1.46559 
95 2 4.04518 1.36294 -1.03177 
117 1 5.13098 0.316124 -2.64054 
33 2 -1.63498 3.25024 -1.87151 
46 1 -2.26333 4.42657 -0.269184 
82 2 1.47193 5.15344 -1.19898 
102 1 2.85039 5.42685 -2.85413 
110 1 0.182508 4.0136 -2.304 
103 2 4.84822 5.29938 -2.13369 
122 1 4.78581 3.35727 -1.33077 
26 1 -3.29401 -5.01518 2.96105 
83 2 -5.07131 -4.15109 2.44559 
126 1 -5.24302 -5.41783 0.944655 
25 2 -2.06591 -4.24369 1.56972 
58 1 -0.264739 -5.10206 1.47682 
51 2 3.84996 -4.67896 0.583097 
90 1 4.23051 -3.14731 1.85626 
114 1 -4.69273 -2.28793 1.67909 
23 2 -0.64423 -1.39612 0.389374 
57 2 -1.90325 -0.198499 2.2407 
66 1 -1.82349 -2.24662 1.97458 
27 2 0.223327 -2.82755 2.53306 
56 1 1.30518 -1.89172 1.01684 
89 2 2.56387 -2.17659 2.63743 
6 2 5.47272 -1.86875 0.819845 
11 2 -5.79663 0.659197 2.43531 
15 2 -3.35682 2.53346 1.95553 
32 1 -3.76712 0.575381 2.19672 
31 2 -2.00817 2.63962 1.04103 
64 1 -0.916258 0.743431 0.710445 
73 2 2.20315 2.65414 1.72416 
96 1 1.81492 0.814668 0.634293 
97 2 3.51518 0.67225 1.94483 
107 2 5.87001 2.17766 2.87018 
118 1 5.11988 0.139751 0.790226 
3 2 -3.76692 5.00696 1.26581 
123 1 -5.17458 3.31443 1.4104 
41 2 -0.493402 4.85828 0.760592 
79 1 -0.723052 3.54439 2.39932 
65 2 1.22021 3.31008 2.91482 
104 1 2.57505 3.97872 0.133563 
105 2 5.8115 5.04874 1.84011 
111 1 3.8652 5.62312 1.76602 
20 2 -2.35887 -4.37215 5.73331 
80 1 -0.520783 -5.11838 5.08833 
17 2 1.09418 -3.99962 5.56247 
52 2 0.545461 -5.48729 3.29538 
60 1 1.95965 -4.07948 3.41583 
76 1 2.85135 -5.24108 5.2955 
69 2 3.95334 -4.80878 3.23673 
84 2 4.45432 -4.16497 5.73105 
115 1 5.80202 -4.57659 4.23443 
7 2 -5.3247 -2.70275 4.73521 
34 1 -3.24684 -2.79512 4.65411 
119 1 -5.85968 -0.977912 3.70909 
8 2 -2.98353 -0.473293 4.98702 
67 2 0.203999 -0.432793 5.36933 
100 1 1.20659 -2.11174 4.48156 
59 2 4.09421 -0.29787 5.50762 
98 1 3.56135 -0.610024 3.49088 
12 2 -4.27607 0.400311 4.33852 
124 1 -5.23952 2.71462 4.64333 
42 1 -1.25876 0.269022 4.07699 
43 2 -1.17941 2.27298 4.40608 
61 2 1.03714 0.936347 5.88645 
74 1 0.865768 2.73882 4.8877 
99 2 2.97302 2.5936 4.95934 
106 1 3.84913 2.42145 3.04096 
13 2 -5.60187 5.77021 5.87636 
16 2 -3.73124 5.31413 4.11012 
127 1 -5.74244 5.00557 3.76215 
47 1 -2.87512 3.48396 3.67532 
112 1 2.03092 5.10499 3.27337 
75 2 4.14558 4.36532 3.71423 
108 1 3.77051 4.26328 5.81379 
ITEM: TIMESTEP
5000
ITEM: NUMBER OF ATOMS
128
ITEM: BOX BOUNDS pp pp pp
-6 5.97232
-6 5.97232
-6 5.97232
ITEM: ATOMS id type x y z 
4 2 -3.90496 -4.57939 -4.39176 
1 2 -0.512315 -4.72563 -3.74341 
28 1 -2.00023 -3.59204 -4.44105 
71 2 2.33075 -5.13808 -4.56946 
109 1 1.07659 -3.76379 -4.35559 
128 1 5.55913 -5.33508 -4.92824 
5 2 -5.31433 -0.667761 -4.03074 
21 2 -3.59789 -2.46537 -3.40268 
36 1 -3.34258 -0.453672 -3.55504 
116 1 -5.37975 -2.94803 -4.26521 
68 1 -0.733888 -1.36492 -4.95705 
35 2 -2.30139 -0.316802 -5.22398 
49 2 2.89396 -2.58929 -4.13072 
50 2 0.217007 -2.10519 -3.57275 
86 1 1.87658 -1.10293 -3.47261 
91 2 5.9459 -2.11855 -5.85338 
92 1 3.97999 -2.26493 -5.75171 
44 1 -1.92358 1.68332 -5.22353 
70 1 0.161978 1.88915 -4.14082 
85 2 1.97115 0.786593 -3.96329 
61 2 0.938378 0.866469 -5.90068 
55 2 3.30113 2.48766 -3.93097 
94 1 2.90896 1.04922 -5.60983 
14 2 -5.92088 5.26336 -3.40447 
38 1 -3.04296 3.33007 -3.67942 
48 1 -3.6206 5.97953 -5.92303 
121 1 -5.60171 3.23788 -4.21294 
37 2 -2.43429 4.84879 -4.7411 
72 1 -0.533286 5.39897 -4.72758 
39 2 0.95689 3.73917 -5.03664 
63 2 2.64553 3.91786 -4.44661 
102 1 2.86496 5.57918 -3.09386 
93 2 4.66705 3.04128 -3.30688 
101 2 5.72602 4.01504 -5.99465 
2 2 -5.13697 -4.49 -1.91727 
22 1 -4.23481 -2.84849 -1.56227 
18 2 -2.55442 -5.55931 -1.34601 
77 1 -0.738295 -4.7222 -1.93716 
19 2 0.80764 -5.49001 -0.670528 
78 1 2.12611 -4.16811 -0.491242 
113 1 4.28242 -3.13866 -2.8942 
81 2 3.45546 -4.70404 -1.92785 
125 1 5.2375 -5.27523 -1.01366 
53 2 -1.83865 -0.555267 -2.14926 
54 1 -0.846505 -2.11196 -1.72755 
88 1 5.68113 -1.76648 -1.12296 
10 2 -5.58042 2.79375 -0.564387 
29 2 -3.00307 1.46977 -2.58887 
30 1 -4.56849 1.57315 -1.39466 
40 1 -1.00065 1.43092 -1.70012 
62 1 2.48281 1.56932 -2.26671 
87 2 0.948703 1.41389 -0.96851 
95 2 4.29106 1.57195 -1.80137 
117 1 5.69492 0.228451 -2.50454 
45 1 -4.04758 6.28017 -2.86382 
33 2 -1.66295 3.53281 -1.94124 
46 1 -2.44451 4.74507 -0.37863 
82 2 1.55554 5.08713 -1.29849 
110 1 0.181462 4.14606 -2.54138 
103 2 4.93781 5.19842 -2.30755 
122 1 4.75671 3.36838 -1.34199 
24 1 -3.04903 -4.3084 0.056523 
83 2 -4.89401 -4.13784 2.38761 
126 1 -5.04888 -5.44704 0.859631 
25 2 -1.97427 -4.22908 1.71159 
58 1 -0.188931 -5.41313 1.30764 
51 2 3.90345 -4.61565 0.370753 
69 2 4.0897 -4.4001 2.75227 
114 1 -4.54207 -2.01068 1.90293 
23 2 -0.630575 -1.4596 0.299894 
57 2 -2.14236 -0.291366 2.40524 
66 1 -1.90798 -2.27932 1.90168 
27 2 0.132525 -2.12114 2.41842 
56 1 1.35934 -1.97654 0.932836 
89 2 2.65976 -2.43123 2.21669 
90 1 4.3681 -3.08268 1.37812 
6 2 5.53221 -1.68887 0.85284 
11 2 -5.97129 0.695568 2.66586 
15 2 -3.49096 2.16496 2.19372 
32 1 -3.92143 0.468943 2.7834 
31 2 -2.06103 2.26119 1.57685 
64 1 -1.13098 0.549969 0.83624 
73 2 2.03303 2.68981 1.76059 
96 1 1.46831 0.756244 0.982859 
97 2 3.30284 0.696072 2.09533 
107 2 5.63792 2.31109 2.87082 
118 1 4.94705 0.093827 1.18377 
106 1 3.62841 2.50272 3.12173 
3 2 -4.14633 4.82099 0.636347 
123 1 -5.12801 3.31299 1.33956 
41 2 -1.02633 4.8933 1.00653 
79 1 -0.901648 3.55278 2.24431 
65 2 0.989072 3.37517 2.87298 
104 1 2.61194 4.04504 0.141603 
105 2 5.95842 5.09199 1.91203 
111 1 3.95807 5.68265 1.66266 
26 1 -3.2051 -4.83516 3.24752 
20 2 -2.33298 -4.40767 5.68291 
80 1 -0.351449 -5.05322 4.94092 
17 2 1.06159 -3.8885 5.65764 
52 2 0.89586 -5.41905 3.10289 
60 1 2.24415 -3.93289 3.36614 
76 1 2.82088 -5.2161 5.5225 
84 2 4.50435 -4.27542 5.64575 
115 1 5.58588 -4.26374 3.99177 
7 2 -5.47218 -2.64383 4.75427 
34 1 -3.365 -2.88287 4.91247 
8 2 -2.73535 -0.799291 5.32632 
67 2 0.165826 -0.503273 5.54243 
100 1 1.00987 -2.03153 4.41414 
119 1 5.76351 -1.06957 3.83453 
59 2 3.42778 -0.698661 5.35328 
98 1 3.19591 -0.845905 3.41519 
120 1 -5.54081 0.0484053 6.00897 
9 2 -5.6411 1.99618 6.10461 
12 2 -3.93701 0.0537251 4.84346 
124 1 -5.43308 2.87274 4.44849 
42 1 -1.27543 0.0651668 4.29564 
43 2 -1.3332 2.11506 4.87256 
74 1 0.776704 2.73043 4.96673 
99 2 2.91302 2.60631 5.06484 
13 2 -5.55667 5.4126 5.75114 
16 2 -3.72628 5.3426 4.21974 
47 1 -2.86347 3.3522 3.91573 
112 1 1.97845 5.02284 3.23453 
127 1 6.05229 5.30144 3.78804 
75 2 4.07547 4.43899 3.87207 
108 1 3.77275 4.18492 5.89252 
ITEM: TIMESTEP
10000
ITEM: NUMBER OF ATOMS
128
ITEM: BOX BOUNDS pp pp pp
-6 5.97232
-6 5.97232
-6 5.97232
ITEM: ATOMS id type x y z 
4 2 -3.8149 -4.5931 -4.4597 
48 1 -3.52258 -6.0413 -5.94027 
1 2 -0.599284 -4.81079 -3.71097 
28 1 -2.09045 -3.66384 -4.53597 
71 2 2.29636 -5.17512 -4.4724 
109 1 0.862939 -3.97447 -4.34398 
128 1 5.68915 -5.11318 -4.84127 
5 2 -5.10244 -0.757567 -4.0138 
21 2 -3.41346 -2.47211 -3.26529 
36 1 -3.19828 -0.52522 -3.53642 
116 1 -5.26758 -2.94609 -4.24778 
68 1 -0.744239 -1.44939 -5.03407 
35 2 -2.28096 -0.304151 -5.16666 
50 2 0.299234 -2.09289 -3.57719 
86 1 1.86838 -1.21053 -3.52952 
49 2 3.37002 -2.0841 -4.04444 
91 2 5.98248 -1.94893 -5.85918 
92 1 3.99927 -2.18097 -5.71466 
120 1 -5.45389 0.141198 -5.84738 
9 2 -5.35445 2.08169 -5.71751 
44 1 -1.86156 1.64719 -5.25796 
70 1 0.179893 1.89336 -4.00249 
85 2 1.8432 0.613001 -3.9156 
94 1 2.82357 1.03961 -5.51941 
55 2 3.22054 2.53606 -4.02949 
121 1 -5.65884 3.24182 -4.24238 
38 1 -2.98298 3.23478 -3.66692 
37 2 -2.38347 4.8238 -4.80873 
72 1 -0.575287 5.3295 -4.67438 
39 2 0.851386 3.63499 -4.96559 
63 2 2.4769 3.92418 -4.47451 
102 1 2.77368 5.57215 -2.99686 
93 2 4.69443 2.9493 -3.2494 
14 2 6.0955 5.27675 -3.44528 
101 2 5.6259 4.10984 -5.86743 
2 2 -5.01121 -4.62464 -1.77672 
45 1 -4.12588 -5.76577 -2.88264 
18 2 -2.5293 -5.56668 -1.34211 
77 1 -0.806165 -4.75484 -1.79828 
19 2 0.706984 -5.45547 -0.663099 
78 1 2.13939 -4.10504 -0.386916 
81 2 3.5385 -4.67298 -1.92733 
125 1 5.23775 -5.18302 -0.992443 
113 1 4.42442 -2.95597 -2.77683 
22 1 -4.14727 -2.93456 -1.50329 
53 2 -1.71867 -0.454652 -2.2016 
54 1 -0.677363 -2.04179 -1.80271 
88 1 5.75715 -1.8456 -1.03968 
10 2 -5.53039 2.77697 -0.486348 
30 1 -4.56634 1.59316 -1.54544 
29 2 -2.97749 1.44628 -2.5471 
40 1 -0.994578 1.34357 -1.68151 
62 1 2.59606 1.4236 -2.39911 
87 2 1.1099 1.09353 -1.08691 
95 2 4.3526 1.42896 -1.8054 
117 1 5.78441 0.0989335 -2.5061 
33 2 -1.63969 3.37988 -1.93911 
46 1 -2.29528 4.70155 -0.496676 
82 2 1.40878 5.21381 -1.26692 
110 1 0.0637732 4.13689 -2.48786 
103 2 4.8072 5.21506 -2.32501 
122 1 4.76831 3.37162 -1.24305 
24 1 -3.17321 -4.46718 0.039239 
83 2 -4.89422 -4.048 2.52387 
126 1 -5.07482 -5.41908 0.947215 
25 2 -2.01701 -4.21135 1.53454 
58 1 -0.387049 -5.34629 1.26037 
51 2 3.914 -4.55653 0.312435 
69 2 4.114 -4.37776 2.74974 
90 1 4.37513 -3.01561 1.44193 
114 1 -4.5404 -2.10069 1.87161 
23 2 -0.562034 -1.46272 0.208506 
57 2 -2.08768 -0.312489 2.45269 
66 1 -1.81098 -2.25531 1.76846 
27 2 0.159008 -2.09087 2.37785 
56 1 1.36513 -1.94471 0.938817 
89 2 2.75777 -2.37946 2.38769 
6 2 5.63989 -1.6894 0.890679 
118 1 4.95513 0.0364748 1.13275 
11 2 -6.03722 0.730459 2.66601 
15 2 -3.45349 2.19506 2.13925 
32 1 -4.03078 0.24676 2.8156 
31 2 -1.95326 2.15821 1.48605 
64 1 -1.11548 0.515477 0.775908 
73 2 2.08277 2.6063 1.60443 
96 1 1.49603 0.70407 0.844098 
97 2 3.22039 0.552313 2.15485 
107 2 5.75955 2.24488 2.81412 
3 2 -4.11941 4.80304 0.529206 
123 1 -5.09269 3.2825 1.28784 
41 2 -1.1223 4.99868 0.98047 
79 1 -0.84701 3.55237 2.09327 
65 2 0.972703 3.32089 2.78834 
104 1 2.52525 4.07477 0.120729 
105 2 5.83994 5.18179 1.79673 
111 1 3.86211 5.89552 1.58892 
26 1 -3.11563 -4.78075 3.12842 
20 2 -2.37804 -4.49466 5.58777 
80 1 -0.462896 -5.24206 4.93247 
17 2 0.41119 -3.76248 5.73157 
52 2 0.786485 -5.3435 3.15538 
60 1 2.29967 -4.01464 3.5325 
76 1 3.07001 -5.31293 5.7398 
84 2 4.57054 -4.03057 5.70981 
115 1 5.63244 -4.15065 3.98053 
7 2 -5.41274 -2.4493 4.6978 
34 1 -3.49298 -2.8111 4.78127 
8 2 -2.80176 -0.796142 5.27289 
42 1 -1.28335 0.014444 4.2268 
67 2 0.206087 -0.367037 5.48401 
100 1 0.858257 -2.07203 4.45937 
119 1 5.3894 -0.768454 3.96314 
59 2 3.30177 -0.682548 5.3784 
98 1 2.98451 -0.866873 3.54019 
12 2 -4.03263 -0.048684 4.83532 
124 1 -5.34808 3.03978 4.57772 
43 2 -1.35715 2.09891 4.92036 
61 2 0.933992 1.08534 6.04621 
74 1 0.738851 2.8089 4.9758 
99 2 2.86194 2.66651 4.91866 
106 1 3.6997 2.49264 2.97721 
13 2 -5.55303 5.57589 5.88551 
16 2 -3.75958 5.29736 4.06481 
127 1 -5.9494 5.30384 3.72833 
47 1 -2.8145 3.42923 3.90021 
112 1 1.97472 4.99147 3.08775 
75 2 3.97064 4.45071 3.90164 
108 1 3.72341 4.31231 5.83857 
ITEM: TIMESTEP
15000
ITEM: NUMBER OF ATOMS
128
ITEM: BOX BOUNDS pp pp pp
-6 5.97232
-6 5.97232
-6 5.97232
ITEM: ATOMS id type x y z 
4 2 -3.87053 -4.59777 -4.32279 
1 2 -0.653384 -4.80775 -3.85463 
28 1 -2.13565 -3.58922 -4.41222 
71 2 2.25571 -5.06534 -4.58037 
109 1 0.841383 -3.93052 -4.58106 
128 1 5.58801 -5.25655 -4.77088 
5 2 -5.18944 -0.78223 -4.00186 
21 2 -3.54134 -2.42433 -3.21251 
36 1 -3.25619 -0.472802 -3.60712 
116 1 -5.34163 -2.97136 -4.22382 
91 2 -5.98211 -2.10961 -5.8468 
68 1 -0.812957 -1.39243 -5.1172 
35 2 -2.36874 -0.265161 -5.31104 
50 2 0.304546 -2.15752 -3.63889 
86 1 1.84716 -1.23599 -3.70951 
49 2 3.35426 -2.25068 -4.13187 
92 1 4.07514 -2.30316 -5.74739 
120 1 -5.44463 0.0564375 -5.77948 
9 2 -5.63578 2.03679 -5.78492 
44 1 -1.95825 1.65502 -5.34453 
70 1 0.131198 1.76016 -4.15337 
85 2 1.80612 0.695661 -3.83036 
94 1 2.94664 1.09718 -5.52057 
61 2 0.913434 1.01062 -5.97787 
55 2 3.3051 2.57751 -3.87899 
93 2 4.68949 3.00374 -3.13268 
48 1 -3.66361 6.05107 -5.90083 
121 1 -5.64931 3.3208 -4.06781 
14 2 -5.98243 5.14965 -3.25968 
38 1 -3.08086 3.10034 -3.67951 
37 2 -2.43716 4.74598 -4.90487 
72 1 -0.546287 5.35143 -5.00696 
39 2 0.88487 3.59479 -5.05477 
63 2 2.50059 3.94954 -4.50569 
101 2 5.79594 4.09958 -5.84208 
2 2 -4.98651 -4.61685 -1.86317 
45 1 -4.06591 -5.72853 -2.9274 
18 2 -2.52909 -5.73676 -1.3574 
77 1 -0.826391 -4.7778 -1.95375 
19 2 0.668012 -5.46699 -0.688755 
78 1 2.1258 -4.12327 -0.50582 
81 2 3.54887 -4.62176 -1.79945 
125 1 5.33649 -5.1828 -0.915789 
22 1 -4.06145 -2.99202 -1.4306 
53 2 -1.70954 -0.429811 -2.37105 
54 1 -0.562658 -2.14591 -1.78276 
113 1 4.36062 -3.09403 -2.7895 
88 1 5.80486 -1.90518 -1.09149 
10 2 -5.58083 2.68146 -0.447129 
30 1 -4.50389 1.3146 -1.27331 
29 2 -2.9496 1.36609 -2.48782 
40 1 -1.02402 1.28996 -1.78237 
62 1 2.54098 1.44915 -2.34445 
87 2 1.07898 1.36879 -1.08567 
95 2 4.34116 1.42049 -1.82109 
117 1 5.80863 0.0456212 -2.38002 
33 2 -1.74852 3.28284 -1.91852 
46 1 -2.35557 4.56153 -0.402007 
102 1 2.78897 5.60951 -3.03061 
82 2 1.37808 5.02654 -1.41419 
110 1 -0.15149 4.0217 -2.64182 
103 2 4.83269 5.24281 -2.17909 
122 1 4.82104 3.24543 -1.18434 
24 1 -2.98104 -4.48974 0.118065 
83 2 -4.76629 -3.97499 2.36263 
126 1 -4.97769 -5.45143 0.980829 
25 2 -1.94342 -4.27775 1.75781 
58 1 -0.188594 -5.33644 1.24082 
51 2 3.92973 -4.57665 0.315424 
69 2 4.09881 -4.34188 2.60877 
90 1 4.31091 -2.97041 1.33213 
114 1 -4.55799 -2.00298 1.81246 
23 2 -0.518094 -1.52702 0.271345 
57 2 -2.05239 -0.244297 2.42163 
66 1 -1.8076 -2.18498 1.82016 
27 2 0.149246 -1.9177 2.3835 
56 1 1.39437 -1.82277 0.825154 
89 2 2.83674 -2.30809 2.20699 
6 2 5.70561 -1.68582 0.815509 
15 2 -3.39026 2.19342 2.20506 
32 1 -4.04533 0.38155 2.75437 
31 2 -1.86392 2.09592 1.69477 
64 1 -1.05141 0.493806 0.764571 
73 2 2.2196 2.68079 1.75649 
96 1 1.45234 0.929072 0.932349 
118 1 5.0152 0.138153 1.21997 
11 2 6.00096 0.596138 2.73114 
97 2 3.34261 0.679439 2.12251 
107 2 5.64797 2.18329 2.97515 
106 1 3.64999 2.40181 3.10107 
3 2 -4.06359 4.77955 0.681495 
123 1 -5.18455 3.22338 1.3859 
41 2 -1.06499 4.89382 1.0382 
79 1 -0.700459 3.51796 2.25822 
65 2 1.22275 3.51901 2.97726 
104 1 2.63759 4.00841 0.0872138 
105 2 5.86513 5.12066 1.92531 
111 1 3.93071 5.76961 1.72909 
26 1 -2.98692 -4.75403 3.27392 
20 2 -2.50635 -4.26831 5.81799 
80 1 -0.748177 -4.98419 4.83739 
17 2 0.272276 -3.41313 5.44805 
52 2 0.691114 -5.21943 3.17491 
60 1 2.27743 -3.76126 3.48239 
76 1 3.01895 -5.39575 5.53254 
84 2 4.6358 -4.34043 5.72073 
115 1 5.68798 -4.17727 3.95377 
7 2 -5.41839 -2.56939 4.7189 
34 1 -3.47925 -2.7928 4.96849 
12 2 -4.04675 -0.0658656 4.77233 
8 2 -2.82006 -0.747833 5.22673 
67 2 0.115992 -0.369966 5.38289 
100 1 0.830036 -1.89687 4.26661 
119 1 5.53933 -0.813304 4.03686 
59 2 3.35331 -0.588728 5.36043 
98 1 3.14014 -0.73133 3.45437 
42 1 -1.39782 0.144477 4.12744 
43 2 -1.40901 2.16419 4.85323 
74 1 0.651508 2.77291 4.91737 
99 2 2.75815 2.56715 4.95727 
124 1 -5.34425 2.90881 4.57341 
13 2 -5.47878 5.50653 5.92419 
16 2 -3.86402 5.43238 4.13334 
127 1 -6.01534 5.30725 3.87832 
47 1 -2.84601 3.4783 3.807 
112 1 2.07714 5.2469 3.33419 
75 2 3.92206 4.41908 3.86837 
108 1 3.64356 4.21358 5.86021 
ITEM: TIMESTEP
20000
ITEM: NUMBER OF ATOMS
128
ITEM: BOX BOUNDS pp pp pp
-6 5.97232
-6 5.97232
-6 5.97232
ITEM: ATOMS id type x y z 
4 2 -3.89206 -4.60916 -4.32937 
116 1 -5.37553 -3.17827 -4.34818 
1 2 -0.625744 -4.55639 -3.74942 
28 1 -2.05715 -3.42771 -4.37526 
71 2 2.20743 -5.22503 -4.63755 
109 1 0.951275 -3.82783 -4.50612 
128 1 5.47865 -5.32088 -4.98414 
21 2 -3.69754 -2.49287 -3.33418 
36 1 -3.20635 -0.538544 -3.53855 
91 2 -5.95785 -2.15055 -6.00402 
120 1 -5.45574 -0.125654 -5.88429 
5 2 -4.9138 -0.148876 -3.96164 
68 1 -0.590399 -1.22533 -5.00714 
35 2 -2.23284 -0.32301 -5.25665 
50 2 0.565089 -2.11284 -3.67735 
86 1 2.07764 -0.982586 -3.60742 
49 2 3.55618 -2.10283 -4.02021 
92 1 4.02791 -2.37436 -5.69018 
9 2 -5.49772 2.00948 -5.93123 
44 1 -1.74021 1.61364 -5.1647 
70 1 0.301342 2.213 -3.9225 
85 2 1.80365 1.02117 -4.06068 
94 1 3.12932 0.927463 -5.73862 
55 2 3.32635 2.65725 -4.3827 
121 1 -5.61276 3.26598 -4.28373 
14 2 -6.10285 5.13082 -3.4181 
38 1 -2.98946 3.18953 -3.72033 
37 2 -2.32544 4.87763 -4.86024 
72 1 -0.498756 5.50686 -4.78612 
39 2 0.868781 3.85914 -5.14721 
63 2 2.40263 3.99932 -4.7142 
102 1 2.68212 5.54921 -3.07135 
93 2 4.62045 2.87193 -3.51182 
101 2 5.85822 4.07035 -5.94101 
2 2 -5.33156 -4.6917 -1.91882 
45 1 -4.23007 -5.87531 -2.86589 
18 2 -2.62693 -5.55495 -1.37477 
77 1 -0.779152 -4.77418 -1.72927 
19 2 0.665008 -5.47871 -0.678342 
78 1 2.08565 -4.12589 -0.4507 
81 2 3.47972 -4.71561 -1.9161 
125 1 5.06304 -5.41916 -0.848131 
113 1 4.45919 -3.11893 -2.75368 
22 1 -4.2972 -3.07416 -1.48759 
53 2 -1.5034 -0.430935 -2.39126 
54 1 -0.474338 -2.11239 -1.92497 
88 1 5.77209 -1.73879 -1.02155 
10 2 -5.74544 2.61738 -0.501976 
30 1 -4.57553 1.68761 -1.53456 
29 2 -2.93252 1.29191 -2.61144 
40 1 -1.05638 1.35933 -1.62356 
62 1 2.49699 0.826327 -2.1758 
87 2 1.03133 1.08936 -0.969719 
95 2 4.20541 1.46165 -1.96461 
117 1 5.78108 0.321313 -2.47766 
33 2 -1.749 3.35217 -1.93447 
46 1 -2.53646 4.69428 -0.410365 
110 1 -0.0349631 4.18265 -2.45734 
82 2 1.30707 5.16632 -1.34153 
103 2 4.7205 5.1541 -2.33915 
122 1 4.65676 3.36243 -1.4698 
24 1 -3.08277 -4.35813 0.160661 
83 2 -4.70126 -4.19262 2.51159 
126 1 -5.01419 -5.47237 0.95434 
25 2 -1.73723 -4.24547 1.60691 
58 1 -0.332391 -5.42024 1.24479 
51 2 3.86816 -4.82489 0.335113 
69 2 4.00339 -4.36621 2.79072 
114 1 -4.73642 -2.24963 1.87535 
23 2 -0.443661 -1.51523 0.227364 
57 2 -2.08901 -0.466791 2.40415 
66 1 -1.45258 -2.27257 1.83113 
27 2 0.432087 -2.03402 2.40451 
56 1 1.51407 -1.77621 0.787755 
89 2 2.87467 -2.39644 2.29367 
90 1 4.24587 -3.06328 1.34684 
6 2 5.48164 -1.6557 0.845992 
15 2 -3.66457 1.81385 1.96599 
32 1 -4.13978 0.123671 2.80134 
31 2 -2.23058 1.9902 1.59466 
64 1 -1.15582 0.508432 0.770084 
73 2 2.02467 2.78752 1.74372 
96 1 1.50041 0.829139 0.898209 
11 2 6.03342 0.698534 2.82164 
118 1 4.9916 0.0943056 1.30932 
97 2 3.23078 0.681976 2.04215 
107 2 5.85571 2.30531 2.81024 
106 1 3.67647 2.5444 2.92655 
3 2 -4.33844 4.70397 0.544493 
123 1 -5.21748 3.19278 1.3052 
41 2 -1.13023 4.8309 0.98217 
79 1 -0.979168 3.47842 2.27913 
65 2 0.841261 3.38694 2.88361 
104 1 2.55833 4.09191 0.0510014 
105 2 5.87217 5.07722 1.83443 
111 1 3.77195 5.72517 1.8156 
26 1 -2.82261 -4.8295 3.19114 
20 2 -2.48571 -4.31078 5.86726 
80 1 -0.721163 -4.92735 4.89898 
17 2 0.320667 -3.5301 5.75291 
52 2 0.635461 -5.28381 3.25181 
60 1 2.30205 -3.82834 3.61959 
76 1 2.84507 -5.52012 5.56701 
84 2 4.43633 -4.27559 5.67327 
115 1 5.62768 -4.29338 3.99571 
7 2 -5.27139 -2.83586 4.82431 
34 1 -3.4094 -2.92582 4.80864 
12 2 -4.0437 -0.137651 4.75528 
8 2 -2.77756 -0.850261 5.24499 
67 2 0.323589 -0.336107 5.31742 
100 1 0.951518 -1.94808 4.47723 
98 1 3.03939 -0.856443 3.50657 
59 2 3.16132 -0.990827 5.39454 
124 1 -5.24015 2.99185 4.47067 
42 1 -1.39794 0.173124 4.18297 
43 2 -1.26305 2.27468 5.0894 
61 2 1.28424 0.903915 5.49854 
74 1 0.745334 2.81224 5.00219 
99 2 2.87146 2.75707 4.96206 
119 1 4.99465 0.392159 4.4146 
48 1 -3.618 5.97275 -5.93152 
13 2 -5.4329 5.54758 5.79885 
16 2 -3.58708 5.50124 4.01627 
127 1 -5.67624 5.33957 3.72856 
47 1 -2.70263 3.51015 4.21701 
112 1 1.88218 5.13634 3.42978 
108 1 3.84205 4.23579 5.72061 
75 2 4.86615 3.69827 4.09158 
ITEM: TIMESTEP
25000
ITEM: NUMBER OF ATOMS
128
ITEM: BOX BOUNDS pp pp pp
-6 5.97232
-6 5.97232
-6 5.97232
ITEM: ATOMS id type x y z 
4 2 -3.86418 -4.90623 -4.23167 
48 1 -3.53025 -6.11738 -5.83905 
116 1 -5.19222 -3.15986 -4.39028 
1 2 -0.646919 -4.85395 -3.99971 
28 1 -2.29261 -3.80473 -4.22849 
71 2 2.22925 -5.16018 -4.65194 
109 1 0.85726 -3.92363 -4.61807 
128 1 5.66562 -5.33989 -4.96474 
21 2 -3.56802 -2.50704 -3.26266 
36 1 -3.12705 -0.450474 -3.53439 
91 2 -5.93719 -1.96522 -5.73509 
68 1 -0.323201 -0.945449 -4.98023 
35 2 -2.18189 -0.178083 -5.2806 
50 2 0.305488 -2.15879 -3.49467 
86 1 2.10265 -1.5007 -3.22556 
49 2 3.5479 -2.33828 -3.85613 
92 1 4.04507 -2.19893 -5.71123 
5 2 -5.02021 -0.112597 -3.90378 
120 1 -5.46567 0.0853326 -5.76817 
9 2 -5.45924 2.11559 -5.73666 
44 1 -1.6685 1.68927 -5.26405 
70 1 0.283309 2.39488 -3.95356 
85 2 1.85603 1.29705 -3.92018 
94 1 2.99275 1.07901 -5.43007 
55 2 3.44156 2.84349 -4.40097 
121 1 -5.47169 3.33359 -4.28838 
14 2 -5.96238 5.13266 -3.42622 
38 1 -2.91605 3.17535 -3.7186 
37 2 -2.28545 4.72345 -4.86348 
72 1 -0.585394 5.40792 -5.04021 
39 2 0.944653 3.87436 -5.23511 
63 2 2.61404 4.17352 -4.69012 
102 1 2.78647 5.61072 -2.97598 
93 2 4.74812 3.03163 -3.42964 
101 2 5.8633 4.058 -6.1007 
2 2 -5.16911 -4.63942 -2.00096 
45 1 -4.21041 -5.94695 -2.66852 
18 2 -2.57244 -5.56067 -1.22237 
77 1 -0.740407 -4.89475 -1.975 
19 2 0.676487 -5.41289 -0.674763 
78 1 2.06539 -4.09886 -0.444091 
81 2 3.40662 -4.67933 -1.83589 
125 1 5.19423 -5.12179 -1.11478 
113 1 4.61147 -3.18803 -2.71599 
22 1 -4.29132 -3.00889 -1.59003 
53 2 -1.80912 -0.551921 -2.12585 
54 1 -0.8167 -2.1854 -1.80789 
88 1 5.73936 -1.68651 -1.15675 
10 2 -5.52463 2.92808 -0.545557 
30 1 -4.44089 1.65747 -1.4867 
29 2 -3.07605 1.48882 -2.56386 
40 1 -1.20384 1.32998 -1.48537 
62 1 2.33733 0.75027 -2.3401 
87 2 0.878962 0.93704 -0.90703 
95 2 4.21209 1.48923 -1.97467 
117 1 5.74969 0.386673 -2.27987 
33 2 -1.76377 3.4699 -1.81602 
46 1 -2.5058 4.7043 -0.313369 
110 1 0.185204 4.03284 -2.21781 
82 2 1.39636 5.20391 -1.33489 
103 2 4.87043 5.17039 -2.33671 
122 1 4.53336 3.23098 -1.45404 
83 2 -4.77002 -4.07818 2.36146 
126 1 -5.11618 -5.39606 0.860597 
24 1 -3.0898 -4.22199 -0.0135637 
25 2 -1.87097 -4.22131 1.57781 
58 1 -0.336425 -5.46305 1.30187 
51 2 3.91713 -4.69014 0.32476 
69 2 4.00965 -4.50791 2.76261 
90 1 4.276 -3.1275 1.37434 
114 1 -4.83947 -2.01657 1.77772 
23 2 -0.385091 -1.6184 0.264398 
57 2 -2.03351 -0.504315 2.54414 
66 1 -1.56687 -2.3562 1.98125 
27 2 0.252262 -2.15104 2.54258 
56 1 1.49876 -1.90658 1.02441 
89 2 2.80444 -2.28409 2.33535 
6 2 5.41975 -1.70504 0.733542 
118 1 4.82088 0.0494714 1.25236 
15 2 -3.47396 1.91066 1.79687 
32 1 -4.10811 0.203229 2.79405 
11 2 -6.04316 0.755491 2.63221 
31 2 -1.99592 1.97832 1.52782 
64 1 -1.14605 0.391943 0.863851 
73 2 1.9481 2.59987 1.72923 
96 1 1.42344 0.773997 0.979072 
97 2 3.08103 0.564818 2.13654 
107 2 5.6855 2.27976 2.71272 
106 1 3.59423 2.41837 2.95498 
3 2 -4.23193 4.80938 0.474856 
123 1 -5.11971 3.31597 1.25255 
41 2 -1.13005 4.79394 1.01066 
79 1 -0.992231 3.40923 2.18279 
65 2 0.920834 3.32318 2.73244 
104 1 2.46714 4.01293 0.130743 
105 2 5.93445 5.1751 1.94432 
111 1 3.92067 5.58169 1.67812 
26 1 -2.88322 -4.80137 3.18508 
20 2 -2.49692 -4.21251 5.87718 
80 1 -0.748523 -5.03091 4.83245 
17 2 0.333433 -3.64132 5.59374 
52 2 0.651689 -5.30317 3.15719 
60 1 2.22084 -3.99712 3.62494 
76 1 2.95559 -5.24756 5.61212 
84 2 4.54319 -4.21744 5.71321 
115 1 5.7325 -4.14699 3.83463 
7 2 -5.19774 -2.58031 4.96089 
34 1 -3.21353 -2.84424 4.87496 
12 2 -3.99319 -0.0876047 4.75924 
8 2 -2.70583 -0.814328 5.27357 
67 2 0.254115 -0.375235 5.14048 
100 1 0.915362 -2.00003 4.42556 
98 1 2.81255 -0.661453 3.59939 
59 2 3.11087 -0.736868 5.54978 
119 1 5.24454 0.0387499 4.34291 
42 1 -1.38239 0.110392 4.14241 
43 2 -1.33801 2.17334 4.74366 
61 2 1.19094 0.931661 5.2425 
74 1 0.705649 2.82344 4.82359 
99 2 2.79393 2.57445 5.03701 
124 1 -5.39378 2.96033 4.41906 
13 2 -5.44437 5.49209 5.76669 
16 2 -3.6658 5.61804 4.1231 
127 1 -5.54853 5.55552 3.81018 
47 1 -2.76054 3.60119 4.06129 
112 1 1.74543 5.02159 3.06065 
108 1 3.71032 4.23273 5.51739 
75 2 4.68542 3.32729 4.28402 
ITEM: TIMESTEP
30000
ITEM: NUMBER OF ATOMS
128
ITEM: BOX BOUNDS pp pp pp
-6 5.97232
-6 5.97232
-6 5.97232
ITEM: ATOMS id type x y z 
4 2 -3.66109 -4.78794 -4.27302 
116 1 -5.1843 -3.20969 -4.34911 
1 2 -0.662207 -4.8293 -3.73567 
28 1 -2.09674 -3.72684 -4.26409 
71 2 2.34562 -4.98032 -4.7319 
109 1 0.949725 -3.73051 -4.42375 
128 1 5.46694 -5.33128 -4.84946 
21 2 -3.57841 -2.59699 -3.23092 
36 1 -3.06065 -0.626282 -3.27971 
91 2 -5.7068 -2.14529 -5.80077 
5 2 -4.90173 -0.26329 -4.02285 
120 1 -5.3951 0.0298978 -5.71074 
68 1 -0.439247 -0.952573 -5.00993 
35 2 -2.15613 -0.153306 -4.94162 
50 2 0.534348 -1.84504 -3.6951 
86 1 2.43902 -1.09145 -3.64077 
49 2 3.82361 -2.18699 -4.13717 
92 1 4.354 -2.21812 -5.89717 
9 2 -5.58406 1.98674 5.98369 
44 1 -1.91533 1.77551 -4.97638 
70 1 0.141681 2.58313 -4.07609 
85 2 1.56018 1.38595 -3.87263 
94 1 2.63164 0.806319 -5.40718 
55 2 3.05921 2.77455 -4.44217 
93 2 4.26032 2.96551 -3.58964 
48 1 -3.80852 5.76479 -5.63303 
13 2 -5.55513 5.36056 5.81827 
38 1 -2.75277 3.49699 -3.33864 
37 2 -2.38924 4.79356 -4.78344 
72 1 -0.56905 5.35626 -5.07395 
39 2 0.701899 3.90873 -5.36013 
63 2 2.26252 4.08508 -4.94789 
102 1 2.86162 5.6476 -3.49149 
121 1 -5.97129 3.12492 -4.37794 
101 2 5.46839 4.17056 -5.78267 
14 2 5.64868 5.0029 -3.70414 
2 2 -4.93029 -4.92221 -1.87098 
45 1 -3.57137 -5.99894 -2.53265 
18 2 -2.30567 -5.87998 -1.13988 
77 1 -0.514861 -5.37815 -1.8962 
19 2 0.969553 -5.63342 -0.345042 
78 1 2.46412 -4.44011 -0.545754 
81 2 3.68936 -5.02871 -2.08328 
125 1 5.40521 -5.68422 -1.17354 
113 1 4.52959 -3.39531 -2.92536 
22 1 -4.35484 -3.18484 -1.52943 
53 2 -1.58902 -0.428933 -2.10952 
54 1 -0.351717 -1.6786 -1.72459 
23 2 -0.309725 -2.19005 0.138654 
88 1 5.72765 -1.90696 -1.19497 
30 1 -4.89869 2.17648 -2.37913 
29 2 -3.07361 1.13338 -2.2928 
10 2 -5.96333 2.84526 -0.944427 
40 1 -1.42687 1.36261 -1.29458 
62 1 2.03035 0.609823 -2.16703 
87 2 0.690616 1.15228 -0.835821 
95 2 3.91269 1.2036 -2.00125 
117 1 5.61582 0.220242 -2.55926 
33 2 -1.47546 3.47672 -1.61354 
46 1 -2.4071 4.4972 -0.1621 
110 1 0.21552 4.25838 -2.1086 
82 2 1.19648 4.89807 -0.592446 
103 2 4.67815 5.0055 -2.56923 
122 1 4.30748 3.16891 -1.5777 
83 2 -4.64541 -3.9153 2.46079 
126 1 -4.98706 -5.30136 0.819858 
24 1 -2.95985 -4.51314 0.0508199 
25 2 -1.9715 -4.10651 1.5174 
58 1 -0.226179 -5.34886 1.32114 
51 2 4.10038 -4.95603 0.359247 
69 2 4.23377 -4.34119 2.69499 
90 1 4.38898 -3.0873 1.29465 
114 1 -4.46041 -1.99848 1.61015 
57 2 -1.98477 -0.220771 2.36385 
66 1 -1.86164 -2.03618 1.53833 
27 2 0.0582535 -2.08332 2.3306 
56 1 1.37094 -2.60351 0.902395 
89 2 2.78916 -2.58857 2.15694 
6 2 5.61498 -1.60811 0.642389 
15 2 -3.73226 2.24259 1.82099 
32 1 -4.10444 0.320547 2.71455 
11 2 -5.9162 0.822493 2.44923 
107 2 -5.91687 2.26758 2.55811 
31 2 -2.11526 2.54147 1.68933 
64 1 -1.20713 1.11549 1.24811 
73 2 1.53339 2.79455 1.65627 
96 1 1.26359 1.03445 1.12408 
118 1 4.80561 0.0965604 1.0123 
97 2 3.04554 0.440821 2.08255 
3 2 -4.27506 4.84059 0.507889 
123 1 -5.32668 3.47281 1.00095 
41 2 -1.26777 5.03946 1.33044 
79 1 -1.25967 3.78105 2.61799 
65 2 0.716312 3.41651 2.98967 
104 1 2.51374 3.98748 0.296182 
112 1 1.96309 4.91135 3.51902 
105 2 5.9703 5.2416 1.97578 
111 1 3.89519 5.6364 1.87093 
26 1 -2.87591 -4.58089 3.40846 
20 2 -1.90362 -3.43221 5.83341 
80 1 -0.707198 -4.87718 4.82268 
17 2 0.238215 -3.40423 5.6476 
52 2 0.737829 -5.27211 3.20702 
60 1 2.43446 -4.02621 3.55796 
76 1 3.32637 -5.136 5.54516 
84 2 4.58002 -3.72651 5.21613 
115 1 5.89847 -4.06595 3.89022 
7 2 -5.03244 -2.68202 4.96426 
34 1 -3.18305 -2.44451 4.96313 
12 2 -3.99694 0.135715 4.94781 
8 2 -2.74561 -0.629641 5.46362 
67 2 0.103558 -0.424421 5.29883 
100 1 0.761662 -1.99506 4.20457 
98 1 2.87184 -1.02775 3.35117 
59 2 3.29025 -0.902282 5.32827 
124 1 -5.38634 2.93461 4.30522 
42 1 -1.48397 0.0764492 4.28467 
43 2 -1.60808 2.12231 5.05743 
61 2 1.05873 0.753801 5.2954 
74 1 0.500588 2.56691 4.82474 
99 2 2.72188 2.36279 5.0438 
106 1 3.59475 2.01621 3.4168 
119 1 5.23097 0.0565673 4.08328 
16 2 -3.47142 5.56047 4.38851 
127 1 -5.41457 5.48475 3.79747 
47 1 -2.86936 3.44501 4.31728 
108 1 3.64246 4.16196 5.41106 
75 2 4.79581 3.32163 4.07093 
ITEM: TIMESTEP
35000
ITEM: NUMBER OF ATOMS
128
ITEM: BOX BOUNDS pp pp pp
-6 5.97232
-6 5.97232
-6 5.97232
ITEM: ATOMS id type x y z 
4 2 -3.74761 -5.01678 -4.36595 
116 1 -5.2363 -3.46097 -4.31765 
1 2 -0.71536 -4.96826 -3.92325 
28 1 -2.23768 -3.87038 -4.42956 
71 2 2.39241 -5.15333 -4.84002 
109 1 0.774436 -3.81672 -4.53516 
128 1 5.54059 -5.36804 -4.96061 
21 2 -3.3989 -2.70136 -3.30343 
36 1 -3.20488 -0.675857 -3.38501 
68 1 -0.431122 -0.889414 -5.00466 
35 2 -2.17536 -0.101587 -5.00565 
50 2 0.483196 -1.9645 -3.57421 