ITEM: TIMESTEP
0
ITEM: NUMBER OF ATOMS
128
ITEM: BOX BOUNDS pp pp pp
-6 5.97232
-6 5.97232
-6 5.97232
ITEM: ATOMS id element x y z 
1 C -0.573929 -4.81777 -3.82132 
2 C -5.10531 -4.12253 -2.29227 
3 C -3.76692 5.00696 1.26581 
4 C -3.91434 -4.62125 -4.37785 
5 C -5.55513 -0.735868 -4.02997 
6 C 5.47272 -1.86875 0.819845 
7 C -5.3247 -2.70275 4.73521 
8 C -2.98353 -0.473293 4.98702 
9 C -4.83444 1.8724 -5.37872 
10 C -5.30273 2.93918 -0.595378 
11 C -5.79663 0.659197 2.43531 
12 C -4.27607 0.400311 4.33852 
13 C -5.60187 5.77021 5.87636 
14 C -5.98488 5.32673 -3.30327 
15 C -3.35682 2.53346 1.95553 
16 C -3.73124 5.31413 4.11012 
17 C 1.09418 -3.99962 5.56247 
18 C -2.50438 -5.80603 -1.34933 
19 C 0.628893 -5.53388 -0.478286 
20 C -2.35887 -4.37215 5.73331 
21 C -3.55703 -2.18931 -3.41537 
22 Si -3.9333 -2.47379 -1.37671 
23 C -0.64423 -1.39612 0.389374 
24 Si -3.10639 -4.50849 -0.0533302 
25 C -2.06591 -4.24369 1.56972 
26 Si -3.29401 -5.01518 2.96105 
27 C 0.223327 -2.82755 2.53306 
28 Si -2.11706 -3.5446 -4.39542 
29 C -3.23457 1.42124 -2.48761 
30 Si -4.69807 0.994304 -1.00274 
31 C -2.00817 2.63962 1.04103 
32 Si -3.76712 0.575381 2.19672 
33 C -1.63498 3.25024 -1.87151 
34 Si -3.24684 -2.79512 4.65411 
35 C -2.4768 0.101462 -5.50375 
36 Si -3.61784 -0.0905728 -3.84399 
37 C -2.35398 4.25297 -5.01909 
38 Si -3.14314 3.49477 -3.27932 
39 C 0.98681 3.56564 -5.0543 
40 Si -1.16636 1.20139 -1.92291 
41 C -0.493402 4.85828 0.760592 
42 Si -1.25876 0.269022 4.07699 
43 C -1.17941 2.27298 4.40608 
44 Si -2.23312 2.21759 -5.77043 
45 Si -4.0327 -5.89299 -2.74946 
46 Si -2.26333 4.42657 -0.269184 
47 Si -2.87512 3.48396 3.67532 
48 Si -3.52547 5.86294 -5.88629 
49 C 2.72953 -2.40528 -4.14877 
50 C 0.320361 -1.97469 -3.32075 
51 C 3.84996 -4.67896 0.583097 
52 C 0.545461 -5.48729 3.29538 
53 C -1.67931 -0.56838 -2.88313 
54 Si -1.01622 -2.11312 -1.57223 
55 C 3.2806 2.49172 -3.93269 
56 Si 1.30518 -1.89172 1.01684 
57 C -1.90325 -0.198499 2.2407 
58 Si -0.264739 -5.10206 1.47682 
59 C 4.09421 -0.29787 5.50762 
60 Si 1.95965 -4.07948 3.41583 
61 C 1.03714 0.936347 5.88645 
62 Si 2.19256 2.1819 -2.20288 
63 C 2.5796 3.88758 -4.47504 
64 Si -0.916258 0.743431 0.710445 
65 C 1.22021 3.31008 2.91482 
66 Si -1.82349 -2.24662 1.97458 
67 C 0.203999 -0.432793 5.36933 
68 Si -0.807991 -0.980262 -4.81184 
69 C 3.95334 -4.80878 3.23673 
70 Si 0.0223187 1.66336 -4.38534 
71 C 2.85595 -5.04582 -4.36738 
72 Si -0.504279 5.1129 -4.66013 
73 C 2.20315 2.65414 1.72416 
74 Si 0.865768 2.73882 4.8877 
75 C 4.14558 4.36532 3.71423 
76 Si 2.85135 -5.24108 5.2955 
77 Si -0.770238 -4.88947 -1.82843 
78 Si 2.10312 -4.14948 -0.342379 
79 Si -0.723052 3.54439 2.39932 
80 Si -0.520783 -5.11838 5.08833 
81 C 3.36618 -4.75798 -1.86094 
82 C 1.47193 5.15344 -1.19898 
83 C -5.07131 -4.15109 2.44559 
84 C 4.45432 -4.16497 5.73105 
85 C 1.8592 0.974511 -3.84542 
86 Si 2.00779 -0.83146 -2.94081 
87 C 1.07742 0.620204 -1.46559 
88 Si 5.5891 -2.42285 -1.0875 
89 C 2.56387 -2.17659 2.63743 
90 Si 4.23051 -3.14731 1.85626 
91 C 5.89846 -2.16619 -5.89082 
92 Si 3.75737 -2.21999 -5.88512 
93 C 4.74773 2.38544 -3.16776 
94 Si 3.04744 1.16358 -5.53349 
95 C 4.04518 1.36294 -1.03177 
96 Si 1.81492 0.814668 0.634293 
97 C 3.51518 0.67225 1.94483 
98 Si 3.56135 -0.610024 3.49088 
99 C 2.97302 2.5936 4.95934 
100 Si 1.20659 -2.11174 4.48156 
101 C 5.80061 4.20081 -5.93743 
102 Si 2.85039 5.42685 -2.85413 
103 C 4.84822 5.29938 -2.13369 
104 Si 2.57505 3.97872 0.133563 
105 C 5.8115 5.04874 1.84011 
106 Si 3.84913 2.42145 3.04096 
107 C 5.87001 2.17766 2.87018 
108 Si 3.77051 4.26328 5.81379 
109 Si 1.11801 -3.71176 -4.36311 
110 Si 0.182508 4.0136 -2.304 
111 Si 3.8652 5.62312 1.76602 
112 Si 2.03092 5.10499 3.27337 
113 Si 4.07373 -3.45057 -3.18817 
114 Si -4.69273 -2.28793 1.67909 
115 Si 5.80202 -4.57659 4.23443 
116 Si -5.34833 -2.91932 -4.14207 
117 Si 5.13098 0.316124 -2.64054 
118 Si 5.11988 0.139751 0.790226 
119 Si -5.85968 -0.977912 3.70909 
120 Si -5.88484 -0.047997 -5.97954 
121 Si -5.75815 3.39902 -4.13329 
122 Si 4.78581 3.35727 -1.33077 
123 Si -5.17458 3.31443 1.4104 
124 Si -5.23952 2.71462 4.64333 
125 Si 5.21897 -4.86627 -0.991601 
126 Si -5.24302 -5.41783 0.944655 
127 Si -5.74244 5.00557 3.76215 
128 Si 5.20116 -5.19945 -4.60335 
ITEM: TIMESTEP
1000
ITEM: NUMBER OF ATOMS
128
ITEM: BOX BOUNDS pp pp pp
-6 5.97232
-6 5.97232
-6 5.97232
ITEM: ATOMS id element x y z 
1 C -0.524181 -4.74528 -3.62374 
2 C -4.91462 -4.87203 -1.85001 
3 C -4.2927 4.59349 0.676433 
4 C -3.85987 -4.60137 -4.3401 
5 C -5.24699 -0.797562 -4.05255 
6 C 5.63057 -1.65746 0.666202 
7 C -5.47711 -2.68381 4.70239 
8 C -2.76201 -0.677631 5.14421 
9 C -5.64432 1.93943 -5.8718 
10 C -5.81695 2.65807 -0.262679 
11 C -5.77916 0.742391 2.60691 
12 C -3.94619 0.0811495 4.67303 
13 C -5.47482 5.51242 5.91004 
14 C -5.89188 5.13594 -3.62304 
15 C -3.46028 2.45942 2.09876 
16 C -3.74209 5.45102 4.18959 
17 C 1.15888 -3.83 5.6802 
18 C -2.39275 -5.81326 -1.29733 
19 C 0.715362 -5.46038 -0.611593 
20 C -2.14984 -4.45488 5.76119 
21 C -3.67072 -2.51828 -3.31444 
22 Si -4.2005 -3.14928 -1.55901 
23 C -0.582147 -1.36266 0.23479 
24 Si -3.12098 -4.59462 0.0255772 
25 C -2.09686 -4.32228 1.62129 
26 Si -3.21229 -4.76266 3.22088 
27 C 0.121526 -2.05271 2.56691 
28 Si -2.07329 -3.67319 -4.32194 
29 C -3.25288 1.43873 -2.27597 
30 Si -4.90017 1.16296 -0.961982 
31 C -2.12255 2.5921 1.14057 
32 Si -3.86551 0.697439 2.70151 
33 C -1.66534 3.27273 -1.98945 
34 Si -3.25436 -2.7955 4.80184 
35 C -2.33465 -0.106631 -5.19013 
36 Si -3.22388 -0.472335 -3.45171 
37 C -2.33984 4.78246 -4.70882 
38 Si -3.14997 3.30813 -3.45503 
39 C 0.950695 3.81573 -5.11395 
40 Si -1.07891 1.3166 -1.81393 
41 C -1.02373 4.85172 1.04254 
42 Si -1.2683 0.0852686 4.14363 
43 C -1.332 2.17123 4.82906 
44 Si -1.93477 1.82649 -5.28796 
45 Si -3.95296 5.85016 -2.88498 
46 Si -2.35649 4.30805 -0.190891 
47 Si -2.80324 3.48583 3.8755 
48 Si -3.46506 5.91708 -5.81408 
49 C 2.98152 -2.40473 -3.95267 
50 C 0.216532 -1.94216 -3.48025 
51 C 3.97285 -4.65193 0.314902 
52 C 0.64025 -5.41731 3.28682 
53 C -1.69786 -0.453443 -2.2942 
54 Si -0.749799 -2.10895 -1.7482 
55 C 3.23008 2.62322 -4.04241 
56 Si 1.27891 -1.96168 0.923741 
57 C -2.14986 -0.0983793 2.35299 
58 Si -0.384477 -5.42642 1.33726 
59 C 3.22465 -0.524062 5.4348 
60 Si 2.22791 -3.89189 3.32506 
61 C 0.756952 1.02762 -6.03107 
62 Si 2.35475 2.09105 -2.37784 
63 C 2.49939 3.99109 -4.5155 
64 Si -1.0693 0.752688 0.680621 
65 C 1.1082 3.43634 2.78602 
66 Si -1.95457 -2.17289 1.83475 
67 C 0.10666 -0.396438 5.40302 
68 Si -0.794493 -1.35054 -4.96544 
69 C 4.15351 -4.38702 2.58344 
70 Si 0.0806553 1.95968 -4.2926 
71 C 2.31507 -5.10451 -4.55457 
72 Si -0.505739 5.37933 -4.56173 
73 C 2.14742 2.6447 1.69264 
74 Si 0.761127 2.87845 4.88168 
75 C 4.11723 4.2739 3.9461 
76 Si 2.83276 -5.28243 5.45832 
77 Si -0.681639 -4.84026 -1.72342 
78 Si 2.15886 -4.14746 -0.47277 
79 Si -0.689477 3.52335 2.31453 
80 Si -0.365813 -5.08929 5.18575 
81 C 3.57032 -4.68961 -1.76572 
82 C 1.48313 5.30481 -1.29831 
83 C -4.91741 -4.26119 2.3333 
84 C 4.49172 -4.30434 5.62489 
85 C 1.78696 0.924272 -3.81044 
86 Si 1.72317 -0.853285 -2.94031 
87 C 1.02815 0.718348 -1.4587 
88 Si 5.70781 -1.85008 -1.25873 
89 C 2.74376 -2.24961 2.26634 
90 Si 4.2748 -2.91981 1.25306 
91 C -6.06622 -2.00335 6.02595 
92 Si 3.98884 -2.28545 -5.79995 
93 C 4.63993 3.0183 -3.42387 
94 Si 2.8079 1.08948 -5.52084 
95 C 4.13829 1.63486 -1.80513 
96 Si 1.63367 0.767238 0.644157 
97 C 3.45421 0.664663 1.95747 
98 Si 3.17112 -0.655366 3.45782 
99 C 2.78577 2.58779 4.94876 
100 Si 1.08214 -1.96234 4.50739 
101 C 5.77984 4.00181 -5.93 
102 Si 2.82506 5.64735 -3.0117 
103 C 4.94024 5.17113 -2.39686 
104 Si 2.65728 4.12677 0.111025 
105 C 5.79157 5.03082 1.94961 
106 Si 3.68276 2.39473 3.08327 
107 C 5.70915 2.18838 2.98866 
108 Si 3.77967 4.21015 5.87035 
109 Si 1.19634 -3.57512 -4.21908 
110 Si 0.301611 3.92548 -2.42286 
111 Si 3.96724 5.80505 1.6699 
112 Si 2.20555 5.15918 3.39052 
113 Si 4.26004 -3.23934 -2.9032 
114 Si -4.69165 -2.29667 1.80855 
115 Si 5.48317 -4.22138 3.89285 
116 Si -5.3883 -2.96991 -4.308 
117 Si 5.40569 0.0382933 -2.57457 
118 Si 5.30477 0.212145 0.932609 
119 Si 5.83337 -0.936011 3.68529 
120 Si -5.59037 0.0546706 -5.94315 
121 Si -5.68424 3.13103 -4.33476 
122 Si 4.81751 3.43873 -1.30734 
123 Si -5.34818 3.23839 1.47174 
124 Si -5.30449 2.96739 4.48374 
125 Si 5.3749 -5.30086 -1.02497 
126 Si -5.11977 -5.6057 0.850474 
127 Si 6.07903 5.28124 3.84004 
128 Si 5.55472 -5.28863 -4.94974 
ITEM: TIMESTEP
2000
ITEM: NUMBER OF ATOMS
128
ITEM: BOX BOUNDS pp pp pp
-6 5.97232
-6 5.97232
-6 5.97232
ITEM: ATOMS id element x y z 
1 C -0.501381 -4.74101 -3.76925 
2 C -5.17844 -4.81394 -1.96192 
3 C -4.23872 4.61741 0.642501 
4 C -3.87353 -4.5252 -4.38752 
5 C -5.09885 -0.859904 -4.03228 
6 C 5.76326 -1.7603 0.677307 
7 C -5.37048 -2.50621 4.68571 
8 C -2.86867 -0.746585 5.20978 
9 C -5.40152 1.83992 -5.91394 
10 C -5.68514 2.73755 -0.388684 
11 C -5.61112 0.617536 2.663 
12 C -3.95678 0.110301 4.75554 
13 C -5.51834 5.58361 5.88125 
14 C -5.9329 5.2095 -3.56525 
15 C -3.31086 2.57031 2.20774 
16 C -3.7527 5.36277 4.1483 
17 C 1.0726 -3.85805 5.70097 
18 C -2.60632 -5.98873 -1.2122 
19 C 0.66791 -5.4001 -0.549692 
20 C -2.25298 -4.29294 5.82786 
21 C -3.63648 -2.41782 -3.41514 
22 Si -4.24086 -3.20138 -1.58866 
23 C -0.691717 -1.31202 0.353405 
24 Si -3.0553 -4.58657 0.124333 
25 C -2.02192 -4.28712 1.62845 
26 Si -3.14268 -4.72646 3.15545 
27 C 0.153188 -2.06836 2.5555 
28 Si -2.12038 -3.48983 -4.27677 
29 C -3.21137 1.33455 -2.27222 
30 Si -4.82405 1.24034 -0.933041 
31 C -1.91314 2.74694 1.26499 
32 Si -3.76505 0.755315 2.72624 
33 C -1.60564 3.25633 -1.89574 
34 Si -3.25191 -2.63688 4.78414 
35 C -2.39702 -0.347956 -5.27878 
36 Si -3.32687 -0.502085 -3.39879 
37 C -2.41199 4.85832 -4.6797 
38 Si -3.03799 3.2833 -3.33393 
39 C 0.963354 3.69297 -5.17843 
40 Si -1.10428 1.11976 -1.60649 
41 C -0.990077 4.9284 1.06607 
42 Si -1.25727 0.0693832 4.25219 
43 C -1.39086 2.06553 4.94036 
44 Si -2.06478 1.69239 -5.15131 
45 Si -4.08017 5.82193 -2.84815 
46 Si -2.32112 4.30582 -0.279174 
47 Si -2.75767 3.42758 3.87095 
48 Si -3.55451 5.934 -5.78318 
49 C 2.81851 -2.25012 -3.9451 
50 C 0.0601415 -2.00457 -3.30867 
51 C 3.84255 -4.75176 0.266602 
52 C 0.644295 -5.2979 3.32022 
53 C -1.88436 -0.497224 -2.13954 
54 Si -1.053 -2.10249 -1.68002 
55 C 3.20164 2.65963 -4.04201 
56 Si 1.19286 -1.95073 0.880156 
57 C -1.96933 -0.0378728 2.33841 
58 Si -0.222176 -5.31074 1.39217 
59 C 3.42403 -0.734102 5.39588 
60 Si 2.25733 -3.83837 3.46481 
61 C 0.81056 0.971745 5.91923 
62 Si 2.23627 2.14847 -2.40899 
63 C 2.54262 3.96258 -4.6933 
64 Si -0.984199 0.783608 0.86769 
65 C 1.10046 3.47343 2.79957 
66 Si -1.89716 -2.1618 1.88224 
67 C 0.0746699 -0.328246 5.49831 
68 Si -0.765436 -1.45987 -4.98855 
69 C 4.10122 -4.33935 2.62017 
70 Si 0.0821174 2.06736 -4.41205 
71 C 2.16382 -5.22319 -4.61993 
72 Si -0.488556 5.27941 -4.68227 
73 C 2.25149 2.60117 1.67557 
74 Si 0.782697 2.75882 4.78959 
75 C 4.07617 4.36375 3.80607 
76 Si 2.78843 -5.30994 5.48775 
77 Si -0.870615 -4.84083 -1.83066 
78 Si 2.07243 -4.10361 -0.567088 
79 Si -0.693634 3.8326 2.47306 
80 Si -0.504812 -4.96494 5.20672 
81 C 3.54238 -4.66223 -1.90641 
82 C 1.42936 5.21428 -1.26718 
83 C -4.8767 -4.12281 2.44852 
84 C 4.44223 -4.18271 5.70595 
85 C 1.75927 1.02194 -3.9533 
86 Si 1.49991 -0.762643 -2.91721 
87 C 1.03701 0.8475 -1.47843 
88 Si 5.60171 -1.91329 -1.18611 
89 C 2.78226 -2.25273 2.14521 
90 Si 4.29616 -3.08617 1.25513 
91 C 5.88717 -2.04806 -5.92689 
92 Si 4.10777 -2.28593 -5.79971 
93 C 4.73157 3.12188 -3.32683 
94 Si 2.96812 1.10567 -5.57261 
95 C 4.11232 1.59026 -2.07401 
96 Si 1.66974 0.746606 0.68824 
97 C 3.59695 0.575813 1.84062 
98 Si 3.39039 -0.740496 3.34449 
99 C 2.91424 2.58355 4.79931 
100 Si 1.0475 -2.0661 4.52251 
101 C 5.78116 4.0876 -5.97148 
102 Si 2.77455 5.50539 -3.05266 
103 C 4.82998 5.1687 -2.34955 
104 Si 2.67895 4.01461 0.0589925 
105 C 5.78537 5.04133 1.87569 
106 Si 3.87515 2.32275 2.97329 
107 C 5.75473 2.12235 2.89482 
108 Si 3.78266 4.20745 5.81261 
109 Si 1.12368 -3.64139 -4.21139 
110 Si 0.0929978 3.93307 -2.43523 
111 Si 3.94355 5.78986 1.69174 
112 Si 2.16262 5.19399 3.41209 
113 Si 4.18742 -3.11699 -2.92583 
114 Si -4.63532 -2.29054 1.87173 
115 Si 5.65761 -4.16197 3.85853 
116 Si -5.45057 -3.03327 -4.29187 
117 Si 5.46531 0.0781884 -2.56384 
118 Si 5.57052 0.233006 0.912731 
119 Si 5.8938 -0.953546 3.68168 
120 Si -5.45548 0.0512961 -5.92299 
121 Si -5.53818 3.17712 -4.35704 
122 Si 4.87732 3.3499 -1.33523 
123 Si -5.2258 3.21116 1.43083 
124 Si -5.44757 2.93878 4.43152 
125 Si 5.12356 -5.38371 -1.1272 
126 Si -5.06313 -5.63559 0.873458 
127 Si -5.95134 5.30584 3.78551 
128 Si 5.51048 -5.24089 -5.01998 
ITEM: TIMESTEP
3000
ITEM: NUMBER OF ATOMS
128
ITEM: BOX BOUNDS pp pp pp
-6 5.97232
-6 5.97232
-6 5.97232
ITEM: ATOMS id element x y z 
1 C -0.605053 -4.61819 -3.77982 
2 C -4.84493 -4.59813 -1.92069 
3 C -4.07827 4.77828 0.666909 
4 C -3.61997 -4.67242 -4.40556 
5 C -5.14547 -0.154527 -4.05187 
6 C 5.59364 -1.83187 0.672693 
7 C -5.64009 -2.69608 4.84723 
8 C -2.87329 -0.828673 5.28247 
9 C -5.58383 2.16099 -5.93333 
10 C -5.4753 2.75019 -0.357634 
11 C -5.82637 0.478525 2.645 
12 C -4.06002 -0.160606 4.75432 
13 C -5.39041 5.53087 5.77377 
14 C 6.14499 5.28998 -3.54258 
15 C -3.24618 2.08218 2.3083 
16 C -3.62922 5.40502 4.01918 
17 C 0.467361 -3.28729 5.54709 
18 C -2.52019 -5.60564 -1.36227 
19 C 0.649585 -5.36296 -0.742824 
20 C -2.29311 -4.31076 5.58062 
21 C -3.48183 -2.52772 -3.54343 
22 Si -3.87768 -2.70428 -1.67883 
23 C -0.760544 -1.47344 0.483535 
24 Si -3.18707 -4.30753 0.0290453 
25 C -2.04072 -4.09519 1.53316 
26 Si -3.13181 -4.76663 3.176 
27 C 0.122303 -1.98275 2.33623 
28 Si -2.10946 -3.55193 -4.49687 
29 C -2.9865 1.45358 -2.68239 
30 Si -4.49555 1.38595 -1.45882 
31 C -1.92147 2.22447 1.35873 
32 Si -3.96429 0.117915 2.85698 
33 C -1.78068 3.2956 -1.82148 
34 Si -3.6921 -2.77042 4.94525 
35 C -2.36468 -0.352087 -5.2397 
36 Si -3.23693 -0.530034 -3.59554 
37 C -2.28257 4.74513 -4.67937 
38 Si -3.10922 3.34873 -3.44311 
39 C 0.819079 3.7244 -4.93713 
40 Si -0.974982 1.20502 -1.85552 
41 C -0.898627 4.96433 0.818871 
42 Si -1.34781 0.0903487 4.23219 
43 C -1.2692 2.0728 4.85196 
44 Si -2.15925 1.70321 -5.36973 
45 Si -3.87996 6.04662 -2.8894 
46 Si -2.30419 4.72819 -0.385571 
47 Si -2.72653 3.42277 3.84364 
48 Si -3.33394 5.81648 -5.96972 
49 C 2.71885 -2.69079 -3.81606 
50 C 0.0706019 -2.0434 -3.23846 
51 C 3.89633 -4.70514 0.252717 
52 C 0.633179 -5.34027 3.09416 
53 C -1.77076 -0.450276 -2.30797 
54 Si -1.14033 -1.96541 -1.4966 
55 C 3.41024 2.63191 -3.86036 
56 Si 1.34023 -1.94482 0.873414 
57 C -2.06896 -0.196748 2.49463 
58 Si -0.335382 -5.25032 1.19062 
59 C 3.30561 -0.721842 5.44774 
60 Si 2.14902 -3.8619 3.49069 
61 C 0.863589 0.896314 5.93763 
62 Si 2.32846 1.92411 -2.37059 
63 C 2.43816 3.9559 -4.46275 
64 Si -1.07086 0.533119 0.771859 
65 C 1.13492 3.45921 2.81962 
66 Si -1.82702 -2.17595 1.84777 
67 C 0.0906245 -0.392458 5.48234 
68 Si -0.730441 -1.22381 -5.06458 
69 C 4.03545 -4.44573 2.65558 
70 Si 0.13669 1.71475 -4.33675 
71 C 2.10156 -5.16386 -4.6617 
72 Si -0.505054 5.27959 -4.15884 
73 C 2.13264 2.62911 1.70146 
74 Si 0.723954 2.85946 4.96431 
75 C 4.13129 4.39485 3.80673 
76 Si 2.89691 -5.51234 5.44215 
77 Si -0.751708 -4.59417 -1.82365 
78 Si 2.03492 -4.11905 -0.477638 
79 Si -0.654521 3.68552 2.09687 
80 Si -0.49434 -4.66784 4.78646 
81 C 3.05622 -4.64012 -2.13719 
82 C 1.60218 5.17425 -1.22386 
83 C -4.91913 -4.08703 2.33828 
84 C 4.47507 -4.33762 5.55121 
85 C 1.80506 0.741071 -3.83719 
86 Si 1.77733 -0.964412 -2.76048 
87 C 1.11894 0.695929 -1.43204 
88 Si 5.81788 -1.7776 -1.25234 
89 C 2.75507 -2.20241 2.23505 
90 Si 4.26999 -3.0442 1.32627 
91 C 5.69072 -2.55602 -5.71763 
92 Si 3.75656 -2.39528 -5.66422 
93 C 4.86083 3.06722 -3.26057 
94 Si 2.97736 1.04185 -5.44717 
95 C 4.18384 1.75002 -1.69539 
96 Si 1.66414 0.746083 0.647136 
97 C 3.22747 0.513969 2.04792 
98 Si 3.04597 -0.81894 3.5477 
99 C 2.87169 2.48711 5.09964 
100 Si 0.975488 -1.72167 4.3349 
101 C 5.76192 4.18106 -5.94385 
102 Si 2.84451 5.54199 -3.01519 
103 C 4.95002 5.3745 -2.26701 
104 Si 2.71112 4.15182 0.320181 
105 C -6.1483 4.96179 1.75741 
106 Si 3.75341 2.38864 3.08731 
107 C 5.77323 2.08955 2.91617 
108 Si 3.69872 4.15735 5.82845 
109 Si 0.955203 -3.63675 -4.40399 
110 Si 0.350134 3.7457 -2.16816 
111 Si 3.89059 5.71871 1.58036 
112 Si 2.09396 5.12403 3.27781 
113 Si 4.27658 -3.44277 -2.70157 
114 Si -4.60192 -2.29252 1.71925 
115 Si 5.60493 -4.22209 3.83585 
116 Si -5.41632 -3.35991 -4.26252 
117 Si 5.64858 0.281806 -2.42413 
118 Si 5.05066 0.0144639 1.12599 
119 Si 5.4647 -1.0483 4.115 
120 Si -5.56041 0.379703 -5.82025 
121 Si -5.67323 3.35453 -4.35566 
122 Si 4.95209 3.44303 -1.16687 
123 Si -4.90134 3.12711 1.44307 
124 Si -5.32009 2.98455 4.44337 
125 Si 5.47129 -5.08327 -0.994226 
126 Si -5.06443 -5.62939 0.824608 
127 Si -5.80093 5.30328 3.6469 
128 Si 5.53344 -5.4319 -4.95438 
ITEM: TIMESTEP
4000
ITEM: NUMBER OF ATOMS
128
ITEM: BOX BOUNDS pp pp pp
-6 5.97232
-6 5.97232
-6 5.97232
ITEM: ATOMS id element x y z 
1 C -0.358212 -4.72635 -3.84231 
2 C -4.95701 -4.7223 -1.82383 
3 C -4.2411 4.90988 0.769076 
4 C -3.82439 -4.87619 -4.44881 
5 C -5.02901 -0.0828831 -3.92225 
6 C 5.76835 -1.76919 0.748098 
7 C -5.52219 -2.55821 4.70454 
8 C -2.90774 -0.805084 5.36586 
9 C -5.37467 2.05964 -5.73495 
10 C -5.45237 3.15177 -0.362678 
11 C -5.77683 0.574941 2.77905 
12 C -4.032 0.0465016 4.86053 
13 C -5.6167 5.48135 5.8596 
14 C -5.83804 5.23263 -3.34912 
15 C -3.44591 2.23248 2.2709 
16 C -3.97154 5.39745 4.05786 
17 C 0.409795 -3.52877 5.54946 
18 C -2.5885 -5.47481 -1.33114 
19 C 0.628751 -5.47968 -0.42368 
20 C -2.40359 -4.37976 5.67253 
21 C -3.77391 -2.72628 -3.50701 
22 Si -4.08482 -3.07236 -1.69697 
23 C -0.461005 -1.43319 0.171134 
24 Si -3.11351 -4.30825 0.16905 
25 C -1.83048 -4.36245 1.62102 
26 Si -2.96896 -4.88942 3.27318 
27 C 0.133984 -2.131 2.46412 
28 Si -2.14029 -3.77875 -4.35248 
29 C -2.75521 2.23843 -2.19079 
30 Si -4.51999 1.88398 -1.33372 
31 C -1.93216 2.10828 1.76335 
32 Si -3.93196 0.269769 2.77518 
33 C -1.71322 4.02218 -1.90747 
34 Si -3.43972 -2.71905 4.99165 
35 C -2.36123 -0.341021 -5.16422 
36 Si -3.43373 -0.870828 -3.62362 
37 C -2.32035 4.61565 -4.86037 
38 Si -3.04866 3.54321 -3.41495 
39 C 0.937158 3.70127 -4.93697 
40 Si -0.950339 1.17465 -1.78695 
41 C -1.21315 4.9437 1.01849 
42 Si -1.44352 0.145315 4.3488 
43 C -1.43198 2.18755 4.8857 
44 Si -2.0636 1.72598 -5.13153 
45 Si -4.0229 6.01295 -2.91923 
46 Si -2.53483 4.78889 -0.2678 
47 Si -2.81893 3.47717 3.85607 
48 Si -3.57119 5.85408 -5.88809 
49 C 2.87447 -2.78077 -4.20791 
50 C 0.121396 -1.68402 -3.50855 
51 C 3.85114 -4.54668 0.16398 
52 C 0.781447 -5.2215 3.28686 
53 C -1.78163 -0.610782 -2.48832 
54 Si -0.855381 -2.14821 -1.83296 
55 C 3.29154 3.13326 -3.3583 
56 Si 1.43961 -1.91932 0.837963 
57 C -2.00527 -0.375939 2.43306 
58 Si -0.180029 -5.4623 1.44048 
59 C 3.25913 -0.840903 5.26031 
60 Si 2.14857 -3.79933 3.42775 
61 C 0.743305 0.961078 -5.93273 
62 Si 2.49521 1.74588 -2.60556 
63 C 2.60692 4.04604 -4.52866 
64 Si -1.00666 0.639757 0.864718 
65 C 0.927286 3.42825 2.93068 
66 Si -1.76913 -2.26164 1.79195 
67 C -0.0548324 -0.239812 5.54102 
68 Si -0.76998 -1.58077 -5.07346 
69 C 4.07898 -4.3003 2.57381 
70 Si 0.17495 1.9287 -4.15388 
71 C 2.41141 -5.29651 -5.03854 
72 Si -0.321219 5.18736 -4.54069 
73 C 2.01685 2.67693 1.81201 
74 Si 0.725054 2.71935 4.98925 
75 C 4.0175 4.24257 3.95948 
76 Si 2.83304 -5.51313 5.19688 
77 Si -0.807898 -4.73501 -1.76611 
78 Si 2.06415 -4.18405 -0.663736 
79 Si -0.760276 3.57654 2.08879 
80 Si -0.786858 -4.80528 4.70861 
81 C 3.19541 -4.49503 -2.34359 
82 C 1.06927 5.07202 -0.798528 
83 C -4.90395 -4.0752 2.53261 
84 C 4.46025 -4.51785 5.5148 
85 C 2.5165 0.432896 -3.87475 
86 Si 1.96559 -1.2395 -3.43153 
87 C 1.10135 1.40476 -1.28548 
88 Si 5.83349 -1.81047 -1.12445 
89 C 2.868 -2.47055 2.20702 
90 Si 4.37815 -3.02241 1.23337 
91 C 5.80119 -2.71267 -5.77322 
92 Si 3.80452 -2.516 -5.90296 
93 C 4.70737 3.40889 -3.02792 
94 Si 2.65552 0.786442 -5.73821 
95 C 4.41384 1.77359 -1.76653 
96 Si 1.54422 0.829831 0.742287 
97 C 3.36649 0.682786 1.93106 
98 Si 3.06961 -0.917058 3.29833 
99 C 2.74388 2.39434 4.98322 
100 Si 0.830775 -1.78583 4.39724 
101 C 5.76402 3.97808 -5.89836 
102 Si 3.24962 5.91375 -3.45958 
103 C 4.94647 5.40658 -2.25877 
104 Si 2.5759 4.02701 0.31043 
105 C -6.16657 5.0627 1.95063 
106 Si 3.79994 2.42264 3.12024 
107 C 5.7893 2.14162 2.981 
108 Si 3.65716 3.89335 5.77447 
109 Si 1.31814 -3.99239 -4.67828 
110 Si 0.0862732 4.19451 -2.22591 
111 Si 3.84588 5.87255 1.48053 
112 Si 2.15809 5.13281 3.30748 
113 Si 4.4856 -3.14353 -2.8221 
114 Si -4.51736 -2.08169 1.78009 
115 Si 5.56362 -4.33073 3.89717 
116 Si -5.42971 -3.57097 -4.48789 
117 Si 5.92414 0.435736 -2.34751 
118 Si 5.11802 -0.00748795 1.26942 
119 Si 5.51544 -0.760829 4.19752 
120 Si -5.50699 0.308041 -5.82459 
121 Si -5.5955 3.28551 -4.10469 
122 Si 4.86943 3.66156 -1.05753 
123 Si -5.11387 3.21418 1.51575 
124 Si -5.2046 2.99208 4.57288 
125 Si 5.2797 -5.04489 -1.00238 
126 Si -5.01155 -5.43667 1.09024 
127 Si -6.16896 5.21433 3.80906 
128 Si 5.22904 -5.52295 -4.95601 
ITEM: TIMESTEP
4042
ITEM: NUMBER OF ATOMS
128
ITEM: BOX BOUNDS pp pp pp
-6 5.97232
-6 5.97232
-6 5.97232
ITEM: ATOMS id element x y z 
1 C -0.44838 -4.803 -3.83374 
2 C -4.93789 -4.69268 -1.82731 
3 C -4.20027 4.85968 0.713023 
4 C -3.76062 -4.81122 -4.34861 
5 C -5.02522 -0.0365681 -3.91608 
6 C 5.70137 -1.72867 0.754832 
7 C -5.52865 -2.58605 4.80811 
8 C -2.82579 -0.756219 5.36592 
9 C -5.39544 2.18637 -5.77466 
10 C -5.58158 2.84078 -0.335686 
11 C -5.88197 0.576292 2.83793 
12 C -4.0174 0.00967137 4.86931 
13 C -5.56375 5.53857 5.83802 
14 C -5.86481 5.28593 -3.42545 
15 C -3.42927 2.15826 2.28004 
16 C -3.81002 5.35645 4.15513 
17 C 0.400244 -3.50205 5.42454 
18 C -2.51269 -5.53322 -1.27381 
19 C 0.626853 -5.37352 -0.440706 
20 C -2.44879 -4.3234 5.71928 
21 C -3.65722 -2.69653 -3.47184 
22 Si -4.17828 -3.00536 -1.63091 
23 C -0.528423 -1.45025 0.256906 
24 Si -3.14808 -4.30177 0.0610235 
25 C -2.01153 -4.15894 1.59735 
26 Si -3.05748 -4.7797 3.23811 
27 C 0.17185 -2.05778 2.37848 
28 Si -2.05278 -3.73446 -4.40742 
29 C -2.87505 2.17014 -2.12874 
30 Si -4.46087 1.68757 -1.27235 
31 C -1.9572 2.1876 1.6351 
32 Si -3.98676 0.293168 2.79944 
33 C -1.82305 4.02801 -1.85031 
34 Si -3.50174 -2.72689 4.93532 
35 C -2.34576 -0.345937 -5.12656 
36 Si -3.36753 -0.819229 -3.58184 
37 C -2.30094 4.79747 -4.73104 
38 Si -3.05608 3.53934 -3.46883 
39 C 1.02632 3.65408 -4.97974 
40 Si -1.11772 1.18864 -1.8686 
41 C -1.18911 4.99838 1.0788 
42 Si -1.39832 0.116993 4.29891 
43 C -1.41286 2.06788 4.96619 
44 Si -1.97441 1.6674 -5.1067 
45 Si -3.97896 -5.96931 -2.8097 
46 Si -2.50447 4.76413 -0.240265 
47 Si -2.85273 3.37375 3.911 
48 Si -3.53613 5.91435 -5.89298 
49 C 2.90665 -2.80892 -4.13629 
50 C 0.152301 -1.56919 -3.33322 
51 C 3.93105 -4.62833 0.222515 
52 C 0.647247 -5.22661 3.03581 
53 C -1.86348 -0.552383 -2.29429 
54 Si -0.814619 -2.02036 -1.66068 
55 C 3.33993 3.03367 -3.61897 
56 Si 1.4058 -1.93003 0.851693 
57 C -2.03109 -0.284251 2.44623 
58 Si -0.358377 -5.2854 1.33285 
59 C 3.32108 -0.956468 5.28994 
60 Si 2.21941 -3.9004 3.31429 
61 C 0.864485 0.794992 -5.97756 
62 Si 2.44349 1.5989 -2.71085 
63 C 2.59083 3.99011 -4.58781 
64 Si -1.10262 0.621185 0.784726 
65 C 0.977412 3.40356 2.9255 
66 Si -1.75079 -2.19983 1.85643 
67 C 0.0336499 -0.464135 5.48447 
68 Si -0.769985 -1.42368 -4.94426 
69 C 4.08642 -4.33347 2.58052 
70 Si 0.281376 1.82847 -4.1123 
71 C 2.32991 -5.29015 -5.01701 
72 Si -0.442209 5.21024 -4.42578 
73 C 2.06742 2.68578 1.82321 
74 Si 0.708829 2.70123 5.00619 
75 C 3.99642 4.29622 3.86018 
76 Si 2.98404 -5.54136 5.24537 
77 Si -0.725233 -4.71646 -1.82511 
78 Si 2.14221 -4.16887 -0.519547 
79 Si -0.829812 3.61389 2.21879 
80 Si -0.735073 -4.74114 4.577 
81 C 3.11994 -4.48434 -2.28398 
82 C 1.02764 5.1258 -0.782805 
83 C -4.79343 -4.07138 2.44997 
84 C 4.48438 -4.35783 5.53511 
85 C 2.55196 0.231543 -3.94452 
86 Si 1.96614 -1.37332 -3.40599 
87 C 1.01351 1.25692 -1.26728 
88 Si 5.84875 -1.70371 -1.16908 
89 C 2.7974 -2.40575 2.14542 
90 Si 4.36649 -3.008 1.21245 
91 C 5.77569 -2.68609 -5.79983 
92 Si 3.9017 -2.5083 -5.75582 
93 C 4.6836 3.40108 -3.10108 
94 Si 2.78242 0.580384 -5.79346 
95 C 4.29037 1.70334 -1.93247 
96 Si 1.59544 0.786867 0.787114 
97 C 3.34515 0.532517 2.11387 
98 Si 3.14265 -0.964783 3.39432 
99 C 2.83063 2.36318 5.0248 
100 Si 0.874723 -1.91226 4.3396 
101 C 5.7589 4.11008 -5.94408 
102 Si 3.17914 5.82741 -3.50599 
103 C 4.95942 5.33013 -2.29736 
104 Si 2.55968 4.13236 0.224868 
105 C 5.83394 5.19197 1.91649 
106 Si 3.7188 2.33236 3.07875 
107 C 5.75768 2.11325 3.00633 
108 Si 3.76838 4.02143 5.80149 
109 Si 1.15103 -3.92661 -4.75069 
110 Si 0.00618666 4.27903 -2.13042 
111 Si 3.95338 5.83875 1.56558 
112 Si 2.03427 5.09523 3.22598 
113 Si 4.47444 -3.24206 -2.7728 
114 Si -4.47028 -2.16372 1.76007 
115 Si 5.6156 -4.16878 3.82079 
116 Si -5.31731 -3.45934 -4.36184 
117 Si 5.77901 0.435599 -2.41101 
118 Si 5.10314 -0.0141502 1.3375 
119 Si 5.59896 -0.784578 4.24852 
120 Si -5.41419 0.403639 -5.717 
121 Si -5.66605 3.40136 -4.18841 
122 Si 4.78706 3.51644 -1.19011 
123 Si -5.15276 3.27022 1.44584 
124 Si -5.35327 2.99501 4.53549 
125 Si 5.29772 -5.08775 -1.13895 
126 Si -5.09125 -5.41734 0.956543 
127 Si 5.96908 5.31756 3.83724 
128 Si 5.37499 -5.41945 -4.92155 
