  33  33   0   0
  0.1602717E+02  0.8087052E-09  0.8087052E-09  0.8087052E-09  0.5000000E-15
  1.000000000000000E-004
  CAR 
 unknown system                          
     13.50778774     -4.66562794  301      8.28035116      1.00000000
     -4.666  0.0000E+00  0.0000E+00
     -4.605  0.0000E+00  0.0000E+00
     -4.544  0.0000E+00  0.0000E+00
     -4.484  0.0000E+00  0.0000E+00
     -4.423  0.0000E+00  0.0000E+00
     -4.363  0.0000E+00  0.0000E+00
     -4.302 -0.3310E-29 -0.2005E-30
     -4.242 -0.4102E-27 -0.2505E-28
     -4.181 -0.4252E-25 -0.2601E-26
     -4.120 -0.3661E-23 -0.2244E-24
     -4.060 -0.2619E-21 -0.1609E-22
     -3.999 -0.1555E-19 -0.9582E-21
     -3.939 -0.7668E-18 -0.4741E-19
     -3.878 -0.3137E-16 -0.1948E-17
     -3.818 -0.1036E-14 -0.6471E-16
     -3.757 -0.2897E-13 -0.1819E-14
     -3.696 -0.6729E-12 -0.4258E-13
     -3.636 -0.1293E-10 -0.8259E-12
     -3.575 -0.2054E-09 -0.1327E-10
     -3.515 -0.2693E-08 -0.1764E-09
     -3.454 -0.2910E-07 -0.1939E-08
     -3.393 -0.2585E-06 -0.1760E-07
     -3.333 -0.1881E-05 -0.1316E-06
     -3.272 -0.1117E-04 -0.8082E-06
     -3.212 -0.5374E-04 -0.4063E-05
     -3.151 -0.2072E-03 -0.1662E-04
     -3.091 -0.6289E-03 -0.5471E-04
     -3.030 -0.1446E-02 -0.1423E-03
     -2.969 -0.2280E-02 -0.2804E-03
     -2.909 -0.1499E-02 -0.3712E-03
     -2.848  0.3761E-02 -0.1434E-03
     -2.788  0.1537E-01  0.7876E-03
     -2.727  0.3067E-01  0.2645E-02
     -2.667  0.4203E-01  0.5191E-02
     -2.606  0.4224E-01  0.7750E-02
     -2.545  0.3115E-01  0.9637E-02
     -2.485  0.1584E-01  0.1060E-01
     -2.424  0.4040E-02  0.1084E-01
     -2.364 -0.1415E-02  0.1076E-01
     -2.303 -0.2301E-02  0.1062E-01
     -2.243 -0.1521E-02  0.1052E-01
     -2.182 -0.8412E-03  0.1047E-01
     -2.121 -0.8887E-03  0.1042E-01
     -2.061 -0.1891E-02  0.1031E-01
     -2.000 -0.3697E-02  0.1008E-01
     -1.940 -0.4613E-02  0.9802E-02
     -1.879 -0.1501E-03  0.9793E-02
     -1.818  0.1537E-01  0.1072E-01
     -1.758  0.4259E-01  0.1330E-01
     -1.697  0.7140E-01  0.1763E-01
     -1.637  0.8523E-01  0.2279E-01
     -1.576  0.7554E-01  0.2737E-01
     -1.516  0.5156E-01  0.3049E-01
     -1.455  0.3231E-01  0.3245E-01
     -1.394  0.2878E-01  0.3419E-01
     -1.334  0.3559E-01  0.3635E-01
     -1.273  0.3937E-01  0.3873E-01
     -1.213  0.3267E-01  0.4071E-01
     -1.152  0.1892E-01  0.4186E-01
     -1.092  0.6154E-02  0.4223E-01
     -1.031 -0.1141E-02  0.4216E-01
     -0.970 -0.3899E-02  0.4193E-01
     -0.910 -0.5067E-02  0.4162E-01
     -0.849 -0.5500E-02  0.4129E-01
     -0.789 -0.1924E-02  0.4117E-01
     -0.728  0.1155E-01  0.4187E-01
     -0.667  0.3733E-01  0.4413E-01
     -0.607  0.6758E-01  0.4822E-01
     -0.546  0.8582E-01  0.5342E-01
     -0.486  0.7978E-01  0.5826E-01
     -0.425  0.5331E-01  0.6149E-01
     -0.365  0.2362E-01  0.6292E-01
     -0.304  0.7376E-02  0.6336E-01
     -0.243  0.9912E-02  0.6396E-01
     -0.183  0.2456E-01  0.6545E-01
     -0.122  0.3865E-01  0.6779E-01
     -0.062  0.4184E-01  0.7033E-01
     -0.001  0.3250E-01  0.7230E-01
      0.059  0.1740E-01  0.7335E-01
      0.120  0.4711E-02  0.7364E-01
      0.181 -0.2262E-02  0.7350E-01
      0.241 -0.5288E-02  0.7318E-01
      0.302 -0.6923E-02  0.7276E-01
      0.362 -0.6187E-02  0.7238E-01
      0.423  0.2704E-02  0.7255E-01
      0.484  0.2643E-01  0.7415E-01
      0.544  0.6409E-01  0.7803E-01
      0.605  0.1018E+00  0.8420E-01
      0.665  0.1198E+00  0.9146E-01
      0.726  0.1091E+00  0.9807E-01
      0.786  0.8033E-01  0.1029E+00
      0.847  0.5414E-01  0.1062E+00
      0.908  0.4212E-01  0.1088E+00
      0.968  0.3957E-01  0.1112E+00
      1.029  0.3519E-01  0.1133E+00
      1.089  0.2416E-01  0.1148E+00
      1.150  0.1045E-01  0.1154E+00
      1.210 -0.3603E-03  0.1154E+00
      1.271 -0.6588E-02  0.1150E+00
      1.332 -0.8588E-02  0.1144E+00
      1.392 -0.3697E-02  0.1142E+00
      1.453  0.1454E-01  0.1151E+00
      1.513  0.4926E-01  0.1181E+00
      1.574  0.9094E-01  0.1236E+00
      1.634  0.1186E+00  0.1308E+00
      1.695  0.1163E+00  0.1378E+00
      1.756  0.9045E-01  0.1433E+00
      1.816  0.6548E-01  0.1473E+00
      1.877  0.6125E-01  0.1510E+00
      1.937  0.7539E-01  0.1556E+00
      1.998  0.8990E-01  0.1610E+00
      2.059  0.9084E-01  0.1665E+00
      2.119  0.7793E-01  0.1712E+00
      2.180  0.5815E-01  0.1747E+00
      2.240  0.3727E-01  0.1770E+00
      2.301  0.1874E-01  0.1781E+00
      2.361  0.5268E-02  0.1785E+00
      2.422 -0.2133E-02  0.1783E+00
      2.483 -0.5063E-02  0.1780E+00
      2.543 -0.5930E-02  0.1777E+00
      2.604 -0.4947E-02  0.1774E+00
      2.664  0.1100E-02  0.1774E+00
      2.725  0.1697E-01  0.1785E+00
      2.785  0.4457E-01  0.1812E+00
      2.846  0.7855E-01  0.1859E+00
      2.907  0.1060E+00  0.1923E+00
      2.967  0.1130E+00  0.1992E+00
      3.028  0.9454E-01  0.2049E+00
      3.088  0.5976E-01  0.2085E+00
      3.149  0.2539E-01  0.2101E+00
      3.210  0.3456E-02  0.2103E+00
      3.270 -0.4806E-02  0.2100E+00
      3.331 -0.5139E-02  0.2097E+00
      3.391 -0.3568E-02  0.2095E+00
      3.452 -0.3328E-02  0.2093E+00
      3.512 -0.5144E-02  0.2089E+00
      3.573 -0.7340E-02  0.2085E+00
      3.634 -0.4651E-02  0.2082E+00
      3.694  0.1123E-01  0.2089E+00
      3.755  0.4580E-01  0.2117E+00
      3.815  0.9370E-01  0.2174E+00
      3.876  0.1381E+00  0.2257E+00
      3.936  0.1615E+00  0.2355E+00
      3.997  0.1578E+00  0.2451E+00
      4.058  0.1340E+00  0.2532E+00
      4.118  0.1030E+00  0.2594E+00
      4.179  0.7575E-01  0.2640E+00
      4.239  0.5632E-01  0.2674E+00
      4.300  0.4134E-01  0.2699E+00
      4.361  0.2588E-01  0.2715E+00
      4.421  0.9540E-02  0.2721E+00
      4.482 -0.3163E-02  0.2719E+00
      4.542 -0.5568E-02  0.2715E+00
      4.603  0.8721E-02  0.2721E+00
      4.663  0.4151E-01  0.2746E+00
      4.724  0.8332E-01  0.2796E+00
      4.785  0.1143E+00  0.2865E+00
      4.845  0.1195E+00  0.2938E+00
      4.906  0.1057E+00  0.3002E+00
      4.966  0.9759E-01  0.3061E+00
      5.027  0.1134E+00  0.3130E+00
      5.087  0.1477E+00  0.3219E+00
      5.148  0.1772E+00  0.3327E+00
      5.209  0.1821E+00  0.3437E+00
      5.269  0.1586E+00  0.3533E+00
      5.330  0.1168E+00  0.3604E+00
      5.390  0.7142E-01  0.3647E+00
      5.451  0.3376E-01  0.3667E+00
      5.511  0.9034E-02  0.3673E+00
      5.572 -0.3476E-02  0.3671E+00
      5.633 -0.8038E-02  0.3666E+00
      5.693 -0.8425E-02  0.3661E+00
      5.754 -0.4217E-02  0.3658E+00
      5.814  0.9135E-02  0.3664E+00
      5.875  0.3443E-01  0.3685E+00
      5.936  0.6502E-01  0.3724E+00
      5.996  0.8496E-01  0.3776E+00
      6.057  0.8113E-01  0.3825E+00
      6.117  0.5596E-01  0.3859E+00
      6.178  0.2624E-01  0.3874E+00
      6.238  0.9368E-02  0.3880E+00
      6.299  0.1144E-01  0.3887E+00
      6.360  0.2571E-01  0.3903E+00
      6.420  0.3901E-01  0.3926E+00
      6.481  0.4089E-01  0.3951E+00
      6.541  0.2996E-01  0.3969E+00
      6.602  0.1296E-01  0.3977E+00
      6.662 -0.1625E-02  0.3976E+00
      6.723 -0.7538E-02  0.3972E+00
      6.784  0.4998E-03  0.3972E+00
      6.844  0.2660E-01  0.3988E+00
      6.905  0.6728E-01  0.4029E+00
      6.965  0.1070E+00  0.4093E+00
      7.026  0.1276E+00  0.4171E+00
      7.087  0.1265E+00  0.4247E+00
      7.147  0.1192E+00  0.4320E+00
      7.208  0.1207E+00  0.4393E+00
      7.268  0.1286E+00  0.4471E+00
      7.329  0.1281E+00  0.4548E+00
      7.389  0.1111E+00  0.4616E+00
      7.450  0.8221E-01  0.4665E+00
      7.511  0.5100E-01  0.4696E+00
      7.571  0.2399E-01  0.4711E+00
      7.632  0.4150E-02  0.4713E+00
      7.692 -0.6581E-02  0.4709E+00
      7.753 -0.5297E-02  0.4706E+00
      7.813  0.1174E-01  0.4713E+00
      7.874  0.4459E-01  0.4740E+00
      7.935  0.8347E-01  0.4791E+00
      7.995  0.1105E+00  0.4858E+00
      8.056  0.1130E+00  0.4926E+00
      8.116  0.9670E-01  0.4985E+00
      8.177  0.8205E-01  0.5034E+00
      8.237  0.8591E-01  0.5086E+00
      8.298  0.1078E+00  0.5152E+00
      8.359  0.1337E+00  0.5233E+00
      8.419  0.1506E+00  0.5324E+00
      8.480  0.1533E+00  0.5417E+00
      8.540  0.1414E+00  0.5502E+00
      8.601  0.1161E+00  0.5573E+00
      8.662  0.8143E-01  0.5622E+00
      8.722  0.4550E-01  0.5650E+00
      8.783  0.1688E-01  0.5660E+00
      8.843 -0.6230E-03  0.5660E+00
      8.904 -0.8306E-02  0.5655E+00
      8.964 -0.8248E-02  0.5650E+00
      9.025  0.7359E-03  0.5650E+00
      9.086  0.2135E-01  0.5663E+00
      9.146  0.5079E-01  0.5694E+00
      9.207  0.7713E-01  0.5740E+00
      9.267  0.8708E-01  0.5793E+00
      9.328  0.7872E-01  0.5841E+00
      9.388  0.6391E-01  0.5880E+00
      9.449  0.5763E-01  0.5914E+00
      9.510  0.6706E-01  0.5955E+00
      9.570  0.8888E-01  0.6009E+00
      9.631  0.1115E+00  0.6076E+00
      9.691  0.1199E+00  0.6149E+00
      9.752  0.1046E+00  0.6212E+00
      9.813  0.6991E-01  0.6255E+00
      9.873  0.3237E-01  0.6274E+00
      9.934  0.1108E-01  0.6281E+00
      9.994  0.1748E-01  0.6292E+00
     10.055  0.4923E-01  0.6322E+00
     10.115  0.9074E-01  0.6376E+00
     10.176  0.1231E+00  0.6451E+00
     10.237  0.1387E+00  0.6535E+00
     10.297  0.1452E+00  0.6623E+00
     10.358  0.1533E+00  0.6716E+00
     10.418  0.1629E+00  0.6815E+00
     10.479  0.1629E+00  0.6913E+00
     10.539  0.1437E+00  0.7000E+00
     10.600  0.1070E+00  0.7065E+00
     10.661  0.6366E-01  0.7104E+00
     10.721  0.2716E-01  0.7120E+00
     10.782  0.7071E-02  0.7124E+00
     10.842  0.6314E-02  0.7128E+00
     10.903  0.2152E-01  0.7141E+00
     10.964  0.4590E-01  0.7169E+00
     11.024  0.7213E-01  0.7213E+00
     11.085  0.9263E-01  0.7269E+00
     11.145  0.9901E-01  0.7329E+00
     11.206  0.8627E-01  0.7381E+00
     11.266  0.5987E-01  0.7417E+00
     11.327  0.3507E-01  0.7439E+00
     11.388  0.2511E-01  0.7454E+00
     11.448  0.2994E-01  0.7472E+00
     11.509  0.3779E-01  0.7495E+00
     11.569  0.3725E-01  0.7517E+00
     11.630  0.2666E-01  0.7534E+00
     11.690  0.1274E-01  0.7541E+00
     11.751  0.2579E-02  0.7543E+00
     11.812 -0.1729E-02  0.7542E+00
     11.872 -0.2149E-02  0.7541E+00
     11.933 -0.1294E-02  0.7540E+00
     11.993 -0.5463E-03  0.7539E+00
     12.054 -0.1762E-03  0.7539E+00
     12.114 -0.4493E-04  0.7539E+00
     12.175 -0.9211E-05  0.7539E+00
     12.236 -0.1533E-05  0.7539E+00
     12.296 -0.2086E-06  0.7539E+00
     12.357 -0.2328E-07  0.7539E+00
     12.417 -0.2139E-08  0.7539E+00
     12.478 -0.1621E-09  0.7539E+00
     12.539 -0.1015E-10  0.7539E+00
     12.599 -0.5253E-12  0.7539E+00
     12.660 -0.2251E-13  0.7539E+00
     12.720 -0.7964E-15  0.7539E+00
     12.781 -0.2879E-16  0.7539E+00
     12.841  0.0000E+00  0.7539E+00
     12.902  0.0000E+00  0.7539E+00
     12.963  0.0000E+00  0.7539E+00
     13.023  0.0000E+00  0.7539E+00
     13.084  0.0000E+00  0.7539E+00
     13.144  0.0000E+00  0.7539E+00
     13.205  0.0000E+00  0.7539E+00
     13.265  0.0000E+00  0.7539E+00
     13.326  0.0000E+00  0.7539E+00
     13.387  0.0000E+00  0.7539E+00
     13.447  0.0000E+00  0.7539E+00
     13.508  0.0000E+00  0.7539E+00
