   33   33  191    1
  0.1602717E+02  0.8087052E-09  0.8087052E-09  0.8087052E-09  0.5000000E-15
  1.000000000000000E-004
  CAR 
 unknown system                          
   98    2   72
 
  0.2500000E+00  0.2500000E+00  0.2500000E+00  0.2500000E+00
   1       -2.665628
   2       -1.660661
   3       -1.660661
   4       -1.315063
   5       -0.560294
   6       -0.560294
   7       -0.114115
   8        0.616813
   9        0.616813
  10        0.690370
  11        0.965326
  12        1.618904
  13        1.618904
  14        1.657462
  15        1.967903
  16        1.967903
  17        2.134487
  18        2.833739
  19        2.955578
  20        2.955578
  21        3.854492
  22        3.854492
  23        3.897915
  24        4.043096
  25        4.043096
  26        4.253103
  27        4.777243
  28        4.777244
  29        4.816374
  30        5.036804
  31        5.109204
  32        5.109204
  33        5.221938
  34        5.221938
  35        5.297095
  36        5.983688
  37        5.983688
  38        6.419896
  39        6.975960
  40        7.004791
  41        7.004791
  42        7.211130
  43        7.295606
  44        7.295606
  45        7.444922
  46        7.967507
  47        7.967507
  48        8.050319
  49        8.279563
  50        8.359240
  51        8.359240
  52        8.522414
  53        8.522414
  54        8.548543
  55        9.225250
  56        9.225250
  57        9.465113
  58        9.635972
  59        9.635972
  60        9.728858
  61       10.140141
  62       10.140141
  63       10.223608
  64       10.339330
  65       10.339330
  66       10.473312
  67       10.473312
  68       10.579936
  69       10.972894
  70       11.150784
  71       11.150797
  72       11.465211
 
 -0.2500000E+00  0.2500000E+00  0.2500000E+00  0.7500000E+00
   1       -2.665533
   2       -1.660735
   3       -1.660178
   4       -1.317383
   5       -0.559796
   6       -0.557160
   7       -0.114196
   8        0.611007
   9        0.615516
  10        0.706112
  11        0.952987
  12        1.601983
  13        1.614620
  14        1.679539
  15        1.951853
  16        1.963567
  17        2.155580
  18        2.830686
  19        2.957813
  20        2.962265
  21        3.851328
  22        3.862523
  23        3.904388
  24        4.030016
  25        4.042275
  26        4.251175
  27        4.757861
  28        4.775848
  29        4.829360
  30        5.031173
  31        5.098659
  32        5.117626
  33        5.192180
  34        5.223119
  35        5.342775
  36        5.989664
  37        5.991456
  38        6.424186
  39        6.960532
  40        6.991652
  41        7.018818
  42        7.209408
  43        7.275961
  44        7.282348
  45        7.446651
  46        7.962138
  47        7.973301
  48        8.069628
  49        8.252695
  50        8.344007
  51        8.362818
  52        8.486954
  53        8.520142
  54        8.637683
  55        9.215478
  56        9.228286
  57        9.449839
  58        9.623813
  59        9.662247
  60        9.748756
  61       10.130319
  62       10.135070
  63       10.208067
  64       10.363522
  65       10.376622
  66       10.466149
  67       10.484290
  68       10.593933
  69       10.969131
  70       11.128029
  71       11.158851
  72       11.507788
