 vasp.5.2.2 15Apr09 complex 
 executed on             LinuxIFC date 2016.11.30  15:02:09
 running on    8 nodes
 distr:  one band on    1 nodes,    8 groups


--------------------------------------------------------------------------------------------------------


 INCAR:
 POTCAR:   PAW_PBE Al 04Jan2001                   
 POTCAR:   PAW_PBE Mg 05Jan2001                   
 POTCAR:   PAW_PBE Al 04Jan2001                   
   VRHFIN =Al: s2p1                                                             
   LEXCH  = PE                                                                  
   EATOM  =    53.5387 eV,    3.9350 Ry                                         
                                                                                
   TITEL  = PAW_PBE Al 04Jan2001                                                
   LULTRA =        F    use ultrasoft PP ?                                      
   IUNSCR =        1    unscreen: 0-lin 1-nonlin 2-no                           
   RPACOR =    1.500    partial core radius                                     
   POMASS =   26.982; ZVAL   =    3.000    mass and valenz                      
   RCORE  =    1.900    outmost cutoff radius                                   
   RWIGS  =    2.650; RWIGS  =    1.402    wigner-seitz radius (au A)           
   ENMAX  =  240.300; ENMIN  =  180.225 eV                                      
   ICORE  =        2    local potential                                         
   LCOR   =        T    correct aug charges                                     
   LPAW   =        T    paw PP                                                  
   EAUG   =  291.052                                                            
   DEXC   =    -.041                                                            
   RMAX   =    2.974    core radius for proj-oper                               
   RAUG   =    1.300    factor for augmentation sphere                          
   RDEP   =    1.966    radius for radial grids                                 
   QCUT   =   -4.203; QGAM   =    8.405    optimization parameters              
                                                                                
   Description                                                                  
     l     E      TYP  RCUT    TYP  RCUT                                        
     0   .000     23  1.900                                                     
     0   .000     23  1.900                                                     
     1   .000     23  1.900                                                     
     1  1.000     23  1.900                                                     
     2   .000      7  1.900                                                     
  local pseudopotential read in
  partial core-charges read in
  atomic valenz-charges read in
  non local Contribution for L=           0  read in
    real space projection operators read in
  non local Contribution for L=           0  read in
    real space projection operators read in
  non local Contribution for L=           1  read in
    real space projection operators read in
  non local Contribution for L=           1  read in
    real space projection operators read in
    PAW grid and wavefunctions read in
 
   number of l-projection  operators is LMAX  =           4
   number of lm-projection operators is LMMAX =           8
 
 POTCAR:   PAW_PBE Mg 05Jan2001                   
   VRHFIN =Mg: s2p0                                                             
   LEXCH  = PE                                                                  
   EATOM  =    23.0029 eV,    1.6907 Ry                                         
                                                                                
   TITEL  = PAW_PBE Mg 05Jan2001                                                
   LULTRA =        F    use ultrasoft PP ?                                      
   IUNSCR =        1    unscreen: 0-lin 1-nonlin 2-no                           
   RPACOR =    2.000    partial core radius                                     
   POMASS =   24.305; ZVAL   =    2.000    mass and valenz                      
   RCORE  =    2.000    outmost cutoff radius                                   
   RWIGS  =    2.880; RWIGS  =    1.524    wigner-seitz radius (au A)           
   ENMAX  =  210.012; ENMIN  =  157.509 eV                                      
   ICORE  =        2    local potential                                         
   LCOR   =        T    correct aug charges                                     
   LPAW   =        T    paw PP                                                  
   EAUG   =  274.554                                                            
   DEXC   =    -.136                                                            
   RMAX   =    3.182    core radius for proj-oper                               
   RAUG   =    1.300    factor for augmentation sphere                          
   RDEP   =    2.025    radius for radial grids                                 
   QCUT   =   -3.929; QGAM   =    7.858    optimization parameters              
                                                                                
   Description                                                                  
     l     E      TYP  RCUT    TYP  RCUT                                        
     0   .000     23  2.000                                                     
     0  2.000     23  2.000                                                     
     1   .000     23  2.000                                                     
     1  2.000     23  2.000                                                     
     2   .000     23  2.000                                                     
  local pseudopotential read in
  partial core-charges read in
  atomic valenz-charges read in
  non local Contribution for L=           0  read in
    real space projection operators read in
  non local Contribution for L=           0  read in
    real space projection operators read in
  non local Contribution for L=           1  read in
    real space projection operators read in
  non local Contribution for L=           1  read in
    real space projection operators read in
    PAW grid and wavefunctions read in
 
   number of l-projection  operators is LMAX  =           4
   number of lm-projection operators is LMMAX =           8
 

 ----------------------------------------------------------------------------- 
|                                                                             |
|  ADVICE TO THIS USER RUNNING 'VASP/VAMP'   (HEAR YOUR MASTER'S VOICE ...):  |
|                                                                             |
|      You have a (more or less) 'large supercell' and for larger cells       |
|      it might be more efficient to use real space projection operators      |
|      So try LREAL= Auto  in the INCAR   file.                               |
|      Mind: If you want to do a very accurate calculations keep the          |
|      reciprocal projection scheme          (i.e. LREAL=.FALSE.)             |
|                                                                             |
 ----------------------------------------------------------------------------- 

 PAW_PBE Al 04Jan2001                   :
 energy of atom  1       EATOM=  -53.5387
 kinetic energy error for atom=    0.0011 (will be added to EATOM!!)
 PAW_PBE Mg 05Jan2001                   :
 energy of atom  2       EATOM=  -23.0029
 kinetic energy error for atom=    0.0002 (will be added to EATOM!!)
 
 
 POSCAR: Mg1 Al32                                
  positions in direct lattice
  velocities in cartesian coordinates
 exchange correlation table for  LEXCH =        8
   RHO(1)=    0.500       N(1)  =     2000
   RHO(2)=  100.500       N(2)  =     4000

 VTST: version 2.03d, (02/18/09)

 CHAIN: initializing optimizer
 
 OPT: Using VASP Conjugate-Gradient optimizer
 CHAIN: Read ICHAIN            0
 


--------------------------------------------------------------------------------------------------------


 ion  position               nearest neighbor table
   1  0.010  0.010  0.010-   2 2.76   3 2.76   4 2.76  15 2.78  22 2.78  28 2.78  12 2.93   6 2.93
                            18 2.93  20 2.93   7 2.93  11 2.93
   2  0.251  0.016  0.251-   8 2.60  19 2.60   3 2.69   4 2.69  21 2.72   1 2.76   5 2.76  17 2.76
                            16 2.81  27 2.81  12 2.90  11 2.90
   3  0.251  0.251  0.016-   8 2.60  10 2.60   2 2.69   4 2.69  13 2.72   1 2.76   5 2.76   9 2.76
                            24 2.81  26 2.81  18 2.90  20 2.90
   4  0.016  0.251  0.251-  10 2.60  19 2.60   2 2.69   3 2.69  25 2.72   1 2.76   9 2.76  17 2.76
                            23 2.81  14 2.81   7 2.90   6 2.90
   5  0.487  0.005  0.005-   8 2.72  16 2.75  24 2.75   3 2.76   2 2.76   7 2.81   6 2.81  32 2.83
                            11 2.93  18 2.93  15 2.99  22 2.99
   6  0.736  0.028  0.246-  31 2.48   7 2.50  23 2.55  15 2.65   8 2.70  21 2.81   5 2.81   4 2.90
                            17 2.93   1 2.93  16 3.00  12 3.34
   7  0.736  0.246  0.028-  30 2.48   6 2.50  14 2.55  22 2.65   8 2.70  13 2.81   5 2.81   4 2.90
                             9 2.93   1 2.93  24 3.00  20 3.34
   8  0.479  0.242  0.242-   2 2.60   3 2.60   6 2.70   7 2.70  10 2.71  19 2.71   5 2.72  13 2.76
                            21 2.76  29 2.82  23 2.96  14 2.96
   9  0.005  0.487  0.005-  10 2.72  14 2.75  26 2.75   4 2.76   3 2.76  11 2.81  12 2.81  30 2.83
                             7 2.93  20 2.93  28 2.99  15 2.99
  10  0.242  0.479  0.242-   3 2.60   4 2.60  11 2.70  12 2.70   8 2.71  19 2.71   9 2.72  13 2.76
                            25 2.76  29 2.82  27 2.96  16 2.96
  11  0.246  0.736  0.028-  32 2.48  12 2.50  16 2.55  28 2.65  10 2.70  13 2.81   9 2.81   2 2.90
                             5 2.93   1 2.93  26 3.00  18 3.34
  12  0.028  0.736  0.246-  31 2.48  11 2.50  27 2.55  15 2.65  10 2.70  25 2.81   9 2.81   2 2.90
                            17 2.93   1 2.93  14 3.00   6 3.34
  13  0.488  0.488  0.005-   3 2.72   8 2.76  10 2.76   7 2.81  11 2.81  24 2.86  26 2.86  14 2.87
                            16 2.87  30 3.05  32 3.05  15 3.22  33 3.41
  14  0.757  0.482  0.237-   7 2.55  31 2.64   9 2.75  15 2.78  23 2.81   4 2.81  25 2.86  13 2.87
                             8 2.96  29 2.98  12 3.00  16 3.14
  15  0.769  0.769  0.048-   6 2.65  12 2.65  14 2.78  16 2.78   1 2.78  31 2.85   5 2.99   9 2.99
                            28 3.20  22 3.20  13 3.22  33 3.37
  16  0.482  0.757  0.237-  11 2.55  31 2.64   5 2.75  15 2.78  27 2.81   2 2.81  21 2.86  13 2.87
                            10 2.96  29 2.98   6 3.00  14 3.14
  17  0.005  0.005  0.487-  19 2.72  23 2.75  27 2.75   4 2.76   2 2.76  18 2.81  20 2.81  31 2.83
                             6 2.93  12 2.93  28 2.99  22 2.99
  18  0.246  0.028  0.736-  32 2.48  20 2.50  24 2.55  28 2.65  19 2.70  21 2.81  17 2.81   3 2.90
                             5 2.93   1 2.93  27 3.00  11 3.34
  19  0.242  0.242  0.479-   2 2.60   4 2.60  18 2.70  20 2.70   8 2.71  10 2.71  17 2.72  21 2.76
                            25 2.76  29 2.82  26 2.96  24 2.96
  20  0.028  0.246  0.736-  30 2.48  18 2.50  26 2.55  22 2.65  19 2.70  25 2.81  17 2.81   3 2.90
                             9 2.93   1 2.93  23 3.00   7 3.34
  21  0.488  0.005  0.488-   2 2.72   8 2.76  19 2.76  18 2.81   6 2.81  16 2.86  27 2.86  24 2.87
                            23 2.87  31 3.05  32 3.05  22 3.22  33 3.41
  22  0.769  0.048  0.769-   7 2.65  20 2.65  23 2.78  24 2.78   1 2.78  30 2.85   5 2.99  17 2.99
                            28 3.20  15 3.20  21 3.22  33 3.37
  23  0.757  0.237  0.482-   6 2.55  30 2.64  17 2.75  22 2.78  14 2.81   4 2.81  25 2.86  21 2.87
                             8 2.96  29 2.98  20 3.00  24 3.14
  24  0.482  0.237  0.757-  18 2.55  30 2.64   5 2.75  22 2.78  26 2.81   3 2.81  13 2.86  21 2.87
                            19 2.96  29 2.98   7 3.00  23 3.14
  25  0.005  0.488  0.488-   4 2.72  10 2.76  19 2.76  12 2.81  20 2.81  14 2.86  23 2.86  26 2.87
                            27 2.87  30 3.05  31 3.05  28 3.22  33 3.41
  26  0.237  0.482  0.757-  20 2.55  32 2.64   9 2.75  28 2.78  24 2.81   3 2.81  13 2.86  25 2.87
                            19 2.96  29 2.98  11 3.00  27 3.14
  27  0.237  0.757  0.482-  12 2.55  32 2.64  17 2.75  28 2.78  16 2.81   2 2.81  21 2.86  25 2.87
                            10 2.96  29 2.98  18 3.00  26 3.14
  28  0.048  0.769  0.769-  11 2.65  18 2.65  26 2.78  27 2.78   1 2.78  32 2.85   9 2.99  17 2.99
                            22 3.20  15 3.20  25 3.22  33 3.37
  29  0.489  0.489  0.489-  33 2.39  10 2.82  19 2.82   8 2.82  14 2.98  23 2.98  24 2.98  26 2.98
                            27 2.98  16 2.98  31 3.23  32 3.23  30 3.23
  30  0.765  0.400  0.765-  33 2.42  20 2.48   7 2.48  24 2.64  23 2.64   9 2.83  22 2.85  25 3.05
                            13 3.05  29 3.23
  31  0.765  0.765  0.400-  33 2.42  12 2.48   6 2.48  16 2.64  14 2.64  17 2.83  15 2.85  25 3.05
                            21 3.05  29 3.23
  32  0.400  0.765  0.765-  33 2.42  18 2.48  11 2.48  27 2.64  26 2.64   5 2.83  28 2.85  13 3.05
                            21 3.05  29 3.23
  33  0.660  0.660  0.660-  29 2.39  30 2.42  31 2.42  32 2.42  22 3.37  28 3.37  15 3.37  25 3.41
                            21 3.41  13 3.41
 
  LATTYP: Found a simple cubic cell.
 ALAT       =     8.0870520000
  
  Lattice vectors:
  
 A1 = (   8.0870520000,   0.0000000000,   0.0000000000)
 A2 = (   0.0000000000,   8.0870520000,   0.0000000000)
 A3 = (   0.0000000000,   0.0000000000,   8.0870520000)
 Subroutine PRICEL returns:
 Original cell was already a primitive cell.
 

Analysis of symmetry for initial positions (statically):

 Routine SETGRP: Setting up the symmetry group for a 
 simple cubic supercell.


 Subroutine GETGRP returns: Found  6 space group operations
 (whereof  6 operations were pure point group operations)
 out of a pool of 48 trial point group operations.


The static configuration has the point symmetry C_3v.

Analysis of symmetry for dynamics (positions and initial velocities):

 Subroutine DYNSYM returns: Found  6 space group operations
 (whereof  6 operations were pure point group operations)
 out of a pool of  6 trial space group operations
 (whereof  6 operations were pure point group operations)
 and found also     1 'primitive' translations


The dynamic configuration has the point symmetry C_3v.
 
 
 KPOINTS: Automatic kpoint scheme                 

Automatic generation of k-mesh.
 
 Subroutine IBZKPT returns following result:
 ===========================================
 
 Found      2 irreducible k-points:
 
 Following reciprocal coordinates:
            Coordinates               Weight
  0.250000  0.250000  0.250000      2.000000
 -0.250000  0.250000  0.250000      6.000000
 
 Following cartesian coordinates:
            Coordinates               Weight
  0.030914  0.030914  0.030914      2.000000
 -0.030914  0.030914  0.030914      6.000000
 


--------------------------------------------------------------------------------------------------------




 Dimension of arrays:
   k-points           NKPTS =      2   k-points in BZ     NKDIM =      2   number of bands    NBANDS=     72
   number of dos      NEDOS =    301   number of ions     NIONS =     33
   non local maximal  LDIM  =      4   non local SUM 2l+1 LMDIM =      8
   total plane-waves  NPLWV = 110592
   max r-space proj   IRMAX =      1   max aug-charges    IRDMAX=   9081
   dimension x,y,z NGX =    48 NGY =   48 NGZ =   48
   dimension x,y,z NGXF=    96 NGYF=   96 NGZF=   96
   support grid    NGXF=    96 NGYF=   96 NGZF=   96
   ions per type =              32   1
 NGX,Y,Z   is equivalent  to a cutoff of   9.87,  9.87,  9.87 a.u.
 NGXF,Y,Z  is equivalent  to a cutoff of  19.73, 19.73, 19.73 a.u.


 I would recommend the setting:
   dimension x,y,z NGX =    46 NGY =   46 NGZ =   46
 SYSTEM =  unknown system                          
 POSCAR =  Mg1 Al32                                

 Startparameter for this run:
   NWRITE =      2    write-flag & timer
   PREC   = accura    medium, high low
   ISTART =      0    job   : 0-new  1-cont  2-samecut
   ICHARG =      2    charge: 1-file 2-atom 10-const
   ISPIN  =      1    spin polarized calculation?
   LNONCOLLINEAR =      F non collinear calculations
   LSORBIT =      F    spin-orbit coupling
   INIWAV =      1    electr: 0-lowe 1-rand  2-diag
   LASPH  =      F    aspherical Exc in radial PAW
   METAGGA=      F    non-selfconsistent MetaGGA calc.

 Electronic Relaxation 1
   ENCUT  =  300.0 eV  22.05 Ry    4.70 a.u.  11.42 11.42 11.42*2*pi/ulx,y,z
   ENINI  =  300.0     initial cutoff
   ENAUG  =  291.1 eV  augmentation charge cutoff
   NELM   =     60;   NELMIN=  2; NELMDL=-12     # of ELM steps 
   EDIFF  = 0.1E-03   stopping-criterion for ELM
   LREAL  =      F    real-space projection
   LCOMPAT=      F    compatible to vasp.4.4
   LREAL_COMPAT= F    compatible to vasp.4.5.1-3
   GGA_COMPAT  = T    GGA compatible to vasp.4.4-vasp.4.6
   LMAXPAW     = -100 max onsite density
   LMAXMIX     =    2 max onsite mixed and CHGCAR
   VOSKOWN=      0    Vosko Wilk Nusair interpolation
   ROPT   =    0.00000   0.00000
 Ionic relaxation
   EDIFFG = 0.5E-01   stopping-criterion for IOM
   NSW    =    191    number of steps for IOM
   NBLOCK =      1;   KBLOCK =    191    inner block; outer block 
   IBRION =      2    ionic relax: 0-MD 1-quasi-New 2-CG
   NFREE  =      1    steps in history (QN), initial steepest desc. (CG)
   ISIF   =      2    stress and relaxation
   IWAVPR =     11    prediction:  0-non 1-charg 2-wave 3-comb
   ISYM   =      2    0-nonsym 1-usesym 2-fastsym
   LCORR  =      T    Harris-Foulkes like correction to forces

   POTIM  = 0.5000    time-step for ionic-motion
   TEIN   =    0.0    initial temperature
   TEBEG  =    0.0;   TEEND  =   0.0 temperature during run
   SMASS  =  -3.00    Nose mass-parameter (am)
   estimated Nose-frequenzy (Omega)   =  0.10E-29 period in steps =****** mass=  -0.149E-26a.u.
   NPACO  =    256;   APACO  = 16.0  distance and # of slots for P.C.
   PSTRESS=    0.0 pullay stress

  Mass of Ions in am
   POMASS =  26.98 24.30
  Ionic Valenz
   ZVAL   =   3.00  2.00
  Atomic Wigner-Seitz radii
   RWIGS  =  -1.00 -1.00
   NELECT =      98.0000    total number of electrons
   NUPDOWN=      -1.0000    fix difference up-down

 DOS related values:
   EMIN   =  10.00;   EMAX   =-10.00  energy-range for DOS
   EFERMI =   0.00
   ISMEAR =     1;   SIGMA  =   0.20  broadening in eV -4-tet -1-fermi 0-gaus

 Electronic relaxation 2 (details)
   IALGO  =     48    algorithm
   LDIAG  =      T    sub-space diagonalisation
   IMIX   =      4    mixing-type and parameters
     AMIX     =   0.40;   BMIX     =  1.00
     AMIX_MAG =   1.60;   BMIX_MAG =  1.00
     AMIN     =   0.10
     WC   =   100.;   INIMIX=   1;  MIXPRE=   1

 Intra band minimization:
   WEIMIN = 0.0010     energy-eigenvalue tresh-hold
   EBREAK =  0.38E-06  absolut break condition
   DEPER  =   0.30     relativ break condition  

   TIME   =   0.40     timestep for ELM

  volume/ion in A,a.u.               =      16.03       108.16
  Fermi-wavevector in a.u.,A,eV,Ry     =   0.933312  1.763703 11.851632  0.871070
  Thomas-Fermi vector in A             =   2.060000
 
 Write flags
   LWAVE  =      F    write WAVECAR
   LCHARG =      F    write CHGCAR
   LVTOT  =      F    write LOCPOT, local potential
   LELF   =      F    write electronic localiz. function (ELF)
   LORBIT =      0    0 simple, 1 ext, 2 COOP (PROOUT)


 Dipole corrections
   LMONO  =      F    monopole corrections only (constant potential shift)
   LDIPOL =      F    correct potential (dipole corrections)
   IDIPOL =      0    1-x, 2-y, 3-z, 4-all directions 
   EPSILON=  1.0000000 bulk dielectric constant

 Exchange correlation treatment:
   GGA     =    --    GGA type
   LEXCH   =     8    internal setting for exchange type
   VOSKOWN=      0    Vosko Wilk Nusair interpolation
   LHFCALC =     F    Hartree Fock is set to
   LHFONE  =     F    Hartree Fock one center treatment
   AEXX    =    0.0000 exact exchange contribution

 Linear response parameters
   LEPSILON=     F    determine dielectric tensor
   LRPA    =     F    only Hartree local field effects (RPA)
   LNABLA  =     F    use nabla operator in PAW spheres
   LVEL    =     F    velocity operator in full k-point grid
   LINTERFAST=   F  fast interpolation
   KINTER  =     0    interpolate to denser k-point grid
   CSHIFT  =0.1000    complex shift for real part using Kramers Kronig
   OMEGAMAX=  -1.0    maximum frequency

 Orbital magnetization related:
   ORBITALMAG=     F  switch on orbital magnetization
   LCHIMAG   =     F  perturbation theory with respect to B field



--------------------------------------------------------------------------------------------------------


 conjugate gradient relaxation of ions
 charge density and potential will be updated during run
 non-spin polarized calculation
 RMM-DIIS sequential band-by-band
 perform sub-space diagonalisation
    before iterative eigenvector-optimisation
 modified Broyden-mixing scheme, WC =      100.0
 initial mixing is a Kerker type mixing with AMIX =  0.4000 and BMIX =      1.0000
 Hartree-type preconditioning will be used
 using additional bands           23
 reciprocal scheme for non local part
 use partial core corrections
 calculate Harris-corrections to forces 
   (improved forces if not selfconsistent)
 use gradient corrections 
 use of overlap-Matrix (Vanderbilt PP)
 Methfessel and Paxton  Order N= 1 SIGMA  =   0.20


--------------------------------------------------------------------------------------------------------


  energy-cutoff  :      300.00
  volume of cell :      528.90
      direct lattice vectors                 reciprocal lattice vectors
     8.087052000  0.000000000  0.000000000     0.123654454  0.000000000  0.000000000
     0.000000000  8.087052000  0.000000000     0.000000000  0.123654454  0.000000000
     0.000000000  0.000000000  8.087052000     0.000000000  0.000000000  0.123654454

  length of vectors
     8.087052000  8.087052000  8.087052000     0.123654454  0.123654454  0.123654454


 
 k-points in units of 2pi/SCALE and weight: Automatic kpoint scheme                 
   0.03091361  0.03091361  0.03091361       0.250
  -0.03091361  0.03091361  0.03091361       0.750
 
 k-points in reciprocal lattice and weights: Automatic kpoint scheme                 
   0.25000000  0.25000000  0.25000000       0.250
  -0.25000000  0.25000000  0.25000000       0.750
 
 position of ions in fractional coordinates (direct lattice) 
   0.00970100  0.00970100  0.00970100
   0.25079000  0.01572400  0.25079000
   0.25079000  0.25079000  0.01572400
   0.01572400  0.25079000  0.25079000
   0.48724100  0.00466200  0.00466200
   0.73571900  0.02769800  0.24600800
   0.73571900  0.24600800  0.02769800
   0.47933200  0.24235000  0.24235000
   0.00466200  0.48724100  0.00466200
   0.24235000  0.47933200  0.24235000
   0.24600800  0.73571900  0.02769800
   0.02769800  0.73571900  0.24600800
   0.48818200  0.48818200  0.00512200
   0.75659000  0.48202900  0.23656100
   0.76851400  0.76851400  0.04800900
   0.48202900  0.75659000  0.23656100
   0.00466200  0.00466200  0.48724100
   0.24600800  0.02769800  0.73571900
   0.24235000  0.24235000  0.47933200
   0.02769800  0.24600800  0.73571900
   0.48818200  0.00512200  0.48818200
   0.76851400  0.04800900  0.76851400
   0.75659000  0.23656100  0.48202900
   0.48202900  0.23656100  0.75659000
   0.00512200  0.48818200  0.48818200
   0.23656100  0.48202900  0.75659000
   0.23656100  0.75659000  0.48202900
   0.04800900  0.76851400  0.76851400
   0.48921500  0.48921500  0.48921500
   0.76458500  0.40044800  0.76458500
   0.76458500  0.76458500  0.40044800
   0.40044800  0.76458500  0.76458500
   0.66000000  0.66000000  0.66000000
 
 position of ions in cartesian coordinates  (Angst):
   0.07845249  0.07845249  0.07845249
   2.02815177  0.12716081  2.02815177
   2.02815177  2.02815177  0.12716081
   0.12716081  2.02815177  2.02815177
   3.94034330  0.03770184  0.03770184
   5.94979781  0.22399517  1.98947949
   5.94979781  1.98947949  0.22399517
   3.87638281  1.95989705  1.95989705
   0.03770184  3.94034330  0.03770184
   1.95989705  3.87638281  1.95989705
   1.98947949  5.94979781  0.22399517
   0.22399517  5.94979781  1.98947949
   3.94795322  3.94795322  0.04142188
   6.11858267  3.89819359  1.91308111
   6.21501268  6.21501268  0.38825128
   3.89819359  6.11858267  1.91308111
   0.03770184  0.03770184  3.94034330
   1.98947949  0.22399517  5.94979781
   1.95989705  1.95989705  3.87638281
   0.22399517  1.98947949  5.94979781
   3.94795322  0.04142188  3.94795322
   6.21501268  0.38825128  6.21501268
   6.11858267  1.91308111  3.89819359
   3.89819359  1.91308111  6.11858267
   0.04142188  3.94795322  3.94795322
   1.91308111  3.89819359  6.11858267
   1.91308111  6.11858267  3.89819359
   0.38825128  6.21501268  6.21501268
   3.95630714  3.95630714  3.95630714
   6.18323865  3.23844380  6.18323865
   6.18323865  6.18323865  3.23844380
   3.23844380  6.18323865  6.18323865
   5.33745432  5.33745432  5.33745432
 


--------------------------------------------------------------------------------------------------------


 k-point  1 :  0.25000.25000.2500  plane waves:    6238
 k-point  2 :  -.25000.25000.2500  plane waves:    6238

 maximum and minimum number of plane-waves per node :    6238   6238

 maximum number of plane-waves:    6238
 maximal index in each direction: 
   IXMAX= 11   IYMAX= 11   IZMAX= 11
   IXMIN=-11   IYMIN=-11   IZMIN=-11

 NGX is ok and might be reduce to  46
 NGY is ok and might be reduce to  46
 NGZ is ok and might be reduce to  46

 serial   3D FFT for wavefunctions
 parallel 3D FFT for charge:
    minimum data exchange during FFTs selected (reduces bandwidth)


 total amount of memory used by VASP on root node  64238. kBytes
========================================================================

   base      :    30000. kBytes
   nonl-proj :     4892. kBytes
   fftplans  :     4240. kBytes
   grid      :    23132. kBytes
   one-center:      101. kBytes
   wavefun   :     1873. kBytes
 
 Broyden mixing: mesh for mixing (old mesh)
   NGX = 23   NGY = 23   NGZ = 23
  (NGX  = 96   NGY  = 96   NGZ  = 96)
  gives a total of  12167 points

 initial charge density was supplied:
 charge density of overlapping atoms calculated
 number of electron   98.0000000 magnetization 
 keeping initial charge density in first step


--------------------------------------------------------------------------------------------------------


 Maximum index for augmentation-charges         1113 (set IRDMAX)


--------------------------------------------------------------------------------------------------------


 First call to EWALD:  gamma=   0.219
 Maximum number of real-space cells 3x 3x 3
 Maximum number of reciprocal cells 3x 3x 3

    FEWALD:  cpu time    0.01: real time    0.02
   RESPFUN:  cpu time    0.00: real time    0.00


----------------------------------------- Iteration    1(   1)  ---------------------------------------


    POTLOK:  cpu time    0.26: real time    0.26
    SETDIJ:  cpu time    0.02: real time    0.02
    EDDIAG:  cpu time    0.47: real time    0.47
  RMM-DIIS:  cpu time    1.10: real time    1.10
    ORTHCH:  cpu time    0.03: real time    0.03
       DOS:  cpu time    0.00: real time    0.00
    --------------------------------------------
      LOOP:  cpu time    1.88: real time    1.88

 eigenvalue-minimisations  :   144
 total energy-change (2. order) : 0.2807271E+03  (-0.1730756E+04)
 number of electron   98.0000000 magnetization 
 augmentation part    98.0000000 magnetization 

 Free energy of the ion-electron system (eV)
  ---------------------------------------------------
  alpha Z        PSCENC =        -8.27954604
  Ewald energy   TEWEN  =     -2349.52668146
  -1/2 Hartree   DENC   =       -37.96136166
  -exchange  EXHF       =         0.00000000
  -V(xc)+E(xc)   XCENC  =      -845.13390272
  PAW double counting   =      1149.32568210     -115.70169129
  entropy T*S    EENTRO =        -0.01527152
  eigenvalues    EBANDS =       751.81323236
  atomic energy  EATOM  =      1736.20668909
  ---------------------------------------------------
  free energy    TOTEN  =       280.72714885 eV

  energy without entropy =      280.74242037  energy(sigma->0) =      280.73223936


--------------------------------------------------------------------------------------------------------




----------------------------------------- Iteration    1(   2)  ---------------------------------------


    EDDIAG:  cpu time    0.47: real time    0.47
  RMM-DIIS:  cpu time    1.09: real time    1.09
    ORTHCH:  cpu time    0.03: real time    0.03
       DOS:  cpu time    0.00: real time    0.00
    --------------------------------------------
      LOOP:  cpu time    1.59: real time    1.59

 eigenvalue-minimisations  :   144
 total energy-change (2. order) :-0.3059076E+03  (-0.2982144E+03)
 number of electron   98.0000000 magnetization 
 augmentation part    98.0000000 magnetization 

 Free energy of the ion-electron system (eV)
  ---------------------------------------------------
  alpha Z        PSCENC =        -8.27954604
  Ewald energy   TEWEN  =     -2349.52668146
  -1/2 Hartree   DENC   =       -37.96136166
  -exchange  EXHF       =         0.00000000
  -V(xc)+E(xc)   XCENC  =      -845.13390272
  PAW double counting   =      1149.32568210     -115.70169129
  entropy T*S    EENTRO =         0.02065079
  eigenvalues    EBANDS =       445.86975634
  atomic energy  EATOM  =      1736.20668909
  ---------------------------------------------------
  free energy    TOTEN  =       -25.18040486 eV

  energy without entropy =      -25.20105565  energy(sigma->0) =      -25.18728845


--------------------------------------------------------------------------------------------------------




----------------------------------------- Iteration    1(   3)  ---------------------------------------


    EDDIAG:  cpu time    0.47: real time    0.47
  RMM-DIIS:  cpu time    1.09: real time    1.09
    ORTHCH:  cpu time    0.03: real time    0.03
       DOS:  cpu time    0.00: real time    0.00
    --------------------------------------------
      LOOP:  cpu time    1.59: real time    1.59

 eigenvalue-minimisations  :   144
 total energy-change (2. order) :-0.6625753E+02  (-0.6701924E+02)
 number of electron   98.0000000 magnetization 
 augmentation part    98.0000000 magnetization 

 Free energy of the ion-electron system (eV)
  ---------------------------------------------------
  alpha Z        PSCENC =        -8.27954604
  Ewald energy   TEWEN  =     -2349.52668146
  -1/2 Hartree   DENC   =       -37.96136166
  -exchange  EXHF       =         0.00000000
  -V(xc)+E(xc)   XCENC  =      -845.13390272
  PAW double counting   =      1149.32568210     -115.70169129
  entropy T*S    EENTRO =        -0.02816133
  eigenvalues    EBANDS =       379.66104133
  atomic energy  EATOM  =      1736.20668909
  ---------------------------------------------------
  free energy    TOTEN  =       -91.43793199 eV

  energy without entropy =      -91.40977066  energy(sigma->0) =      -91.42854488


--------------------------------------------------------------------------------------------------------




----------------------------------------- Iteration    1(   4)  ---------------------------------------


    EDDIAG:  cpu time    0.47: real time    0.47
  RMM-DIIS:  cpu time    1.08: real time    1.08
    ORTHCH:  cpu time    0.03: real time    0.03
       DOS:  cpu time    0.00: real time    0.00
    --------------------------------------------
      LOOP:  cpu time    1.57: real time    1.58

 eigenvalue-minimisations  :   144
 total energy-change (2. order) :-0.1520392E+02  (-0.1440713E+02)
 number of electron   98.0000000 magnetization 
 augmentation part    98.0000000 magnetization 

 Free energy of the ion-electron system (eV)
  ---------------------------------------------------
  alpha Z        PSCENC =        -8.27954604
  Ewald energy   TEWEN  =     -2349.52668146
  -1/2 Hartree   DENC   =       -37.96136166
  -exchange  EXHF       =         0.00000000
  -V(xc)+E(xc)   XCENC  =      -845.13390272
  PAW double counting   =      1149.32568210     -115.70169129
  entropy T*S    EENTRO =        -0.02137863
  eigenvalues    EBANDS =       364.45034138
  atomic energy  EATOM  =      1736.20668909
  ---------------------------------------------------
  free energy    TOTEN  =      -106.64184924 eV

  energy without entropy =     -106.62047061  energy(sigma->0) =     -106.63472303


--------------------------------------------------------------------------------------------------------




----------------------------------------- Iteration    1(   5)  ---------------------------------------


    EDDIAG:  cpu time    0.47: real time    0.47
  RMM-DIIS:  cpu time    1.08: real time    1.08
    ORTHCH:  cpu time    0.03: real time    0.03
       DOS:  cpu time    0.00: real time    0.00
    --------------------------------------------
      LOOP:  cpu time    1.58: real time    1.58

 eigenvalue-minimisations  :   144
 total energy-change (2. order) :-0.5526697E+01  (-0.4296475E+01)
 number of electron   98.0000000 magnetization 
 augmentation part    98.0000000 magnetization 

 Free energy of the ion-electron system (eV)
  ---------------------------------------------------
  alpha Z        PSCENC =        -8.27954604
  Ewald energy   TEWEN  =     -2349.52668146
  -1/2 Hartree   DENC   =       -37.96136166
  -exchange  EXHF       =         0.00000000
  -V(xc)+E(xc)   XCENC  =      -845.13390272
  PAW double counting   =      1149.32568210     -115.70169129
  entropy T*S    EENTRO =        -0.03026164
  eigenvalues    EBANDS =       358.93252692
  atomic energy  EATOM  =      1736.20668909
  ---------------------------------------------------
  free energy    TOTEN  =      -112.16854672 eV

  energy without entropy =     -112.13828507  energy(sigma->0) =     -112.15845950


--------------------------------------------------------------------------------------------------------




----------------------------------------- Iteration    1(   6)  ---------------------------------------


    EDDIAG:  cpu time    0.47: real time    0.47
  RMM-DIIS:  cpu time    1.08: real time    1.08
    ORTHCH:  cpu time    0.03: real time    0.03
       DOS:  cpu time    0.00: real time    0.00
    --------------------------------------------
      LOOP:  cpu time    1.57: real time    1.58

 eigenvalue-minimisations  :   144
 total energy-change (2. order) :-0.1921255E+01  (-0.1506835E+01)
 number of electron   98.0000000 magnetization 
 augmentation part    98.0000000 magnetization 

 Free energy of the ion-electron system (eV)
  ---------------------------------------------------
  alpha Z        PSCENC =        -8.27954604
  Ewald energy   TEWEN  =     -2349.52668146
  -1/2 Hartree   DENC   =       -37.96136166
  -exchange  EXHF       =         0.00000000
  -V(xc)+E(xc)   XCENC  =      -845.13390272
  PAW double counting   =      1149.32568210     -115.70169129
  entropy T*S    EENTRO =        -0.05920347
  eigenvalues    EBANDS =       357.04021418
  atomic energy  EATOM  =      1736.20668909
  ---------------------------------------------------
  free energy    TOTEN  =      -114.08980128 eV

  energy without entropy =     -114.03059781  energy(sigma->0) =     -114.07006679


--------------------------------------------------------------------------------------------------------




----------------------------------------- Iteration    1(   7)  ---------------------------------------


    EDDIAG:  cpu time    0.47: real time    0.47
  RMM-DIIS:  cpu time    1.09: real time    1.09
    ORTHCH:  cpu time    0.03: real time    0.03
       DOS:  cpu time    0.00: real time    0.00
    --------------------------------------------
      LOOP:  cpu time    1.58: real time    1.58

 eigenvalue-minimisations  :   144
 total energy-change (2. order) :-0.7643777E+00  (-0.5969670E+00)
 number of electron   98.0000000 magnetization 
 augmentation part    98.0000000 magnetization 

 Free energy of the ion-electron system (eV)
  ---------------------------------------------------
  alpha Z        PSCENC =        -8.27954604
  Ewald energy   TEWEN  =     -2349.52668146
  -1/2 Hartree   DENC   =       -37.96136166
  -exchange  EXHF       =         0.00000000
  -V(xc)+E(xc)   XCENC  =      -845.13390272
  PAW double counting   =      1149.32568210     -115.70169129
  entropy T*S    EENTRO =        -0.07429386
  eigenvalues    EBANDS =       356.29092683
  atomic energy  EATOM  =      1736.20668909
  ---------------------------------------------------
  free energy    TOTEN  =      -114.85417902 eV

  energy without entropy =     -114.77988516  energy(sigma->0) =     -114.82941440


--------------------------------------------------------------------------------------------------------




----------------------------------------- Iteration    1(   8)  ---------------------------------------


    EDDIAG:  cpu time    0.47: real time    0.47
  RMM-DIIS:  cpu time    1.09: real time    1.09
    ORTHCH:  cpu time    0.03: real time    0.03
       DOS:  cpu time    0.00: real time    0.00
    --------------------------------------------
      LOOP:  cpu time    1.58: real time    1.58

 eigenvalue-minimisations  :   144
 total energy-change (2. order) :-0.3166823E+00  (-0.2555430E+00)
 number of electron   98.0000000 magnetization 
 augmentation part    98.0000000 magnetization 

 Free energy of the ion-electron system (eV)
  ---------------------------------------------------
  alpha Z        PSCENC =        -8.27954604
  Ewald energy   TEWEN  =     -2349.52668146
  -1/2 Hartree   DENC   =       -37.96136166
  -exchange  EXHF       =         0.00000000
  -V(xc)+E(xc)   XCENC  =      -845.13390272
  PAW double counting   =      1149.32568210     -115.70169129
  entropy T*S    EENTRO =        -0.08432641
  eigenvalues    EBANDS =       355.98427704
  atomic energy  EATOM  =      1736.20668909
  ---------------------------------------------------
  free energy    TOTEN  =      -115.17086136 eV

  energy without entropy =     -115.08653495  energy(sigma->0) =     -115.14275255


--------------------------------------------------------------------------------------------------------




----------------------------------------- Iteration    1(   9)  ---------------------------------------


    EDDIAG:  cpu time    0.47: real time    0.47
  RMM-DIIS:  cpu time    2.19: real time    2.19
    ORTHCH:  cpu time    0.03: real time    0.03
       DOS:  cpu time    0.00: real time    0.00
    --------------------------------------------
      LOOP:  cpu time    2.69: real time    2.69

 eigenvalue-minimisations  :   325
 total energy-change (2. order) :-0.1883094E+00  (-0.1679508E+00)
 number of electron   98.0000000 magnetization 
 augmentation part    98.0000000 magnetization 

 Free energy of the ion-electron system (eV)
  ---------------------------------------------------
  alpha Z        PSCENC =        -8.27954604
  Ewald energy   TEWEN  =     -2349.52668146
  -1/2 Hartree   DENC   =       -37.96136166
  -exchange  EXHF       =         0.00000000
  -V(xc)+E(xc)   XCENC  =      -845.13390272
  PAW double counting   =      1149.32568210     -115.70169129
  entropy T*S    EENTRO =        -0.08182076
  eigenvalues    EBANDS =       355.79346195
  atomic energy  EATOM  =      1736.20668909
  ---------------------------------------------------
  free energy    TOTEN  =      -115.35917080 eV

  energy without entropy =     -115.27735004  energy(sigma->0) =     -115.33189721


--------------------------------------------------------------------------------------------------------




----------------------------------------- Iteration    1(  10)  ---------------------------------------


    EDDIAG:  cpu time    0.48: real time    0.48
  RMM-DIIS:  cpu time    2.02: real time    2.02
    ORTHCH:  cpu time    0.03: real time    0.03
       DOS:  cpu time    0.00: real time    0.00
    --------------------------------------------
      LOOP:  cpu time    2.53: real time    2.53

 eigenvalue-minimisations  :   302
 total energy-change (2. order) :-0.3433255E-01  (-0.2619217E-01)
 number of electron   98.0000000 magnetization 
 augmentation part    98.0000000 magnetization 

 Free energy of the ion-electron system (eV)
  ---------------------------------------------------
  alpha Z        PSCENC =        -8.27954604
  Ewald energy   TEWEN  =     -2349.52668146
  -1/2 Hartree   DENC   =       -37.96136166
  -exchange  EXHF       =         0.00000000
  -V(xc)+E(xc)   XCENC  =      -845.13390272
  PAW double counting   =      1149.32568210     -115.70169129
  entropy T*S    EENTRO =        -0.07992023
  eigenvalues    EBANDS =       355.75722887
  atomic energy  EATOM  =      1736.20668909
  ---------------------------------------------------
  free energy    TOTEN  =      -115.39350335 eV

  energy without entropy =     -115.31358312  energy(sigma->0) =     -115.36686327


--------------------------------------------------------------------------------------------------------




----------------------------------------- Iteration    1(  11)  ---------------------------------------


    EDDIAG:  cpu time    0.47: real time    0.47
  RMM-DIIS:  cpu time    1.65: real time    1.65
    ORTHCH:  cpu time    0.03: real time    0.03
       DOS:  cpu time    0.00: real time    0.00
    --------------------------------------------
      LOOP:  cpu time    2.16: real time    2.16

 eigenvalue-minimisations  :   233
 total energy-change (2. order) :-0.2457565E-02  (-0.1523469E-02)
 number of electron   98.0000000 magnetization 
 augmentation part    98.0000000 magnetization 

 Free energy of the ion-electron system (eV)
  ---------------------------------------------------
  alpha Z        PSCENC =        -8.27954604
  Ewald energy   TEWEN  =     -2349.52668146
  -1/2 Hartree   DENC   =       -37.96136166
  -exchange  EXHF       =         0.00000000
  -V(xc)+E(xc)   XCENC  =      -845.13390272
  PAW double counting   =      1149.32568210     -115.70169129
  entropy T*S    EENTRO =        -0.07968649
  eigenvalues    EBANDS =       355.75453756
  atomic energy  EATOM  =      1736.20668909
  ---------------------------------------------------
  free energy    TOTEN  =      -115.39596092 eV

  energy without entropy =     -115.31627443  energy(sigma->0) =     -115.36939875


--------------------------------------------------------------------------------------------------------




----------------------------------------- Iteration    1(  12)  ---------------------------------------


    EDDIAG:  cpu time    0.47: real time    0.47
  RMM-DIIS:  cpu time    1.38: real time    1.38
    ORTHCH:  cpu time    0.03: real time    0.03
       DOS:  cpu time    0.00: real time    0.00
    CHARGE:  cpu time    0.27: real time    0.27
    MIXING:  cpu time    0.01: real time    0.01
    --------------------------------------------
      LOOP:  cpu time    2.16: real time    2.16

 eigenvalue-minimisations  :   178
 total energy-change (2. order) :-0.2966640E-04  (-0.2016916E-04)
 number of electron   98.0000002 magnetization 
 augmentation part    -1.1635462 magnetization 

 Broyden mixing:
  rms(total) = 0.64578E+00    rms(broyden)= 0.64576E+00
  rms(prec ) = 0.13581E+01
  weight for this iteration     100.00

 Free energy of the ion-electron system (eV)
  ---------------------------------------------------
  alpha Z        PSCENC =        -8.27954604
  Ewald energy   TEWEN  =     -2349.52668146
  -1/2 Hartree   DENC   =       -37.96136166
  -exchange  EXHF       =         0.00000000
  -V(xc)+E(xc)   XCENC  =      -845.13390272
  PAW double counting   =      1149.32568210     -115.70169129
  entropy T*S    EENTRO =        -0.07968714
  eigenvalues    EBANDS =       355.75450855
  atomic energy  EATOM  =      1736.20668909
  ---------------------------------------------------
  free energy    TOTEN  =      -115.39599058 eV

  energy without entropy =     -115.31630344  energy(sigma->0) =     -115.36942820


--------------------------------------------------------------------------------------------------------




----------------------------------------- Iteration    1(  13)  ---------------------------------------


    POTLOK:  cpu time    0.25: real time    0.25
    SETDIJ:  cpu time    0.02: real time    0.02
    EDDIAG:  cpu time    0.46: real time    0.46
  RMM-DIIS:  cpu time    1.91: real time    1.91
    ORTHCH:  cpu time    0.03: real time    0.03
       DOS:  cpu time    0.00: real time    0.00
    CHARGE:  cpu time    0.26: real time    0.26
    MIXING:  cpu time    0.01: real time    0.01
    --------------------------------------------
      LOOP:  cpu time    2.94: real time    2.94

 eigenvalue-minimisations  :   288
 total energy-change (2. order) : 0.1759229E+01  (-0.4379832E+00)
 number of electron   98.0000002 magnetization 
 augmentation part    -1.1635297 magnetization 

 Broyden mixing:
  rms(total) = 0.36649E+00    rms(broyden)= 0.36649E+00
  rms(prec ) = 0.61161E+00
  weight for this iteration     100.00

 eigenvalues of (default mixing * dielectric matrix)
  average eigenvalue GAMMA=   1.7371
  1.7371

 Free energy of the ion-electron system (eV)
  ---------------------------------------------------
  alpha Z        PSCENC =        -8.27954604
  Ewald energy   TEWEN  =     -2349.52668146
  -1/2 Hartree   DENC   =       -43.94395586
  -exchange  EXHF       =         0.00000000
  -V(xc)+E(xc)   XCENC  =      -843.65838478
  PAW double counting   =      1157.03346755     -123.82581489
  entropy T*S    EENTRO =         0.02941149
  eigenvalues    EBANDS =       362.32805322
  atomic energy  EATOM  =      1736.20668909
  ---------------------------------------------------
  free energy    TOTEN  =      -113.63676169 eV

  energy without entropy =     -113.66617317  energy(sigma->0) =     -113.64656552


--------------------------------------------------------------------------------------------------------




----------------------------------------- Iteration    1(  14)  ---------------------------------------


    POTLOK:  cpu time    0.25: real time    0.25
    SETDIJ:  cpu time    0.02: real time    0.02
    EDDIAG:  cpu time    0.46: real time    0.46
  RMM-DIIS:  cpu time    1.93: real time    1.93
    ORTHCH:  cpu time    0.03: real time    0.03
       DOS:  cpu time    0.00: real time    0.00
    CHARGE:  cpu time    0.25: real time    0.25
    MIXING:  cpu time    0.01: real time    0.01
    --------------------------------------------
      LOOP:  cpu time    2.95: real time    2.95

 eigenvalue-minimisations  :   288
 total energy-change (2. order) : 0.3337101E+00  (-0.4735144E-01)
 number of electron   98.0000002 magnetization 
 augmentation part    -1.1760560 magnetization 

 Broyden mixing:
  rms(total) = 0.22267E+00    rms(broyden)= 0.22267E+00
  rms(prec ) = 0.32561E+00
  weight for this iteration     100.00

 eigenvalues of (default mixing * dielectric matrix)
  average eigenvalue GAMMA=   1.5664
  2.3200  0.8127

 Free energy of the ion-electron system (eV)
  ---------------------------------------------------
  alpha Z        PSCENC =        -8.27954604
  Ewald energy   TEWEN  =     -2349.52668146
  -1/2 Hartree   DENC   =       -44.26436107
  -exchange  EXHF       =         0.00000000
  -V(xc)+E(xc)   XCENC  =      -842.74275203
  PAW double counting   =      1161.05802067     -128.10918997
  entropy T*S    EENTRO =        -0.01057261
  eigenvalues    EBANDS =       362.36534181
  atomic energy  EATOM  =      1736.20668909
  ---------------------------------------------------
  free energy    TOTEN  =      -113.30305160 eV

  energy without entropy =     -113.29247899  energy(sigma->0) =     -113.29952740


--------------------------------------------------------------------------------------------------------




----------------------------------------- Iteration    1(  15)  ---------------------------------------


    POTLOK:  cpu time    0.25: real time    0.25
    SETDIJ:  cpu time    0.02: real time    0.02
    EDDIAG:  cpu time    0.46: real time    0.46
  RMM-DIIS:  cpu time    1.96: real time    1.96
    ORTHCH:  cpu time    0.03: real time    0.03
       DOS:  cpu time    0.00: real time    0.00
    CHARGE:  cpu time    0.26: real time    0.26
    MIXING:  cpu time    0.01: real time    0.01
    --------------------------------------------
      LOOP:  cpu time    2.99: real time    2.99

 eigenvalue-minimisations  :   290
 total energy-change (2. order) : 0.1282987E+00  (-0.1096937E-01)
 number of electron   98.0000002 magnetization 
 augmentation part    -1.1890690 magnetization 

 Broyden mixing:
  rms(total) = 0.70916E-01    rms(broyden)= 0.70916E-01
  rms(prec ) = 0.10672E+00
  weight for this iteration     100.00

 eigenvalues of (default mixing * dielectric matrix)
  average eigenvalue GAMMA=   1.5388
  2.5729  1.2378  0.8056

 Free energy of the ion-electron system (eV)
  ---------------------------------------------------
  alpha Z        PSCENC =        -8.27954604
  Ewald energy   TEWEN  =     -2349.52668146
  -1/2 Hartree   DENC   =       -45.55339038
  -exchange  EXHF       =         0.00000000
  -V(xc)+E(xc)   XCENC  =      -841.54826097
  PAW double counting   =      1165.59343928     -132.96103656
  entropy T*S    EENTRO =        -0.01269796
  eigenvalues    EBANDS =       362.90673209
  atomic energy  EATOM  =      1736.20668909
  ---------------------------------------------------
  free energy    TOTEN  =      -113.17475292 eV

  energy without entropy =     -113.16205496  energy(sigma->0) =     -113.17052027


--------------------------------------------------------------------------------------------------------




----------------------------------------- Iteration    1(  16)  ---------------------------------------


    POTLOK:  cpu time    0.25: real time    0.25
    SETDIJ:  cpu time    0.02: real time    0.02
    EDDIAG:  cpu time    0.46: real time    0.46
  RMM-DIIS:  cpu time    1.91: real time    1.92
    ORTHCH:  cpu time    0.03: real time    0.03
       DOS:  cpu time    0.00: real time    0.00
    CHARGE:  cpu time    0.25: real time    0.25
    MIXING:  cpu time    0.01: real time    0.01
    --------------------------------------------
      LOOP:  cpu time    2.93: real time    2.94

 eigenvalue-minimisations  :   289
 total energy-change (2. order) : 0.1627113E-01  (-0.1531056E-02)
 number of electron   98.0000002 magnetization 
 augmentation part    -1.1963589 magnetization 

 Broyden mixing:
  rms(total) = 0.10638E-01    rms(broyden)= 0.10638E-01
  rms(prec ) = 0.22783E-01
  weight for this iteration     100.00

 eigenvalues of (default mixing * dielectric matrix)
  average eigenvalue GAMMA=   1.5795
  2.6308  0.8290  1.1165  1.7417

 Free energy of the ion-electron system (eV)
  ---------------------------------------------------
  alpha Z        PSCENC =        -8.27954604
  Ewald energy   TEWEN  =     -2349.52668146
  -1/2 Hartree   DENC   =       -45.89872430
  -exchange  EXHF       =         0.00000000
  -V(xc)+E(xc)   XCENC  =      -840.98764289
  PAW double counting   =      1167.47782398     -134.98980733
  entropy T*S    EENTRO =        -0.00877327
  eigenvalues    EBANDS =       362.84818043
  atomic energy  EATOM  =      1736.20668909
  ---------------------------------------------------
  free energy    TOTEN  =      -113.15848179 eV

  energy without entropy =     -113.14970853  energy(sigma->0) =     -113.15555737


--------------------------------------------------------------------------------------------------------




----------------------------------------- Iteration    1(  17)  ---------------------------------------


    POTLOK:  cpu time    0.25: real time    0.25
    SETDIJ:  cpu time    0.02: real time    0.02
    EDDIAG:  cpu time    0.46: real time    0.46
  RMM-DIIS:  cpu time    1.96: real time    1.96
    ORTHCH:  cpu time    0.03: real time    0.03
       DOS:  cpu time    0.00: real time    0.00
    CHARGE:  cpu time    0.26: real time    0.26
    MIXING:  cpu time    0.01: real time    0.01
    --------------------------------------------
      LOOP:  cpu time    3.00: real time    3.00

 eigenvalue-minimisations  :   290
 total energy-change (2. order) : 0.6548826E-03  (-0.1646780E-03)
 number of electron   98.0000002 magnetization 
 augmentation part    -1.1984344 magnetization 

 Broyden mixing:
  rms(total) = 0.36537E-02    rms(broyden)= 0.36537E-02
  rms(prec ) = 0.65718E-02
  weight for this iteration     100.00

 eigenvalues of (default mixing * dielectric matrix)
  average eigenvalue GAMMA=   1.5716
  2.6350  2.0511  0.8741  0.9236  1.3742

 Free energy of the ion-electron system (eV)
  ---------------------------------------------------
  alpha Z        PSCENC =        -8.27954604
  Ewald energy   TEWEN  =     -2349.52668146
  -1/2 Hartree   DENC   =       -45.82112209
  -exchange  EXHF       =         0.00000000
  -V(xc)+E(xc)   XCENC  =      -840.93147798
  PAW double counting   =      1167.62009392     -135.14787295
  entropy T*S    EENTRO =        -0.01039773
  eigenvalues    EBANDS =       362.73248833
  atomic energy  EATOM  =      1736.20668909
  ---------------------------------------------------
  free energy    TOTEN  =      -113.15782691 eV

  energy without entropy =     -113.14742918  energy(sigma->0) =     -113.15436100


--------------------------------------------------------------------------------------------------------




----------------------------------------- Iteration    1(  18)  ---------------------------------------


    POTLOK:  cpu time    0.25: real time    0.25
    SETDIJ:  cpu time    0.02: real time    0.02
    EDDIAG:  cpu time    0.46: real time    0.46
  RMM-DIIS:  cpu time    1.34: real time    1.34
    ORTHCH:  cpu time    0.03: real time    0.03
       DOS:  cpu time    0.00: real time    0.00
    --------------------------------------------
      LOOP:  cpu time    2.10: real time    2.10

 eigenvalue-minimisations  :   193
 total energy-change (2. order) : 0.3861018E-04  (-0.1746633E-04)
 number of electron   98.0000002 magnetization 
 augmentation part    -1.1984344 magnetization 

 Free energy of the ion-electron system (eV)
  ---------------------------------------------------
  alpha Z        PSCENC =        -8.27954604
  Ewald energy   TEWEN  =     -2349.52668146
  -1/2 Hartree   DENC   =       -45.83475758
  -exchange  EXHF       =         0.00000000
  -V(xc)+E(xc)   XCENC  =      -840.91482127
  PAW double counting   =      1167.62725831     -135.16011508
  entropy T*S    EENTRO =        -0.01006716
  eigenvalues    EBANDS =       362.73425290
  atomic energy  EATOM  =      1736.20668909
  ---------------------------------------------------
  free energy    TOTEN  =      -113.15778830 eV

  energy without entropy =     -113.14772114  energy(sigma->0) =     -113.15443258


--------------------------------------------------------------------------------------------------------




 average (electrostatic) potential at core
  the test charge radii are     1.0406  1.0714
  (the norm of the test charge is              1.0000)
       1 -72.2403       2 -72.3826       3 -72.3826       4 -72.3826       5 -72.2915
       6 -72.2510       7 -72.2510       8 -72.3797       9 -72.2915      10 -72.3797
      11 -72.2510      12 -72.2510      13 -72.3758      14 -72.4548      15 -72.4094
      16 -72.4548      17 -72.2915      18 -72.2510      19 -72.3797      20 -72.2510
      21 -72.3758      22 -72.4094      23 -72.4548      24 -72.4548      25 -72.3758
      26 -72.4548      27 -72.4548      28 -72.4094      29 -72.2615      30 -71.9338
      31 -71.9338      32 -71.9338      33 -49.6049
 
 
 
 E-fermi :   8.2372     XC(G=0): -10.2326     alpha+bet :-15.2356
   add alpha+bet to get absolut eigen values

 k-point   1 :       0.2500    0.2500    0.2500
  band No.  band energies     occupation 
      1      -2.8985      2.00000
      2      -1.7915      2.00000
      3      -1.7915      2.00000
      4      -1.5294      2.00000
      5      -0.6651      2.00000
      6      -0.6651      2.00000
      7      -0.1826      2.00000
      8       0.4609      2.00000
      9       0.4609      2.00000
     10       0.6155      2.00000
     11       1.0535      2.00000
     12       1.4401      2.00000
     13       1.5111      2.00000
     14       1.5111      2.00000
     15       1.9609      2.00000
     16       1.9609      2.00000
     17       1.9733      2.00000
     18       2.9821      2.00000
     19       3.0872      2.00000
     20       3.0872      2.00000
     21       3.6377      2.00000
     22       3.7256      2.00000
     23       3.7256      2.00000
     24       3.7994      2.00000
     25       3.7994      2.00000
     26       4.2263      2.00000
     27       4.6098      2.00000
     28       4.7694      2.00000
     29       4.7694      2.00000
     30       4.9482      2.00000
     31       5.0392      2.00000
     32       5.0392      2.00000
     33       5.3463      2.00000
     34       5.4224      2.00000
     35       5.4224      2.00000
     36       6.1551      2.00000
     37       6.1551      2.00000
     38       6.6527      2.00000
     39       6.7055      2.00000
     40       6.8512      2.00000
     41       6.8512      2.00000
     42       7.2195      2.00000
     43       7.2259      2.00000
     44       7.2259      2.00000
     45       7.2882      2.00000
     46       7.9391      2.05619
     47       7.9391      2.05619
     48       8.0179      2.06488
     49       8.1055      1.88900
     50       8.3581      0.15556
     51       8.3581      0.15556
     52       8.4958     -0.06960
     53       8.4958     -0.06960
     54       8.5241     -0.06087
     55       9.2217      0.00000
     56       9.2217      0.00000
     57       9.3219      0.00000
     58       9.5600      0.00000
     59       9.6782      0.00000
     60       9.6783      0.00000
     61      10.0262      0.00000
     62      10.0651      0.00000
     63      10.0653      0.00000
     64      10.3148      0.00000
     65      10.3155      0.00000
     66      10.5593      0.00000
     67      10.5751      0.00000
     68      10.6458      0.00000
     69      10.9774      0.00000
     70      11.1691      0.00000
     71      11.2487      0.00000
     72      11.3661      0.00000

 k-point   2 :      -0.2500    0.2500    0.2500
  band No.  band energies     occupation 
      1      -2.8965      2.00000
      2      -1.7945      2.00000
      3      -1.7637      2.00000
      4      -1.5989      2.00000
      5      -0.6397      2.00000
      6      -0.5419      2.00000
      7      -0.2382      2.00000
      8       0.3811      2.00000
      9       0.4493      2.00000
     10       0.6224      2.00000
     11       0.9853      2.00000
     12       1.4598      2.00000
     13       1.5656      2.00000
     14       1.7241      2.00000
     15       1.8004      2.00000
     16       1.8447      2.00000
     17       2.0189      2.00000
     18       2.9539      2.00000
     19       3.0295      2.00000
     20       3.1355      2.00000
     21       3.7224      2.00000
     22       3.7569      2.00000
     23       3.8039      2.00000
     24       3.8730      2.00000
     25       3.8952      2.00000
     26       4.0779      2.00000
     27       4.6581      2.00000
     28       4.7649      2.00000
     29       4.8013      2.00000
     30       4.9820      2.00000
     31       4.9984      2.00000
     32       5.0752      2.00000
     33       5.1861      2.00000
     34       5.2514      2.00000
     35       5.3294      2.00000
     36       6.0920      2.00000
     37       6.1785      2.00000
     38       6.6887      2.00000
     39       6.8411      2.00000
     40       6.8991      2.00000
     41       6.9508      2.00000
     42       7.1132      2.00000
     43       7.1174      2.00000
     44       7.2254      2.00000
     45       7.2640      2.00000
     46       8.0090      2.06849
     47       8.0118      2.06755
     48       8.1639      1.57645
     49       8.1764      1.48860
     50       8.2926      0.54999
     51       8.3250      0.33007
     52       8.4594     -0.06632
     53       8.4762     -0.07063
     54       8.7210     -0.00330
     55       9.1539      0.00000
     56       9.1942      0.00000
     57       9.3145      0.00000
     58       9.4594      0.00000
     59       9.5720      0.00000
     60       9.6309      0.00000
     61       9.9785      0.00000
     62      10.0524      0.00000
     63      10.0858      0.00000
     64      10.3021      0.00000
     65      10.4085      0.00000
     66      10.5587      0.00000
     67      10.7433      0.00000
     68      10.7800      0.00000
     69      10.9315      0.00000
     70      11.2392      0.00000
     71      11.4027      0.00000
     72      11.5258      0.00000


--------------------------------------------------------------------------------------------------------


 soft charge-density along one line, spin component           1
         0         1         2         3         4         5         6         7         8         9
 total charge-density along one line
 
 pseudopotential strength for first ion, spin component:           1
  8.438  -0.007   0.000   0.000   0.000   0.000   0.000   0.000
 -0.007   0.000   0.000   0.000   0.000   0.000   0.000   0.000
  0.000   0.000   1.992   0.000   0.000  -0.028   0.000   0.000
  0.000   0.000   0.000   1.992   0.000   0.000  -0.028   0.000
  0.000   0.000   0.000   0.000   1.992   0.000   0.000  -0.028
  0.000   0.000  -0.028   0.000   0.000  -0.012   0.000   0.000
  0.000   0.000   0.000  -0.028   0.000   0.000  -0.012   0.000
  0.000   0.000   0.000   0.000  -0.028   0.000   0.000  -0.012
 total augmentation occupancy for first ion, spin component:           1
  1.375  -0.523   0.011   0.011   0.011  -0.003  -0.003  -0.003
 -0.523   0.547  -0.005  -0.005  -0.005   0.004   0.004   0.004
  0.011  -0.005   0.757   0.011   0.011  -0.190  -0.007  -0.007
  0.011  -0.005   0.011   0.757   0.011  -0.007  -0.190  -0.007
  0.011  -0.005   0.011   0.011   0.757  -0.007  -0.007  -0.190
 -0.003   0.004  -0.190  -0.007  -0.007   0.054   0.003   0.003
 -0.003   0.004  -0.007  -0.190  -0.007   0.003   0.054   0.003
 -0.003   0.004  -0.007  -0.007  -0.190   0.003   0.003   0.054


------------------------ aborting loop because EDIFF is reached ----------------------------------------




--------------------------------------------------------------------------------------------------------



  FREE ENERGIE OF THE ION-ELECTRON SYSTEM (eV)
  ---------------------------------------------------
  free  energy   TOTEN  =      -113.157788 eV

  energy  without entropy=     -113.147721  energy(sigma->0) =     -113.154433
 
    CHARGE:  cpu time    0.26: real time    0.26
    FORLOC:  cpu time    0.06: real time    0.06
    FORNL :  cpu time    0.72: real time    0.72
    STRESS:  cpu time    1.37: real time    1.38
    FORCOR:  cpu time    0.29: real time    0.29
    FORHAR:  cpu time    0.11: real time    0.11
    MIXING:  cpu time    0.01: real time    0.01

  FORCE on cell =-STRESS in cart. coord.  units (eV):
  Direction    XX          YY          ZZ          XY          YZ          ZX
  --------------------------------------------------------------------------------------
  Alpha Z    -8.27955    -8.27955    -8.27955
  Ewald    -783.17865  -783.17865  -783.17865    -5.03004    -5.03004    -5.03004
  Hartree    15.28564    15.28564    15.28564    -1.17182    -1.17182    -1.17182
  E(xc)    -285.19347  -285.19347  -285.19347     0.08872     0.08872     0.08872
  Local     -24.07768   -24.07768   -24.07768     6.10853     6.10853     6.10853
  n-local   639.57184   640.58770   640.58750    -0.35852    -2.25118    -0.35868
  augment   -32.02328   -32.02328   -32.02329     0.05799     0.05799     0.05799
  Kinetic   503.23968   509.51255   509.51247     0.64105    -2.42321     0.64119
  Fock        0.00000     0.00000     0.00000     0.00000     0.00000     0.00000
  -------------------------------------------------------------------------------------
  Total      30.20358    30.20358    30.20358    -1.31641    -1.31641    -1.31641
  in kB      91.49520    91.49520    91.49520    -3.98777    -3.98777    -3.98777
  external pressure =       91.50 kB  Pullay stress =        0.00 kB


 VOLUME and BASIS-vectors are now :
 -----------------------------------------------------------------------------
  energy-cutoff  :      300.00
  volume of cell :      528.90
      direct lattice vectors                 reciprocal lattice vectors
     8.087052000  0.000000000  0.000000000     0.123654454  0.000000000  0.000000000
     0.000000000  8.087052000  0.000000000     0.000000000  0.123654454  0.000000000
     0.000000000  0.000000000  8.087052000     0.000000000  0.000000000  0.123654454

  length of vectors
     8.087052000  8.087052000  8.087052000     0.123654454  0.123654454  0.123654454


 FORCES acting on ions
    electron-ion (+dipol)            ewald-force                    non-local-force                 convergence-correction
 -----------------------------------------------------------------------------------------------
   0.655E+01 0.655E+01 0.655E+01   -.647E+01 -.647E+01 -.647E+01   -.336E+00 -.336E+00 -.336E+00   -.184E-02 -.184E-02 -.184E-02
   0.994E+00 0.112E+02 0.994E+00   -.607E+00 -.968E+01 -.607E+00   -.628E+00 -.261E+01 -.628E+00   0.714E-03 -.392E-02 0.714E-03
   0.994E+00 0.994E+00 0.112E+02   -.607E+00 -.607E+00 -.968E+01   -.628E+00 -.628E+00 -.261E+01   0.714E-03 0.714E-03 -.392E-02
   0.112E+02 0.994E+00 0.994E+00   -.968E+01 -.607E+00 -.607E+00   -.261E+01 -.628E+00 -.628E+00   -.392E-02 0.714E-03 0.714E-03
   -.830E+01 0.118E+02 0.118E+02   0.806E+01 -.111E+02 -.111E+02   0.605E+00 -.125E+01 -.125E+01   0.230E-02 -.293E-02 -.293E-02
   -.204E+01 0.625E+01 -.149E+01   0.156E+01 -.562E+01 0.171E+01   0.584E+00 -.859E+00 -.335E+00   -.646E-03 -.208E-02 0.124E-02
   -.204E+01 -.149E+01 0.625E+01   0.156E+01 0.171E+01 -.562E+01   0.584E+00 -.335E+00 -.859E+00   -.646E-03 0.124E-02 -.208E-02
   -.981E+01 -.591E+01 -.591E+01   0.879E+01 0.525E+01 0.525E+01   0.184E+01 0.123E+01 0.123E+01   0.399E-02 0.822E-03 0.823E-03
   0.118E+02 -.830E+01 0.118E+02   -.111E+02 0.806E+01 -.111E+02   -.125E+01 0.605E+00 -.125E+01   -.293E-02 0.230E-02 -.293E-02
   -.591E+01 -.981E+01 -.591E+01   0.525E+01 0.879E+01 0.525E+01   0.123E+01 0.184E+01 0.123E+01   0.822E-03 0.399E-02 0.823E-03
   -.149E+01 -.204E+01 0.625E+01   0.171E+01 0.156E+01 -.562E+01   -.335E+00 0.584E+00 -.859E+00   0.124E-02 -.646E-03 -.208E-02
   0.625E+01 -.204E+01 -.149E+01   -.562E+01 0.156E+01 0.171E+01   -.859E+00 0.584E+00 -.335E+00   -.208E-02 -.646E-03 0.124E-02
   -.130E+02 -.130E+02 0.104E+02   0.120E+02 0.120E+02 -.951E+01   0.160E+01 0.160E+01 -.144E+01   0.271E-02 0.271E-02 -.293E-02
   0.603E+01 -.727E+01 -.340E+01   -.544E+01 0.641E+01 0.292E+01   -.831E+00 0.129E+01 0.893E+00   -.536E-03 0.220E-02 0.372E-03
   0.634E+01 0.634E+01 0.240E+02   -.563E+01 -.563E+01 -.226E+02   -.109E+01 -.109E+01 -.237E+01   -.134E-02 -.134E-02 -.956E-03
   -.727E+01 0.603E+01 -.340E+01   0.641E+01 -.544E+01 0.292E+01   0.129E+01 -.831E+00 0.893E+00   0.220E-02 -.536E-03 0.372E-03
   0.118E+02 0.118E+02 -.830E+01   -.111E+02 -.111E+02 0.806E+01   -.125E+01 -.125E+01 0.605E+00   -.293E-02 -.293E-02 0.230E-02
   -.149E+01 0.625E+01 -.204E+01   0.171E+01 -.562E+01 0.156E+01   -.335E+00 -.859E+00 0.584E+00   0.124E-02 -.208E-02 -.646E-03
   -.591E+01 -.591E+01 -.981E+01   0.525E+01 0.525E+01 0.879E+01   0.123E+01 0.123E+01 0.184E+01   0.822E-03 0.822E-03 0.399E-02
   0.625E+01 -.149E+01 -.204E+01   -.562E+01 0.171E+01 0.156E+01   -.859E+00 -.335E+00 0.584E+00   -.208E-02 0.124E-02 -.646E-03
   -.130E+02 0.104E+02 -.130E+02   0.120E+02 -.951E+01 0.120E+02   0.160E+01 -.144E+01 0.160E+01   0.271E-02 -.293E-02 0.271E-02
   0.634E+01 0.240E+02 0.634E+01   -.563E+01 -.226E+02 -.563E+01   -.109E+01 -.237E+01 -.109E+01   -.134E-02 -.954E-03 -.134E-02
   0.603E+01 -.340E+01 -.727E+01   -.544E+01 0.292E+01 0.641E+01   -.831E+00 0.893E+00 0.129E+01   -.536E-03 0.372E-03 0.220E-02
   -.727E+01 -.340E+01 0.603E+01   0.641E+01 0.292E+01 -.544E+01   0.129E+01 0.893E+00 -.831E+00   0.220E-02 0.372E-03 -.536E-03
   0.104E+02 -.130E+02 -.130E+02   -.951E+01 0.120E+02 0.120E+02   -.144E+01 0.160E+01 0.160E+01   -.293E-02 0.271E-02 0.271E-02
   -.340E+01 -.727E+01 0.603E+01   0.292E+01 0.641E+01 -.544E+01   0.893E+00 0.129E+01 -.831E+00   0.372E-03 0.220E-02 -.536E-03
   -.340E+01 0.603E+01 -.727E+01   0.292E+01 -.544E+01 0.641E+01   0.893E+00 -.831E+00 0.129E+01   0.372E-03 -.536E-03 0.220E-02
   0.240E+02 0.634E+01 0.634E+01   -.226E+02 -.563E+01 -.563E+01   -.237E+01 -.109E+01 -.109E+01   -.954E-03 -.134E-02 -.134E-02
   -.638E+01 -.638E+01 -.638E+01   0.650E+01 0.650E+01 0.650E+01   -.113E+01 -.113E+01 -.113E+01   0.204E-02 0.204E-02 0.204E-02
   0.294E+01 -.212E+02 0.294E+01   -.294E+01 0.208E+02 -.294E+01   0.822E-01 0.475E+00 0.822E-01   -.136E-03 0.246E-02 -.137E-03
   0.294E+01 0.294E+01 -.212E+02   -.294E+01 -.294E+01 0.208E+02   0.822E-01 0.822E-01 0.475E+00   -.136E-03 -.136E-03 0.247E-02
   -.212E+02 0.294E+01 0.294E+01   0.208E+02 -.294E+01 -.294E+01   0.475E+00 0.822E-01 0.822E-01   0.246E-02 -.136E-03 -.137E-03
   -.793E+01 -.793E+01 -.793E+01   0.712E+01 0.712E+01 0.712E+01   0.260E+01 0.260E+01 0.260E+01   0.291E-04 0.291E-04 0.294E-04
 -----------------------------------------------------------------------------------------------
   0.100E+01 0.100E+01 0.100E+01   -.888E-14 0.604E-13 0.577E-13   -.101E+01 -.101E+01 -.101E+01   0.199E-02 0.199E-02 0.199E-02
 
 
 POSITION                                       TOTAL-FORCE (eV/Angst)
 -----------------------------------------------------------------------------------
      0.07845      0.07845      0.07845        -0.257301     -0.257301     -0.257301
      2.02815      0.12716      2.02815        -0.240043     -1.101476     -0.240043
      2.02815      2.02815      0.12716        -0.240043     -0.240043     -1.101476
      0.12716      2.02815      2.02815        -1.101476     -0.240043     -0.240043
      3.94034      0.03770      0.03770         0.367350     -0.537999     -0.537999
      5.94980      0.22400      1.98948         0.102118     -0.229689     -0.114530
      5.94980      1.98948      0.22400         0.102118     -0.114530     -0.229689
      3.87638      1.95990      1.95990         0.821042      0.569539      0.569539
      0.03770      3.94034      0.03770        -0.537999      0.367350     -0.537999
      1.95990      3.87638      1.95990         0.569539      0.821042      0.569539
      1.98948      5.94980      0.22400        -0.114530      0.102118     -0.229689
      0.22400      5.94980      1.98948        -0.229689      0.102118     -0.114530
      3.94795      3.94795      0.04142         0.576510      0.576510     -0.569367
      6.11858      3.89819      1.91308        -0.240996      0.431841      0.412786
      6.21501      6.21501      0.38825        -0.376685     -0.376685     -0.951937
      3.89819      6.11858      1.91308         0.431841     -0.240996      0.412786
      0.03770      0.03770      3.94034        -0.537999     -0.537999      0.367350
      1.98948      0.22400      5.94980        -0.114530     -0.229689      0.102118
      1.95990      1.95990      3.87638         0.569539      0.569539      0.821042
      0.22400      1.98948      5.94980        -0.229689     -0.114530      0.102118
      3.94795      0.04142      3.94795         0.576510     -0.569367      0.576510
      6.21501      0.38825      6.21501        -0.376685     -0.951937     -0.376685
      6.11858      1.91308      3.89819        -0.240996      0.412786      0.431841
      3.89819      1.91308      6.11858         0.431841      0.412786     -0.240996
      0.04142      3.94795      3.94795        -0.569367      0.576510      0.576510
      1.91308      3.89819      6.11858         0.412786      0.431841     -0.240996
      1.91308      6.11858      3.89819         0.412786     -0.240996      0.431841
      0.38825      6.21501      6.21501        -0.951937     -0.376685     -0.376685
      3.95631      3.95631      3.95631        -1.006305     -1.006305     -1.006305
      6.18324      3.23844      6.18324         0.084588      0.031149      0.084588
      6.18324      6.18324      3.23844         0.084588      0.084588      0.031149
      3.23844      6.18324      6.18324         0.031149      0.084588      0.084588
      5.33745      5.33745      5.33745         1.791963      1.791963      1.791963
 -----------------------------------------------------------------------------------
    total drift:                               -0.000090     -0.000090     -0.000088


--------------------------------------------------------------------------------------------------------


    POTLOK:  cpu time    0.27: real time    0.27


--------------------------------------------------------------------------------------------------------


  FORCES: max atom, RMS     3.103771    0.992327
  FORCE total and by dimension    5.700486    1.791963


--------------------------------------------------------------------------------------------------------


    WAVPRE:  cpu time    0.09: real time    0.09
    FEWALD:  cpu time    0.01: real time    0.01
    ORTHCH:  cpu time    0.15: real time    0.15
     LOOP+:  cpu time   42.78: real time   42.81
   RESPFUN:  cpu time    0.00: real time    0.00


----------------------------------------- Iteration    2(   1)  ---------------------------------------


    POTLOK:  cpu time    0.25: real time    0.25
    SETDIJ:  cpu time    0.02: real time    0.02
    EDDIAG:  cpu time    0.46: real time    0.46
  RMM-DIIS:  cpu time    1.98: real time    1.98
    ORTHCH:  cpu time    0.03: real time    0.03
       DOS:  cpu time    0.00: real time    0.00
    CHARGE:  cpu time    0.27: real time    0.27
    MIXING:  cpu time    0.01: real time    0.01
    --------------------------------------------
      LOOP:  cpu time    3.02: real time    3.02

 eigenvalue-minimisations  :   288
 total energy-change (2. order) :-0.1304964E+01  (-0.8972531E+00)
 number of electron   98.0000002 magnetization 
 augmentation part    -1.1970538 magnetization 

 Broyden mixing:
  rms(total) = 0.88166E-01    rms(broyden)= 0.88155E-01
  rms(prec ) = 0.26465E+00
  weight for this iteration     100.00

 Free energy of the ion-electron system (eV)
  ---------------------------------------------------
  alpha Z        PSCENC =        -8.27954604
  Ewald energy   TEWEN  =     -2362.59667611
  -1/2 Hartree   DENC   =       -36.51034299
  -exchange  EXHF       =         0.00000000
  -V(xc)+E(xc)   XCENC  =      -841.05822676
  PAW double counting   =      1167.61510916     -135.14947078
  entropy T*S    EENTRO =         0.00094068
  eigenvalues    EBANDS =       365.30873265
  atomic energy  EATOM  =      1736.20668909
  ---------------------------------------------------
  free energy    TOTEN  =      -114.46279111 eV

  energy without entropy =     -114.46373179  energy(sigma->0) =     -114.46310467


--------------------------------------------------------------------------------------------------------




----------------------------------------- Iteration    2(   2)  ---------------------------------------


    POTLOK:  cpu time    0.25: real time    0.25
    SETDIJ:  cpu time    0.02: real time    0.02
    EDDIAG:  cpu time    0.47: real time    0.47
  RMM-DIIS:  cpu time    1.96: real time    1.96
    ORTHCH:  cpu time    0.03: real time    0.03
       DOS:  cpu time    0.00: real time    0.00
    CHARGE:  cpu time    0.27: real time    0.27
    MIXING:  cpu time    0.01: real time    0.01
    --------------------------------------------
      LOOP:  cpu time    3.00: real time    3.01

 eigenvalue-minimisations  :   288
 total energy-change (2. order) : 0.7937520E-01  (-0.2240394E-01)
 number of electron   98.0000002 magnetization 
 augmentation part    -1.1967615 magnetization 

 Broyden mixing:
  rms(total) = 0.34188E-01    rms(broyden)= 0.34187E-01
  rms(prec ) = 0.72329E-01
  weight for this iteration     100.00

 eigenvalues of (default mixing * dielectric matrix)
  average eigenvalue GAMMA=   1.2245
  1.2245

 Free energy of the ion-electron system (eV)
  ---------------------------------------------------
  alpha Z        PSCENC =        -8.27954604
  Ewald energy   TEWEN  =     -2362.59667611
  -1/2 Hartree   DENC   =       -35.84319806
  -exchange  EXHF       =         0.00000000
  -V(xc)+E(xc)   XCENC  =      -841.09451874
  PAW double counting   =      1166.96562930     -134.46546930
  entropy T*S    EENTRO =        -0.00741519
  eigenvalues    EBANDS =       364.73108914
  atomic energy  EATOM  =      1736.20668909
  ---------------------------------------------------
  free energy    TOTEN  =      -114.38341591 eV

  energy without entropy =     -114.37600072  energy(sigma->0) =     -114.38094418


--------------------------------------------------------------------------------------------------------




----------------------------------------- Iteration    2(   3)  ---------------------------------------


    POTLOK:  cpu time    0.25: real time    0.25
    SETDIJ:  cpu time    0.02: real time    0.02
    EDDIAG:  cpu time    0.47: real time    0.47
  RMM-DIIS:  cpu time    1.97: real time    1.97
    ORTHCH:  cpu time    0.03: real time    0.03
       DOS:  cpu time    0.00: real time    0.00
    CHARGE:  cpu time    0.25: real time    0.25
    MIXING:  cpu time    0.01: real time    0.01
    --------------------------------------------
      LOOP:  cpu time    3.00: real time    3.00

 eigenvalue-minimisations  :   289
 total energy-change (2. order) : 0.6115179E-02  (-0.1686545E-02)
 number of electron   98.0000002 magnetization 
 augmentation part    -1.1960798 magnetization 

 Broyden mixing:
  rms(total) = 0.17223E-01    rms(broyden)= 0.17223E-01
  rms(prec ) = 0.28731E-01
  weight for this iteration     100.00

 eigenvalues of (default mixing * dielectric matrix)
  average eigenvalue GAMMA=   1.3367
  1.7823  0.8910

 Free energy of the ion-electron system (eV)
  ---------------------------------------------------
  alpha Z        PSCENC =        -8.27954604
  Ewald energy   TEWEN  =     -2362.59667611
  -1/2 Hartree   DENC   =       -35.85421749
  -exchange  EXHF       =         0.00000000
  -V(xc)+E(xc)   XCENC  =      -841.10974240
  PAW double counting   =      1166.58723847     -134.06621489
  entropy T*S    EENTRO =        -0.00262921
  eigenvalues    EBANDS =       364.73779786
  atomic energy  EATOM  =      1736.20668909
  ---------------------------------------------------
  free energy    TOTEN  =      -114.37730073 eV

  energy without entropy =     -114.37467152  energy(sigma->0) =     -114.37642433


--------------------------------------------------------------------------------------------------------




----------------------------------------- Iteration    2(   4)  ---------------------------------------


    POTLOK:  cpu time    0.25: real time    0.25
    SETDIJ:  cpu time    0.02: real time    0.02
    EDDIAG:  cpu time    0.46: real time    0.46
  RMM-DIIS:  cpu time    1.95: real time    1.95
    ORTHCH:  cpu time    0.03: real time    0.03
       DOS:  cpu time    0.00: real time    0.00
[...]
  free energy    TOTEN  =      -116.18813232 eV

  energy without entropy =     -116.18804526  energy(sigma->0) =     -116.18810330


--------------------------------------------------------------------------------------------------------




 average (electrostatic) potential at core
  the test charge radii are     1.0406  1.0714
  (the norm of the test charge is              1.0000)
       1 -72.3217       2 -72.4109       3 -72.4109       4 -72.4109       5 -72.3354
       6 -72.3003       7 -72.3003       8 -72.3898       9 -72.3354      10 -72.3898
      11 -72.3003      12 -72.3003      13 -72.3600      14 -72.3735      15 -72.2546
      16 -72.3735      17 -72.3354      18 -72.3003      19 -72.3898      20 -72.3003
      21 -72.3600      22 -72.2546      23 -72.3735      24 -72.3735      25 -72.3600
      26 -72.3735      27 -72.3735      28 -72.2546      29 -72.3907      30 -71.9785
      31 -71.9785      32 -71.9785      33 -49.6471
 
 
 
 E-fermi :   8.2804     XC(G=0): -10.2566     alpha+bet :-15.2356
   add alpha+bet to get absolut eigen values

 k-point   1 :       0.2500    0.2500    0.2500
  band No.  band energies     occupation 
      1      -2.6656      2.00000
      2      -1.6607      2.00000
      3      -1.6607      2.00000
      4      -1.3151      2.00000
      5      -0.5603      2.00000
      6      -0.5603      2.00000
      7      -0.1141      2.00000
      8       0.6168      2.00000
      9       0.6168      2.00000
     10       0.6904      2.00000
     11       0.9653      2.00000
     12       1.6189      2.00000
     13       1.6189      2.00000
     14       1.6575      2.00000
     15       1.9679      2.00000
     16       1.9679      2.00000
     17       2.1345      2.00000
     18       2.8337      2.00000
     19       2.9556      2.00000
     20       2.9556      2.00000
     21       3.8545      2.00000
     22       3.8545      2.00000
     23       3.8979      2.00000
     24       4.0431      2.00000
     25       4.0431      2.00000
     26       4.2531      2.00000
     27       4.7772      2.00000
     28       4.7772      2.00000
     29       4.8164      2.00000
     30       5.0368      2.00000
     31       5.1092      2.00000
     32       5.1092      2.00000
     33       5.2219      2.00000
     34       5.2219      2.00000
     35       5.2971      2.00000
     36       5.9837      2.00000
     37       5.9837      2.00000
     38       6.4199      2.00000
     39       6.9760      2.00000
     40       7.0048      2.00000
     41       7.0048      2.00000
     42       7.2111      2.00000
     43       7.2956      2.00000
     44       7.2956      2.00000
     45       7.4449      2.00000
     46       7.9675      2.04944
     47       7.9675      2.04944
     48       8.0503      2.06902
     49       8.2796      1.00667
     50       8.3592      0.38649
     51       8.3592      0.38649
     52       8.5224     -0.07085
     53       8.5224     -0.07085
     54       8.5485     -0.06738
     55       9.2252      0.00000
     56       9.2252      0.00000
     57       9.4651      0.00000
     58       9.6360      0.00000
     59       9.6360      0.00000
     60       9.7289      0.00000
     61      10.1401      0.00000
     62      10.1401      0.00000
     63      10.2236      0.00000
     64      10.3393      0.00000
     65      10.3393      0.00000
     66      10.4733      0.00000
     67      10.4733      0.00000
     68      10.5799      0.00000
     69      10.9729      0.00000
     70      11.1508      0.00000
     71      11.1508      0.00000
     72      11.4652      0.00000

 k-point   2 :      -0.2500    0.2500    0.2500
  band No.  band energies     occupation 
      1      -2.6655      2.00000
      2      -1.6607      2.00000
      3      -1.6602      2.00000
      4      -1.3174      2.00000
      5      -0.5598      2.00000
      6      -0.5572      2.00000
      7      -0.1142      2.00000
      8       0.6110      2.00000
      9       0.6155      2.00000
     10       0.7061      2.00000
     11       0.9530      2.00000
     12       1.6020      2.00000
     13       1.6146      2.00000
     14       1.6795      2.00000
     15       1.9519      2.00000
     16       1.9636      2.00000
     17       2.1556      2.00000
     18       2.8307      2.00000
     19       2.9578      2.00000
     20       2.9623      2.00000
     21       3.8513      2.00000
     22       3.8625      2.00000
     23       3.9044      2.00000
     24       4.0300      2.00000
     25       4.0423      2.00000
     26       4.2512      2.00000
     27       4.7579      2.00000
     28       4.7758      2.00000
     29       4.8294      2.00000
     30       5.0312      2.00000
     31       5.0987      2.00000
     32       5.1176      2.00000
     33       5.1922      2.00000
     34       5.2231      2.00000
     35       5.3428      2.00000
     36       5.9897      2.00000
     37       5.9915      2.00000
     38       6.4242      2.00000
     39       6.9605      2.00000
     40       6.9917      2.00000
     41       7.0188      2.00000
     42       7.2094      2.00000
     43       7.2760      2.00000
     44       7.2823      2.00000
     45       7.4467      2.00000
     46       7.9621      2.04696
     47       7.9733      2.05211
     48       8.0696      2.05967
     49       8.2527      1.23158
     50       8.3440      0.49036
     51       8.3628      0.36354
     52       8.4870     -0.05645
     53       8.5201     -0.07070
     54       8.6377     -0.02990
     55       9.2155      0.00000
     56       9.2283      0.00000
     57       9.4498      0.00000
     58       9.6238      0.00000
     59       9.6622      0.00000
     60       9.7488      0.00000
     61      10.1303      0.00000
     62      10.1351      0.00000
     63      10.2081      0.00000
     64      10.3635      0.00000
     65      10.3766      0.00000
     66      10.4661      0.00000
     67      10.4843      0.00000
     68      10.5939      0.00000
     69      10.9691      0.00000
     70      11.1280      0.00000
     71      11.1589      0.00000
     72      11.5078      0.00000


--------------------------------------------------------------------------------------------------------


 soft charge-density along one line, spin component           1
         0         1         2         3         4         5         6         7         8         9
 total charge-density along one line
 
 pseudopotential strength for first ion, spin component:           1
  8.436  -0.006   0.000   0.000   0.000   0.000   0.000   0.000
 -0.006   0.000   0.000   0.000   0.000   0.000   0.000   0.000
  0.000   0.000   1.990   0.000   0.000  -0.028   0.000   0.000
  0.000   0.000   0.000   1.990   0.000   0.000  -0.028   0.000
  0.000   0.000   0.000   0.000   1.990   0.000   0.000  -0.028
  0.000   0.000  -0.028   0.000   0.000  -0.012   0.000   0.000
  0.000   0.000   0.000  -0.028   0.000   0.000  -0.012   0.000
  0.000   0.000   0.000   0.000  -0.028   0.000   0.000  -0.012
 total augmentation occupancy for first ion, spin component:           1
  1.344  -0.493  -0.008  -0.008  -0.008   0.001   0.001   0.001
 -0.493   0.498  -0.012  -0.012  -0.012   0.003   0.003   0.003
 -0.008  -0.012   0.738  -0.023  -0.023  -0.180   0.004   0.004
 -0.008  -0.012  -0.023   0.738  -0.023   0.004  -0.180   0.004
 -0.008  -0.012  -0.023  -0.023   0.738   0.004   0.004  -0.180
  0.001   0.003  -0.180   0.004   0.004   0.050  -0.001  -0.001
  0.001   0.003   0.004  -0.180   0.004  -0.001   0.050  -0.001
  0.001   0.003   0.004   0.004  -0.180  -0.001  -0.001   0.050


------------------------ aborting loop because EDIFF is reached ----------------------------------------




--------------------------------------------------------------------------------------------------------



  FREE ENERGIE OF THE ION-ELECTRON SYSTEM (eV)
  ---------------------------------------------------
  free  energy   TOTEN  =      -116.188132 eV

  energy  without entropy=     -116.188045  energy(sigma->0) =     -116.188103
 
    CHARGE:  cpu time    0.25: real time    0.25
    FORLOC:  cpu time    0.06: real time    0.06
    FORNL :  cpu time    0.72: real time    0.72
    STRESS:  cpu time    1.38: real time    1.38
    FORCOR:  cpu time    0.29: real time    0.29
    FORHAR:  cpu time    0.11: real time    0.11
    MIXING:  cpu time    0.01: real time    0.01

  FORCE on cell =-STRESS in cart. coord.  units (eV):
  Direction    XX          YY          ZZ          XY          YZ          ZX
  --------------------------------------------------------------------------------------
  Alpha Z    -8.27955    -8.27955    -8.27955
  Ewald    -796.35122  -796.35122  -796.35122     0.22495     0.22495     0.22495
  Hartree     4.87986     4.87986     4.87986    -0.07528    -0.07528    -0.07528
  E(xc)    -283.41908  -283.41908  -283.41908    -0.02889    -0.02889    -0.02889
  Local       3.24379     3.24379     3.24379    -0.35739    -0.35739    -0.35739
  n-local   629.79878   629.97288   629.97281     0.82032    -0.70369     0.82036
  augment   -31.73918   -31.73918   -31.73919    -0.01834    -0.01833    -0.01832
  Kinetic   502.38845   501.78702   501.78702     4.25450    -8.34255     4.25454
  Fock        0.00000     0.00000     0.00000     0.00000     0.00000     0.00000
  -------------------------------------------------------------------------------------
  Total      20.23695    20.23695    20.23695     0.11289     0.11289     0.11289
  in kB      61.30344    61.30344    61.30344     0.34197     0.34197     0.34197
  external pressure =       61.30 kB  Pullay stress =        0.00 kB


 VOLUME and BASIS-vectors are now :
 -----------------------------------------------------------------------------
  energy-cutoff  :      300.00
  volume of cell :      528.90
      direct lattice vectors                 reciprocal lattice vectors
     8.087052000  0.000000000  0.000000000     0.123654454  0.000000000  0.000000000
     0.000000000  8.087052000  0.000000000     0.000000000  0.123654454  0.000000000
     0.000000000  0.000000000  8.087052000     0.000000000  0.000000000  0.123654454

  length of vectors
     8.087052000  8.087052000  8.087052000     0.123654454  0.123654454  0.123654454


 FORCES acting on ions
    electron-ion (+dipol)            ewald-force                    non-local-force                 convergence-correction
 -----------------------------------------------------------------------------------------------
   0.163E+01 0.163E+01 0.163E+01   -.173E+01 -.173E+01 -.173E+01   0.479E-01 0.479E-01 0.479E-01   -.983E-03 -.983E-03 -.984E-03
   -.485E+00 -.269E+01 -.485E+00   0.550E+00 0.265E+01 0.550E+00   -.940E-01 0.286E-01 -.940E-01   -.900E-03 -.830E-03 -.900E-03
   -.485E+00 -.485E+00 -.269E+01   0.550E+00 0.550E+00 0.265E+01   -.940E-01 -.940E-01 0.286E-01   -.900E-03 -.900E-03 -.830E-03
   -.269E+01 -.485E+00 -.485E+00   0.265E+01 0.550E+00 0.550E+00   0.286E-01 -.940E-01 -.940E-01   -.830E-03 -.900E-03 -.900E-03
   -.234E+01 0.245E+01 0.245E+01   0.237E+01 -.235E+01 -.235E+01   0.361E-01 -.161E+00 -.161E+00   0.721E-03 -.588E-03 -.588E-03
   0.735E-01 0.135E+01 0.834E-01   -.186E+00 -.794E+00 0.120E-01   0.160E+00 -.603E+00 -.141E+00   0.902E-03 -.107E-02 -.123E-02
   0.735E-01 0.834E-01 0.135E+01   -.186E+00 0.120E-01 -.794E+00   0.160E+00 -.141E+00 -.603E+00   0.902E-03 -.123E-02 -.107E-02
   0.232E+01 -.529E+00 -.529E+00   -.256E+01 0.576E+00 0.576E+00   0.179E+00 -.390E-01 -.390E-01   0.662E-03 0.308E-03 0.308E-03
   0.245E+01 -.234E+01 0.245E+01   -.235E+01 0.237E+01 -.235E+01   -.161E+00 0.361E-01 -.161E+00   -.588E-03 0.721E-03 -.588E-03
   -.529E+00 0.232E+01 -.529E+00   0.576E+00 -.256E+01 0.576E+00   -.390E-01 0.179E+00 -.390E-01   0.308E-03 0.662E-03 0.308E-03
   0.834E-01 0.735E-01 0.135E+01   0.120E-01 -.186E+00 -.794E+00   -.141E+00 0.160E+00 -.603E+00   -.123E-02 0.902E-03 -.107E-02
   0.135E+01 0.735E-01 0.834E-01   -.794E+00 -.186E+00 0.120E-01   -.603E+00 0.160E+00 -.141E+00   -.107E-02 0.902E-03 -.123E-02
   -.184E+01 -.184E+01 0.183E+01   0.197E+01 0.197E+01 -.181E+01   -.166E+00 -.166E+00 0.156E-01   0.882E-03 0.882E-03 -.720E-03
   0.157E+00 -.758E+00 -.419E+00   -.247E+00 0.258E+00 0.327E+00   0.138E+00 0.546E+00 0.126E+00   -.290E-03 0.935E-03 0.134E-03
   0.786E+00 0.786E+00 0.136E+02   -.733E+00 -.733E+00 -.132E+02   -.524E-01 -.524E-01 -.189E+00   0.122E-02 0.122E-02 -.987E-03
   -.758E+00 0.157E+00 -.419E+00   0.258E+00 -.247E+00 0.327E+00   0.546E+00 0.138E+00 0.126E+00   0.935E-03 -.290E-03 0.134E-03
   0.245E+01 0.245E+01 -.234E+01   -.235E+01 -.235E+01 0.237E+01   -.161E+00 -.161E+00 0.361E-01   -.588E-03 -.588E-03 0.721E-03
   0.834E-01 0.135E+01 0.735E-01   0.120E-01 -.794E+00 -.186E+00   -.141E+00 -.603E+00 0.160E+00   -.123E-02 -.107E-02 0.902E-03
   -.529E+00 -.529E+00 0.232E+01   0.576E+00 0.576E+00 -.256E+01   -.390E-01 -.390E-01 0.179E+00   0.308E-03 0.308E-03 0.662E-03
   0.135E+01 0.834E-01 0.735E-01   -.794E+00 0.120E-01 -.186E+00   -.603E+00 -.141E+00 0.160E+00   -.107E-02 -.123E-02 0.902E-03
   -.184E+01 0.183E+01 -.184E+01   0.197E+01 -.181E+01 0.197E+01   -.166E+00 0.156E-01 -.166E+00   0.882E-03 -.720E-03 0.883E-03
   0.786E+00 0.136E+02 0.786E+00   -.733E+00 -.132E+02 -.733E+00   -.524E-01 -.189E+00 -.524E-01   0.122E-02 -.986E-03 0.122E-02
   0.157E+00 -.419E+00 -.758E+00   -.247E+00 0.327E+00 0.258E+00   0.138E+00 0.126E+00 0.546E+00   -.290E-03 0.134E-03 0.936E-03
   -.758E+00 -.419E+00 0.157E+00   0.258E+00 0.327E+00 -.247E+00   0.546E+00 0.126E+00 0.138E+00   0.936E-03 0.133E-03 -.290E-03
   0.183E+01 -.184E+01 -.184E+01   -.181E+01 0.197E+01 0.197E+01   0.156E-01 -.166E+00 -.166E+00   -.720E-03 0.882E-03 0.883E-03
   -.419E+00 -.758E+00 0.157E+00   0.327E+00 0.258E+00 -.247E+00   0.126E+00 0.546E+00 0.138E+00   0.133E-03 0.936E-03 -.290E-03
   -.419E+00 0.157E+00 -.758E+00   0.327E+00 -.247E+00 0.258E+00   0.126E+00 0.138E+00 0.546E+00   0.134E-03 -.290E-03 0.936E-03
   0.136E+02 0.786E+00 0.786E+00   -.132E+02 -.733E+00 -.733E+00   -.189E+00 -.524E-01 -.524E-01   -.986E-03 0.122E-02 0.122E-02
   -.229E+01 -.229E+01 -.229E+01   0.223E+01 0.223E+01 0.223E+01   0.124E-01 0.124E-01 0.124E-01   0.697E-03 0.697E-03 0.697E-03
   0.478E+00 -.141E+02 0.478E+00   -.432E+00 0.135E+02 -.432E+00   -.879E-01 0.627E+00 -.879E-01   0.190E-03 0.394E-04 0.190E-03
   0.478E+00 0.478E+00 -.141E+02   -.432E+00 -.432E+00 0.135E+02   -.879E-01 -.879E-01 0.627E+00   0.190E-03 0.190E-03 0.402E-04
   -.141E+02 0.478E+00 0.478E+00   0.135E+02 -.432E+00 -.432E+00   0.627E+00 -.879E-01 -.879E-01   0.394E-04 0.190E-03 0.190E-03
   -.701E+00 -.701E+00 -.701E+00   0.672E+00 0.672E+00 0.672E+00   -.133E-01 -.133E-01 -.133E-01   0.158E-03 0.158E-03 0.158E-03
 -----------------------------------------------------------------------------------------------
   0.521E-02 0.521E-02 0.521E-02   -.711E-14 -.544E-14 -.666E-15   -.496E-02 -.496E-02 -.496E-02   -.255E-03 -.255E-03 -.255E-03
 
 
 POSITION                                       TOTAL-FORCE (eV/Angst)
 -----------------------------------------------------------------------------------
      0.02379      0.02379      0.02379        -0.056249     -0.056249     -0.056249
      2.03396     -0.00947      2.03396        -0.029673     -0.008708     -0.029673
      2.03396      2.03396     -0.00947        -0.029673     -0.029673     -0.008708
     -0.00947      2.03396      2.03396        -0.008708     -0.029673     -0.029673
      3.99218     -0.05152     -0.05152         0.067533     -0.053720     -0.053720
      5.99704      0.13580      1.96866         0.048531     -0.053586     -0.046883
      5.99704      1.96866      0.13580         0.048531     -0.046883     -0.053586
      3.96795      2.01363      2.01363        -0.066890      0.007742      0.007742
     -0.05152      3.99218     -0.05152        -0.053720      0.067533     -0.053720
      2.01363      3.96795      2.01363         0.007742     -0.066890      0.007742
      1.96866      5.99704      0.13580        -0.046883      0.048531     -0.053586
      0.13580      5.99704      1.96866        -0.053586      0.048531     -0.046883
      4.09049      4.09049     -0.16604        -0.026309     -0.026309      0.041350
      5.99357      3.90165      1.94279         0.048753      0.046097      0.034147
      6.11016      6.11016      0.36517         0.002156      0.002156      0.206893
      3.90165      5.99357      1.94279         0.046097      0.048753      0.034147
     -0.05152     -0.05152      3.99218        -0.053720     -0.053720      0.067533
      1.96866      0.13580      5.99704        -0.046883     -0.053586      0.048531
      2.01363      2.01363      3.96795         0.007742      0.007742     -0.066890
      0.13580      1.96866      5.99704        -0.053586     -0.046883      0.048531
      4.09049     -0.16604      4.09049        -0.026309      0.041350     -0.026309
      6.11016      0.36517      6.11016         0.002156      0.206893      0.002156
      5.99357      1.94279      3.90165         0.048753      0.034147      0.046097
      3.90165      1.94279      5.99357         0.046097      0.034147      0.048753
     -0.16604      4.09049      4.09049         0.041350     -0.026309     -0.026309
      1.94279      3.90165      5.99357         0.034147      0.046097      0.048753
      1.94279      5.99357      3.90165         0.034147      0.048753      0.046097
      0.36517      6.11016      6.11016         0.206893      0.002156      0.002156
      4.10244      4.10244      4.10244        -0.048950     -0.048950     -0.048950
      6.08238      3.34219      6.08238        -0.041833      0.036617     -0.041833
      6.08238      6.08238      3.34219        -0.041833     -0.041833      0.036617
      3.34219      6.08238      6.08238         0.036617     -0.041833     -0.041833
      5.85894      5.85894      5.85894        -0.042440     -0.042440     -0.042440
 -----------------------------------------------------------------------------------
    total drift:                               -0.000003     -0.000003     -0.000005
 d Force = 0.9940849E-02[ 0.189E-03, 0.197E-01]  d Energy = 0.9961881E-02-0.210E-04
 d Force = 0.2945645E+00[ 0.245E+00, 0.344E+00]  d Ewald  = 0.2945458E+00 0.187E-04


--------------------------------------------------------------------------------------------------------


    POTLOK:  cpu time    0.27: real time    0.27


--------------------------------------------------------------------------------------------------------


  FORCES: max atom, RMS     0.206916    0.095850
  FORCE total and by dimension    0.550614    0.206893


--------------------------------------------------------------------------------------------------------


  
 reached required accuracy - stopping structural energy minimisation
     LOOP+:  cpu time   13.88: real time   13.89
    4ORBIT:  cpu time    0.00: real time    0.00

 total amount of memory used by VASP on root node  64238. kBytes
========================================================================

   base      :    30000. kBytes
   nonl-proj :     4892. kBytes
   fftplans  :     4240. kBytes
   grid      :    23132. kBytes
   one-center:      101. kBytes
   wavefun   :     1873. kBytes
 
  
  
 General timing and accounting informations for this job:
 ========================================================
  
                  Total CPU time used (sec):      222.745
                            User time (sec):      222.569
                          System time (sec):        0.176
                         Elapsed time (sec):      223.023
  
                   Maximum memory used (kb):           0.
                   Average memory used (kb):           0.
  
                          Minor page faults:        21267
                          Major page faults:           27
                 Voluntary context switches:         2805
