 107 107   0   0
  0.1212439E+02  0.1090639E-08  0.1090639E-08  0.1090639E-08  0.5000000E-15
  1.000000000000000E-004
  CAR 
 unknown system                          
     26.94985416     -7.55563419  301      3.68625051      1.00000000
     -7.556  0.0000E+00  0.0000E+00  0.0000E+00  0.0000E+00
     -7.441  0.0000E+00  0.0000E+00  0.0000E+00  0.0000E+00
     -7.326  0.0000E+00  0.0000E+00  0.0000E+00  0.0000E+00
     -7.211  0.0000E+00  0.0000E+00  0.0000E+00  0.0000E+00
     -7.096  0.0000E+00  0.0000E+00  0.0000E+00  0.0000E+00
     -6.981  0.0000E+00  0.0000E+00  0.0000E+00  0.0000E+00
     -6.866  0.0000E+00  0.0000E+00  0.0000E+00  0.0000E+00
     -6.751  0.0000E+00  0.0000E+00  0.0000E+00  0.0000E+00
     -6.635  0.0000E+00  0.0000E+00  0.0000E+00  0.0000E+00
     -6.520  0.0000E+00  0.0000E+00  0.0000E+00  0.0000E+00
     -6.405  0.0000E+00  0.0000E+00  0.0000E+00  0.0000E+00
     -6.290  0.0000E+00  0.0000E+00  0.0000E+00  0.0000E+00
     -6.175  0.0000E+00  0.0000E+00  0.0000E+00  0.0000E+00
     -6.060  0.0000E+00  0.0000E+00  0.0000E+00  0.0000E+00
     -5.945  0.0000E+00  0.0000E+00  0.0000E+00  0.0000E+00
     -5.830  0.0000E+00  0.0000E+00  0.0000E+00  0.0000E+00
     -5.715  0.0000E+00  0.0000E+00  0.0000E+00  0.0000E+00
     -5.600  0.0000E+00  0.0000E+00  0.0000E+00  0.0000E+00
     -5.485  0.1327E+01  0.1322E+01  0.8303E-01  0.8248E-01
     -5.370  0.3305E+01  0.3303E+01  0.3893E+00  0.3879E+00
     -5.255  0.2461E+01  0.2469E+01  0.8099E+00  0.8088E+00
     -5.140  0.8374E+01  0.7456E+01  0.9992E+00  0.9957E+00
     -5.025  0.4343E+01  0.4330E+01  0.1151E+01  0.1150E+01
     -4.910  0.3444E+01  0.3455E+01  0.1745E+01  0.1744E+01
     -4.795  0.3104E+01  0.3103E+01  0.2064E+01  0.2063E+01
     -4.680  0.2345E+01  0.2345E+01  0.2441E+01  0.2440E+01
     -4.565  0.4999E+01  0.4987E+01  0.2854E+01  0.2852E+01
     -4.450  0.4578E+01  0.4578E+01  0.3600E+01  0.3599E+01
     -4.335  0.2422E+01  0.2425E+01  0.4147E+01  0.4146E+01
     -4.220  0.5009E+01  0.5002E+01  0.4563E+01  0.4561E+01
     -4.105  0.3904E+01  0.3914E+01  0.5193E+01  0.5191E+01
     -3.990  0.8795E+01  0.8922E+01  0.6001E+01  0.5998E+01
     -3.875  0.6150E+01  0.6097E+01  0.6484E+01  0.6481E+01
     -3.760  0.1247E+01  0.1245E+01  0.7219E+01  0.7218E+01
     -3.645  0.0000E+00  0.0000E+00  0.8000E+01  0.8000E+01
     -3.530  0.4696E+01  0.4730E+01  0.8786E+01  0.8784E+01
     -3.415  0.1208E+02  0.1217E+02  0.9522E+01  0.9517E+01
     -3.300  0.5595E+01  0.5600E+01  0.1028E+02  0.1028E+02
     -3.185  0.8040E+01  0.8026E+01  0.1093E+02  0.1093E+02
     -3.070  0.8056E+01  0.8116E+01  0.1226E+02  0.1225E+02
     -2.955  0.1009E+02  0.1013E+02  0.1345E+02  0.1345E+02
     -2.840  0.7142E+01  0.7145E+01  0.1443E+02  0.1443E+02
     -2.725  0.1670E+02  0.1704E+02  0.1566E+02  0.1566E+02
     -2.610  0.3517E+01  0.3541E+01  0.1640E+02  0.1640E+02
     -2.495  0.6795E+01  0.6779E+01  0.1695E+02  0.1694E+02
     -2.380  0.1682E+02  0.1680E+02  0.1868E+02  0.1868E+02
     -2.265  0.9688E+01  0.9693E+01  0.2055E+02  0.2055E+02
     -2.150  0.1824E+02  0.1858E+02  0.2177E+02  0.2177E+02
     -2.035  0.1062E+02  0.1058E+02  0.2283E+02  0.2282E+02
     -1.920  0.1899E+02  0.1903E+02  0.2458E+02  0.2457E+02
     -1.805  0.2275E+02  0.2517E+02  0.2640E+02  0.2639E+02
     -1.690  0.2366E+02  0.2368E+02  0.2878E+02  0.2877E+02
     -1.575  0.1122E+02  0.1136E+02  0.3087E+02  0.3087E+02
     -1.460  0.1380E+02  0.1376E+02  0.3261E+02  0.3261E+02
     -1.345  0.2326E+02  0.2330E+02  0.3641E+02  0.3640E+02
     -1.230  0.3361E+02  0.3366E+02  0.4107E+02  0.4107E+02
     -1.115  0.7883E+02  0.8242E+02  0.4620E+02  0.4619E+02
     -1.000  0.5993E+02  0.5919E+02  0.5363E+02  0.5362E+02
     -0.885  0.8078E+02  0.8082E+02  0.6085E+02  0.6084E+02
     -0.770  0.7271E+02  0.7242E+02  0.6822E+02  0.6821E+02
     -0.655  0.9555E+02  0.9554E+02  0.7731E+02  0.7731E+02
     -0.540  0.7342E+02  0.7368E+02  0.8843E+02  0.8843E+02
     -0.424  0.9831E+02  0.9883E+02  0.1016E+03  0.1016E+03
     -0.309  0.1426E+03  0.1420E+03  0.1171E+03  0.1171E+03
     -0.194  0.1800E+03  0.1824E+03  0.1306E+03  0.1306E+03
     -0.079  0.1380E+03  0.1373E+03  0.1437E+03  0.1437E+03
      0.036  0.1679E+03  0.1680E+03  0.1580E+03  0.1580E+03
      0.151  0.1222E+03  0.1221E+03  0.1717E+03  0.1717E+03
      0.266  0.2358E+03  0.2410E+03  0.1875E+03  0.1875E+03
      0.381  0.1708E+03  0.1706E+03  0.2068E+03  0.2068E+03
      0.496  0.1478E+03  0.1478E+03  0.2256E+03  0.2256E+03
      0.611  0.2458E+03  0.2459E+03  0.2487E+03  0.2487E+03
      0.726  0.2135E+03  0.2084E+03  0.2731E+03  0.2731E+03
      0.841  0.2690E+03  0.2717E+03  0.3001E+03  0.3001E+03
      0.956  0.1331E+03  0.1330E+03  0.3237E+03  0.3237E+03
      1.071  0.1354E+03  0.1354E+03  0.3420E+03  0.3420E+03
      1.186  0.1459E+03  0.1057E+03  0.3589E+03  0.3589E+03
      1.301  0.1757E+03  0.1754E+03  0.3780E+03  0.3781E+03
      1.416  0.1531E+03  0.1440E+03  0.4022E+03  0.4022E+03
      1.531  0.1925E+03  0.1933E+03  0.4249E+03  0.4249E+03
      1.646  0.1392E+03  0.1397E+03  0.4458E+03  0.4458E+03
      1.761  0.1606E+03  0.1626E+03  0.4655E+03  0.4656E+03
      1.876  0.1497E+03  0.1721E+03  0.4895E+03  0.4895E+03
      1.991  0.3093E+03  0.3083E+03  0.5201E+03  0.5201E+03
      2.106  0.1508E+03  0.1486E+03  0.5488E+03  0.5488E+03
      2.221  0.2233E+02  0.2232E+02  0.5570E+03  0.5570E+03
      2.336  0.1643E+02  0.1643E+02  0.5594E+03  0.5594E+03
      2.451  0.1102E+02  0.1102E+02  0.5627E+03  0.5627E+03
      2.566  0.1399E+02  0.1399E+02  0.5644E+03  0.5644E+03
      2.681  0.5972E+01  0.5973E+01  0.5663E+03  0.5663E+03
      2.796  0.3502E+02  0.3500E+02  0.5688E+03  0.5688E+03
      2.911  0.1739E+02  0.1754E+02  0.5717E+03  0.5717E+03
      3.026  0.5952E+01  0.5953E+01  0.5730E+03  0.5730E+03
      3.141  0.2628E+02  0.3315E+02  0.5753E+03  0.5753E+03
      3.256  0.1416E+02  0.1419E+02  0.5778E+03  0.5778E+03
      3.371  0.2112E+02  0.2097E+02  0.5801E+03  0.5801E+03
      3.486  0.1381E+02  0.1381E+02  0.5819E+03  0.5819E+03
      3.601  0.8611E+01  0.8616E+01  0.5835E+03  0.5835E+03
      3.716  0.1354E+02  0.1354E+02  0.5849E+03  0.5849E+03
      3.831  0.1812E+02  0.1837E+02  0.5869E+03  0.5869E+03
      3.946  0.1559E+02  0.1557E+02  0.5884E+03  0.5884E+03
      4.061  0.5346E+02  0.5052E+02  0.5913E+03  0.5913E+03
      4.176  0.1217E+02  0.1199E+02  0.5932E+03  0.5932E+03
      4.291  0.4697E+01  0.4671E+01  0.5943E+03  0.5943E+03
      4.406  0.1124E+02  0.1123E+02  0.5953E+03  0.5953E+03
      4.521  0.1479E+02  0.1479E+02  0.5970E+03  0.5970E+03
      4.636  0.1101E+02  0.1100E+02  0.5988E+03  0.5988E+03
      4.751  0.1928E+02  0.1810E+02  0.6006E+03  0.6006E+03
      4.866  0.1476E+02  0.1475E+02  0.6030E+03  0.6030E+03
      4.981  0.1314E+02  0.1316E+02  0.6048E+03  0.6048E+03
      5.096  0.1827E+02  0.1817E+02  0.6064E+03  0.6064E+03
      5.211  0.8624E+01  0.8626E+01  0.6079E+03  0.6078E+03
      5.326  0.1284E+02  0.1285E+02  0.6092E+03  0.6092E+03
      5.441  0.7722E+01  0.7726E+01  0.6104E+03  0.6104E+03
      5.556  0.1972E+02  0.1962E+02  0.6120E+03  0.6120E+03
      5.671  0.5982E+01  0.5991E+01  0.6131E+03  0.6131E+03
      5.786  0.1192E+02  0.1195E+02  0.6145E+03  0.6145E+03
      5.902  0.1498E+02  0.1505E+02  0.6168E+03  0.6168E+03
      6.017  0.7478E+01  0.7475E+01  0.6181E+03  0.6181E+03
      6.132  0.1012E+02  0.1017E+02  0.6192E+03  0.6192E+03
      6.247  0.1228E+02  0.1232E+02  0.6208E+03  0.6208E+03
      6.362  0.5486E+01  0.5498E+01  0.6221E+03  0.6221E+03
      6.477  0.6905E+01  0.6900E+01  0.6229E+03  0.6228E+03
      6.592  0.9880E+01  0.9876E+01  0.6240E+03  0.6240E+03
      6.707  0.1050E+02  0.1053E+02  0.6253E+03  0.6253E+03
      6.822  0.1577E+02  0.1419E+02  0.6263E+03  0.6263E+03
      6.937  0.1298E+02  0.1297E+02  0.6273E+03  0.6273E+03
      7.052  0.2490E+02  0.2033E+02  0.6285E+03  0.6285E+03
      7.167  0.1169E+02  0.1175E+02  0.6300E+03  0.6300E+03
      7.282  0.1325E+02  0.1315E+02  0.6315E+03  0.6315E+03
      7.397  0.8294E+01  0.8300E+01  0.6330E+03  0.6330E+03
      7.512  0.5507E+01  0.5509E+01  0.6338E+03  0.6338E+03
      7.627  0.1503E+02  0.1501E+02  0.6348E+03  0.6348E+03
      7.742  0.1565E+02  0.1564E+02  0.6367E+03  0.6367E+03
      7.857  0.2417E+02  0.2437E+02  0.6393E+03  0.6393E+03
      7.972  0.1738E+02  0.1743E+02  0.6411E+03  0.6411E+03
      8.087  0.6047E+01  0.6039E+01  0.6424E+03  0.6424E+03
      8.202  0.2232E+02  0.2233E+02  0.6440E+03  0.6440E+03
      8.317  0.1798E+02  0.1816E+02  0.6461E+03  0.6461E+03
      8.432  0.1109E+02  0.1109E+02  0.6480E+03  0.6480E+03
      8.547  0.1985E+02  0.1991E+02  0.6497E+03  0.6497E+03
      8.662  0.9938E+01  0.9917E+01  0.6518E+03  0.6518E+03
      8.777  0.2372E+01  0.2365E+01  0.6532E+03  0.6532E+03
      8.892  0.1738E+02  0.1738E+02  0.6548E+03  0.6548E+03
      9.007  0.4587E+01  0.4547E+01  0.6572E+03  0.6572E+03
      9.122  0.9210E+01  0.9187E+01  0.6579E+03  0.6579E+03
      9.237  0.1269E+02  0.1264E+02  0.6592E+03  0.6592E+03
      9.352  0.1583E+02  0.1582E+02  0.6611E+03  0.6611E+03
      9.467  0.1144E+02  0.1143E+02  0.6627E+03  0.6627E+03
      9.582  0.2152E+02  0.2152E+02  0.6648E+03  0.6648E+03
      9.697  0.8609E+01  0.8613E+01  0.6669E+03  0.6669E+03
      9.812  0.8778E+01  0.8770E+01  0.6679E+03  0.6679E+03
      9.927  0.1171E+02  0.1168E+02  0.6691E+03  0.6691E+03
     10.042  0.1667E+02  0.1653E+02  0.6709E+03  0.6708E+03
     10.157  0.1045E+02  0.1045E+02  0.6726E+03  0.6726E+03
     10.272  0.5600E+01  0.5587E+01  0.6737E+03  0.6737E+03
     10.387  0.1141E+02  0.1141E+02  0.6752E+03  0.6752E+03
     10.502  0.1089E+02  0.1089E+02  0.6768E+03  0.6768E+03
     10.617  0.1236E+02  0.1236E+02  0.6784E+03  0.6784E+03
     10.732  0.1865E+02  0.1879E+02  0.6801E+03  0.6801E+03
     10.847  0.1901E+02  0.1914E+02  0.6819E+03  0.6819E+03
     10.962  0.1386E+02  0.1379E+02  0.6838E+03  0.6838E+03
     11.077  0.1789E+02  0.1775E+02  0.6859E+03  0.6859E+03
     11.192  0.2198E+02  0.1974E+02  0.6880E+03  0.6880E+03
     11.307  0.6638E+01  0.6639E+01  0.6898E+03  0.6898E+03
     11.422  0.1669E+02  0.1667E+02  0.6916E+03  0.6916E+03
     11.537  0.1315E+02  0.1287E+02  0.6935E+03  0.6935E+03
     11.652  0.1441E+02  0.1441E+02  0.6952E+03  0.6952E+03
     11.767  0.1694E+02  0.1653E+02  0.6971E+03  0.6971E+03
     11.882  0.1537E+02  0.1532E+02  0.6993E+03  0.6992E+03
     11.997  0.1675E+02  0.1674E+02  0.7013E+03  0.7012E+03
     12.112  0.2865E+02  0.2820E+02  0.7038E+03  0.7038E+03
     12.228  0.2449E+02  0.2442E+02  0.7068E+03  0.7067E+03
     12.343  0.1742E+02  0.1744E+02  0.7094E+03  0.7094E+03
     12.458  0.1431E+02  0.1438E+02  0.7114E+03  0.7114E+03
     12.573  0.1574E+02  0.1581E+02  0.7132E+03  0.7132E+03
     12.688  0.1311E+02  0.1310E+02  0.7150E+03  0.7150E+03
     12.803  0.3395E+02  0.3568E+02  0.7175E+03  0.7175E+03
     12.918  0.2330E+02  0.2327E+02  0.7204E+03  0.7204E+03
     13.033  0.1587E+02  0.1586E+02  0.7228E+03  0.7228E+03
     13.148  0.1753E+02  0.1744E+02  0.7247E+03  0.7247E+03
     13.263  0.1398E+02  0.1394E+02  0.7265E+03  0.7265E+03
     13.378  0.2354E+02  0.2305E+02  0.7280E+03  0.7280E+03
     13.493  0.2295E+02  0.2337E+02  0.7298E+03  0.7298E+03
     13.608  0.2964E+02  0.2948E+02  0.7322E+03  0.7322E+03
     13.723  0.1508E+02  0.1473E+02  0.7348E+03  0.7348E+03
     13.838  0.1824E+02  0.1830E+02  0.7377E+03  0.7377E+03
     13.953  0.1632E+02  0.1609E+02  0.7400E+03  0.7400E+03
     14.068  0.1183E+02  0.1181E+02  0.7426E+03  0.7426E+03
     14.183  0.2886E+02  0.2878E+02  0.7451E+03  0.7451E+03
     14.298  0.1278E+02  0.1262E+02  0.7472E+03  0.7472E+03
     14.413  0.5913E+01  0.5901E+01  0.7492E+03  0.7492E+03
     14.528  0.1155E+02  0.1156E+02  0.7515E+03  0.7515E+03
     14.643  0.3213E+02  0.2988E+02  0.7539E+03  0.7539E+03
     14.758  0.2185E+02  0.2210E+02  0.7567E+03  0.7567E+03
     14.873  0.1605E+02  0.1609E+02  0.7590E+03  0.7590E+03
     14.988  0.2542E+02  0.2551E+02  0.7612E+03  0.7612E+03
     15.103  0.1672E+02  0.1666E+02  0.7636E+03  0.7636E+03
     15.218  0.1947E+02  0.1936E+02  0.7665E+03  0.7665E+03
     15.333  0.1082E+02  0.1084E+02  0.7691E+03  0.7691E+03
     15.448  0.1710E+02  0.1710E+02  0.7709E+03  0.7709E+03
     15.563  0.1571E+02  0.1569E+02  0.7729E+03  0.7729E+03
     15.678  0.8897E+01  0.8904E+01  0.7762E+03  0.7762E+03
     15.793  0.1193E+02  0.1193E+02  0.7776E+03  0.7776E+03
     15.908  0.3328E+02  0.3314E+02  0.7802E+03  0.7801E+03
     16.023  0.2972E+02  0.2963E+02  0.7833E+03  0.7833E+03
     16.138  0.1993E+02  0.1998E+02  0.7860E+03  0.7859E+03
     16.253  0.1516E+02  0.1523E+02  0.7885E+03  0.7884E+03
     16.368  0.1276E+02  0.1271E+02  0.7905E+03  0.7905E+03
     16.483  0.3303E+02  0.3329E+02  0.7935E+03  0.7935E+03
     16.598  0.1186E+02  0.1186E+02  0.7960E+03  0.7960E+03
     16.713  0.2594E+02  0.2595E+02  0.7986E+03  0.7986E+03
     16.828  0.2738E+02  0.2719E+02  0.8017E+03  0.8017E+03
     16.943  0.2963E+02  0.3018E+02  0.8053E+03  0.8053E+03
     17.058  0.1737E+02  0.1746E+02  0.8082E+03  0.8082E+03
     17.173  0.2067E+02  0.2065E+02  0.8108E+03  0.8108E+03
     17.288  0.2002E+02  0.1997E+02  0.8133E+03  0.8133E+03
     17.403  0.2390E+02  0.2390E+02  0.8161E+03  0.8161E+03
     17.518  0.1930E+02  0.1954E+02  0.8189E+03  0.8189E+03
     17.633  0.1448E+02  0.1455E+02  0.8212E+03  0.8212E+03
     17.748  0.1873E+02  0.1872E+02  0.8231E+03  0.8231E+03
     17.863  0.2368E+02  0.2334E+02  0.8258E+03  0.8258E+03
     17.978  0.4771E+02  0.4201E+02  0.8283E+03  0.8282E+03
     18.093  0.2671E+02  0.2665E+02  0.8313E+03  0.8313E+03
     18.208  0.2642E+02  0.2755E+02  0.8346E+03  0.8346E+03
     18.323  0.2163E+02  0.2158E+02  0.8370E+03  0.8370E+03
     18.439  0.2818E+02  0.2880E+02  0.8396E+03  0.8396E+03
     18.554  0.1881E+02  0.1838E+02  0.8415E+03  0.8415E+03
     18.669  0.1459E+02  0.1462E+02  0.8434E+03  0.8434E+03
     18.784  0.2048E+02  0.2085E+02  0.8459E+03  0.8459E+03
     18.899  0.2045E+02  0.2039E+02  0.8491E+03  0.8491E+03
     19.014  0.1782E+02  0.1776E+02  0.8517E+03  0.8517E+03
     19.129  0.1364E+02  0.1368E+02  0.8535E+03  0.8535E+03
     19.244  0.2154E+02  0.2156E+02  0.8556E+03  0.8556E+03
     19.359  0.1753E+02  0.1759E+02  0.8583E+03  0.8583E+03
     19.474  0.2340E+02  0.2342E+02  0.8610E+03  0.8610E+03
     19.589  0.2181E+02  0.2186E+02  0.8637E+03  0.8637E+03
     19.704  0.2115E+02  0.2112E+02  0.8662E+03  0.8662E+03
     19.819  0.1585E+02  0.1580E+02  0.8682E+03  0.8681E+03
     19.934  0.1660E+02  0.1659E+02  0.8704E+03  0.8704E+03
     20.049  0.8626E+01  0.8632E+01  0.8724E+03  0.8724E+03
     20.164  0.1047E+02  0.1047E+02  0.8739E+03  0.8739E+03
     20.279  0.1562E+02  0.1562E+02  0.8757E+03  0.8757E+03
     20.394  0.1722E+02  0.1717E+02  0.8777E+03  0.8777E+03
     20.509  0.2193E+02  0.2168E+02  0.8800E+03  0.8800E+03
     20.624  0.1580E+02  0.1575E+02  0.8821E+03  0.8821E+03
     20.739  0.1489E+02  0.1489E+02  0.8840E+03  0.8840E+03
     20.854  0.1306E+02  0.1306E+02  0.8859E+03  0.8859E+03
     20.969  0.3617E+02  0.3857E+02  0.8880E+03  0.8880E+03
     21.084  0.1646E+02  0.1597E+02  0.8902E+03  0.8901E+03
     21.199  0.1694E+02  0.1697E+02  0.8923E+03  0.8923E+03
     21.314  0.1642E+02  0.3045E+02  0.8945E+03  0.8945E+03
     21.429  0.1502E+02  0.1502E+02  0.8965E+03  0.8965E+03
     21.544  0.1624E+02  0.1626E+02  0.8984E+03  0.8984E+03
     21.659  0.2602E+02  0.2058E+02  0.9007E+03  0.9007E+03
     21.774  0.2255E+02  0.2258E+02  0.9033E+03  0.9033E+03
     21.889  0.1642E+02  0.1641E+02  0.9055E+03  0.9055E+03
     22.004  0.1490E+02  0.1490E+02  0.9074E+03  0.9074E+03
     22.119  0.1615E+02  0.1613E+02  0.9094E+03  0.9093E+03
     22.234  0.1683E+02  0.1680E+02  0.9113E+03  0.9113E+03
     22.349  0.1747E+02  0.1747E+02  0.9135E+03  0.9135E+03
     22.464  0.1593E+02  0.1593E+02  0.9158E+03  0.9158E+03
     22.579  0.1680E+02  0.1681E+02  0.9178E+03  0.9178E+03
     22.694  0.1561E+02  0.1671E+02  0.9200E+03  0.9200E+03
     22.809  0.1971E+02  0.2233E+02  0.9224E+03  0.9223E+03
     22.924  0.3496E+02  0.3479E+02  0.9252E+03  0.9252E+03
     23.039  0.3622E+02  0.3655E+02  0.9284E+03  0.9284E+03
     23.154  0.2025E+02  0.2067E+02  0.9315E+03  0.9315E+03
     23.269  0.1615E+02  0.1625E+02  0.9332E+03  0.9332E+03
     23.384  0.2784E+02  0.2774E+02  0.9357E+03  0.9357E+03
     23.499  0.1957E+02  0.1954E+02  0.9390E+03  0.9390E+03
     23.614  0.2283E+02  0.2284E+02  0.9420E+03  0.9419E+03
     23.729  0.1561E+02  0.1560E+02  0.9444E+03  0.9444E+03
     23.844  0.2496E+02  0.2518E+02  0.9471E+03  0.9471E+03
     23.959  0.2820E+02  0.2777E+02  0.9505E+03  0.9504E+03
     24.074  0.3613E+02  0.3607E+02  0.9538E+03  0.9538E+03
     24.189  0.2315E+02  0.2318E+02  0.9569E+03  0.9569E+03
     24.304  0.3752E+02  0.4099E+02  0.9594E+03  0.9594E+03
     24.419  0.3710E+02  0.3692E+02  0.9629E+03  0.9629E+03
     24.534  0.1959E+02  0.1705E+02  0.9666E+03  0.9666E+03
     24.649  0.2244E+02  0.2150E+02  0.9684E+03  0.9684E+03
     24.765  0.2504E+02  0.1961E+02  0.9710E+03  0.9709E+03
     24.880  0.0000E+00  0.3252E+01  0.9720E+03  0.9719E+03
     24.995  0.0000E+00  0.0000E+00  0.9720E+03  0.9720E+03
     25.110  0.0000E+00  0.0000E+00  0.9720E+03  0.9720E+03
     25.225  0.0000E+00  0.0000E+00  0.9720E+03  0.9720E+03
     25.340  0.0000E+00  0.0000E+00  0.9720E+03  0.9720E+03
     25.455  0.0000E+00  0.0000E+00  0.9720E+03  0.9720E+03
     25.570  0.0000E+00  0.0000E+00  0.9720E+03  0.9720E+03
     25.685  0.0000E+00  0.0000E+00  0.9720E+03  0.9720E+03
     25.800  0.0000E+00  0.0000E+00  0.9720E+03  0.9720E+03
     25.915  0.0000E+00  0.0000E+00  0.9720E+03  0.9720E+03
     26.030  0.0000E+00  0.0000E+00  0.9720E+03  0.9720E+03
     26.145  0.0000E+00  0.0000E+00  0.9720E+03  0.9720E+03
     26.260  0.0000E+00  0.0000E+00  0.9720E+03  0.9720E+03
     26.375  0.0000E+00  0.0000E+00  0.9720E+03  0.9720E+03
     26.490  0.0000E+00  0.0000E+00  0.9720E+03  0.9720E+03
     26.605  0.0000E+00  0.0000E+00  0.9720E+03  0.9720E+03
     26.720  0.0000E+00  0.0000E+00  0.9720E+03  0.9720E+03
     26.835  0.0000E+00  0.0000E+00  0.9720E+03  0.9720E+03
     26.950  0.0000E+00  0.0000E+00  0.9720E+03  0.9720E+03
