<?xml version="1.0" encoding="ISO-8859-1"?>
<modeling>
 <generator>
  <i name="program" type="string">vasp </i>
  <i name="version" type="string">5.2.2  </i>
  <i name="subversion" type="string">15Apr09 complex  parallel </i>
  <i name="platform" type="string">LinuxIFC </i>
  <i name="date" type="string">2016 11 30 </i>
  <i name="time" type="string">12:58:14 </i>
 </generator>
 <incar>
  <i type="string" name="PREC">accurate</i>
  <i type="int" name="IALGO">    48</i>
  <i type="int" name="IBRION">    -1</i>
  <i name="EDIFFG">      0.05000000</i>
  <i type="int" name="NSW">     0</i>
  <i type="int" name="ISIF">     2</i>
  <i name="ENCUT">    300.00000000</i>
  <i type="int" name="ISMEAR">     1</i>
  <i name="SIGMA">      0.20000000</i>
  <i type="logical" name="LWAVE"> F  </i>
  <i type="logical" name="LCHARG"> T  </i>
  <i type="logical" name="LPEAD"> F  </i>
  <i type="logical" name="LCALCPOL"> F  </i>
  <i type="logical" name="LCALCEPS"> F  </i>
  <v name="EFIELD_PEAD">      0.00000000      0.00000000      0.00000000</v>
  <i type="logical" name="LEFG"> F  </i>
 </incar>
 <kpoints>
  <generation param="Monkhorst-Pack">
   <v type="int" name="divisions">       2        2        2 </v>
   <v name="usershift">      0.00000000       0.00000000       0.00000000 </v>
   <v name="genvec1">      0.50000000       0.00000000       0.00000000 </v>
   <v name="genvec2">      0.00000000       0.50000000       0.00000000 </v>
   <v name="genvec3">      0.00000000       0.00000000       0.50000000 </v>
   <v name="shift">      0.50000000       0.50000000       0.50000000 </v>
  </generation>
  <varray name="kpointlist" >
   <v>       0.25000000       0.25000000       0.25000000 </v>
  </varray>
  <varray name="weights" >
   <v>       1.00000000 </v>
  </varray>
 </kpoints>
 <parameters>
  <separator name="general" >
   <i type="string" name="SYSTEM">unknown system</i>
   <i type="logical" name="LCOMPAT"> F  </i>
  </separator>
  <separator name="electronic" >
   <i type="string" name="PREC">accura</i>
   <i name="ENMAX">    300.00000000</i>
   <i name="ENAUG">    291.05200000</i>
   <i name="EDIFF">      0.00010000</i>
   <i type="int" name="IALGO">    48</i>
   <i type="int" name="IWAVPR">    10</i>
   <i type="int" name="NBANDS">    72</i>
   <i name="NELECT">     96.00000000</i>
   <separator name="electronic smearing" >
    <i type="int" name="ISMEAR">     1</i>
    <i name="SIGMA">      0.20000000</i>
   </separator>
   <separator name="electronic projectors" >
    <i type="logical" name="LREAL"> F  </i>
    <v name="ROPT">      0.00000000</v>
    <i type="int" name="LMAXPAW">  -100</i>
    <i type="int" name="LMAXMIX">     2</i>
   </separator>
   <separator name="electronic startup" >
    <i type="int" name="ISTART">     0</i>
    <i type="int" name="ICHARG">     2</i>
    <i type="int" name="INIWAV">     1</i>
   </separator>
   <separator name="electronic spin" >
    <i type="int" name="ISPIN">     1</i>
    <i type="logical" name="LNONCOLLINEAR"> F  </i>
    <v name="MAGMOM">      1.00000000      1.00000000      1.00000000      1.00000000      1.00000000      1.00000000      1.00000000      1.00000000      1.00000000      1.00000000      1.00000000      1.00000000      1.00000000      1.00000000      1.00000000      1.00000000      1.00000000      1.00000000      1.00000000      1.00000000
      1.00000000      1.00000000      1.00000000      1.00000000      1.00000000      1.00000000      1.00000000      1.00000000      1.00000000      1.00000000      1.00000000      1.00000000</v>
    <i name="NUPDOWN">     -1.00000000</i>
    <i type="logical" name="LSORBIT"> F  </i>
    <v name="SAXIS">      0.00000000      0.00000000      1.00000000</v>
    <i type="logical" name="LSPIRAL"> F  </i>
    <v name="QSPIRAL">      0.00000000      0.00000000      0.00000000</v>
    <i type="logical" name="LZEROZ"> F  </i>
   </separator>
   <separator name="electronic exchange-correlation" >
    <i type="logical" name="LASPH"> F  </i>
    <i type="logical" name="LMETAGGA"> F  </i>
   </separator>
   <separator name="electronic convergence" >
    <i type="int" name="NELM">    60</i>
    <i type="int" name="NELMDL">   -12</i>
    <i type="int" name="NELMIN">     2</i>
    <i name="ENINI">    300.00000000</i>
    <separator name="electronic convergence detail" >
     <i type="logical" name="LDIAG"> T  </i>
     <i name="WEIMIN">      0.00000000</i>
     <i name="EBREAK">      0.00000038</i>
     <i name="DEPER">      0.30000000</i>
     <i type="int" name="NRMM">     4</i>
     <i name="TIME">      0.40000000</i>
    </separator>
   </separator>
   <separator name="electronic mixer" >
    <i name="AMIX">      0.40000000</i>
    <i name="BMIX">      1.00000000</i>
    <i name="AMIN">      0.10000000</i>
    <i name="AMIX_MAG">      1.60000000</i>
    <i name="BMIX_MAG">      1.00000000</i>
    <separator name="electronic mixer details" >
     <i type="int" name="IMIX">     4</i>
     <i type="int" name="MAXMIX">   -45</i>
     <i name="WC">    100.00000000</i>
     <i type="int" name="INIMIX">     1</i>
     <i type="int" name="MIXPRE">     1</i>
     <i type="int" name="MREMOVE">     5</i>
    </separator>
   </separator>
   <separator name="electronic dipolcorrection" >
    <i type="logical" name="LDIPOL"> F  </i>
    <i type="logical" name="LMONO"> F  </i>
    <i type="int" name="IDIPOL">     0</i>
    <i name="EPSILON">      1.00000000</i>
    <v name="DIPOL">   -100.00000000   -100.00000000   -100.00000000</v>
    <i name="EFIELD">      0.00000000</i>
   </separator>
  </separator>
  <separator name="grids" >
   <i type="int" name="NGX">    48</i>
   <i type="int" name="NGY">    48</i>
   <i type="int" name="NGZ">    48</i>
   <i type="int" name="NGXF">    96</i>
   <i type="int" name="NGYF">    96</i>
   <i type="int" name="NGZF">    96</i>
   <i type="logical" name="ADDGRID"> F  </i>
  </separator>
  <separator name="ionic" >
   <i type="int" name="NSW">     0</i>
   <i type="int" name="IBRION">    -1</i>
   <i type="int" name="ISIF">     2</i>
   <i name="PSTRESS">      0.00000000</i>
   <i name="EDIFFG">      0.05000000</i>
   <i type="int" name="NFREE">     0</i>
   <i name="POTIM">      0.50000000</i>
   <i name="SMASS">     -3.00000000</i>
  </separator>
  <separator name="ionic md" >
   <i name="TEBEG">      0.00010000</i>
   <i name="TEEND">      0.00010000</i>
   <i type="int" name="NBLOCK">     1</i>
   <i type="int" name="KBLOCK">     1</i>
   <i type="int" name="NPACO">   256</i>
   <i name="APACO">     16.00000000</i>
  </separator>
  <separator name="symmetry" >
   <i type="int" name="ISYM">     2</i>
   <i name="SYMPREC">      0.00001000</i>
  </separator>
  <separator name="dos" >
   <i type="logical" name="LORBIT"> F  </i>
   <v name="RWIGS">     -1.00000000</v>
   <i type="int" name="NEDOS">   301</i>
   <i name="EMIN">     10.00000000</i>
   <i name="EMAX">    -10.00000000</i>
   <i name="EFERMI">      0.00000000</i>
  </separator>
  <separator name="writing" >
   <i type="int" name="NWRITE">     2</i>
   <i type="logical" name="LWAVE"> F  </i>
   <i type="logical" name="LCHARG"> T  </i>
   <i type="logical" name="LPARD"> F  </i>
   <i type="logical" name="LVTOT"> F  </i>
   <i type="logical" name="LELF"> F  </i>
   <i type="logical" name="LOPTICS"> F  </i>
   <v name="STM">      0.00000000      0.00000000      0.00000000      0.00000000      0.00000000</v>
  </separator>
  <separator name="performance" >
   <i type="int" name="NPAR">     8</i>
   <i type="int" name="NSIM">     4</i>
   <i type="int" name="NBLK">    32</i>
   <i type="logical" name="LPLANE"> T  </i>
   <i type="logical" name="LSCALAPACK"> F  </i>
   <i type="logical" name="LSCAAWARE"> F  </i>
   <i type="logical" name="LSCALU"> F  </i>
   <i type="logical" name="LASYNC"> F  </i>
  </separator>
  <separator name="miscellaneous" >
   <i type="int" name="IDIOT">     3</i>
   <i type="logical" name="LMUSIC"> F  </i>
   <v name="POMASS">     26.98200000</v>
   <i type="logical" name="LCORR"> T  </i>
  </separator>
  <i type="logical" name="LREAL_COMPAT"> F  </i>
  <i type="logical" name="GGA_COMPAT"> T  </i>
  <i type="logical" name="LBERRY"> F  </i>
  <i type="int" name="ICORELEVEL">     0</i>
  <i type="logical" name="LDAU"> F  </i>
  <i type="int" name="I_CONSTRAINED_M">     0</i>
  <separator name="electronic exchange-correlation" >
   <i type="string" name="GGA">--</i>
   <i type="int" name="VOSKOWN">     0</i>
   <i type="logical" name="LHFCALC"> F  </i>
   <i type="logical" name="LHFONE"> F  </i>
   <i type="logical" name="LRHFCALC"> F  </i>
   <i type="logical" name="LTHOMAS"> F  </i>
   <i type="logical" name="LMODELHF"> F  </i>
   <i name="ENCUTFOCK">      0.00000000</i>
   <i name="ENCUT4O">     -1.00000000</i>
   <i type="int" name="EXXOEP">     0</i>
   <i type="int" name="FOURORBIT">     0</i>
   <i name="AEXX">      0.00000000</i>
   <i name="HFALPHA">      0.00000000</i>
   <i name="ALDAX">      1.00000000</i>
   <i name="AGGAX">      1.00000000</i>
   <i name="ALDAC">      1.00000000</i>
   <i name="AGGAC">      1.00000000</i>
   <i type="int" name="NKREDX">     1</i>
   <i type="int" name="NKREDY">     1</i>
   <i type="int" name="NKREDZ">     1</i>
   <i type="logical" name="SHIFTRED"> F  </i>
   <i type="logical" name="ODDONLY"> F  </i>
   <i type="logical" name="EVENONLY"> F  </i>
   <i type="int" name="LMAXFOCK">     0</i>
   <i type="int" name="NMAXFOCKAE">     0</i>
   <i name="HFSCREEN">      0.00000000</i>
   <i name="HFSCREENC">      0.00000000</i>
  </separator>
  <separator name="model GW" >
   <i type="int" name="MODEL_GW">     0</i>
   <i name="MODEL_EPS0">      9.91680969</i>
   <i name="MODEL_ALPHA">      1.00000000</i>
  </separator>
  <separator name="linear response parameters" >
   <i type="logical" name="LEPSILON"> F  </i>
   <i type="logical" name="LRPA"> F  </i>
   <i type="logical" name="LNABLA"> F  </i>
   <i type="logical" name="LVEL"> F  </i>
   <i type="int" name="KINTER">     0</i>
   <i name="CSHIFT">      0.10000000</i>
   <i name="OMEGAMAX">     -1.00000000</i>
  </separator>
  <separator name="orbital magnetization" >
   <i type="logical" name="ORBITALMAG"> F  </i>
   <i type="logical" name="LMAGBLOCH"> F  </i>
   <i type="logical" name="LCHIMAG"> F  </i>
   <i type="logical" name="LGAUGE"> T  </i>
   <i type="int" name="MAGATOM">     0</i>
   <v name="MAGDIPOL">      0.00000000      0.00000000      0.00000000</v>
   <v name="AVECCONST">      0.00000000      0.00000000      0.00000000</v>
  </separator>
  <separator name="response functions" >
   <i type="logical" name="LRPA"> T  </i>
   <i type="logical" name="LTCTE"> F  </i>
   <i type="logical" name="LTETE"> F  </i>
   <i type="logical" name="L2ORDER"> F  </i>
   <i type="logical" name="LGWLF"> F  </i>
   <i name="ENCUTGW">    200.00000000</i>
   <i name="ENCUTGWSOFT">     -2.00000000</i>
   <i name="ENCUTLF">     -1.00000000</i>
   <i type="int" name="LMAXMP2">    -1</i>
   <i name="SCISSOR">      0.00000000</i>
   <i type="int" name="NOMEGA">     0</i>
   <i type="int" name="NOMEGAR">     0</i>
   <i type="int" name="NBANDSGW">    -1</i>
   <i type="int" name="NBANDSLF">    -1</i>
   <i type="int" name="NELM">     1</i>
   <i type="int" name="DIM">     3</i>
   <i type="int" name="ANTIRES">     0</i>
   <i type="logical" name="LUSEW"> F  </i>
   <i name="OMEGAMAX">    -30.00000000</i>
   <i name="OMEGATL">   -200.00000000</i>
   <i type="int" name="OMEGAGRID">     0</i>
   <i name="CSHIFT">     -0.10000000</i>
   <i type="logical" name="SELFENERGY"> F  </i>
   <i type="logical" name="LSPECTRAL"> F  </i>
   <i type="logical" name="ODDONLYGW"> F  </i>
   <i type="logical" name="EVENONLYGW"> F  </i>
   <i type="int" name="NKREDLFX">     1</i>
   <i type="int" name="NKREDLFY">     1</i>
   <i type="int" name="NKREDLFZ">     1</i>
   <i type="int" name="MAXMEM">  1024</i>
   <i type="int" name="TELESCOPE">     0</i>
  </separator>
 </parameters>
 <atominfo>
  <atoms>      32 </atoms>
  <types>       1 </types>
  <array name="atoms" >
   <dimension dim="1">ion</dimension>
   <field type="string">element</field>
   <field type="int">atomtype</field>
   <set>
    <rc><c>Al</c><c>   1</c></rc>
    <rc><c>Al</c><c>   1</c></rc>
    <rc><c>Al</c><c>   1</c></rc>
    <rc><c>Al</c><c>   1</c></rc>
    <rc><c>Al</c><c>   1</c></rc>
    <rc><c>Al</c><c>   1</c></rc>
    <rc><c>Al</c><c>   1</c></rc>
    <rc><c>Al</c><c>   1</c></rc>
    <rc><c>Al</c><c>   1</c></rc>
    <rc><c>Al</c><c>   1</c></rc>
    <rc><c>Al</c><c>   1</c></rc>
    <rc><c>Al</c><c>   1</c></rc>
    <rc><c>Al</c><c>   1</c></rc>
    <rc><c>Al</c><c>   1</c></rc>
    <rc><c>Al</c><c>   1</c></rc>
    <rc><c>Al</c><c>   1</c></rc>
    <rc><c>Al</c><c>   1</c></rc>
    <rc><c>Al</c><c>   1</c></rc>
    <rc><c>Al</c><c>   1</c></rc>
    <rc><c>Al</c><c>   1</c></rc>
    <rc><c>Al</c><c>   1</c></rc>
    <rc><c>Al</c><c>   1</c></rc>
    <rc><c>Al</c><c>   1</c></rc>
    <rc><c>Al</c><c>   1</c></rc>
    <rc><c>Al</c><c>   1</c></rc>
    <rc><c>Al</c><c>   1</c></rc>
    <rc><c>Al</c><c>   1</c></rc>
    <rc><c>Al</c><c>   1</c></rc>
    <rc><c>Al</c><c>   1</c></rc>
    <rc><c>Al</c><c>   1</c></rc>
    <rc><c>Al</c><c>   1</c></rc>
    <rc><c>Al</c><c>   1</c></rc>
   </set>
  </array>
  <array name="atomtypes" >
   <dimension dim="1">type</dimension>
   <field type="int">atomspertype</field>
   <field type="string">element</field>
   <field>mass</field>
   <field>valence</field>
   <field type="string">pseudopotential</field>
   <set>
    <rc><c>  32</c><c>Al</c><c>     26.98200000</c><c>      3.00000000</c><c> PAW_PBE Al 04Jan2001                   </c></rc>
   </set>
  </array>
 </atominfo>
 <structure name="initialpos" >
  <crystal>
   <varray name="basis" >
    <v>       8.08705200       0.00000000       0.00000000 </v>
    <v>       0.00000000       8.08705200       0.00000000 </v>
    <v>       0.00000000       0.00000000       8.08705200 </v>
   </varray>
   <i name="volume">    528.89651690 </i>
   <varray name="rec_basis" >
    <v>       0.12365445       0.00000000       0.00000000 </v>
    <v>       0.00000000       0.12365445       0.00000000 </v>
    <v>       0.00000000       0.00000000       0.12365445 </v>
   </varray>
  </crystal>
  <varray name="positions" >
   <v>       0.00000000       0.00000000       0.00000000 </v>
   <v>       0.25000000       0.00000000       0.25000000 </v>
   <v>       0.25000000       0.25000000       0.00000000 </v>
   <v>       0.00000000       0.25000000       0.25000000 </v>
   <v>       0.50000000       0.00000000       0.00000000 </v>
   <v>       0.75000000       0.00000000       0.25000000 </v>
   <v>       0.75000000       0.25000000       0.00000000 </v>
   <v>       0.50000000       0.25000000       0.25000000 </v>
   <v>       0.00000000       0.50000000       0.00000000 </v>
   <v>       0.25000000       0.50000000       0.25000000 </v>
   <v>       0.25000000       0.75000000       0.00000000 </v>
   <v>       0.00000000       0.75000000       0.25000000 </v>
   <v>       0.50000000       0.50000000       0.00000000 </v>
   <v>       0.75000000       0.50000000       0.25000000 </v>
   <v>       0.75000000       0.75000000       0.00000000 </v>
   <v>       0.50000000       0.75000000       0.25000000 </v>
   <v>       0.00000000       0.00000000       0.50000000 </v>
   <v>       0.25000000       0.00000000       0.75000000 </v>
   <v>       0.25000000       0.25000000       0.50000000 </v>
   <v>       0.00000000       0.25000000       0.75000000 </v>
   <v>       0.50000000       0.00000000       0.50000000 </v>
   <v>       0.75000000       0.00000000       0.75000000 </v>
   <v>       0.75000000       0.25000000       0.50000000 </v>
   <v>       0.50000000       0.25000000       0.75000000 </v>
   <v>       0.00000000       0.50000000       0.50000000 </v>
   <v>       0.25000000       0.50000000       0.75000000 </v>
   <v>       0.25000000       0.75000000       0.50000000 </v>
   <v>       0.00000000       0.75000000       0.75000000 </v>
   <v>       0.50000000       0.50000000       0.50000000 </v>
   <v>       0.75000000       0.50000000       0.75000000 </v>
   <v>       0.75000000       0.75000000       0.50000000 </v>
   <v>       0.50000000       0.75000000       0.75000000 </v>
  </varray>
 </structure>
 <calculation>
  <scstep>
   <time name="diag">    0.23    0.23</time>
   <time name="diis">    0.53    0.53</time>
   <time name="orth">    0.01    0.01</time>
   <time name="total">    1.04    1.04</time>
   <energy>
    <i name="alphaZ">     -6.50301785 </i>
    <i name="ewald">  -2351.17335769 </i>
    <i name="hartreedc">     -3.26513069 </i>
    <i name="XCdc">   -839.76954860 </i>
    <i name="pawpsdc">   1137.73615723 </i>
    <i name="pawaedc">   -115.16745734 </i>
    <i name="eentropy">      0.02272949 </i>
    <i name="bandstr">    717.95238159 </i>
    <i name="atom">   1713.20396807 </i>
    <i name="e_fr_energy">    253.03672422 </i>
    <i name="e_wo_entrp">    253.01399472 </i>
    <i name="e_0_energy">    253.02914772 </i>
   </energy>
  </scstep>
  <scstep>
   <time name="diag">    0.23    0.23</time>
   <time name="diis">    0.54    0.54</time>
   <time name="orth">    0.01    0.01</time>
   <time name="total">    0.78    0.79</time>
   <energy>
    <i name="e_fr_energy">    -34.71158267 </i>
    <i name="e_wo_entrp">    -34.74971791 </i>
    <i name="e_0_energy">    -34.72429441 </i>
   </energy>
  </scstep>
  <scstep>
   <time name="diag">    0.23    0.23</time>
   <time name="diis">    0.53    0.53</time>
   <time name="orth">    0.01    0.02</time>
   <time name="total">    0.78    0.78</time>
   <energy>
    <i name="e_fr_energy">    -98.53374999 </i>
    <i name="e_wo_entrp">    -98.45501217 </i>
    <i name="e_0_energy">    -98.50750405 </i>
   </energy>
  </scstep>
  <scstep>
   <time name="diag">    0.23    0.23</time>
   <time name="diis">    0.53    0.53</time>
   <time name="orth">    0.01    0.01</time>
   <time name="total">    0.78    0.78</time>
   <energy>
    <i name="e_fr_energy">   -111.52873493 </i>
    <i name="e_wo_entrp">   -111.59305100 </i>
    <i name="e_0_energy">   -111.55017362 </i>
   </energy>
  </scstep>
  <scstep>
   <time name="diag">    0.23    0.23</time>
   <time name="diis">    0.53    0.53</time>
   <time name="orth">    0.01    0.01</time>
   <time name="total">    0.78    0.78</time>
   <energy>
    <i name="e_fr_energy">   -116.34781781 </i>
    <i name="e_wo_entrp">   -116.17726061 </i>
    <i name="e_0_energy">   -116.29096541 </i>
   </energy>
  </scstep>
  <scstep>
   <time name="diag">    0.23    0.23</time>
   <time name="diis">    0.54    0.54</time>
   <time name="orth">    0.01    0.01</time>
   <time name="total">    0.78    0.78</time>
   <energy>
    <i name="e_fr_energy">   -117.97289941 </i>
    <i name="e_wo_entrp">   -117.74215273 </i>
    <i name="e_0_energy">   -117.89598385 </i>
   </energy>
  </scstep>
  <scstep>
   <time name="diag">    0.23    0.23</time>
   <time name="diis">    0.53    0.53</time>
   <time name="orth">    0.01    0.01</time>
   <time name="total">    0.78    0.78</time>
   <energy>
    <i name="e_fr_energy">   -118.51595357 </i>
    <i name="e_wo_entrp">   -118.27202368 </i>
    <i name="e_0_energy">   -118.43464361 </i>
   </energy>
  </scstep>
  <scstep>
   <time name="diag">    0.23    0.23</time>
   <time name="diis">    0.54    0.54</time>
   <time name="orth">    0.01    0.01</time>
   <time name="total">    0.79    0.79</time>
   <energy>
    <i name="e_fr_energy">   -118.71801520 </i>
    <i name="e_wo_entrp">   -118.45956035 </i>
    <i name="e_0_energy">   -118.63186358 </i>
   </energy>
  </scstep>
  <scstep>
   <time name="diag">    0.23    0.23</time>
   <time name="diis">    1.09    1.10</time>
   <time name="orth">    0.01    0.01</time>
   <time name="total">    1.34    1.34</time>
   <energy>
    <i name="e_fr_energy">   -118.82250078 </i>
    <i name="e_wo_entrp">   -118.55834325 </i>
    <i name="e_0_energy">   -118.73444827 </i>
   </energy>
  </scstep>
  <scstep>
   <time name="diag">    0.23    0.23</time>
   <time name="diis">    0.94    0.94</time>
   <time name="orth">    0.01    0.01</time>
   <time name="total">    1.19    1.19</time>
   <energy>
    <i name="e_fr_energy">   -118.84415369 </i>
    <i name="e_wo_entrp">   -118.57974410 </i>
    <i name="e_0_energy">   -118.75601716 </i>
   </energy>
  </scstep>
  <scstep>
   <time name="diag">    0.23    0.23</time>
   <time name="diis">    0.90    0.90</time>
   <time name="orth">    0.01    0.01</time>
   <time name="total">    1.14    1.14</time>
   <energy>
    <i name="e_fr_energy">   -118.84479147 </i>
    <i name="e_wo_entrp">   -118.58036072 </i>
    <i name="e_0_energy">   -118.75664789 </i>
   </energy>
  </scstep>
  <scstep>
   <time name="diag">    0.23    0.23</time>
   <time name="diis">    0.73    0.73</time>
   <time name="orth">    0.01    0.01</time>
   <time name="total">    1.32    1.33</time>
   <energy>
    <i name="e_fr_energy">   -118.84479707 </i>
    <i name="e_wo_entrp">   -118.58036607 </i>
    <i name="e_0_energy">   -118.75665340 </i>
   </energy>
  </scstep>
  <scstep>
   <time name="diag">    0.23    0.23</time>
   <time name="diis">    1.09    1.09</time>
   <time name="orth">    0.01    0.01</time>
   <time name="total">    1.95    1.95</time>
   <energy>
    <i name="e_fr_energy">   -118.44772227 </i>
    <i name="e_wo_entrp">   -118.18385359 </i>
    <i name="e_0_energy">   -118.35976605 </i>
   </energy>
  </scstep>
  <scstep>
   <time name="diag">    0.23    0.23</time>
   <time name="diis">    1.06    1.06</time>
   <time name="orth">    0.01    0.01</time>
   <time name="total">    1.91    1.91</time>
   <energy>
    <i name="e_fr_energy">   -118.14858481 </i>
    <i name="e_wo_entrp">   -117.88518033 </i>
    <i name="e_0_energy">   -118.06078332 </i>
   </energy>
  </scstep>
  <scstep>
   <time name="diag">    0.23    0.23</time>
   <time name="diis">    1.08    1.08</time>
   <time name="orth">    0.01    0.01</time>
   <time name="total">    1.93    1.93</time>
   <energy>
    <i name="e_fr_energy">   -118.14888466 </i>
    <i name="e_wo_entrp">   -117.88545473 </i>
    <i name="e_0_energy">   -118.06107468 </i>
   </energy>
  </scstep>
  <scstep>
   <time name="diag">    0.23    0.23</time>
   <time name="diis">    0.77    0.77</time>
   <time name="orth">    0.01    0.01</time>
   <time name="total">    1.28    1.28</time>
   <energy>
    <i name="alphaZ">     -6.50301785 </i>
    <i name="ewald">  -2351.17335769 </i>
    <i name="hartreedc">     -3.59428843 </i>
    <i name="XCdc">   -836.23802128 </i>
    <i name="pawpsdc">   1142.85843533 </i>
    <i name="pawaedc">   -120.73770340 </i>
    <i name="eentropy">     -0.26343516 </i>
    <i name="bandstr">    344.29852071 </i>
    <i name="atom">   1713.20396807 </i>
    <i name="e_fr_energy">   -118.14889970 </i>
    <i name="e_wo_entrp">   -117.88546454 </i>
    <i name="e_0_energy">   -118.06108798 </i>
   </energy>
  </scstep>
  <structure>
   <crystal>
    <varray name="basis" >
     <v>       8.08705200       0.00000000       0.00000000 </v>
     <v>       0.00000000       8.08705200       0.00000000 </v>
     <v>       0.00000000       0.00000000       8.08705200 </v>
    </varray>
    <i name="volume">    528.89651690 </i>
    <varray name="rec_basis" >
     <v>       0.12365445       0.00000000       0.00000000 </v>
     <v>       0.00000000       0.12365445       0.00000000 </v>
     <v>       0.00000000       0.00000000       0.12365445 </v>
    </varray>
   </crystal>
   <varray name="positions" >
    <v>       0.00000000       0.00000000       0.00000000 </v>
    <v>       0.25000000       0.00000000       0.25000000 </v>
    <v>       0.25000000       0.25000000       0.00000000 </v>
    <v>       0.00000000       0.25000000       0.25000000 </v>
    <v>       0.50000000       0.00000000       0.00000000 </v>
    <v>       0.75000000       0.00000000       0.25000000 </v>
    <v>       0.75000000       0.25000000       0.00000000 </v>
    <v>       0.50000000       0.25000000       0.25000000 </v>
    <v>       0.00000000       0.50000000       0.00000000 </v>
    <v>       0.25000000       0.50000000       0.25000000 </v>
    <v>       0.25000000       0.75000000       0.00000000 </v>
    <v>       0.00000000       0.75000000       0.25000000 </v>
    <v>       0.50000000       0.50000000       0.00000000 </v>
    <v>       0.75000000       0.50000000       0.25000000 </v>
    <v>       0.75000000       0.75000000       0.00000000 </v>
    <v>       0.50000000       0.75000000       0.25000000 </v>
    <v>       0.00000000       0.00000000       0.50000000 </v>
    <v>       0.25000000       0.00000000       0.75000000 </v>
    <v>       0.25000000       0.25000000       0.50000000 </v>
    <v>       0.00000000       0.25000000       0.75000000 </v>
    <v>       0.50000000       0.00000000       0.50000000 </v>
    <v>       0.75000000       0.00000000       0.75000000 </v>
    <v>       0.75000000       0.25000000       0.50000000 </v>
    <v>       0.50000000       0.25000000       0.75000000 </v>
    <v>       0.00000000       0.50000000       0.50000000 </v>
    <v>       0.25000000       0.50000000       0.75000000 </v>
    <v>       0.25000000       0.75000000       0.50000000 </v>
    <v>       0.00000000       0.75000000       0.75000000 </v>
    <v>       0.50000000       0.50000000       0.50000000 </v>
    <v>       0.75000000       0.50000000       0.75000000 </v>
    <v>       0.75000000       0.75000000       0.50000000 </v>
    <v>       0.50000000       0.75000000       0.75000000 </v>
   </varray>
  </structure>
  <varray name="forces" >
   <v>       0.00000000       0.00000000       0.00000000 </v>
   <v>       0.00000000       0.00000000       0.00000000 </v>
   <v>       0.00000000       0.00000000       0.00000000 </v>
   <v>       0.00000000       0.00000000       0.00000000 </v>
   <v>       0.00000000       0.00000000       0.00000000 </v>
   <v>       0.00000000       0.00000000       0.00000000 </v>
   <v>       0.00000000       0.00000000       0.00000000 </v>
   <v>       0.00000000       0.00000000       0.00000000 </v>
   <v>       0.00000000       0.00000000       0.00000000 </v>
   <v>       0.00000000       0.00000000       0.00000000 </v>
   <v>       0.00000000       0.00000000       0.00000000 </v>
   <v>       0.00000000       0.00000000       0.00000000 </v>
   <v>       0.00000000       0.00000000       0.00000000 </v>
   <v>       0.00000000       0.00000000       0.00000000 </v>
   <v>       0.00000000       0.00000000       0.00000000 </v>
   <v>       0.00000000       0.00000000       0.00000000 </v>
   <v>       0.00000000       0.00000000       0.00000000 </v>
   <v>       0.00000000       0.00000000       0.00000000 </v>
   <v>       0.00000000       0.00000000       0.00000000 </v>
   <v>       0.00000000       0.00000000       0.00000000 </v>
   <v>       0.00000000       0.00000000       0.00000000 </v>
   <v>       0.00000000       0.00000000       0.00000000 </v>
   <v>       0.00000000       0.00000000       0.00000000 </v>
   <v>       0.00000000       0.00000000       0.00000000 </v>
   <v>       0.00000000       0.00000000       0.00000000 </v>
   <v>       0.00000000       0.00000000       0.00000000 </v>
   <v>       0.00000000       0.00000000       0.00000000 </v>
   <v>       0.00000000       0.00000000       0.00000000 </v>
   <v>       0.00000000       0.00000000       0.00000000 </v>
   <v>       0.00000000       0.00000000       0.00000000 </v>
   <v>       0.00000000       0.00000000       0.00000000 </v>
   <v>       0.00000000       0.00000000       0.00000000 </v>
  </varray>
  <varray name="stress" >
   <v>       0.05822137       0.00000000       0.00000000 </v>
   <v>       0.00000000       0.05822137       0.00000000 </v>
   <v>       0.00000000       0.00000000       0.05822137 </v>
  </varray>
  <energy>
   <i name="e_fr_energy">   -118.14889970 </i>
   <i name="e_wo_entrp">   -118.06108798 </i>
   <i name="e_0_energy">     -0.26343516 </i>
  </energy>
  <time name="totalsc">   21.87   23.40</time>
  <eigenvalues>
   <array>
    <dimension dim="1">band</dimension>
    <dimension dim="2">kpoint</dimension>
    <dimension dim="3">spin</dimension>
    <field>eigene</field>
    <field>occ</field>
    <set>
     <set comment="spin 1">
      <set comment="kpoint 1">
       <r>   -2.7133    1.0000 </r>
       <r>   -1.5892    1.0000 </r>
       <r>   -1.5892    1.0000 </r>
       <r>   -1.5892    1.0000 </r>
       <r>   -0.4740    1.0000 </r>
       <r>   -0.4740    1.0000 </r>
       <r>   -0.4740    1.0000 </r>
       <r>    0.6318    1.0000 </r>
       <r>    0.6318    1.0000 </r>
       <r>    0.6318    1.0000 </r>
       <r>    0.6332    1.0000 </r>
       <r>    1.7299    1.0000 </r>
       <r>    1.7299    1.0000 </r>
       <r>    1.7299    1.0000 </r>
       <r>    1.7299    1.0000 </r>
       <r>    1.7299    1.0000 </r>
       <r>    1.7299    1.0000 </r>
       <r>    2.8185    1.0000 </r>
       <r>    2.8185    1.0000 </r>
       <r>    2.8185    1.0000 </r>
       <r>    3.8623    1.0000 </r>
       <r>    3.8623    1.0000 </r>
       <r>    3.8623    1.0000 </r>
       <r>    3.8970    1.0000 </r>
       <r>    3.8970    1.0000 </r>
       <r>    3.8970    1.0000 </r>
       <r>    4.9284    1.0000 </r>
       <r>    4.9284    1.0000 </r>
       <r>    4.9284    1.0000 </r>
       <r>    4.9284    1.0000 </r>
       <r>    4.9284    1.0000 </r>
       <r>    4.9284    1.0000 </r>
       <r>    4.9913    1.0000 </r>
       <r>    4.9913    1.0000 </r>
       <r>    4.9913    1.0000 </r>
       <r>    6.0130    1.0000 </r>
       <r>    6.0130    1.0000 </r>
       <r>    6.0130    1.0000 </r>
       <r>    7.0599    1.0000 </r>
       <r>    7.0599    1.0000 </r>
       <r>    7.0599    1.0000 </r>
       <r>    7.0599    1.0000 </r>
       <r>    7.0599    1.0000 </r>
       <r>    7.0599    1.0000 </r>
       <r>    7.1223    1.0000 </r>
       <r>    8.1236    0.5174 </r>
       <r>    8.1236    0.5174 </r>
       <r>    8.1236    0.5174 </r>
       <r>    8.1236    0.5174 </r>
       <r>    8.1236    0.5174 </r>
       <r>    8.1236    0.5174 </r>
       <r>    8.3605   -0.0348 </r>
       <r>    8.3605   -0.0348 </r>
       <r>    8.3605   -0.0348 </r>
       <r>    9.4442    0.0000 </r>
       <r>    9.4442    0.0000 </r>
       <r>    9.4442    0.0000 </r>
       <r>    9.4442    0.0000 </r>
       <r>    9.4442    0.0000 </r>
       <r>    9.4442    0.0000 </r>
       <r>   10.1995    0.0000 </r>
       <r>   10.1996    0.0000 </r>
       <r>   10.1996    0.0000 </r>
       <r>   10.2230    0.0000 </r>
       <r>   10.2230    0.0000 </r>
       <r>   10.2230    0.0000 </r>
       <r>   10.5193    0.0000 </r>
       <r>   10.5193    0.0000 </r>
       <r>   10.5193    0.0000 </r>
       <r>   11.2106    0.0000 </r>
       <r>   11.2111    0.0000 </r>
       <r>   11.5077    0.0000 </r>
      </set>
     </set>
    </set>
   </array>
  </eigenvalues>
  <separator name="orbital magnetization" >
   <v name="MAGDIPOLOUT">      0.00000000      0.00000000      0.00000000</v>
  </separator>
  <dos>
   <i name="efermi">      8.12774584 </i>
   <total>
    <array>
     <dimension dim="1">gridpoints</dimension>
     <dimension dim="2">spin</dimension>
     <field>energy</field>
     <field>total</field>
     <field>integrated</field>
     <set>
      <set comment="spin 1">
       <r>  -4.7133   0.0000   0.0000 </r>
       <r>  -4.6526   0.0000   0.0000 </r>
       <r>  -4.5919   0.0000   0.0000 </r>
       <r>  -4.5311   0.0000   0.0000 </r>
       <r>  -4.4704   0.0000   0.0000 </r>
       <r>  -4.4097   0.0000   0.0000 </r>
       <r>  -4.3489   0.0000   0.0000 </r>
       <r>  -4.2882   0.0000   0.0000 </r>
       <r>  -4.2274   0.0000   0.0000 </r>
       <r>  -4.1667   0.0000   0.0000 </r>
       <r>  -4.1060   0.0000   0.0000 </r>
       <r>  -4.0452   0.0000   0.0000 </r>
       <r>  -3.9845   0.0000   0.0000 </r>
       <r>  -3.9238   0.0000   0.0000 </r>
       <r>  -3.8630   0.0000   0.0000 </r>
       <r>  -3.8023   0.0000   0.0000 </r>
       <r>  -3.7416   0.0000   0.0000 </r>
       <r>  -3.6808   0.0000   0.0000 </r>
       <r>  -3.6201   0.0000   0.0000 </r>
       <r>  -3.5593   0.0000   0.0000 </r>
       <r>  -3.4986   0.0000   0.0000 </r>
       <r>  -3.4379  -0.0001   0.0000 </r>
       <r>  -3.3771  -0.0004   0.0000 </r>
       <r>  -3.3164  -0.0024  -0.0002 </r>
       <r>  -3.2557  -0.0113  -0.0009 </r>
       <r>  -3.1949  -0.0429  -0.0035 </r>
       <r>  -3.1342  -0.1283  -0.0113 </r>
       <r>  -3.0734  -0.2892  -0.0288 </r>
       <r>  -3.0127  -0.4406  -0.0556 </r>
       <r>  -2.9520  -0.2471  -0.0706 </r>
       <r>  -2.8912   0.8485  -0.0191 </r>
       <r>  -2.8305   3.1611   0.1729 </r>
       <r>  -2.7698   6.0921   0.5429 </r>
       <r>  -2.7090   8.1265   1.0365 </r>
       <r>  -2.6483   7.9531   1.5196 </r>
       <r>  -2.5876   5.6900   1.8652 </r>
       <r>  -2.5268   2.7682   2.0333 </r>
       <r>  -2.4661   0.6186   2.0709 </r>
       <r>  -2.4053  -0.3161   2.0517 </r>
       <r>  -2.3446  -0.4291   2.0256 </r>
       <r>  -2.2839  -0.2633   2.0096 </r>
       <r>  -2.2231  -0.1145   2.0027 </r>
       <r>  -2.1624  -0.0517   1.9995 </r>
       <r>  -2.1017  -0.0763   1.9949 </r>
       <r>  -2.0409  -0.2298   1.9809 </r>
       <r>  -1.9802  -0.5978   1.9446 </r>
       <r>  -1.9194  -1.1359   1.8756 </r>
       <r>  -1.8587  -1.2627   1.7989 </r>
       <r>  -1.7980   0.4372   1.8255 </r>
       <r>  -1.7372   5.5350   2.1617 </r>
       <r>  -1.6765  13.8238   3.0013 </r>
       <r>  -1.6158  21.9304   4.3333 </r>
       <r>  -1.5550  25.0513   5.8548 </r>
       <r>  -1.4943  21.0874   7.1356 </r>
       <r>  -1.4336  12.6840   7.9060 </r>
       <r>  -1.3728   4.6781   8.1901 </r>
       <r>  -1.3121   0.0584   8.1937 </r>
       <r>  -1.2513  -1.3110   8.1140 </r>
       <r>  -1.1906  -1.0706   8.0490 </r>
       <r>  -1.1299  -0.5388   8.0163 </r>
       <r>  -1.0691  -0.2067   8.0037 </r>
       <r>  -1.0084  -0.0972   7.9978 </r>
       <r>  -0.9477  -0.1634   7.9879 </r>
       <r>  -0.8869  -0.4378   7.9613 </r>
       <r>  -0.8262  -0.9412   7.9042 </r>
       <r>  -0.7654  -1.3368   7.8230 </r>
       <r>  -0.7047  -0.5032   7.7924 </r>
       <r>  -0.6440   3.2459   7.9895 </r>
       <r>  -0.5832  10.6005   8.6334 </r>
       <r>  -0.5225  19.3328   9.8076 </r>
       <r>  -0.4618  24.7312  11.3097 </r>
       <r>  -0.4010  23.2653  12.7228 </r>
       <r>  -0.3403  15.9304  13.6903 </r>
       <r>  -0.2796   7.2714  14.1320 </r>
       <r>  -0.2188   1.2931  14.2105 </r>
       <r>  -0.1581  -1.0936  14.1441 </r>
       <r>  -0.0973  -1.2418  14.0686 </r>
       <r>  -0.0366  -0.7195  14.0250 </r>
       <r>   0.0241  -0.3014  14.0066 </r>
       <r>   0.0849  -0.1314  13.9987 </r>
       <r>   0.1456  -0.1778  13.9879 </r>
       <r>   0.2063  -0.4787  13.9588 </r>
       <r>   0.2671  -1.0972  13.8921 </r>
       <r>   0.3278  -1.7388  13.7865 </r>
       <r>   0.3886  -1.1546  13.7164 </r>
       <r>   0.4493   2.8560  13.8899 </r>
       <r>   0.5100  11.7387  14.6028 </r>
       <r>   0.5708  23.4569  16.0275 </r>
       <r>   0.6315  32.1318  17.9791 </r>
       <r>   0.6922  32.2309  19.9367 </r>
       <r>   0.7530  23.6867  21.3754 </r>
       <r>   0.8137  11.9632  22.1020 </r>
       <r>   0.8745   2.9873  22.2834 </r>
       <r>   0.9352  -1.1153  22.2157 </r>
       <r>   0.9959  -1.7456  22.1097 </r>
       <r>   1.0567  -1.1134  22.0421 </r>
       <r>   1.1174  -0.4947  22.0120 </r>
       <r>   1.1781  -0.2130  21.9991 </r>
       <r>   1.2389  -0.2535  21.9837 </r>
       <r>   1.2996  -0.6693  21.9430 </r>
       <r>   1.3603  -1.5644  21.8480 </r>
       <r>   1.4211  -2.5663  21.6921 </r>
       <r>   1.4818  -1.9295  21.5749 </r>
       <r>   1.5426   3.5927  21.7932 </r>
       <r>   1.6033  16.3973  22.7891 </r>
       <r>   1.6640  33.9135  24.8489 </r>
       <r>   1.7248  47.6093  27.7405 </r>
       <r>   1.7855  48.8405  30.7069 </r>
       <r>   1.8462  36.7696  32.9402 </r>
       <r>   1.9070  19.1883  34.1056 </r>
       <r>   1.9677   5.2258  34.4230 </r>
       <r>   2.0285  -1.4393  34.3356 </r>
       <r>   2.0892  -2.6484  34.1748 </r>
       <r>   2.1499  -1.7512  34.0684 </r>
       <r>   2.2107  -0.7860  34.0207 </r>
       <r>   2.2714  -0.2916  34.0030 </r>
       <r>   2.3321  -0.1856  33.9917 </r>
       <r>   2.3929  -0.3709  33.9692 </r>
       <r>   2.4536  -0.8261  33.9190 </r>
       <r>   2.5143  -1.3050  33.8397 </r>
       <r>   2.5751  -0.8630  33.7873 </r>
       <r>   2.6358   2.1524  33.9180 </r>
       <r>   2.6966   8.8222  34.4539 </r>
       <r>   2.7573  17.6116  35.5235 </r>
       <r>   2.8180  24.1074  36.9878 </r>
       <r>   2.8788  24.1656  38.4555 </r>
       <r>   2.9395  17.7464  39.5334 </r>
       <r>   3.0002   8.9539  40.0772 </r>
       <r>   3.0610   2.2295  40.2126 </r>
       <r>   3.1217  -0.8400  40.1616 </r>
       <r>   3.1825  -1.3095  40.0820 </r>
       <r>   3.2432  -0.8386  40.0311 </r>
       <r>   3.3039  -0.3942  40.0072 </r>
       <r>   3.3647  -0.2542  39.9917 </r>
       <r>   3.4254  -0.4831  39.9624 </r>
       <r>   3.4861  -1.1780  39.8908 </r>
       <r>   3.5469  -2.2058  39.7569 </r>
       <r>   3.6076  -2.4237  39.6097 </r>
       <r>   3.6683   0.8924  39.6639 </r>
       <r>   3.7291  10.7726  40.3182 </r>
       <r>   3.7898  26.8983  41.9519 </r>
       <r>   3.8506  42.9054  44.5578 </r>
       <r>   3.9113  49.5170  47.5653 </r>
       <r>   3.9720  42.3628  50.1383 </r>
       <r>   4.0328  26.1597  51.7272 </r>
       <r>   4.0935  10.2100  52.3473 </r>
       <r>   4.1542   0.6369  52.3860 </r>
       <r>   4.2150  -2.4622  52.2364 </r>
       <r>   4.2757  -2.1680  52.1047 </r>
       <r>   4.3365  -1.1530  52.0347 </r>
       <r>   4.3972  -0.5288  52.0026 </r>
       <r>   4.4579  -0.4900  51.9728 </r>
       <r>   4.5187  -1.0979  51.9062 </r>
       <r>   4.5794  -2.3889  51.7611 </r>
       <r>   4.6401  -3.6261  51.5408 </r>
       <r>   4.7009  -2.1225  51.4119 </r>
       <r>   4.7616   6.6292  51.8145 </r>
       <r>   4.8223  25.4671  53.3613 </r>
       <r>   4.8831  50.2412  56.4128 </r>
       <r>   4.9438  69.1464  60.6126 </r>
       <r>   5.0046  70.7571  64.9101 </r>
       <r>   5.0653  54.1020  68.1961 </r>
       <r>   5.1260  29.5105  69.9885 </r>
       <r>   5.1868   9.3046  70.5536 </r>
       <r>   5.2475  -1.0596  70.4893 </r>
       <r>   5.3082  -3.5507  70.2736 </r>
       <r>   5.3690  -2.6174  70.1147 </r>
       <r>   5.4297  -1.2758  70.0372 </r>
       <r>   5.4905  -0.5123  70.0060 </r>
       <r>   5.5512  -0.3202  69.9866 </r>
       <r>   5.6119  -0.5493  69.9532 </r>
       <r>   5.6727  -1.0547  69.8892 </r>
       <r>   5.7334  -1.3216  69.8089 </r>
       <r>   5.7941  -0.0486  69.8060 </r>
       <r>   5.8549   4.4226  70.0746 </r>
       <r>   5.9156  12.3297  70.8234 </r>
       <r>   5.9763  20.8085  72.0873 </r>
       <r>   6.0371  25.0264  73.6073 </r>
       <r>   6.0978  22.1767  74.9542 </r>
       <r>   6.1586  14.1800  75.8155 </r>
       <r>   6.2193   5.8141  76.1686 </r>
       <r>   6.2800   0.5669  76.2031 </r>
       <r>   6.3408  -1.2423  76.1276 </r>
       <r>   6.4015  -1.1582  76.0573 </r>
       <r>   6.4622  -0.6339  76.0188 </r>
       <r>   6.5230  -0.3173  75.9995 </r>
       <r>   6.5837  -0.3696  75.9770 </r>
       <r>   6.6445  -0.9005  75.9224 </r>
       <r>   6.7052  -1.9741  75.8025 </r>
       <r>   6.7659  -2.9691  75.6221 </r>
       <r>   6.8267  -1.6137  75.5241 </r>
       <r>   6.8874   5.8164  75.8774 </r>
       <r>   6.9481  21.4333  77.1792 </r>
       <r>   7.0089  41.3347  79.6897 </r>
       <r>   7.0696  55.5235  83.0620 </r>
       <r>   7.1303  55.1222  86.4100 </r>
       <r>   7.1911  40.4619  88.8675 </r>
       <r>   7.2518  20.7072  90.1252 </r>
       <r>   7.3126   5.5370  90.4615 </r>
       <r>   7.3733  -1.5752  90.3658 </r>
       <r>   7.4340  -2.8565  90.1923 </r>
       <r>   7.4948  -1.9101  90.0763 </r>
       <r>   7.5555  -0.8995  90.0217 </r>
       <r>   7.6162  -0.4479  89.9945 </r>
       <r>   7.6770  -0.5808  89.9592 </r>
       <r>   7.7377  -1.2994  89.8803 </r>
       <r>   7.7985  -2.3757  89.7360 </r>
       <r>   7.8592  -2.5175  89.5831 </r>
       <r>   7.9199   1.1525  89.6531 </r>
       <r>   7.9807  11.5594  90.3552 </r>
       <r>   8.0414  27.9162  92.0507 </r>
       <r>   8.1021  43.7306  94.7068 </r>
       <r>   8.1629  51.0564  97.8078 </r>
       <r>   8.2236  47.8617 100.7147 </r>
       <r>   8.2843  39.3537 103.1050 </r>
       <r>   8.3451  31.2969 105.0058 </r>
       <r>   8.4058  24.5194 106.4951 </r>
       <r>   8.4666  17.0850 107.5328 </r>
       <r>   8.5273   9.0075 108.0798 </r>
       <r>   8.5880   2.5468 108.2345 </r>
       <r>   8.6488  -0.7533 108.1888 </r>
       <r>   8.7095  -1.4384 108.1014 </r>
       <r>   8.7702  -0.9945 108.0410 </r>
       <r>   8.8310  -0.4717 108.0124 </r>
       <r>   8.8917  -0.2135 107.9994 </r>
       <r>   8.9525  -0.2528 107.9840 </r>
       <r>   9.0132  -0.6619 107.9438 </r>
       <r>   9.0739  -1.5506 107.8497 </r>
       <r>   9.1347  -2.5582 107.6943 </r>
       <r>   9.1954  -1.9608 107.5752 </r>
       <r>   9.2561   3.4778 107.7864 </r>
       <r>   9.3169  16.1913 108.7698 </r>
       <r>   9.3776  33.6917 110.8162 </r>
       <r>   9.4383  47.5002 113.7012 </r>
       <r>   9.4991  48.9173 116.6723 </r>
       <r>   9.5598  36.9768 118.9181 </r>
       <r>   9.6206  19.3846 120.0955 </r>
       <r>   9.6813   5.2655 120.4153 </r>
       <r>   9.7420  -1.7309 120.3101 </r>
       <r>   9.8028  -3.5927 120.0919 </r>
       <r>   9.8635  -3.7258 119.8656 </r>
       <r>   9.9242  -3.4235 119.6577 </r>
       <r>   9.9850  -0.8868 119.6038 </r>
       <r>  10.0457   7.2545 120.0445 </r>
       <r>  10.1065  22.0740 121.3852 </r>
       <r>  10.1672  38.7113 123.7364 </r>
       <r>  10.2279  48.1353 126.6600 </r>
       <r>  10.2887  45.0524 129.3963 </r>
       <r>  10.3494  33.7878 131.4485 </r>
       <r>  10.4101  24.1613 132.9159 </r>
       <r>  10.4709  21.4961 134.2216 </r>
       <r>  10.5316  22.4964 135.5879 </r>
       <r>  10.5923  20.8506 136.8543 </r>
       <r>  10.6531  14.5363 137.7372 </r>
       <r>  10.7138   6.6459 138.1409 </r>
       <r>  10.7746   0.9170 138.1965 </r>
       <r>  10.8353  -1.6225 138.0980 </r>
       <r>  10.8960  -2.0837 137.9714 </r>
       <r>  10.9568  -1.4447 137.8837 </r>
       <r>  11.0175   0.5838 137.9192 </r>
       <r>  11.0782   4.7403 138.2071 </r>
       <r>  11.1390  10.4435 138.8414 </r>
       <r>  11.1997  15.1372 139.7608 </r>
       <r>  11.2605  16.1423 140.7412 </r>
       <r>  11.3212  13.4095 141.5556 </r>
       <r>  11.3819   9.7285 142.1465 </r>
       <r>  11.4427   7.7852 142.6194 </r>
       <r>  11.5034   7.5932 143.0806 </r>
       <r>  11.5641   7.2360 143.5200 </r>
       <r>  11.6249   5.4717 143.8524 </r>
       <r>  11.6856   2.8757 144.0270 </r>
       <r>  11.7464   0.7503 144.0726 </r>
       <r>  11.8071  -0.2736 144.0560 </r>
       <r>  11.8678  -0.4463 144.0289 </r>
       <r>  11.9286  -0.2902 144.0113 </r>
       <r>  11.9893  -0.1285 144.0035 </r>
       <r>  12.0500  -0.0429 144.0009 </r>
       <r>  12.1108  -0.0113 144.0002 </r>
       <r>  12.1715  -0.0024 144.0000 </r>
       <r>  12.2322  -0.0004 144.0000 </r>
       <r>  12.2930  -0.0001 144.0000 </r>
       <r>  12.3537   0.0000 144.0000 </r>
       <r>  12.4145   0.0000 144.0000 </r>
       <r>  12.4752   0.0000 144.0000 </r>
       <r>  12.5359   0.0000 144.0000 </r>
       <r>  12.5967   0.0000 144.0000 </r>
       <r>  12.6574   0.0000 144.0000 </r>
       <r>  12.7181   0.0000 144.0000 </r>
       <r>  12.7789   0.0000 144.0000 </r>
       <r>  12.8396   0.0000 144.0000 </r>
       <r>  12.9004   0.0000 144.0000 </r>
       <r>  12.9611   0.0000 144.0000 </r>
       <r>  13.0218   0.0000 144.0000 </r>
       <r>  13.0826   0.0000 144.0000 </r>
       <r>  13.1433   0.0000 144.0000 </r>
       <r>  13.2040   0.0000 144.0000 </r>
       <r>  13.2648   0.0000 144.0000 </r>
       <r>  13.3255   0.0000 144.0000 </r>
       <r>  13.3862   0.0000 144.0000 </r>
       <r>  13.4470   0.0000 144.0000 </r>
       <r>  13.5077   0.0000 144.0000 </r>
      </set>
     </set>
    </array>
   </total>
  </dos>
 </calculation>
 <structure name="finalpos" >
  <crystal>
   <varray name="basis" >
    <v>       8.08705200       0.00000000       0.00000000 </v>
    <v>       0.00000000       8.08705200       0.00000000 </v>
    <v>       0.00000000       0.00000000       8.08705200 </v>
   </varray>
   <i name="volume">    528.89651690 </i>
   <varray name="rec_basis" >
    <v>       0.12365445       0.00000000       0.00000000 </v>
    <v>       0.00000000       0.12365445       0.00000000 </v>
    <v>       0.00000000       0.00000000       0.12365445 </v>
   </varray>
  </crystal>
  <varray name="positions" >
   <v>       0.00000000       0.00000000       0.00000000 </v>
   <v>       0.25000000       0.00000000       0.25000000 </v>
   <v>       0.25000000       0.25000000       0.00000000 </v>
   <v>       0.00000000       0.25000000       0.25000000 </v>
   <v>       0.50000000       0.00000000       0.00000000 </v>
   <v>       0.75000000       0.00000000       0.25000000 </v>
   <v>       0.75000000       0.25000000       0.00000000 </v>
   <v>       0.50000000       0.25000000       0.25000000 </v>
   <v>       0.00000000       0.50000000       0.00000000 </v>
   <v>       0.25000000       0.50000000       0.25000000 </v>
   <v>       0.25000000       0.75000000       0.00000000 </v>
   <v>       0.00000000       0.75000000       0.25000000 </v>
   <v>       0.50000000       0.50000000       0.00000000 </v>
   <v>       0.75000000       0.50000000       0.25000000 </v>
   <v>       0.75000000       0.75000000       0.00000000 </v>
   <v>       0.50000000       0.75000000       0.25000000 </v>
   <v>       0.00000000       0.00000000       0.50000000 </v>
   <v>       0.25000000       0.00000000       0.75000000 </v>
   <v>       0.25000000       0.25000000       0.50000000 </v>
   <v>       0.00000000       0.25000000       0.75000000 </v>
   <v>       0.50000000       0.00000000       0.50000000 </v>
   <v>       0.75000000       0.00000000       0.75000000 </v>
   <v>       0.75000000       0.25000000       0.50000000 </v>
   <v>       0.50000000       0.25000000       0.75000000 </v>
   <v>       0.00000000       0.50000000       0.50000000 </v>
   <v>       0.25000000       0.50000000       0.75000000 </v>
   <v>       0.25000000       0.75000000       0.50000000 </v>
   <v>       0.00000000       0.75000000       0.75000000 </v>
   <v>       0.50000000       0.50000000       0.50000000 </v>
   <v>       0.75000000       0.50000000       0.75000000 </v>
   <v>       0.75000000       0.75000000       0.50000000 </v>
   <v>       0.50000000       0.75000000       0.75000000 </v>
  </varray>
 </structure>
</modeling>
