  32  32   0   0
  0.1593307E+02  0.7988830E-09  0.7988830E-09  0.7988830E-09  0.5000000E-15
  1.000000000000000E-004
  CAR 
 unknown system                          
     16.63708528     -4.71322795  301      8.12805684      1.00000000
     -4.713  0.0000E+00  0.0000E+00
     -4.642  0.0000E+00  0.0000E+00
     -4.571  0.0000E+00  0.0000E+00
     -4.500  0.0000E+00  0.0000E+00
     -4.429  0.0000E+00  0.0000E+00
     -4.357 -0.1523E-29 -0.1084E-30
     -4.286 -0.4445E-27 -0.3174E-28
     -4.215 -0.1007E-24 -0.7201E-26
     -4.144 -0.1768E-22 -0.1265E-23
     -4.073 -0.2402E-20 -0.1722E-21
     -4.002 -0.2524E-18 -0.1814E-19
     -3.930 -0.2052E-16 -0.1479E-17
     -3.859 -0.1249E-14 -0.9036E-16
     -3.788 -0.6047E-13 -0.4394E-14
     -3.717 -0.2253E-11 -0.1648E-12
     -3.646 -0.6467E-10 -0.4767E-11
     -3.575 -0.1426E-08 -0.1063E-09
     -3.503 -0.2411E-07 -0.1822E-08
     -3.432 -0.3113E-06 -0.2398E-07
     -3.361 -0.3056E-05 -0.2414E-06
     -3.290 -0.2261E-04 -0.1851E-05
     -3.219 -0.1246E-03 -0.1072E-04
     -3.148 -0.4995E-03 -0.4627E-04
     -3.076 -0.1385E-02 -0.1449E-03
     -3.005 -0.2290E-02 -0.3078E-03
     -2.934 -0.5046E-03 -0.3437E-03
     -2.863  0.8423E-02  0.2557E-03
     -2.792  0.2504E-01  0.2038E-02
     -2.721  0.4039E-01  0.4912E-02
     -2.649  0.4215E-01  0.7912E-02
     -2.578  0.2874E-01  0.9957E-02
     -2.507  0.1135E-01  0.1076E-01
     -2.436  0.6166E-03  0.1081E-01
     -2.365 -0.2283E-02  0.1065E-01
     -2.294 -0.1618E-02  0.1053E-01
     -2.222 -0.6504E-03  0.1048E-01
     -2.151 -0.2689E-03  0.1047E-01
     -2.080 -0.5436E-03  0.1043E-01
     -2.009 -0.1913E-02  0.1029E-01
     -1.938 -0.4850E-02  0.9946E-02
     -1.867 -0.6848E-02  0.9458E-02
     -1.795  0.1850E-02  0.9590E-02
     -1.724  0.3406E-01  0.1201E-01
     -1.653  0.8622E-01  0.1815E-01
     -1.582  0.1264E+00  0.2715E-01
     -1.511  0.1212E+00  0.3577E-01
     -1.440  0.7512E-01  0.4112E-01
     -1.368  0.2527E-01  0.4292E-01
     -1.297 -0.1514E-02  0.4281E-01
     -1.226 -0.6870E-02  0.4232E-01
     -1.155 -0.4160E-02  0.4202E-01
     -1.084 -0.1526E-02  0.4191E-01
     -1.013 -0.5483E-03  0.4188E-01
     -0.941 -0.8828E-03  0.4181E-01
     -0.870 -0.2721E-02  0.4162E-01
     -0.799 -0.5907E-02  0.4120E-01
     -0.728 -0.5877E-02  0.4078E-01
     -0.657  0.9374E-02  0.4145E-01
     -0.586  0.4990E-01  0.4500E-01
     -0.514  0.1027E+00  0.5231E-01
     -0.443  0.1305E+00  0.6159E-01
     -0.372  0.1091E+00  0.6936E-01
     -0.301  0.5741E-01  0.7345E-01
     -0.230  0.1358E-01  0.7441E-01
     -0.158 -0.4975E-02  0.7406E-01
     -0.087 -0.6303E-02  0.7361E-01
     -0.016 -0.3133E-02  0.7339E-01
      0.055 -0.1078E-02  0.7331E-01
      0.126 -0.7141E-03  0.7326E-01
      0.197 -0.2016E-02  0.7312E-01
      0.269 -0.5511E-02  0.7272E-01
      0.340 -0.9151E-02  0.7207E-01
      0.411 -0.2163E-02  0.7192E-01
      0.482  0.3327E-01  0.7429E-01
      0.553  0.9959E-01  0.8137E-01
      0.624  0.1612E+00  0.9285E-01
      0.696  0.1688E+00  0.1049E+00
      0.767  0.1155E+00  0.1131E+00
      0.838  0.4588E-01  0.1163E+00
      0.909  0.2666E-02  0.1165E+00
      0.980 -0.9119E-02  0.1159E+00
      1.051 -0.6509E-02  0.1154E+00
      1.123 -0.2627E-02  0.1152E+00
      1.194 -0.1059E-02  0.1152E+00
      1.265 -0.1844E-02  0.1150E+00
      1.336 -0.5638E-02  0.1146E+00
      1.407 -0.1202E-01  0.1138E+00
      1.478 -0.1137E-01  0.1130E+00
      1.550  0.2072E-01  0.1144E+00
      1.621  0.1035E+00  0.1218E+00
      1.692  0.2087E+00  0.1367E+00
      1.763  0.2612E+00  0.1552E+00
      1.834  0.2152E+00  0.1706E+00
      1.905  0.1111E+00  0.1785E+00
      1.977  0.2498E-01  0.1802E+00
      2.048 -0.1046E-01  0.1795E+00
      2.119 -0.1242E-01  0.1786E+00
      2.190 -0.6049E-02  0.1782E+00
      2.261 -0.1998E-02  0.1780E+00
      2.332 -0.9792E-03  0.1780E+00
      2.404 -0.2119E-02  0.1778E+00
      2.475 -0.5073E-02  0.1775E+00
      2.546 -0.6760E-02  0.1770E+00
      2.617  0.3103E-02  0.1772E+00
      2.688  0.3699E-01  0.1798E+00
      2.759  0.8959E-01  0.1862E+00
      2.831  0.1277E+00  0.1953E+00
      2.902  0.1191E+00  0.2038E+00
      2.973  0.7163E-01  0.2089E+00
      3.044  0.2276E-01  0.2105E+00
      3.115 -0.2362E-02  0.2103E+00
      3.186 -0.6813E-02  0.2098E+00
      3.258 -0.3988E-02  0.2095E+00
      3.329 -0.1667E-02  0.2094E+00
      3.400 -0.1684E-02  0.2093E+00
      3.471 -0.4694E-02  0.2090E+00
      3.542 -0.1067E-01  0.2082E+00
      3.613 -0.1237E-01  0.2073E+00
      3.685  0.1168E-01  0.2082E+00
      3.756  0.8374E-01  0.2141E+00
      3.827  0.1874E+00  0.2275E+00
      3.898  0.2550E+00  0.2456E+00
      3.969  0.2297E+00  0.2620E+00
      4.040  0.1336E+00  0.2715E+00
      4.112  0.4038E-01  0.2743E+00
      4.183 -0.5635E-02  0.2739E+00
      4.254 -0.1302E-01  0.2730E+00
      4.325 -0.7440E-02  0.2725E+00
      4.396 -0.3014E-02  0.2723E+00
      4.467 -0.2714E-02  0.2721E+00
      4.539 -0.7117E-02  0.2716E+00
      4.610 -0.1565E-01  0.2705E+00
      4.681 -0.1716E-01  0.2692E+00
      4.752  0.1943E-01  0.2706E+00
      4.823  0.1248E+00  0.2795E+00
      4.894  0.2745E+00  0.2990E+00
      4.966  0.3731E+00  0.3256E+00
      5.037  0.3405E+00  0.3498E+00
      5.108  0.2049E+00  0.3644E+00
      5.179  0.6834E-01  0.3693E+00
      5.250 -0.3514E-02  0.3690E+00
      5.321 -0.1831E-01  0.3677E+00
      5.393 -0.1145E-01  0.3669E+00
      5.464 -0.4425E-02  0.3666E+00
      5.535 -0.1786E-02  0.3665E+00
      5.606 -0.2535E-02  0.3663E+00
      5.677 -0.5467E-02  0.3659E+00
      5.748 -0.6496E-02  0.3654E+00
      5.820  0.5552E-02  0.3658E+00
      5.891  0.4234E-01  0.3688E+00
      5.962  0.9534E-01  0.3756E+00
      6.033  0.1293E+00  0.3848E+00
      6.104  0.1152E+00  0.3930E+00
      6.175  0.6552E-01  0.3977E+00
      6.247  0.1861E-01  0.3990E+00
      6.318 -0.3641E-02  0.3987E+00
      6.389 -0.6645E-02  0.3983E+00
      6.460 -0.3658E-02  0.3980E+00
      6.531 -0.1659E-02  0.3979E+00
      6.602 -0.2339E-02  0.3977E+00
      6.674 -0.6647E-02  0.3973E+00
      6.745 -0.1375E-01  0.3963E+00
      6.816 -0.1221E-01  0.3954E+00
      6.887  0.2554E-01  0.3972E+00
      6.958  0.1201E+00  0.4058E+00
      7.029  0.2391E+00  0.4228E+00
      7.101  0.2990E+00  0.4441E+00
      7.172  0.2491E+00  0.4618E+00
      7.243  0.1326E+00  0.4712E+00
      7.314  0.3363E-01  0.4736E+00
      7.385 -0.9610E-02  0.4729E+00
      7.456 -0.1398E-01  0.4719E+00
      7.528 -0.7375E-02  0.4714E+00
      7.599 -0.2920E-02  0.4712E+00
      7.670 -0.2696E-02  0.4710E+00
      7.741 -0.6662E-02  0.4705E+00
      7.812 -0.1300E-01  0.4696E+00
      7.883 -0.9840E-02  0.4689E+00
      7.955  0.2797E-01  0.4709E+00
      8.026  0.1146E+00  0.4791E+00
      8.097  0.2160E+00  0.4944E+00
      8.168  0.2664E+00  0.5134E+00
      8.239  0.2438E+00  0.5307E+00
      8.310  0.1909E+00  0.5443E+00
      8.382  0.1456E+00  0.5547E+00
      8.453  0.1024E+00  0.5620E+00
      8.524  0.5317E-01  0.5658E+00
      8.595  0.1291E-01  0.5667E+00
      8.666 -0.5319E-02  0.5663E+00
      8.737 -0.6930E-02  0.5658E+00
      8.809 -0.3610E-02  0.5656E+00
      8.880 -0.1367E-02  0.5655E+00
      8.951 -0.1227E-02  0.5654E+00
      9.022 -0.3657E-02  0.5651E+00
      9.093 -0.9376E-02  0.5644E+00
      9.164 -0.1378E-01  0.5635E+00
      9.236  0.1921E-02  0.5636E+00
      9.307  0.6375E-01  0.5681E+00
      9.378  0.1672E+00  0.5800E+00
      9.449  0.2507E+00  0.5979E+00
      9.520  0.2452E+00  0.6153E+00
      9.591  0.1555E+00  0.6264E+00
      9.663  0.5424E-01  0.6303E+00
      9.734 -0.2956E-02  0.6300E+00
      9.805 -0.1847E-01  0.6287E+00
      9.876 -0.1948E-01  0.6273E+00
      9.947 -0.1592E-01  0.6262E+00
     10.018  0.1051E-01  0.6270E+00
     10.090  0.8330E-01  0.6329E+00
     10.161  0.1857E+00  0.6461E+00
     10.232  0.2503E+00  0.6639E+00
     10.303  0.2286E+00  0.6802E+00
     10.374  0.1584E+00  0.6915E+00
     10.445  0.1155E+00  0.6997E+00
     10.517  0.1157E+00  0.7079E+00
     10.588  0.1123E+00  0.7159E+00
     10.659  0.7657E-01  0.7214E+00
     10.730  0.2906E-01  0.7234E+00
     10.801 -0.1690E-02  0.7233E+00
     10.873 -0.1221E-01  0.7224E+00
     10.944 -0.1139E-01  0.7216E+00
     11.015  0.2178E-02  0.7218E+00
     11.086  0.3819E-01  0.7245E+00
     11.157  0.8971E-01  0.7309E+00
     11.228  0.1217E+00  0.7395E+00
     11.300  0.1046E+00  0.7470E+00
     11.371  0.6046E-01  0.7513E+00
     11.442  0.5337E-01  0.7551E+00
     11.513  0.1205E+00  0.7637E+00
     11.584  0.2182E+00  0.7792E+00
     11.655  0.2562E+00  0.7974E+00
     11.727  0.1964E+00  0.8114E+00
     11.798  0.9133E-01  0.8179E+00
     11.869  0.1446E-01  0.8189E+00
     11.940 -0.1253E-01  0.8180E+00
     12.011 -0.1156E-01  0.8172E+00
     12.082 -0.6182E-02  0.8168E+00
     12.154 -0.5740E-02  0.8164E+00
     12.225 -0.1069E-01  0.8156E+00
     12.296 -0.1341E-01  0.8147E+00
     12.367  0.7829E-02  0.8152E+00
     12.438  0.7763E-01  0.8207E+00
     12.509  0.1832E+00  0.8338E+00
     12.581  0.2566E+00  0.8520E+00
     12.652  0.2357E+00  0.8688E+00
     12.723  0.1389E+00  0.8787E+00
     12.794  0.4211E-01  0.8817E+00
     12.865 -0.7397E-02  0.8812E+00
     12.936 -0.1808E-01  0.8799E+00
     13.008 -0.1463E-01  0.8788E+00
     13.079 -0.2816E-02  0.8786E+00
     13.150  0.2776E-01  0.8806E+00
     13.221  0.7675E-01  0.8861E+00
     13.292  0.1175E+00  0.8944E+00
     13.363  0.1245E+00  0.9033E+00
     13.435  0.1111E+00  0.9112E+00
     13.506  0.1106E+00  0.9191E+00
     13.577  0.1207E+00  0.9277E+00
     13.648  0.1089E+00  0.9354E+00
     13.719  0.7281E-01  0.9406E+00
     13.790  0.5309E-01  0.9444E+00
     13.862  0.7665E-01  0.9498E+00
     13.933  0.1156E+00  0.9581E+00
     14.004  0.1210E+00  0.9667E+00
     14.075  0.8184E-01  0.9725E+00
     14.146  0.3076E-01  0.9747E+00
     14.217 -0.1503E-02  0.9746E+00
     14.289 -0.1236E-01  0.9737E+00
     14.360 -0.1096E-01  0.9729E+00
     14.431  0.4438E-02  0.9732E+00
     14.502  0.4282E-01  0.9763E+00
     14.573  0.9574E-01  0.9831E+00
     14.644  0.1288E+00  0.9923E+00
     14.716  0.1142E+00  0.1000E+01
     14.787  0.6479E-01  0.1005E+01
     14.858  0.1844E-01  0.1006E+01
     14.929 -0.3541E-02  0.1006E+01
     15.000 -0.6542E-02  0.1006E+01
     15.071 -0.3552E-02  0.1005E+01
     15.143 -0.1201E-02  0.1005E+01
     15.214 -0.2847E-03  0.1005E+01
     15.285 -0.4944E-04  0.1005E+01
     15.356 -0.6419E-05  0.1005E+01
     15.427 -0.6303E-06  0.1005E+01
     15.498 -0.4715E-07  0.1005E+01
     15.570 -0.2700E-08  0.1005E+01
     15.641 -0.1187E-09  0.1005E+01
     15.712 -0.4019E-11  0.1005E+01
     15.783 -0.1049E-12  0.1005E+01
     15.854 -0.2124E-14  0.1005E+01
     15.925 -0.3267E-16  0.1005E+01
     15.997  0.0000E+00  0.1005E+01
     16.068  0.0000E+00  0.1005E+01
     16.139  0.0000E+00  0.1005E+01
     16.210  0.0000E+00  0.1005E+01
     16.281  0.0000E+00  0.1005E+01
     16.352  0.0000E+00  0.1005E+01
     16.424  0.0000E+00  0.1005E+01
     16.495  0.0000E+00  0.1005E+01
     16.566  0.0000E+00  0.1005E+01
     16.637  0.0000E+00  0.1005E+01
