<?xml version="1.0" encoding="ISO-8859-1"?>
<modeling>
 <generator>
  <i name="program" type="string">vasp </i>
  <i name="version" type="string">5.2.2  </i>
  <i name="subversion" type="string">15Apr09 complex  parallel </i>
  <i name="platform" type="string">LinuxIFC </i>
  <i name="date" type="string">2016 12 16 </i>
  <i name="time" type="string">15:45:54 </i>
 </generator>
 <incar>
  <i type="string" name="PREC">accurate</i>
  <i type="int" name="IALGO">    48</i>
  <i type="int" name="IBRION">     2</i>
  <i name="EDIFFG">      0.05000000</i>
  <i type="int" name="NSW">   191</i>
  <i type="int" name="ISIF">     3</i>
  <i name="ENCUT">    300.00000000</i>
  <i type="int" name="ISMEAR">     1</i>
  <i name="SIGMA">      0.20000000</i>
  <i type="logical" name="LWAVE"> F  </i>
  <i type="logical" name="LCHARG"> F  </i>
  <i type="logical" name="LPEAD"> F  </i>
  <i type="logical" name="LCALCPOL"> F  </i>
  <i type="logical" name="LCALCEPS"> F  </i>
  <v name="EFIELD_PEAD">      0.00000000      0.00000000      0.00000000</v>
  <i type="logical" name="LEFG"> F  </i>
 </incar>
 <kpoints>
  <generation param="Monkhorst-Pack">
   <v type="int" name="divisions">       2        2        2 </v>
   <v name="usershift">      0.00000000       0.00000000       0.00000000 </v>
   <v name="genvec1">      0.50000000       0.00000000       0.00000000 </v>
   <v name="genvec2">      0.00000000       0.50000000       0.00000000 </v>
   <v name="genvec3">      0.00000000       0.00000000       0.50000000 </v>
   <v name="shift">      0.50000000       0.50000000       0.50000000 </v>
  </generation>
  <varray name="kpointlist" >
   <v>       0.25000000       0.25000000       0.25000000 </v>
  </varray>
  <varray name="weights" >
   <v>       1.00000000 </v>
  </varray>
 </kpoints>
 <parameters>
  <separator name="general" >
   <i type="string" name="SYSTEM">unknown system</i>
   <i type="logical" name="LCOMPAT"> F  </i>
  </separator>
  <separator name="electronic" >
   <i type="string" name="PREC">accura</i>
   <i name="ENMAX">    300.00000000</i>
   <i name="ENAUG">    291.05200000</i>
   <i name="EDIFF">      0.00010000</i>
   <i type="int" name="IALGO">    48</i>
   <i type="int" name="IWAVPR">    11</i>
   <i type="int" name="NBANDS">    96</i>
   <i name="NELECT">     96.00000000</i>
   <separator name="electronic smearing" >
    <i type="int" name="ISMEAR">     1</i>
    <i name="SIGMA">      0.20000000</i>
   </separator>
   <separator name="electronic projectors" >
    <i type="logical" name="LREAL"> F  </i>
    <v name="ROPT">      0.00000000</v>
    <i type="int" name="LMAXPAW">  -100</i>
    <i type="int" name="LMAXMIX">     2</i>
   </separator>
   <separator name="electronic startup" >
    <i type="int" name="ISTART">     0</i>
    <i type="int" name="ICHARG">     2</i>
    <i type="int" name="INIWAV">     1</i>
   </separator>
   <separator name="electronic spin" >
    <i type="int" name="ISPIN">     1</i>
    <i type="logical" name="LNONCOLLINEAR"> F  </i>
    <v name="MAGMOM">      1.00000000      1.00000000      1.00000000      1.00000000      1.00000000      1.00000000      1.00000000      1.00000000      1.00000000      1.00000000      1.00000000      1.00000000      1.00000000      1.00000000      1.00000000      1.00000000      1.00000000      1.00000000      1.00000000      1.00000000
      1.00000000      1.00000000      1.00000000      1.00000000      1.00000000      1.00000000      1.00000000      1.00000000      1.00000000      1.00000000      1.00000000      1.00000000</v>
    <i name="NUPDOWN">     -1.00000000</i>
    <i type="logical" name="LSORBIT"> F  </i>
    <v name="SAXIS">      0.00000000      0.00000000      1.00000000</v>
    <i type="logical" name="LSPIRAL"> F  </i>
    <v name="QSPIRAL">      0.00000000      0.00000000      0.00000000</v>
    <i type="logical" name="LZEROZ"> F  </i>
   </separator>
   <separator name="electronic exchange-correlation" >
    <i type="logical" name="LASPH"> F  </i>
    <i type="logical" name="LMETAGGA"> F  </i>
   </separator>
   <separator name="electronic convergence" >
    <i type="int" name="NELM">    60</i>
    <i type="int" name="NELMDL">   -12</i>
    <i type="int" name="NELMIN">     2</i>
    <i name="ENINI">    300.00000000</i>
    <separator name="electronic convergence detail" >
     <i type="logical" name="LDIAG"> T  </i>
     <i name="WEIMIN">      0.00100000</i>
     <i name="EBREAK">      0.00000038</i>
     <i name="DEPER">      0.30000000</i>
     <i type="int" name="NRMM">     4</i>
     <i name="TIME">      0.40000000</i>
    </separator>
   </separator>
   <separator name="electronic mixer" >
    <i name="AMIX">      0.40000000</i>
    <i name="BMIX">      1.00000000</i>
    <i name="AMIN">      0.10000000</i>
    <i name="AMIX_MAG">      1.60000000</i>
    <i name="BMIX_MAG">      1.00000000</i>
    <separator name="electronic mixer details" >
     <i type="int" name="IMIX">     4</i>
     <i type="int" name="MAXMIX">   -45</i>
     <i name="WC">    100.00000000</i>
     <i type="int" name="INIMIX">     1</i>
     <i type="int" name="MIXPRE">     1</i>
     <i type="int" name="MREMOVE">     5</i>
    </separator>
   </separator>
   <separator name="electronic dipolcorrection" >
    <i type="logical" name="LDIPOL"> F  </i>
    <i type="logical" name="LMONO"> F  </i>
    <i type="int" name="IDIPOL">     0</i>
    <i name="EPSILON">      1.00000000</i>
    <v name="DIPOL">   -100.00000000   -100.00000000   -100.00000000</v>
    <i name="EFIELD">      0.00000000</i>
   </separator>
  </separator>
  <separator name="grids" >
   <i type="int" name="NGX">    48</i>
   <i type="int" name="NGY">    48</i>
   <i type="int" name="NGZ">    48</i>
   <i type="int" name="NGXF">    96</i>
   <i type="int" name="NGYF">    96</i>
   <i type="int" name="NGZF">    96</i>
   <i type="logical" name="ADDGRID"> F  </i>
  </separator>
  <separator name="ionic" >
   <i type="int" name="NSW">   191</i>
   <i type="int" name="IBRION">     2</i>
   <i type="int" name="ISIF">     3</i>
   <i name="PSTRESS">      0.00000000</i>
   <i name="EDIFFG">      0.05000000</i>
   <i type="int" name="NFREE">     1</i>
   <i name="POTIM">      0.50000000</i>
   <i name="SMASS">     -3.00000000</i>
  </separator>
  <separator name="ionic md" >
   <i name="TEBEG">      0.00010000</i>
   <i name="TEEND">      0.00010000</i>
   <i type="int" name="NBLOCK">     1</i>
   <i type="int" name="KBLOCK">   191</i>
   <i type="int" name="NPACO">   256</i>
   <i name="APACO">     16.00000000</i>
  </separator>
  <separator name="symmetry" >
   <i type="int" name="ISYM">     2</i>
   <i name="SYMPREC">      0.00001000</i>
  </separator>
  <separator name="dos" >
   <i type="logical" name="LORBIT"> F  </i>
   <v name="RWIGS">     -1.00000000</v>
   <i type="int" name="NEDOS">   301</i>
   <i name="EMIN">     10.00000000</i>
   <i name="EMAX">    -10.00000000</i>
   <i name="EFERMI">      0.00000000</i>
  </separator>
  <separator name="writing" >
   <i type="int" name="NWRITE">     2</i>
   <i type="logical" name="LWAVE"> F  </i>
   <i type="logical" name="LCHARG"> F  </i>
   <i type="logical" name="LPARD"> F  </i>
   <i type="logical" name="LVTOT"> F  </i>
   <i type="logical" name="LELF"> F  </i>
   <i type="logical" name="LOPTICS"> F  </i>
   <v name="STM">      0.00000000      0.00000000      0.00000000      0.00000000      0.00000000</v>
  </separator>
  <separator name="performance" >
   <i type="int" name="NPAR">    32</i>
   <i type="int" name="NSIM">     4</i>
   <i type="int" name="NBLK">    32</i>
   <i type="logical" name="LPLANE"> T  </i>
   <i type="logical" name="LSCALAPACK"> F  </i>
   <i type="logical" name="LSCAAWARE"> F  </i>
   <i type="logical" name="LSCALU"> F  </i>
   <i type="logical" name="LASYNC"> F  </i>
  </separator>
  <separator name="miscellaneous" >
   <i type="int" name="IDIOT">     3</i>
   <i type="logical" name="LMUSIC"> F  </i>
   <v name="POMASS">     26.98200000</v>
   <i type="logical" name="LCORR"> T  </i>
  </separator>
  <i type="logical" name="LREAL_COMPAT"> F  </i>
  <i type="logical" name="GGA_COMPAT"> T  </i>
  <i type="logical" name="LBERRY"> F  </i>
  <i type="int" name="ICORELEVEL">     0</i>
  <i type="logical" name="LDAU"> F  </i>
  <i type="int" name="I_CONSTRAINED_M">     0</i>
  <separator name="electronic exchange-correlation" >
   <i type="string" name="GGA">--</i>
   <i type="int" name="VOSKOWN">     0</i>
   <i type="logical" name="LHFCALC"> F  </i>
   <i type="logical" name="LHFONE"> F  </i>
   <i type="logical" name="LRHFCALC"> F  </i>
   <i type="logical" name="LTHOMAS"> F  </i>
   <i type="logical" name="LMODELHF"> F  </i>
   <i name="ENCUTFOCK">      0.00000000</i>
   <i name="ENCUT4O">     -1.00000000</i>
   <i type="int" name="EXXOEP">     0</i>
   <i type="int" name="FOURORBIT">     0</i>
   <i name="AEXX">      0.00000000</i>
   <i name="HFALPHA">      0.00000000</i>
   <i name="ALDAX">      1.00000000</i>
   <i name="AGGAX">      1.00000000</i>
   <i name="ALDAC">      1.00000000</i>
   <i name="AGGAC">      1.00000000</i>
   <i type="int" name="NKREDX">     1</i>
   <i type="int" name="NKREDY">     1</i>
   <i type="int" name="NKREDZ">     1</i>
   <i type="logical" name="SHIFTRED"> F  </i>
   <i type="logical" name="ODDONLY"> F  </i>
   <i type="logical" name="EVENONLY"> F  </i>
   <i type="int" name="LMAXFOCK">     0</i>
   <i type="int" name="NMAXFOCKAE">     0</i>
   <i name="HFSCREEN">      0.00000000</i>
   <i name="HFSCREENC">      0.00000000</i>
  </separator>
  <separator name="model GW" >
   <i type="int" name="MODEL_GW">     0</i>
   <i name="MODEL_EPS0">      9.55984412</i>
   <i name="MODEL_ALPHA">      1.00000000</i>
  </separator>
  <separator name="linear response parameters" >
   <i type="logical" name="LEPSILON"> F  </i>
   <i type="logical" name="LRPA"> F  </i>
   <i type="logical" name="LNABLA"> F  </i>
   <i type="logical" name="LVEL"> F  </i>
   <i type="int" name="KINTER">     0</i>
   <i name="CSHIFT">      0.10000000</i>
   <i name="OMEGAMAX">     -1.00000000</i>
  </separator>
  <separator name="orbital magnetization" >
   <i type="logical" name="ORBITALMAG"> F  </i>
   <i type="logical" name="LMAGBLOCH"> F  </i>
   <i type="logical" name="LCHIMAG"> F  </i>
   <i type="logical" name="LGAUGE"> T  </i>
   <i type="int" name="MAGATOM">     0</i>
   <v name="MAGDIPOL">      0.00000000      0.00000000      0.00000000</v>
   <v name="AVECCONST">      0.00000000      0.00000000      0.00000000</v>
  </separator>
  <separator name="response functions" >
   <i type="logical" name="LRPA"> T  </i>
   <i type="logical" name="LTCTE"> F  </i>
   <i type="logical" name="LTETE"> F  </i>
   <i type="logical" name="L2ORDER"> F  </i>
   <i type="logical" name="LGWLF"> F  </i>
   <i name="ENCUTGW">    200.00000000</i>
   <i name="ENCUTGWSOFT">     -2.00000000</i>
   <i name="ENCUTLF">     -1.00000000</i>
   <i type="int" name="LMAXMP2">    -1</i>
   <i name="SCISSOR">      0.00000000</i>
   <i type="int" name="NOMEGA">     0</i>
   <i type="int" name="NOMEGAR">     0</i>
   <i type="int" name="NBANDSGW">    -1</i>
   <i type="int" name="NBANDSLF">    -1</i>
   <i type="int" name="NELM">     1</i>
   <i type="int" name="DIM">     3</i>
   <i type="int" name="ANTIRES">     0</i>
   <i type="logical" name="LUSEW"> F  </i>
   <i name="OMEGAMAX">    -30.00000000</i>
   <i name="OMEGATL">   -200.00000000</i>
   <i type="int" name="OMEGAGRID">     0</i>
   <i name="CSHIFT">     -0.10000000</i>
   <i type="logical" name="SELFENERGY"> F  </i>
   <i type="logical" name="LSPECTRAL"> F  </i>
   <i type="logical" name="ODDONLYGW"> F  </i>
   <i type="logical" name="EVENONLYGW"> F  </i>
   <i type="int" name="NKREDLFX">     1</i>
   <i type="int" name="NKREDLFY">     1</i>
   <i type="int" name="NKREDLFZ">     1</i>
   <i type="int" name="MAXMEM">  1024</i>
   <i type="int" name="TELESCOPE">     0</i>
  </separator>
 </parameters>
 <atominfo>
  <atoms>      32 </atoms>
  <types>       1 </types>
  <array name="atoms" >
   <dimension dim="1">ion</dimension>
   <field type="string">element</field>
   <field type="int">atomtype</field>
   <set>
    <rc><c>Al</c><c>   1</c></rc>
    <rc><c>Al</c><c>   1</c></rc>
    <rc><c>Al</c><c>   1</c></rc>
    <rc><c>Al</c><c>   1</c></rc>
    <rc><c>Al</c><c>   1</c></rc>
    <rc><c>Al</c><c>   1</c></rc>
    <rc><c>Al</c><c>   1</c></rc>
    <rc><c>Al</c><c>   1</c></rc>
    <rc><c>Al</c><c>   1</c></rc>
    <rc><c>Al</c><c>   1</c></rc>
    <rc><c>Al</c><c>   1</c></rc>
    <rc><c>Al</c><c>   1</c></rc>
    <rc><c>Al</c><c>   1</c></rc>
    <rc><c>Al</c><c>   1</c></rc>
    <rc><c>Al</c><c>   1</c></rc>
    <rc><c>Al</c><c>   1</c></rc>
    <rc><c>Al</c><c>   1</c></rc>
    <rc><c>Al</c><c>   1</c></rc>
    <rc><c>Al</c><c>   1</c></rc>
    <rc><c>Al</c><c>   1</c></rc>
    <rc><c>Al</c><c>   1</c></rc>
    <rc><c>Al</c><c>   1</c></rc>
    <rc><c>Al</c><c>   1</c></rc>
    <rc><c>Al</c><c>   1</c></rc>
    <rc><c>Al</c><c>   1</c></rc>
    <rc><c>Al</c><c>   1</c></rc>
    <rc><c>Al</c><c>   1</c></rc>
    <rc><c>Al</c><c>   1</c></rc>
    <rc><c>Al</c><c>   1</c></rc>
    <rc><c>Al</c><c>   1</c></rc>
    <rc><c>Al</c><c>   1</c></rc>
    <rc><c>Al</c><c>   1</c></rc>
   </set>
  </array>
  <array name="atomtypes" >
   <dimension dim="1">type</dimension>
   <field type="int">atomspertype</field>
   <field type="string">element</field>
   <field>mass</field>
   <field>valence</field>
   <field type="string">pseudopotential</field>
   <set>
    <rc><c>  32</c><c>Al</c><c>     26.98200000</c><c>      3.00000000</c><c> PAW_PBE Al 04Jan2001                   </c></rc>
   </set>
  </array>
 </atominfo>
 <structure name="initialpos" >
  <crystal>
   <varray name="basis" >
    <v>       7.98883000       0.00000000       0.00000000 </v>
    <v>       0.00000000       7.98883000       0.00000000 </v>
    <v>       0.00000000       0.00000000       7.98883000 </v>
   </varray>
   <i name="volume">    509.85835306 </i>
   <varray name="rec_basis" >
    <v>       0.12517478       0.00000000       0.00000000 </v>
    <v>       0.00000000       0.12517478       0.00000000 </v>
    <v>       0.00000000       0.00000000       0.12517478 </v>
   </varray>
  </crystal>
  <varray name="positions" >
   <v>       0.00000000       0.00000000       0.00000000 </v>
   <v>       0.25000000       0.00000000       0.25000000 </v>
   <v>       0.25000000       0.25000000       0.00000000 </v>
   <v>       0.00000000       0.25000000       0.25000000 </v>
   <v>       0.50000000       0.00000000       0.00000000 </v>
   <v>       0.75000000       0.00000000       0.25000000 </v>
   <v>       0.75000000       0.25000000       0.00000000 </v>
   <v>       0.50000000       0.25000000       0.25000000 </v>
   <v>       0.00000000       0.50000000       0.00000000 </v>
   <v>       0.25000000       0.50000000       0.25000000 </v>
   <v>       0.25000000       0.75000000       0.00000000 </v>
   <v>       0.00000000       0.75000000       0.25000000 </v>
   <v>       0.50000000       0.50000000       0.00000000 </v>
   <v>       0.75000000       0.50000000       0.25000000 </v>
   <v>       0.75000000       0.75000000       0.00000000 </v>
   <v>       0.50000000       0.75000000       0.25000000 </v>
   <v>       0.00000000       0.00000000       0.50000000 </v>
   <v>       0.25000000       0.00000000       0.75000000 </v>
   <v>       0.25000000       0.25000000       0.50000000 </v>
   <v>       0.00000000       0.25000000       0.75000000 </v>
   <v>       0.50000000       0.00000000       0.50000000 </v>
   <v>       0.75000000       0.00000000       0.75000000 </v>
   <v>       0.75000000       0.25000000       0.50000000 </v>
   <v>       0.50000000       0.25000000       0.75000000 </v>
   <v>       0.00000000       0.50000000       0.50000000 </v>
   <v>       0.25000000       0.50000000       0.75000000 </v>
   <v>       0.25000000       0.75000000       0.50000000 </v>
   <v>       0.00000000       0.75000000       0.75000000 </v>
   <v>       0.50000000       0.50000000       0.50000000 </v>
   <v>       0.75000000       0.50000000       0.75000000 </v>
   <v>       0.75000000       0.75000000       0.50000000 </v>
   <v>       0.50000000       0.75000000       0.75000000 </v>
  </varray>
 </structure>
 <calculation>
  <scstep>
   <time name="diag">    0.09    0.09</time>
   <time name="diis">    0.17    0.17</time>
   <time name="orth">    0.01    0.01</time>
   <time name="total">    0.37    0.38</time>
   <energy>
    <i name="alphaZ">     -6.74584121 </i>
    <i name="ewald">  -2380.08083845 </i>
    <i name="hartreedc">     -2.86681553 </i>
    <i name="XCdc">   -837.64428176 </i>
    <i name="pawpsdc">   1137.73615723 </i>
    <i name="pawaedc">   -115.16745734 </i>
    <i name="eentropy">     -0.16017441 </i>
    <i name="bandstr">    647.51971948 </i>
    <i name="atom">   1713.20396807 </i>
    <i name="e_fr_energy">    155.79443607 </i>
    <i name="e_wo_entrp">    155.95461048 </i>
    <i name="e_0_energy">    155.84782754 </i>
   </energy>
  </scstep>
  <scstep>
   <time name="diag">    0.09    0.09</time>
   <time name="diis">    0.17    0.17</time>
   <time name="orth">    0.01    0.01</time>
   <time name="total">    0.27    0.27</time>
   <energy>
    <i name="e_fr_energy">    -68.63031135 </i>
    <i name="e_wo_entrp">    -68.66335837 </i>
    <i name="e_0_energy">    -68.64132703 </i>
   </energy>
  </scstep>
  <scstep>
   <time name="diag">    0.09    0.09</time>
   <time name="diis">    0.17    0.17</time>
   <time name="orth">    0.01    0.01</time>
   <time name="total">    0.27    0.27</time>
   <energy>
    <i name="e_fr_energy">   -108.73952092 </i>
    <i name="e_wo_entrp">   -108.70881025 </i>
    <i name="e_0_energy">   -108.72928403 </i>
   </energy>
  </scstep>
  <scstep>
   <time name="diag">    0.09    0.09</time>
   <time name="diis">    0.17    0.17</time>
   <time name="orth">    0.01    0.01</time>
   <time name="total">    0.27    0.27</time>
   <energy>
    <i name="e_fr_energy">   -116.30801497 </i>
    <i name="e_wo_entrp">   -116.15564485 </i>
    <i name="e_0_energy">   -116.25722493 </i>
   </energy>
  </scstep>
  <scstep>
   <time name="diag">    0.16    0.16</time>
   <time name="diis">    0.17    0.17</time>
   <time name="orth">    0.02    0.02</time>
   <time name="total">    0.37    0.38</time>
   <energy>
    <i name="e_fr_energy">   -118.15847472 </i>
    <i name="e_wo_entrp">   -117.93394214 </i>
    <i name="e_0_energy">   -118.08363053 </i>
   </energy>
  </scstep>
  <scstep>
   <time name="diag">    0.11    0.11</time>
   <time name="diis">    0.17    0.17</time>
   <time name="orth">    0.01    0.01</time>
   <time name="total">    0.29    0.29</time>
   <energy>
    <i name="e_fr_energy">   -118.58031919 </i>
    <i name="e_wo_entrp">   -118.31839667 </i>
    <i name="e_0_energy">   -118.49301168 </i>
   </energy>
  </scstep>
  <scstep>
   <time name="diag">    0.09    0.09</time>
   <time name="diis">    0.17    0.17</time>
   <time name="orth">    0.01    0.01</time>
   <time name="total">    0.27    0.27</time>
   <energy>
    <i name="e_fr_energy">   -118.64901274 </i>
    <i name="e_wo_entrp">   -118.38607902 </i>
    <i name="e_0_energy">   -118.56136816 </i>
   </energy>
  </scstep>
  <scstep>
   <time name="diag">    0.09    0.09</time>
   <time name="diis">    0.17    0.17</time>
   <time name="orth">    0.01    0.01</time>
   <time name="total">    0.27    0.27</time>
   <energy>
    <i name="e_fr_energy">   -118.66067338 </i>
    <i name="e_wo_entrp">   -118.39765605 </i>
    <i name="e_0_energy">   -118.57300094 </i>
   </energy>
  </scstep>
  <scstep>
   <time name="diag">    0.10    0.10</time>
   <time name="diis">    0.30    0.30</time>
   <time name="orth">    0.01    0.01</time>
   <time name="total">    0.42    0.45</time>
   <energy>
    <i name="e_fr_energy">   -118.66304669 </i>
    <i name="e_wo_entrp">   -118.40000943 </i>
    <i name="e_0_energy">   -118.57536760 </i>
   </energy>
  </scstep>
  <scstep>
   <time name="diag">    0.09    0.09</time>
   <time name="diis">    0.28    0.28</time>
   <time name="orth">    0.01    0.01</time>
   <time name="total">    0.37    0.38</time>
   <energy>
    <i name="e_fr_energy">   -118.66320172 </i>
    <i name="e_wo_entrp">   -118.40016231 </i>
    <i name="e_0_energy">   -118.57552192 </i>
   </energy>
  </scstep>
  <scstep>
   <time name="diag">    0.08    0.09</time>
   <time name="diis">    0.26    0.26</time>
   <time name="orth">    0.01    0.01</time>
   <time name="total">    0.36    0.36</time>
   <energy>
    <i name="e_fr_energy">   -118.66320612 </i>
    <i name="e_wo_entrp">   -118.40016669 </i>
    <i name="e_0_energy">   -118.57552631 </i>
   </energy>
  </scstep>
  <scstep>
   <time name="diag">    0.08    0.09</time>
   <time name="diis">    0.25    0.25</time>
   <time name="orth">    0.01    0.01</time>
   <time name="total">    0.66    0.67</time>
   <energy>
    <i name="e_fr_energy">   -118.66320717 </i>
    <i name="e_wo_entrp">   -118.40016774 </i>
    <i name="e_0_energy">   -118.57552736 </i>
   </energy>
  </scstep>
  <scstep>
   <time name="diag">    0.08    0.09</time>
   <time name="diis">    0.31    0.31</time>
   <time name="orth">    0.01    0.01</time>
   <time name="total">    0.77    0.78</time>
   <energy>
    <i name="e_fr_energy">   -118.25584975 </i>
    <i name="e_wo_entrp">   -117.99310766 </i>
    <i name="e_0_energy">   -118.16826905 </i>
   </energy>
  </scstep>
  <scstep>
   <time name="diag">    0.09    0.09</time>
   <time name="diis">    0.31    0.31</time>
   <time name="orth">    0.01    0.01</time>
   <time name="total">    0.78    0.84</time>
   <energy>
    <i name="e_fr_energy">   -117.94976758 </i>
    <i name="e_wo_entrp">   -117.68720236 </i>
    <i name="e_0_energy">   -117.86224584 </i>
   </energy>
  </scstep>
  <scstep>
   <time name="diag">    0.09    0.09</time>
   <time name="diis">    0.30    0.30</time>
   <time name="orth">    0.01    0.01</time>
   <time name="total">    0.75    0.76</time>
   <energy>
    <i name="e_fr_energy">   -117.95011882 </i>
    <i name="e_wo_entrp">   -117.68754874 </i>
    <i name="e_0_energy">   -117.86259546 </i>
   </energy>
  </scstep>
  <scstep>
   <time name="diag">    0.08    0.09</time>
   <time name="diis">    0.22    0.22</time>
   <time name="orth">    0.01    0.01</time>
   <time name="total">    0.38    0.39</time>
   <energy>
    <i name="alphaZ">     -6.74584121 </i>
    <i name="ewald">  -2380.08083845 </i>
    <i name="hartreedc">     -3.80419267 </i>
    <i name="XCdc">   -833.85645658 </i>
    <i name="pawpsdc">   1146.90343867 </i>
    <i name="pawaedc">   -124.99389345 </i>
    <i name="eentropy">     -0.26257098 </i>
    <i name="bandstr">    371.68625290 </i>
    <i name="atom">   1713.20396807 </i>
    <i name="e_fr_energy">   -117.95013370 </i>
    <i name="e_wo_entrp">   -117.68756272 </i>
    <i name="e_0_energy">   -117.86261004 </i>
   </energy>
  </scstep>
  <structure>
   <crystal>
    <varray name="basis" >
     <v>       7.98883000       0.00000000       0.00000000 </v>
     <v>       0.00000000       7.98883000       0.00000000 </v>
     <v>       0.00000000       0.00000000       7.98883000 </v>
    </varray>
    <i name="volume">    509.85835306 </i>
    <varray name="rec_basis" >
     <v>       0.12517478       0.00000000       0.00000000 </v>
     <v>       0.00000000       0.12517478       0.00000000 </v>
     <v>       0.00000000       0.00000000       0.12517478 </v>
    </varray>
   </crystal>
   <varray name="positions" >
    <v>       0.00000000       0.00000000       0.00000000 </v>
    <v>       0.25000000       0.00000000       0.25000000 </v>
    <v>       0.25000000       0.25000000       0.00000000 </v>
    <v>       0.00000000       0.25000000       0.25000000 </v>
    <v>       0.50000000       0.00000000       0.00000000 </v>
    <v>       0.75000000       0.00000000       0.25000000 </v>
    <v>       0.75000000       0.25000000       0.00000000 </v>
    <v>       0.50000000       0.25000000       0.25000000 </v>
    <v>       0.00000000       0.50000000       0.00000000 </v>
    <v>       0.25000000       0.50000000       0.25000000 </v>
    <v>       0.25000000       0.75000000       0.00000000 </v>
    <v>       0.00000000       0.75000000       0.25000000 </v>
    <v>       0.50000000       0.50000000       0.00000000 </v>
    <v>       0.75000000       0.50000000       0.25000000 </v>
    <v>       0.75000000       0.75000000       0.00000000 </v>
    <v>       0.50000000       0.75000000       0.25000000 </v>
    <v>       0.00000000       0.00000000       0.50000000 </v>
    <v>       0.25000000       0.00000000       0.75000000 </v>
    <v>       0.25000000       0.25000000       0.50000000 </v>
    <v>       0.00000000       0.25000000       0.75000000 </v>
    <v>       0.50000000       0.00000000       0.50000000 </v>
    <v>       0.75000000       0.00000000       0.75000000 </v>
    <v>       0.75000000       0.25000000       0.50000000 </v>
    <v>       0.50000000       0.25000000       0.75000000 </v>
    <v>       0.00000000       0.50000000       0.50000000 </v>
    <v>       0.25000000       0.50000000       0.75000000 </v>
    <v>       0.25000000       0.75000000       0.50000000 </v>
    <v>       0.00000000       0.75000000       0.75000000 </v>
    <v>       0.50000000       0.50000000       0.50000000 </v>
    <v>       0.75000000       0.50000000       0.75000000 </v>
    <v>       0.75000000       0.75000000       0.50000000 </v>
    <v>       0.50000000       0.75000000       0.75000000 </v>
   </varray>
  </structure>
  <varray name="forces" >
   <v>       0.00000000       0.00000000       0.00000000 </v>
   <v>       0.00000000       0.00000000       0.00000000 </v>
   <v>       0.00000000       0.00000000       0.00000000 </v>
   <v>       0.00000000       0.00000000       0.00000000 </v>
   <v>       0.00000000       0.00000000       0.00000000 </v>
   <v>       0.00000000       0.00000000       0.00000000 </v>
   <v>       0.00000000       0.00000000       0.00000000 </v>
   <v>       0.00000000       0.00000000       0.00000000 </v>
   <v>       0.00000000       0.00000000       0.00000000 </v>
   <v>       0.00000000       0.00000000       0.00000000 </v>
   <v>       0.00000000       0.00000000       0.00000000 </v>
   <v>       0.00000000       0.00000000       0.00000000 </v>
   <v>       0.00000000       0.00000000       0.00000000 </v>
   <v>       0.00000000       0.00000000       0.00000000 </v>
   <v>       0.00000000       0.00000000       0.00000000 </v>
   <v>       0.00000000       0.00000000       0.00000000 </v>
   <v>       0.00000000       0.00000000       0.00000000 </v>
   <v>       0.00000000       0.00000000       0.00000000 </v>
   <v>       0.00000000       0.00000000       0.00000000 </v>
   <v>       0.00000000       0.00000000       0.00000000 </v>
   <v>       0.00000000       0.00000000       0.00000000 </v>
   <v>       0.00000000       0.00000000       0.00000000 </v>
   <v>       0.00000000       0.00000000       0.00000000 </v>
   <v>       0.00000000       0.00000000       0.00000000 </v>
   <v>       0.00000000       0.00000000       0.00000000 </v>
   <v>       0.00000000       0.00000000       0.00000000 </v>
   <v>       0.00000000       0.00000000       0.00000000 </v>
   <v>       0.00000000       0.00000000       0.00000000 </v>
   <v>       0.00000000       0.00000000       0.00000000 </v>
   <v>       0.00000000       0.00000000       0.00000000 </v>
   <v>       0.00000000       0.00000000       0.00000000 </v>
   <v>       0.00000000       0.00000000       0.00000000 </v>
  </varray>
  <varray name="stress" >
   <v>      32.44159166       0.00000000       0.00000000 </v>
   <v>       0.00000000      32.44159166       0.00000000 </v>
   <v>       0.00000000       0.00000000      32.44159166 </v>
  </varray>
  <energy>
   <i name="e_fr_energy">   -117.95013370 </i>
   <i name="e_wo_entrp">   -117.86261004 </i>
   <i name="e_0_energy">     -0.26257098 </i>
  </energy>
  <time name="totalsc">    7.77    7.96</time>
 </calculation>
 <calculation>
  <scstep>
   <time name="diag">    0.09    0.09</time>
   <time name="diis">    0.31    0.31</time>
   <time name="orth">    0.01    0.01</time>
   <time name="total">    0.76    0.76</time>
   <energy>
    <i name="alphaZ">     -6.44041972 </i>
    <i name="ewald">  -2343.60487953 </i>
    <i name="hartreedc">     -3.74658589 </i>
    <i name="XCdc">   -836.28137749 </i>
    <i name="pawpsdc">   1146.81593653 </i>
    <i name="pawaedc">   -124.90580012 </i>
    <i name="eentropy">     -0.26382641 </i>
    <i name="bandstr">    337.07465678 </i>
    <i name="atom">   1713.20396807 </i>
    <i name="e_fr_energy">   -118.14832777 </i>
    <i name="e_wo_entrp">   -117.88450136 </i>
    <i name="e_0_energy">   -118.06038564 </i>
   </energy>
  </scstep>
  <scstep>
   <time name="diag">    0.09    0.09</time>
   <time name="diis">    0.30    0.30</time>
   <time name="orth">    0.01    0.01</time>
   <time name="total">    0.75    0.76</time>
   <energy>
    <i name="e_fr_energy">   -118.13428159 </i>
    <i name="e_wo_entrp">   -117.87037695 </i>
    <i name="e_0_energy">   -118.04631338 </i>
   </energy>
  </scstep>
  <scstep>
   <time name="diag">    0.09    0.09</time>
   <time name="diis">    0.31    0.31</time>
   <time name="orth">    0.01    0.01</time>
   <time name="total">    0.75    0.76</time>
   <energy>
    <i name="e_fr_energy">   -118.12404264 </i>
    <i name="e_wo_entrp">   -117.86001652 </i>
    <i name="e_0_energy">   -118.03603393 </i>
   </energy>
  </scstep>
  <scstep>
   <time name="diag">    0.08    0.09</time>
   <time name="diis">    0.22    0.22</time>
   <time name="orth">    0.01    0.01</time>
   <time name="total">    0.38    0.39</time>
   <energy>
    <i name="alphaZ">     -6.44041972 </i>
    <i name="ewald">  -2343.60487953 </i>
    <i name="hartreedc">     -3.55554371 </i>
    <i name="XCdc">   -836.85535558 </i>
    <i name="pawpsdc">   1141.77763321 </i>
    <i name="pawaedc">   -119.60913640 </i>
    <i name="eentropy">     -0.26402018 </i>
    <i name="bandstr">    337.22368955 </i>
    <i name="atom">   1713.20396807 </i>
    <i name="e_fr_energy">   -118.12406428 </i>
    <i name="e_wo_entrp">   -117.86004410 </i>
    <i name="e_0_energy">   -118.03605755 </i>
   </energy>
  </scstep>
  <structure>
   <crystal>
    <varray name="basis" >
     <v>       8.11316847       0.00000000       0.00000000 </v>
     <v>       0.00000000       8.11316847       0.00000000 </v>
     <v>       0.00000000       0.00000000       8.11316847 </v>
    </varray>
    <i name="volume">    534.03716522 </i>
    <varray name="rec_basis" >
     <v>       0.12325641       0.00000000       0.00000000 </v>
     <v>       0.00000000       0.12325641       0.00000000 </v>
     <v>       0.00000000       0.00000000       0.12325641 </v>
    </varray>
   </crystal>
   <varray name="positions" >
    <v>       0.00000000       0.00000000       0.00000000 </v>
    <v>       0.25000000       0.00000000       0.25000000 </v>
    <v>       0.25000000       0.25000000       0.00000000 </v>
    <v>       0.00000000       0.25000000       0.25000000 </v>
    <v>       0.50000000       0.00000000       0.00000000 </v>
    <v>       0.75000000       0.00000000       0.25000000 </v>
    <v>       0.75000000       0.25000000       0.00000000 </v>
    <v>       0.50000000       0.25000000       0.25000000 </v>
    <v>       0.00000000       0.50000000       0.00000000 </v>
    <v>       0.25000000       0.50000000       0.25000000 </v>
    <v>       0.25000000       0.75000000       0.00000000 </v>
    <v>       0.00000000       0.75000000       0.25000000 </v>
    <v>       0.50000000       0.50000000       0.00000000 </v>
    <v>       0.75000000       0.50000000       0.25000000 </v>
    <v>       0.75000000       0.75000000       0.00000000 </v>
    <v>       0.50000000       0.75000000       0.25000000 </v>
    <v>       0.00000000       0.00000000       0.50000000 </v>
    <v>       0.25000000       0.00000000       0.75000000 </v>
    <v>       0.25000000       0.25000000       0.50000000 </v>
    <v>       0.00000000       0.25000000       0.75000000 </v>
    <v>       0.50000000       0.00000000       0.50000000 </v>
    <v>       0.75000000       0.00000000       0.75000000 </v>
    <v>       0.75000000       0.25000000       0.50000000 </v>
    <v>       0.50000000       0.25000000       0.75000000 </v>
    <v>       0.00000000       0.50000000       0.50000000 </v>
    <v>       0.25000000       0.50000000       0.75000000 </v>
    <v>       0.25000000       0.75000000       0.50000000 </v>
    <v>       0.00000000       0.75000000       0.75000000 </v>
    <v>       0.50000000       0.50000000       0.50000000 </v>
    <v>       0.75000000       0.50000000       0.75000000 </v>
    <v>       0.75000000       0.75000000       0.50000000 </v>
    <v>       0.50000000       0.75000000       0.75000000 </v>
   </varray>
  </structure>
  <varray name="forces" >
   <v>       0.00000000       0.00000000       0.00000000 </v>
   <v>       0.00000000       0.00000000       0.00000000 </v>
   <v>       0.00000000       0.00000000       0.00000000 </v>
   <v>       0.00000000       0.00000000       0.00000000 </v>
   <v>       0.00000000       0.00000000       0.00000000 </v>
   <v>       0.00000000       0.00000000       0.00000000 </v>
   <v>       0.00000000       0.00000000       0.00000000 </v>
   <v>       0.00000000       0.00000000       0.00000000 </v>
   <v>       0.00000000       0.00000000       0.00000000 </v>
   <v>       0.00000000       0.00000000       0.00000000 </v>
   <v>       0.00000000       0.00000000       0.00000000 </v>
   <v>       0.00000000       0.00000000       0.00000000 </v>
   <v>       0.00000000       0.00000000       0.00000000 </v>
   <v>       0.00000000       0.00000000       0.00000000 </v>
   <v>       0.00000000       0.00000000       0.00000000 </v>
   <v>       0.00000000       0.00000000       0.00000000 </v>
   <v>       0.00000000       0.00000000       0.00000000 </v>
   <v>       0.00000000       0.00000000       0.00000000 </v>
   <v>       0.00000000       0.00000000       0.00000000 </v>
   <v>       0.00000000       0.00000000       0.00000000 </v>
   <v>       0.00000000       0.00000000       0.00000000 </v>
   <v>       0.00000000       0.00000000       0.00000000 </v>
   <v>       0.00000000       0.00000000       0.00000000 </v>
   <v>       0.00000000       0.00000000       0.00000000 </v>
   <v>       0.00000000       0.00000000       0.00000000 </v>
   <v>       0.00000000       0.00000000       0.00000000 </v>
   <v>       0.00000000       0.00000000       0.00000000 </v>
   <v>       0.00000000       0.00000000       0.00000000 </v>
   <v>       0.00000000       0.00000000       0.00000000 </v>
   <v>       0.00000000       0.00000000       0.00000000 </v>
   <v>       0.00000000       0.00000000       0.00000000 </v>
   <v>       0.00000000       0.00000000       0.00000000 </v>
  </varray>
  <varray name="stress" >
   <v>      -7.58947306       0.00000000       0.00000000 </v>
   <v>       0.00000000      -7.58947306       0.00000000 </v>
   <v>       0.00000000       0.00000000      -7.58947306 </v>
  </varray>
  <energy>
   <i name="e_fr_energy">   -118.12406428 </i>
   <i name="e_wo_entrp">   -118.03605755 </i>
   <i name="e_0_energy">     -0.26402018 </i>
  </energy>
  <time name="totalsc">    3.55    3.58</time>
 </calculation>
 <calculation>
  <scstep>
   <time name="diag">    0.08    0.09</time>
   <time name="diis">    0.31    0.31</time>
   <time name="orth">    0.01    0.01</time>
   <time name="total">    0.75    0.77</time>
   <energy>
    <i name="alphaZ">     -6.50304617 </i>
    <i name="ewald">  -2351.17677065 </i>
    <i name="hartreedc">     -3.56188250 </i>
    <i name="XCdc">   -836.36463753 </i>
    <i name="pawpsdc">   1141.85412202 </i>
    <i name="pawaedc">   -119.68388963 </i>
    <i name="eentropy">     -0.26347948 </i>
    <i name="bandstr">    344.35821373 </i>
    <i name="atom">   1713.20396807 </i>
    <i name="e_fr_energy">   -118.13740214 </i>
    <i name="e_wo_entrp">   -117.87392266 </i>
    <i name="e_0_energy">   -118.04957565 </i>
   </energy>
  </scstep>
  <scstep>
   <time name="diag">    0.08    0.08</time>
   <time name="diis">    0.26    0.26</time>
   <time name="orth">    0.01    0.01</time>
   <time name="total">    0.70    0.71</time>
   <energy>
    <i name="e_fr_energy">   -118.13680097 </i>
    <i name="e_wo_entrp">   -117.87333429 </i>
    <i name="e_0_energy">   -118.04897874 </i>
   </energy>
  </scstep>
  <scstep>
   <time name="diag">    0.08    0.09</time>
   <time name="diis">    0.22    0.22</time>
   <time name="orth">    0.01    0.01</time>
   <time name="total">    0.67    0.67</time>
   <energy>
    <i name="e_fr_energy">   -118.13639320 </i>
    <i name="e_wo_entrp">   -117.87294868 </i>
    <i name="e_0_energy">   -118.04857836 </i>
   </energy>
  </scstep>
  <scstep>
   <time name="diag">    0.08    0.09</time>
   <time name="diis">    0.22    0.22</time>
   <time name="orth">    0.01    0.01</time>
   <time name="total">    0.38    0.39</time>
   <energy>
    <i name="alphaZ">     -6.50304617 </i>
    <i name="ewald">  -2351.17677065 </i>
    <i name="hartreedc">     -3.59436729 </i>
    <i name="XCdc">   -836.24222353 </i>
    <i name="pawpsdc">   1142.88879914 </i>
    <i name="pawaedc">   -120.76967442 </i>
    <i name="eentropy">     -0.26344546 </i>
    <i name="bandstr">    344.32036331 </i>
    <i name="atom">   1713.20396807 </i>
    <i name="e_fr_energy">   -118.13639699 </i>
    <i name="e_wo_entrp">   -117.87295153 </i>
    <i name="e_0_energy">   -118.04858184 </i>
   </energy>
  </scstep>
  <structure>
   <crystal>
    <varray name="basis" >
     <v>       8.08704026       0.00000000       0.00000000 </v>
     <v>       0.00000000       8.08704026       0.00000000 </v>
     <v>       0.00000000       0.00000000       8.08704026 </v>
    </varray>
    <i name="volume">    528.89421367 </i>
    <varray name="rec_basis" >
     <v>       0.12365463       0.00000000       0.00000000 </v>
     <v>       0.00000000       0.12365463       0.00000000 </v>
     <v>       0.00000000       0.00000000       0.12365463 </v>
    </varray>
   </crystal>
   <varray name="positions" >
    <v>       0.00000000       0.00000000       0.00000000 </v>
    <v>       0.25000000       0.00000000       0.25000000 </v>
    <v>       0.25000000       0.25000000       0.00000000 </v>
    <v>       0.00000000       0.25000000       0.25000000 </v>
    <v>       0.50000000       0.00000000       0.00000000 </v>
    <v>       0.75000000       0.00000000       0.25000000 </v>
    <v>       0.75000000       0.25000000       0.00000000 </v>
    <v>       0.50000000       0.25000000       0.25000000 </v>
    <v>       0.00000000       0.50000000       0.00000000 </v>
    <v>       0.25000000       0.50000000       0.25000000 </v>
    <v>       0.25000000       0.75000000       0.00000000 </v>
    <v>       0.00000000       0.75000000       0.25000000 </v>
    <v>       0.50000000       0.50000000       0.00000000 </v>
    <v>       0.75000000       0.50000000       0.25000000 </v>
    <v>       0.75000000       0.75000000       0.00000000 </v>
    <v>       0.50000000       0.75000000       0.25000000 </v>
    <v>       0.00000000       0.00000000       0.50000000 </v>
    <v>       0.25000000       0.00000000       0.75000000 </v>
    <v>       0.25000000       0.25000000       0.50000000 </v>
    <v>       0.00000000       0.25000000       0.75000000 </v>
    <v>       0.50000000       0.00000000       0.50000000 </v>
    <v>       0.75000000       0.00000000       0.75000000 </v>
    <v>       0.75000000       0.25000000       0.50000000 </v>
    <v>       0.50000000       0.25000000       0.75000000 </v>
    <v>       0.00000000       0.50000000       0.50000000 </v>
    <v>       0.25000000       0.50000000       0.75000000 </v>
    <v>       0.25000000       0.75000000       0.50000000 </v>
    <v>       0.00000000       0.75000000       0.75000000 </v>
    <v>       0.50000000       0.50000000       0.50000000 </v>
    <v>       0.75000000       0.50000000       0.75000000 </v>
    <v>       0.75000000       0.75000000       0.50000000 </v>
    <v>       0.50000000       0.75000000       0.75000000 </v>
   </varray>
  </structure>
  <varray name="forces" >
   <v>       0.00000000       0.00000000       0.00000000 </v>
   <v>       0.00000000       0.00000000       0.00000000 </v>
   <v>       0.00000000       0.00000000       0.00000000 </v>
   <v>       0.00000000       0.00000000       0.00000000 </v>
   <v>       0.00000000       0.00000000       0.00000000 </v>
   <v>       0.00000000       0.00000000       0.00000000 </v>
   <v>       0.00000000       0.00000000       0.00000000 </v>
   <v>       0.00000000       0.00000000       0.00000000 </v>
   <v>       0.00000000       0.00000000       0.00000000 </v>
   <v>       0.00000000       0.00000000       0.00000000 </v>
   <v>       0.00000000       0.00000000       0.00000000 </v>
   <v>       0.00000000       0.00000000       0.00000000 </v>
   <v>       0.00000000       0.00000000       0.00000000 </v>
   <v>       0.00000000       0.00000000       0.00000000 </v>
   <v>       0.00000000       0.00000000       0.00000000 </v>
   <v>       0.00000000       0.00000000       0.00000000 </v>
   <v>       0.00000000       0.00000000       0.00000000 </v>
   <v>       0.00000000       0.00000000       0.00000000 </v>
   <v>       0.00000000       0.00000000       0.00000000 </v>
   <v>       0.00000000       0.00000000       0.00000000 </v>
   <v>       0.00000000       0.00000000       0.00000000 </v>
   <v>       0.00000000       0.00000000       0.00000000 </v>
   <v>       0.00000000       0.00000000       0.00000000 </v>
   <v>       0.00000000       0.00000000       0.00000000 </v>
   <v>       0.00000000       0.00000000       0.00000000 </v>
   <v>       0.00000000       0.00000000       0.00000000 </v>
   <v>       0.00000000       0.00000000       0.00000000 </v>
   <v>       0.00000000       0.00000000       0.00000000 </v>
   <v>       0.00000000       0.00000000       0.00000000 </v>
   <v>       0.00000000       0.00000000       0.00000000 </v>
   <v>       0.00000000       0.00000000       0.00000000 </v>
   <v>       0.00000000       0.00000000       0.00000000 </v>
  </varray>
  <varray name="stress" >
   <v>       0.03139464       0.00000000       0.00000000 </v>
   <v>       0.00000000       0.03139464       0.00000000 </v>
   <v>       0.00000000       0.00000000       0.03139464 </v>
  </varray>
  <energy>
   <i name="e_fr_energy">   -118.13639699 </i>
   <i name="e_wo_entrp">   -118.04858184 </i>
   <i name="e_0_energy">     -0.26344546 </i>
  </energy>
  <time name="totalsc">    3.34    3.37</time>
  <eigenvalues>
   <array>
    <dimension dim="1">band</dimension>
    <dimension dim="2">kpoint</dimension>
    <dimension dim="3">spin</dimension>
    <field>eigene</field>
    <field>occ</field>
    <set>
     <set comment="spin 1">
      <set comment="kpoint 1">
       <r>   -2.7132    1.0000 </r>
       <r>   -1.5892    1.0000 </r>
       <r>   -1.5892    1.0000 </r>
       <r>   -1.5892    1.0000 </r>
       <r>   -0.4737    1.0000 </r>
       <r>   -0.4737    1.0000 </r>
       <r>   -0.4737    1.0000 </r>
       <r>    0.6319    1.0000 </r>
       <r>    0.6319    1.0000 </r>
       <r>    0.6319    1.0000 </r>
       <r>    0.6333    1.0000 </r>
       <r>    1.7300    1.0000 </r>
       <r>    1.7300    1.0000 </r>
       <r>    1.7300    1.0000 </r>
       <r>    1.7300    1.0000 </r>
       <r>    1.7300    1.0000 </r>
       <r>    1.7300    1.0000 </r>
       <r>    2.8187    1.0000 </r>
       <r>    2.8187    1.0000 </r>
       <r>    2.8187    1.0000 </r>
       <r>    3.8624    1.0000 </r>
       <r>    3.8624    1.0000 </r>
       <r>    3.8624    1.0000 </r>
       <r>    3.8972    1.0000 </r>
       <r>    3.8972    1.0000 </r>
       <r>    3.8972    1.0000 </r>
       <r>    4.9287    1.0000 </r>
       <r>    4.9287    1.0000 </r>
       <r>    4.9287    1.0000 </r>
       <r>    4.9287    1.0000 </r>
       <r>    4.9287    1.0000 </r>
       <r>    4.9287    1.0000 </r>
       <r>    4.9914    1.0000 </r>
       <r>    4.9914    1.0000 </r>
       <r>    4.9914    1.0000 </r>
       <r>    6.0133    1.0000 </r>
       <r>    6.0133    1.0000 </r>
       <r>    6.0133    1.0000 </r>
       <r>    7.0603    1.0000 </r>
       <r>    7.0603    1.0000 </r>
       <r>    7.0603    1.0000 </r>
       <r>    7.0603    1.0000 </r>
       <r>    7.0603    1.0000 </r>
       <r>    7.0603    1.0000 </r>
       <r>    7.1226    1.0000 </r>
       <r>    8.1239    0.5174 </r>
       <r>    8.1239    0.5174 </r>
       <r>    8.1239    0.5174 </r>
       <r>    8.1239    0.5174 </r>
       <r>    8.1239    0.5174 </r>
       <r>    8.1239    0.5174 </r>
       <r>    8.3607   -0.0348 </r>
       <r>    8.3607   -0.0348 </r>
       <r>    8.3607   -0.0348 </r>
       <r>    9.4453    0.0000 </r>
       <r>    9.4453    0.0000 </r>
       <r>    9.4453    0.0000 </r>
       <r>    9.4453    0.0000 </r>
       <r>    9.4453    0.0000 </r>
       <r>    9.4453    0.0000 </r>
       <r>   10.2009    0.0000 </r>
       <r>   10.2009    0.0000 </r>
       <r>   10.2009    0.0000 </r>
       <r>   10.2237    0.0000 </r>
       <r>   10.2237    0.0000 </r>
       <r>   10.2237    0.0000 </r>
       <r>   10.5209    0.0000 </r>
       <r>   10.5209    0.0000 </r>
       <r>   10.5209    0.0000 </r>
       <r>   11.2132    0.0000 </r>
       <r>   11.2132    0.0000 </r>
       <r>   11.2132    0.0000 </r>
       <r>   11.6090    0.0000 </r>
       <r>   11.6090    0.0000 </r>
       <r>   11.6090    0.0000 </r>
       <r>   11.6090    0.0000 </r>
       <r>   11.6090    0.0000 </r>
       <r>   11.6090    0.0000 </r>
       <r>   12.5659    0.0000 </r>
       <r>   12.5659    0.0000 </r>
       <r>   12.5659    0.0000 </r>
       <r>   12.5659    0.0000 </r>
       <r>   12.5659    0.0000 </r>
       <r>   12.5659    0.0000 </r>
       <r>   13.2911    0.0000 </r>
       <r>   13.2911    0.0000 </r>
       <r>   13.2911    0.0000 </r>
       <r>   13.5734    0.0000 </r>
       <r>   13.5734    0.0000 </r>
       <r>   13.5734    0.0000 </r>
       <r>   13.9365    0.0000 </r>
       <r>   13.9365    0.0000 </r>
       <r>   13.9365    0.0000 </r>
       <r>   14.6092    0.0000 </r>
       <r>   14.6243    0.0000 </r>
       <r>   14.6371    0.0000 </r>
      </set>
     </set>
    </set>
   </array>
  </eigenvalues>
  <separator name="orbital magnetization" >
   <v name="MAGDIPOLOUT">      0.00000000      0.00000000      0.00000000</v>
  </separator>
  <dos>
   <i name="efermi">      8.12805684 </i>
   <total>
    <array>
     <dimension dim="1">gridpoints</dimension>
     <dimension dim="2">spin</dimension>
     <field>energy</field>
     <field>total</field>
     <field>integrated</field>
     <set>
      <set comment="spin 1">
       <r>  -4.7132   0.0000   0.0000 </r>
       <r>  -4.6421   0.0000   0.0000 </r>
       <r>  -4.5709   0.0000   0.0000 </r>
       <r>  -4.4997   0.0000   0.0000 </r>
       <r>  -4.4286   0.0000   0.0000 </r>
       <r>  -4.3574   0.0000   0.0000 </r>
       <r>  -4.2862   0.0000   0.0000 </r>
       <r>  -4.2151   0.0000   0.0000 </r>
       <r>  -4.1439   0.0000   0.0000 </r>
       <r>  -4.0727   0.0000   0.0000 </r>
       <r>  -4.0016   0.0000   0.0000 </r>
       <r>  -3.9304   0.0000   0.0000 </r>
       <r>  -3.8592   0.0000   0.0000 </r>
       <r>  -3.7880   0.0000   0.0000 </r>
       <r>  -3.7169   0.0000   0.0000 </r>
       <r>  -3.6457   0.0000   0.0000 </r>
       <r>  -3.5745   0.0000   0.0000 </r>
       <r>  -3.5034   0.0000   0.0000 </r>
       <r>  -3.4322  -0.0001   0.0000 </r>
       <r>  -3.3610  -0.0006   0.0000 </r>
       <r>  -3.2899  -0.0043  -0.0004 </r>
       <r>  -3.2187  -0.0238  -0.0020 </r>
       <r>  -3.1475  -0.0954  -0.0088 </r>
       <r>  -3.0764  -0.2646  -0.0277 </r>
       <r>  -3.0052  -0.4374  -0.0588 </r>
       <r>  -2.9340  -0.0964  -0.0657 </r>
       <r>  -2.8629   1.6087   0.0488 </r>
       <r>  -2.7917   4.7825   0.3892 </r>
       <r>  -2.7205   7.7147   0.9382 </r>
       <r>  -2.6494   8.0499   1.5111 </r>
       <r>  -2.5782   5.4895   1.9018 </r>
       <r>  -2.5070   2.1682   2.0561 </r>
       <r>  -2.4359   0.1178   2.0645 </r>
       <r>  -2.3647  -0.4360   2.0335 </r>
       <r>  -2.2935  -0.3091   2.0115 </r>
       <r>  -2.2224  -0.1242   2.0026 </r>
       <r>  -2.1512  -0.0514   1.9990 </r>
       <r>  -2.0800  -0.1038   1.9916 </r>
       <r>  -2.0089  -0.3655   1.9656 </r>
       <r>  -1.9377  -0.9264   1.8996 </r>
       <r>  -1.8665  -1.3080   1.8065 </r>
       <r>  -1.7954   0.3533   1.8317 </r>
       <r>  -1.7242   6.5046   2.2946 </r>
       <r>  -1.6530  16.4685   3.4666 </r>
       <r>  -1.5818  24.1496   5.1853 </r>
       <r>  -1.5107  23.1440   6.8324 </r>
       <r>  -1.4395  14.3476   7.8535 </r>
       <r>  -1.3683   4.8262   8.1970 </r>
       <r>  -1.2972  -0.2891   8.1764 </r>
       <r>  -1.2260  -1.3122   8.0830 </r>
       <r>  -1.1548  -0.7945   8.0265 </r>
       <r>  -1.0837  -0.2915   8.0057 </r>
       <r>  -1.0125  -0.1047   7.9983 </r>
       <r>  -0.9413  -0.1686   7.9863 </r>
       <r>  -0.8702  -0.5197   7.9493 </r>
       <r>  -0.7990  -1.1283   7.8690 </r>
       <r>  -0.7278  -1.1225   7.7891 </r>
       <r>  -0.6567   1.7904   7.9165 </r>
       <r>  -0.5855   9.5314   8.5948 </r>
       <r>  -0.5143  19.6145   9.9908 </r>
       <r>  -0.4432  24.9218  11.7644 </r>
       <r>  -0.3720  20.8442  13.2478 </r>
       <r>  -0.3008  10.9645  14.0281 </r>
       <r>  -0.2297   2.5936  14.2127 </r>
       <r>  -0.1585  -0.9502  14.1451 </r>
       <r>  -0.0873  -1.2039  14.0594 </r>
       <r>  -0.0162  -0.5983  14.0168 </r>
       <r>   0.0550  -0.2060  14.0022 </r>
       <r>   0.1262  -0.1364  13.9925 </r>
       <r>   0.1973  -0.3850  13.9651 </r>
       <r>   0.2685  -1.0527  13.8902 </r>
       <r>   0.3397  -1.7479  13.7658 </r>
       <r>   0.4108  -0.4131  13.7364 </r>
       <r>   0.4820   6.3550  14.1886 </r>
       <r>   0.5532  19.0209  15.5423 </r>
       <r>   0.6244  30.7973  17.7341 </r>
       <r>   0.6955  32.2401  20.0285 </r>
       <r>   0.7667  22.0641  21.5988 </r>
       <r>   0.8379   8.7636  22.2225 </r>
       <r>   0.9090   0.5092  22.2587 </r>
       <r>   0.9802  -1.7418  22.1348 </r>
       <r>   1.0514  -1.2432  22.0463 </r>
       <r>   1.1225  -0.5017  22.0106 </r>
       <r>   1.1937  -0.2023  21.9962 </r>
       <r>   1.2649  -0.3523  21.9711 </r>
       <r>   1.3360  -1.0769  21.8945 </r>
       <r>   1.4072  -2.2961  21.7310 </r>
       <r>   1.4784  -2.1716  21.5765 </r>
       <r>   1.5495   3.9575  21.8581 </r>
       <r>   1.6207  19.7614  23.2645 </r>
       <r>   1.6919  39.8573  26.1011 </r>
       <r>   1.7630  49.8824  29.6511 </r>
       <r>   1.8342  41.1025  32.5763 </r>
       <r>   1.9054  21.2123  34.0859 </r>
       <r>   1.9765   4.7703  34.4254 </r>
       <r>   2.0477  -1.9975  34.2832 </r>
       <r>   2.1189  -2.3727  34.1144 </r>
       <r>   2.1900  -1.1554  34.0321 </r>
       <r>   2.2612  -0.3816  34.0050 </r>
       <r>   2.3324  -0.1870  33.9917 </r>
       <r>   2.4035  -0.4048  33.9629 </r>
       <r>   2.4747  -0.9690  33.8939 </r>
       <r>   2.5459  -1.2912  33.8020 </r>
       <r>   2.6170   0.5926  33.8442 </r>
       <r>   2.6882   7.0645  34.3469 </r>
       <r>   2.7594  17.1115  35.5647 </r>
       <r>   2.8305  24.3829  37.3000 </r>
       <r>   2.9017  22.7576  38.9196 </r>
       <r>   2.9729  13.6816  39.8933 </r>
       <r>   3.0441   4.3465  40.2026 </r>
       <r>   3.1152  -0.4511  40.1705 </r>
       <r>   3.1864  -1.3012  40.0779 </r>
       <r>   3.2576  -0.7618  40.0237 </r>
       <r>   3.3287  -0.3183  40.0011 </r>
       <r>   3.3999  -0.3217  39.9782 </r>
       <r>   3.4711  -0.8966  39.9144 </r>
       <r>   3.5422  -2.0373  39.7694 </r>
       <r>   3.6134  -2.3622  39.6013 </r>
       <r>   3.6846   2.2306  39.7600 </r>
       <r>   3.7557  15.9934  40.8982 </r>
       <r>   3.8269  35.7957  43.4457 </r>
       <r>   3.8981  48.7034  46.9118 </r>
       <r>   3.9692  43.8688  50.0339 </r>
       <r>   4.0404  25.5188  51.8500 </r>
       <r>   4.1116   7.7120  52.3988 </r>
       <r>   4.1827  -1.0763  52.3222 </r>
       <r>   4.2539  -2.4876  52.1452 </r>
       <r>   4.3251  -1.4210  52.0441 </r>
       <r>   4.3962  -0.5757  52.0031 </r>
       <r>   4.4674  -0.5184  51.9662 </r>
       <r>   4.5386  -1.3594  51.8695 </r>
       <r>   4.6097  -2.9901  51.6567 </r>
       <r>   4.6809  -3.2784  51.4233 </r>
       <r>   4.7521   3.7108  51.6874 </r>
       <r>   4.8232  23.8402  53.3841 </r>
       <r>   4.8944  52.4269  57.1152 </r>
       <r>   4.9656  71.2572  62.1864 </r>
       <r>   5.0367  65.0288  66.8143 </r>
       <r>   5.1079  39.1428  69.6001 </r>
       <r>   5.1791  13.0532  70.5290 </r>
       <r>   5.2503  -0.6711  70.4813 </r>
       <r>   5.3214  -3.4969  70.2324 </r>
       <r>   5.3926  -2.1869  70.0767 </r>
       <r>   5.4638  -0.8452  70.0166 </r>
       <r>   5.5349  -0.3411  69.9923 </r>
       <r>   5.6061  -0.4842  69.9579 </r>
       <r>   5.6773  -1.0442  69.8835 </r>
       <r>   5.7484  -1.2408  69.7952 </r>
       <r>   5.8196   1.0604  69.8707 </r>
       <r>   5.8908   8.0860  70.4462 </r>
       <r>   5.9619  18.2106  71.7422 </r>
       <r>   6.0331  24.6967  73.4998 </r>
       <r>   6.1043  22.0023  75.0656 </r>
       <r>   6.1754  12.5152  75.9563 </r>
       <r>   6.2466   3.5554  76.2094 </r>
       <r>   6.3178  -0.6954  76.1599 </r>
       <r>   6.3889  -1.2691  76.0695 </r>
       <r>   6.4601  -0.6986  76.0198 </r>
       <r>   6.5313  -0.3168  75.9973 </r>
       <r>   6.6024  -0.4467  75.9655 </r>
       <r>   6.6736  -1.2695  75.8751 </r>
       <r>   6.7448  -2.6258  75.6883 </r>
       <r>   6.8159  -2.3331  75.5222 </r>
       <r>   6.8871   4.8776  75.8694 </r>
       <r>   6.9583  22.9464  77.5024 </r>
       <r>   7.0294  45.6739  80.7529 </r>
       <r>   7.1006  57.1100  84.8173 </r>
       <r>   7.1718  47.5702  88.2027 </r>
       <r>   7.2429  25.3272  90.0052 </r>
       <r>   7.3141   6.4236  90.4624 </r>
       <r>   7.3853  -1.8356  90.3317 </r>
       <r>   7.4565  -2.6706  90.1417 </r>
       <r>   7.5276  -1.4087  90.0414 </r>
       <r>   7.5988  -0.5578  90.0017 </r>
       <r>   7.6700  -0.5149  89.9651 </r>
       <r>   7.7411  -1.2725  89.8745 </r>
       <r>   7.8123  -2.4825  89.6978 </r>
       <r>   7.8835  -1.8795  89.5641 </r>
       <r>   7.9546   5.3428  89.9443 </r>
       <r>   8.0258  21.8929  91.5024 </r>
       <r>   8.0970  41.2519  94.4382 </r>
       <r>   8.1681  50.8765  98.0590 </r>
       <r>   8.2393  46.5599 101.3725 </r>
       <r>   8.3105  36.4565 103.9670 </r>
       <r>   8.3816  27.8057 105.9459 </r>
       <r>   8.4528  19.5544 107.3376 </r>
       <r>   8.5240  10.1553 108.0603 </r>
       <r>   8.5951   2.4661 108.2358 </r>
       <r>   8.6663  -1.0159 108.1635 </r>
       <r>   8.7375  -1.3235 108.0693 </r>
       <r>   8.8086  -0.6895 108.0202 </r>
       <r>   8.8798  -0.2610 108.0017 </r>
       <r>   8.9510  -0.2343 107.9850 </r>
       <r>   9.0221  -0.6985 107.9353 </r>
       <r>   9.0933  -1.7907 107.8078 </r>
       <r>   9.1645  -2.6312 107.6206 </r>
       <r>   9.2356   0.3668 107.6467 </r>
       <r>   9.3068  12.1771 108.5133 </r>
       <r>   9.3780  31.9416 110.7865 </r>
       <r>   9.4491  47.8908 114.1948 </r>
       <r>   9.5203  46.8320 117.5277 </r>
       <r>   9.5915  29.7029 119.6416 </r>
       <r>   9.6626  10.3598 120.3789 </r>
       <r>   9.7338  -0.5645 120.3387 </r>
       <r>   9.8050  -3.5276 120.0877 </r>
       <r>   9.8762  -3.7203 119.8229 </r>
       <r>   9.9473  -3.0405 119.6065 </r>
       <r>  10.0185   2.0079 119.7494 </r>
       <r>  10.0897  15.9095 120.8817 </r>
       <r>  10.1608  35.4747 123.4063 </r>
       <r>  10.2320  47.8150 126.8092 </r>
       <r>  10.3032  43.6692 129.9170 </r>
       <r>  10.3743  30.2457 132.0695 </r>
       <r>  10.4455  22.0631 133.6397 </r>
       <r>  10.5167  22.0992 135.2125 </r>
       <r>  10.5878  21.4555 136.7394 </r>
       <r>  10.6590  14.6257 137.7803 </r>
       <r>  10.7302   5.5501 138.1753 </r>
       <r>  10.8013  -0.3228 138.1523 </r>
       <r>  10.8725  -2.3317 137.9864 </r>
       <r>  10.9437  -2.1762 137.8315 </r>
       <r>  11.0148   0.4160 137.8611 </r>
       <r>  11.0860   7.2947 138.3802 </r>
       <r>  11.1572  17.1354 139.5997 </r>
       <r>  11.2283  23.2408 141.2537 </r>
       <r>  11.2995  19.9752 142.6753 </r>
       <r>  11.3707  11.5479 143.4971 </r>
       <r>  11.4418  10.1928 144.2225 </r>
       <r>  11.5130  23.0154 145.8605 </r>
       <r>  11.5842  41.6723 148.8262 </r>
       <r>  11.6553  48.9362 152.3089 </r>
       <r>  11.7265  37.5075 154.9782 </r>
       <r>  11.7977  17.4438 156.2197 </r>
       <r>  11.8688   2.7624 156.4163 </r>
       <r>  11.9400  -2.3935 156.2459 </r>
       <r>  12.0112  -2.2077 156.0888 </r>
       <r>  12.0824  -1.1807 156.0048 </r>
       <r>  12.1535  -1.0964 155.9267 </r>
       <r>  12.2247  -2.0426 155.7814 </r>
       <r>  12.2959  -2.5621 155.5990 </r>
       <r>  12.3670   1.4953 155.7054 </r>
       <r>  12.4382  14.8278 156.7607 </r>
       <r>  12.5094  34.9960 159.2513 </r>
       <r>  12.5805  49.0115 162.7393 </r>
       <r>  12.6517  45.0097 165.9426 </r>
       <r>  12.7229  26.5352 167.8310 </r>
       <r>  12.7940   8.0430 168.4034 </r>
       <r>  12.8652  -1.4128 168.3029 </r>
       <r>  12.9364  -3.4530 168.0571 </r>
       <r>  13.0075  -2.7939 167.8583 </r>
       <r>  13.0787  -0.5378 167.8200 </r>
       <r>  13.1499   5.3018 168.1973 </r>
       <r>  13.2210  14.6597 169.2406 </r>
       <r>  13.2922  22.4470 170.8381 </r>
       <r>  13.3634  23.7701 172.5298 </r>
       <r>  13.4345  21.2261 174.0404 </r>
       <r>  13.5057  21.1317 175.5443 </r>
       <r>  13.5769  23.0587 177.1853 </r>
       <r>  13.6480  20.8072 178.6661 </r>
       <r>  13.7192  13.9059 179.6558 </r>
       <r>  13.7904  10.1398 180.3774 </r>
       <r>  13.8615  14.6410 181.4194 </r>
       <r>  13.9327  22.0864 182.9912 </r>
       <r>  14.0039  23.1081 184.6358 </r>
       <r>  14.0750  15.6316 185.7482 </r>
       <r>  14.1462   5.8743 186.1663 </r>
       <r>  14.2174  -0.2870 186.1459 </r>
       <r>  14.2886  -2.3613 185.9778 </r>
       <r>  14.3597  -2.0936 185.8288 </r>
       <r>  14.4309   0.8477 185.8891 </r>
       <r>  14.5021   8.1791 186.4712 </r>
       <r>  14.5732  18.2855 187.7726 </r>
       <r>  14.6444  24.5983 189.5232 </r>
       <r>  14.7156  21.8041 191.0749 </r>
       <r>  14.7867  12.3748 191.9556 </r>
       <r>  14.8579   3.5226 192.2063 </r>
       <r>  14.9291  -0.6763 192.1582 </r>
       <r>  15.0002  -1.2495 192.0692 </r>
       <r>  15.0714  -0.6785 192.0210 </r>
       <r>  15.1426  -0.2294 192.0046 </r>
       <r>  15.2137  -0.0544 192.0008 </r>
       <r>  15.2849  -0.0094 192.0001 </r>
       <r>  15.3561  -0.0012 192.0000 </r>
       <r>  15.4272  -0.0001 192.0000 </r>
       <r>  15.4984   0.0000 192.0000 </r>
       <r>  15.5696   0.0000 192.0000 </r>
       <r>  15.6407   0.0000 192.0000 </r>
       <r>  15.7119   0.0000 192.0000 </r>
       <r>  15.7831   0.0000 192.0000 </r>
       <r>  15.8542   0.0000 192.0000 </r>
       <r>  15.9254   0.0000 192.0000 </r>
       <r>  15.9966   0.0000 192.0000 </r>
       <r>  16.0677   0.0000 192.0000 </r>
       <r>  16.1389   0.0000 192.0000 </r>
       <r>  16.2101   0.0000 192.0000 </r>
       <r>  16.2812   0.0000 192.0000 </r>
       <r>  16.3524   0.0000 192.0000 </r>
       <r>  16.4236   0.0000 192.0000 </r>
       <r>  16.4947   0.0000 192.0000 </r>
       <r>  16.5659   0.0000 192.0000 </r>
       <r>  16.6371   0.0000 192.0000 </r>
      </set>
     </set>
    </array>
   </total>
  </dos>
 </calculation>
 <structure name="finalpos" >
  <crystal>
   <varray name="basis" >
    <v>       8.08704026       0.00000000       0.00000000 </v>
    <v>       0.00000000       8.08704026       0.00000000 </v>
    <v>       0.00000000       0.00000000       8.08704026 </v>
   </varray>
   <i name="volume">    528.89421367 </i>
   <varray name="rec_basis" >
    <v>       0.12365463       0.00000000       0.00000000 </v>
    <v>       0.00000000       0.12365463       0.00000000 </v>
    <v>       0.00000000       0.00000000       0.12365463 </v>
   </varray>
  </crystal>
  <varray name="positions" >
   <v>       0.00000000       0.00000000       0.00000000 </v>
   <v>       0.25000000       0.00000000       0.25000000 </v>
   <v>       0.25000000       0.25000000       0.00000000 </v>
   <v>       0.00000000       0.25000000       0.25000000 </v>
   <v>       0.50000000       0.00000000       0.00000000 </v>
   <v>       0.75000000       0.00000000       0.25000000 </v>
   <v>       0.75000000       0.25000000       0.00000000 </v>
   <v>       0.50000000       0.25000000       0.25000000 </v>
   <v>       0.00000000       0.50000000       0.00000000 </v>
   <v>       0.25000000       0.50000000       0.25000000 </v>
   <v>       0.25000000       0.75000000       0.00000000 </v>
   <v>       0.00000000       0.75000000       0.25000000 </v>
   <v>       0.50000000       0.50000000       0.00000000 </v>
   <v>       0.75000000       0.50000000       0.25000000 </v>
   <v>       0.75000000       0.75000000       0.00000000 </v>
   <v>       0.50000000       0.75000000       0.25000000 </v>
   <v>       0.00000000       0.00000000       0.50000000 </v>
   <v>       0.25000000       0.00000000       0.75000000 </v>
   <v>       0.25000000       0.25000000       0.50000000 </v>
   <v>       0.00000000       0.25000000       0.75000000 </v>
   <v>       0.50000000       0.00000000       0.50000000 </v>
   <v>       0.75000000       0.00000000       0.75000000 </v>
   <v>       0.75000000       0.25000000       0.50000000 </v>
   <v>       0.50000000       0.25000000       0.75000000 </v>
   <v>       0.00000000       0.50000000       0.50000000 </v>
   <v>       0.25000000       0.50000000       0.75000000 </v>
   <v>       0.25000000       0.75000000       0.50000000 </v>
   <v>       0.00000000       0.75000000       0.75000000 </v>
   <v>       0.50000000       0.50000000       0.50000000 </v>
   <v>       0.75000000       0.50000000       0.75000000 </v>
   <v>       0.75000000       0.75000000       0.50000000 </v>
   <v>       0.50000000       0.75000000       0.75000000 </v>
  </varray>
 </structure>
</modeling>
