Processors received = 8
script running on host compute-0-14.local
PBS_NODEFILE
compute-0-14
compute-0-14
compute-0-14
compute-0-14
compute-0-14
compute-0-14
compute-0-14
compute-0-14
 running on    8 nodes
 distr:  one band on    1 nodes,    8 groups
 vasp.5.2.2 15Apr09 complex 
 POSCAR found type information on POSCAR  Al Mg
 POSCAR found :  2 types and   33 ions

 ----------------------------------------------------------------------------- 
|                                                                             |
|  ADVICE TO THIS USER RUNNING 'VASP/VAMP'   (HEAR YOUR MASTER'S VOICE ...):  |
|                                                                             |
|      You have a (more or less) 'large supercell' and for larger cells       |
|      it might be more efficient to use real space projection operators      |
|      So try LREAL= Auto  in the INCAR   file.                               |
|      Mind: If you want to do a very accurate calculations keep the          |
|      reciprocal projection scheme          (i.e. LREAL=.FALSE.)             |
|                                                                             |
 ----------------------------------------------------------------------------- 

 LDA part: xc-table for Pade appr. of Perdew
 POSCAR, INCAR and KPOINTS ok, starting setup
 FFT: planning ...(           1 )
 reading WAVECAR
 entering main loop
       N       E                     dE             d eps       ncg     rms          rms(c)
RMM:   1     0.282004475675E+03    0.28200E+03   -0.17358E+04   216   0.580E+02
RMM:   2    -0.242466957189E+02   -0.30625E+03   -0.29947E+03   216   0.121E+02
RMM:   3    -0.918681259689E+02   -0.67621E+02   -0.68365E+02   216   0.409E+01
RMM:   4    -0.106712868929E+03   -0.14845E+02   -0.14514E+02   216   0.230E+01
RMM:   5    -0.112324346802E+03   -0.56115E+01   -0.43540E+01   216   0.116E+01
RMM:   6    -0.114257995788E+03   -0.19336E+01   -0.15056E+01   216   0.658E+00
RMM:   7    -0.115013078102E+03   -0.75508E+00   -0.59171E+00   216   0.381E+00
RMM:   8    -0.115320395655E+03   -0.30732E+00   -0.25234E+00   216   0.231E+00
RMM:   9    -0.115522240249E+03   -0.20184E+00   -0.18018E+00   492   0.142E+00
RMM:  10    -0.115555981723E+03   -0.33741E-01   -0.22550E-01   460   0.383E-01
RMM:  11    -0.115557594199E+03   -0.16125E-02   -0.81736E-03   355   0.773E-02
RMM:  12    -0.115557626059E+03   -0.31860E-04   -0.24391E-04   263   0.222E-02    0.650E+00
RMM:  13    -0.113775000879E+03    0.17826E+01   -0.49467E+00   432   0.280E+00    0.371E+00
RMM:  14    -0.113407704325E+03    0.36730E+00   -0.50362E-01   432   0.111E+00    0.232E+00
RMM:  15    -0.113268184944E+03    0.13952E+00   -0.11933E-01   433   0.664E-01    0.729E-01
RMM:  16    -0.113250866723E+03    0.17318E-01   -0.17400E-02   434   0.263E-01    0.118E-01
RMM:  17    -0.113249986943E+03    0.87978E-03   -0.17817E-03   430   0.784E-02    0.431E-02
RMM:  18    -0.113249934522E+03    0.52421E-04   -0.21777E-04   299   0.313E-02
   1 F= -.11324993E+03 E0= -.11324129E+03  d E =-.113250E+03
 curvature:   0.00 expect dE= 0.000E+00 dE for cont linesearch  0.000E+00
 trial: gam= 0.00000 g(F)=  0.142E+01 g(S)=  0.000E+00 ort = 0.000E+00 (trialstep = 0.100E+01)
 search vector abs. value=  0.142E+01
 bond charge predicted
       N       E                     dE             d eps       ncg     rms          rms(c)
RMM:   1    -0.114484806088E+03   -0.12348E+01   -0.85158E+00   432   0.777E+00    0.927E-01
RMM:   2    -0.114392383497E+03    0.92423E-01   -0.26173E-01   432   0.110E+00    0.341E-01
RMM:   3    -0.114385602240E+03    0.67813E-02   -0.16748E-02   432   0.288E-01    0.172E-01
RMM:   4    -0.114384868262E+03    0.73398E-03   -0.40532E-03   432   0.123E-01    0.669E-02
RMM:   5    -0.114384885824E+03   -0.17563E-04   -0.21108E-04   301   0.383E-02
   2 F= -.11438489E+03 E0= -.11438019E+03  d E =-.113495E+01
 trial-energy change:   -1.134951  1 .order   -1.143044   -1.418352   -0.867736
 step:   3.1938(harm=  2.5759)  dis= 0.22739  next Energy=  -115.251269 (dE=-0.200E+01)
 bond charge predicted
       N       E                     dE             d eps       ncg     rms          rms(c)
RMM:   1    -0.115395830722E+03   -0.10110E+01   -0.38786E+01   432   0.165E+01    0.162E+00
RMM:   2    -0.115121816853E+03    0.27401E+00   -0.69629E-01   432   0.215E+00    0.659E-01
RMM:   3    -0.115100162356E+03    0.21654E-01   -0.78683E-02   433   0.629E-01    0.286E-01
RMM:   4    -0.115099451737E+03    0.71062E-03   -0.92232E-03   440   0.212E-01    0.123E-01
RMM:   5    -0.115099642281E+03   -0.19054E-03   -0.81673E-04   428   0.728E-02    0.425E-02
RMM:   6    -0.115099663637E+03   -0.21357E-04   -0.62675E-05   270   0.266E-02
   3 F= -.11509966E+03 E0= -.11509309E+03  d E =-.184973E+01
 curvature:  -1.09 expect dE=-0.786E+00 dE for cont linesearch -0.391E-01
 trial: gam= 0.00000 g(F)=  0.721E+00 g(S)=  0.000E+00 ort =-0.226E+00 (trialstep = 0.144E+01)
 search vector abs. value=  0.721E+00
 bond charge predicted
       N       E                     dE             d eps       ncg     rms          rms(c)
RMM:   1    -0.115719622904E+03   -0.61998E+00   -0.11023E+01   432   0.857E+00    0.853E-01
RMM:   2    -0.115648233677E+03    0.71389E-01   -0.15686E-01   432   0.107E+00    0.353E-01
RMM:   3    -0.115639138176E+03    0.90955E-02   -0.32995E-02   432   0.359E-01    0.113E-01
RMM:   4    -0.115639015559E+03    0.12262E-03   -0.12171E-03   426   0.885E-02    0.642E-02
RMM:   5    -0.115639015268E+03    0.29175E-06   -0.16548E-04   281   0.325E-02
   4 F= -.11563902E+03 E0= -.11563674E+03  d E =-.539352E+00
 trial-energy change:   -0.539352  1 .order   -0.558421   -1.038011   -0.078831
 step:   1.5748(harm=  1.5570)  dis= 0.09490  next Energy=  -115.642725 (dE=-0.543E+00)
 bond charge predicted
       N       E                     dE             d eps       ncg     rms          rms(c)
RMM:   1    -0.115643276455E+03   -0.42609E-02   -0.98167E-02   432   0.809E-01    0.774E-02
RMM:   2    -0.115642744638E+03    0.53182E-03   -0.13202E-03   420   0.101E-01    0.344E-02
RMM:   3    -0.115642670793E+03    0.73845E-04   -0.28804E-04   309   0.354E-02
   5 F= -.11564267E+03 E0= -.11564056E+03  d E =-.543007E+00
 curvature:  -0.76 expect dE=-0.158E+00 dE for cont linesearch -0.112E-05
 trial: gam= 0.28990 g(F)=  0.208E+00 g(S)=  0.000E+00 ort =-0.103E-02 (trialstep = 0.147E+01)
 search vector abs. value=  0.268E+00
 bond charge predicted
       N       E                     dE             d eps       ncg     rms          rms(c)
RMM:   1    -0.115868901583E+03   -0.22616E+00   -0.31716E+00   432   0.491E+00    0.458E-01
RMM:   2    -0.115851012503E+03    0.17889E-01   -0.52393E-02   434   0.615E-01    0.192E-01
RMM:   3    -0.115849801027E+03    0.12115E-02   -0.57338E-03   433   0.176E-01    0.864E-02
RMM:   4    -0.115849768621E+03    0.32406E-04   -0.57125E-04   394   0.573E-02
   6 F= -.11584977E+03 E0= -.11584597E+03  d E =-.207098E+00
 trial-energy change:   -0.207098  1 .order   -0.208290   -0.304651   -0.111928
 step:   2.3717(harm=  2.3174)  dis= 0.08134  next Energy=  -115.884065 (dE=-0.241E+00)
 bond charge predicted
       N       E                     dE             d eps       ncg     rms          rms(c)
RMM:   1    -0.115891199339E+03   -0.41398E-01   -0.12063E+00   432   0.302E+00    0.283E-01
RMM:   2    -0.115884581130E+03    0.66182E-02   -0.20077E-02   434   0.382E-01    0.120E-01
RMM:   3    -0.115884163664E+03    0.41747E-03   -0.22609E-03   431   0.110E-01    0.542E-02
RMM:   4    -0.115884157454E+03    0.62097E-05   -0.18435E-04   295   0.352E-02
   7 F= -.11588416E+03 E0= -.11587852E+03  d E =-.241487E+00
 curvature:  -1.49 expect dE=-0.108E+00 dE for cont linesearch -0.772E-10
 trial: gam= 0.41195 g(F)=  0.728E-01 g(S)=  0.000E+00 ort = 0.373E-05 (trialstep = 0.165E+01)
 search vector abs. value=  0.118E+00
 bond charge predicted
       N       E                     dE             d eps       ncg     rms          rms(c)
RMM:   1    -0.115986096220E+03   -0.10193E+00   -0.12674E+00   432   0.341E+00    0.257E-01
RMM:   2    -0.115983740320E+03    0.23559E-02   -0.18333E-02   433   0.399E-01    0.136E-01
RMM:   3    -0.115983499963E+03    0.24036E-03   -0.28612E-03   432   0.130E-01    0.539E-02
RMM:   4    -0.115983521957E+03   -0.21994E-04   -0.23414E-04   311   0.410E-02
   8 F= -.11598352E+03 E0= -.11597852E+03  d E =-.993645E-01
 trial-energy change:   -0.099365  1 .order   -0.099053   -0.119854   -0.078253
 step:   4.7453(harm=  4.7453)  dis= 0.12416  next Energy=  -116.056807 (dE=-0.173E+00)
 bond charge predicted
       N       E                     dE             d eps       ncg     rms          rms(c)
RMM:   1    -0.116060512738E+03   -0.77013E-01   -0.44984E+00   432   0.641E+00    0.474E-01
RMM:   2    -0.116052400445E+03    0.81123E-02   -0.65030E-02   433   0.752E-01    0.251E-01
RMM:   3    -0.116051602580E+03    0.79787E-03   -0.10218E-02   433   0.246E-01    0.978E-02
RMM:   4    -0.116051665297E+03   -0.62717E-04   -0.88125E-04   405   0.757E-02
   9 F= -.11605167E+03 E0= -.11604864E+03  d E =-.167508E+00
 curvature:  -3.86 expect dE=-0.261E+00 dE for cont linesearch -0.770E-03
 trial: gam= 0.91230 g(F)=  0.677E-01 g(S)=  0.000E+00 ort =-0.486E-02 (trialstep = 0.171E+01)
 search vector abs. value=  0.157E+00
 bond charge predicted
       N       E                     dE             d eps       ncg     rms          rms(c)
RMM:   1    -0.116132548539E+03   -0.80946E-01   -0.21166E+00   432   0.427E+00    0.348E-01
RMM:   2    -0.116127592119E+03    0.49564E-02   -0.28320E-02   432   0.505E-01    0.189E-01
RMM:   3    -0.116126835065E+03    0.75705E-03   -0.48266E-03   432   0.159E-01    0.723E-02
RMM:   4    -0.116126836635E+03   -0.15699E-05   -0.27288E-04   316   0.455E-02
  10 F= -.11612684E+03 E0= -.11612646E+03  d E =-.751713E-01
 trial-energy change:   -0.075171  1 .order   -0.073950   -0.107810   -0.040090
 step:   2.5728(harm=  2.7145)  dis= 0.07989  next Energy=  -116.137198 (dE=-0.855E-01)
 bond charge predicted
       N       E                     dE             d eps       ncg     rms          rms(c)
RMM:   1    -0.116138906418E+03   -0.12071E-01   -0.55074E-01   432   0.218E+00    0.174E-01
RMM:   2    -0.116137735415E+03    0.11710E-02   -0.73804E-03   432   0.258E-01    0.950E-02
RMM:   3    -0.116137552453E+03    0.18296E-03   -0.12340E-03   427   0.804E-02    0.361E-02
RMM:   4    -0.116137553636E+03   -0.11832E-05   -0.69972E-05   271   0.236E-02
  11 F= -.11613755E+03 E0= -.11613746E+03  d E =-.858883E-01
 curvature:  -3.31 expect dE=-0.866E-01 dE for cont linesearch -0.878E-05
 trial: gam= 0.17041 g(F)=  0.262E-01 g(S)=  0.000E+00 ort = 0.646E-03 (trialstep = 0.188E+01)
 search vector abs. value=  0.309E-01
 bond charge predicted
       N       E                     dE             d eps       ncg     rms          rms(c)
RMM:   1    -0.116176203012E+03   -0.38651E-01   -0.54960E-01   432   0.216E+00    0.164E-01
RMM:   2    -0.116174911014E+03    0.12920E-02   -0.65126E-03   432   0.247E-01    0.867E-02
RMM:   3    -0.116174711197E+03    0.19982E-03   -0.72438E-04   417   0.647E-02    0.378E-02
RMM:   4    -0.116174707705E+03    0.34915E-05   -0.73641E-05   268   0.222E-02
  12 F= -.11617471E+03 E0= -.11617425E+03  d E =-.371541E-01
 trial-energy change:   -0.037154  1 .order   -0.037072   -0.049352   -0.024792
 step:   3.7750(harm=  3.7750)  dis= 0.04645  next Energy=  -116.187139 (dE=-0.496E-01)
 bond charge predicted
       N       E                     dE             d eps       ncg     rms          rms(c)
RMM:   1    -0.116188784177E+03   -0.14073E-01   -0.56172E-01   432   0.218E+00    0.167E-01
RMM:   2    -0.116187408630E+03    0.13755E-02   -0.67444E-03   432   0.251E-01    0.878E-02
RMM:   3    -0.116187204175E+03    0.20445E-03   -0.73773E-04   420   0.655E-02    0.386E-02
RMM:   4    -0.116187200651E+03    0.35233E-05   -0.78281E-05   270   0.227E-02
  13 F= -.11618720E+03 E0= -.11618677E+03  d E =-.496470E-01
 curvature:  -2.22 expect dE=-0.355E-01 dE for cont linesearch -0.130E-05
 trial: gam= 0.61243 g(F)=  0.160E-01 g(S)=  0.000E+00 ort =-0.134E-03 (trialstep = 0.226E+01)
 search vector abs. value=  0.274E-01
 reached required accuracy - stopping structural energy minimisation
