  33  33   0   0
  0.1602717E+02  0.8087052E-09  0.8087052E-09  0.8087052E-09  0.5000000E-15
  1.000000000000000E-004
  CAR 
 unknown system                          
     13.51779226     -4.67003171  301      8.28311586      1.00000000
     -4.670  0.0000E+00  0.0000E+00
     -4.609  0.0000E+00  0.0000E+00
     -4.549  0.0000E+00  0.0000E+00
     -4.488  0.0000E+00  0.0000E+00
     -4.428  0.0000E+00  0.0000E+00
     -4.367  0.0000E+00  0.0000E+00
     -4.306 -0.3308E-29 -0.2006E-30
     -4.246 -0.4115E-27 -0.2515E-28
     -4.185 -0.4280E-25 -0.2620E-26
     -4.124 -0.3697E-23 -0.2268E-24
     -4.064 -0.2652E-21 -0.1630E-22
     -4.003 -0.1579E-19 -0.9736E-21
     -3.943 -0.7802E-18 -0.4828E-19
     -3.882 -0.3199E-16 -0.1987E-17
     -3.821 -0.1056E-14 -0.6603E-16
     -3.761 -0.2963E-13 -0.1862E-14
     -3.700 -0.6889E-12 -0.4363E-13
     -3.639 -0.1325E-10 -0.8469E-12
     -3.579 -0.2106E-09 -0.1361E-10
     -3.518 -0.2761E-08 -0.1810E-09
     -3.458 -0.2983E-07 -0.1989E-08
     -3.397 -0.2648E-06 -0.1804E-07
     -3.336 -0.1926E-05 -0.1348E-06
     -3.276 -0.1142E-04 -0.8271E-06
     -3.215 -0.5484E-04 -0.4152E-05
     -3.154 -0.2110E-03 -0.1695E-04
     -3.094 -0.6385E-03 -0.5565E-04
     -3.033 -0.1461E-02 -0.1443E-03
     -2.973 -0.2287E-02 -0.2829E-03
     -2.912 -0.1453E-02 -0.3710E-03
     -2.851  0.3919E-02 -0.1334E-03
     -2.791  0.1565E-01  0.8153E-03
     -2.730  0.3097E-01  0.2693E-02
     -2.669  0.4216E-01  0.5249E-02
     -2.609  0.4210E-01  0.7801E-02
     -2.548  0.3082E-01  0.9670E-02
     -2.487  0.1551E-01  0.1061E-01
     -2.427  0.3834E-02  0.1084E-01
     -2.366 -0.1480E-02  0.1075E-01
     -2.306 -0.2292E-02  0.1061E-01
     -2.245 -0.1501E-02  0.1052E-01
     -2.184 -0.8455E-03  0.1047E-01
     -2.124 -0.9426E-03  0.1041E-01
     -2.063 -0.2013E-02  0.1029E-01
     -2.002 -0.3836E-02  0.1006E-01
     -1.942 -0.4522E-02  0.9785E-02
     -1.881  0.6399E-03  0.9824E-02
     -1.821  0.1720E-01  0.1087E-01
     -1.760  0.4509E-01  0.1360E-01
     -1.699  0.7331E-01  0.1805E-01
     -1.639  0.8530E-01  0.2322E-01
     -1.578  0.7371E-01  0.2769E-01
     -1.517  0.4907E-01  0.3066E-01
     -1.457  0.3052E-01  0.3251E-01
     -1.396  0.2813E-01  0.3422E-01
     -1.336  0.3562E-01  0.3638E-01
     -1.275  0.3945E-01  0.3877E-01
     -1.214  0.3253E-01  0.4074E-01
     -1.154  0.1867E-01  0.4187E-01
     -1.093  0.5940E-02  0.4223E-01
     -1.032 -0.1277E-02  0.4215E-01
     -0.972 -0.4024E-02  0.4191E-01
     -0.911 -0.5210E-02  0.4159E-01
     -0.851 -0.5463E-02  0.4126E-01
     -0.790 -0.1222E-02  0.4119E-01
     -0.729  0.1338E-01  0.4200E-01
     -0.669  0.4008E-01  0.4443E-01
     -0.608  0.7000E-01  0.4867E-01
     -0.547  0.8641E-01  0.5391E-01
     -0.487  0.7813E-01  0.5865E-01
     -0.426  0.5048E-01  0.6171E-01
     -0.366  0.2103E-01  0.6298E-01
     -0.305  0.5588E-02  0.6332E-01
     -0.244  0.8655E-02  0.6385E-01
     -0.184  0.2360E-01  0.6528E-01
     -0.123  0.3822E-01  0.6760E-01
     -0.062  0.4221E-01  0.7016E-01
     -0.002  0.3349E-01  0.7219E-01
      0.059  0.1844E-01  0.7330E-01
      0.119  0.5357E-02  0.7363E-01
      0.180 -0.2082E-02  0.7350E-01
      0.241 -0.5394E-02  0.7317E-01
      0.301 -0.7070E-02  0.7275E-01
      0.362 -0.6076E-02  0.7238E-01
      0.423  0.3438E-02  0.7259E-01
      0.483  0.2798E-01  0.7428E-01
      0.544  0.6612E-01  0.7829E-01
      0.604  0.1034E+00  0.8456E-01
      0.665  0.1200E+00  0.9184E-01
      0.726  0.1078E+00  0.9837E-01
      0.786  0.7831E-01  0.1031E+00
      0.847  0.5239E-01  0.1063E+00
      0.908  0.4114E-01  0.1088E+00
      0.968  0.3924E-01  0.1112E+00
      1.029  0.3512E-01  0.1133E+00
      1.089  0.2410E-01  0.1148E+00
      1.150  0.1032E-01  0.1154E+00
      1.211 -0.5601E-03  0.1154E+00
      1.271 -0.6820E-02  0.1149E+00
      1.332 -0.8602E-02  0.1144E+00
      1.393 -0.2881E-02  0.1142E+00
      1.453  0.1688E-01  0.1153E+00
      1.514  0.5306E-01  0.1185E+00
      1.574  0.9478E-01  0.1242E+00
      1.635  0.1203E+00  0.1315E+00
      1.696  0.1148E+00  0.1385E+00
      1.756  0.8667E-01  0.1437E+00
      1.817  0.6148E-01  0.1475E+00
      1.878  0.5839E-01  0.1510E+00
      1.938  0.7358E-01  0.1555E+00
      1.999  0.8831E-01  0.1608E+00
      2.059  0.8914E-01  0.1662E+00
      2.120  0.7671E-01  0.1709E+00
      2.181  0.5823E-01  0.1744E+00
      2.241  0.3873E-01  0.1768E+00
      2.302  0.2074E-01  0.1780E+00
      2.363  0.6801E-02  0.1784E+00
      2.423 -0.1470E-02  0.1783E+00
      2.484 -0.5059E-02  0.1780E+00
      2.544 -0.6131E-02  0.1777E+00
      2.605 -0.4886E-02  0.1774E+00
      2.666  0.1876E-02  0.1775E+00
      2.726  0.1877E-01  0.1786E+00
      2.787  0.4723E-01  0.1815E+00
      2.848  0.8125E-01  0.1864E+00
      2.908  0.1075E+00  0.1929E+00
      2.969  0.1124E+00  0.1997E+00
      3.029  0.9199E-01  0.2053E+00
      3.090  0.5658E-01  0.2087E+00
      3.151  0.2295E-01  0.2101E+00
      3.211  0.2273E-02  0.2103E+00
      3.272 -0.5040E-02  0.2100E+00
      3.333 -0.5001E-02  0.2097E+00
      3.393 -0.3448E-02  0.2094E+00
      3.454 -0.3357E-02  0.2092E+00
      3.514 -0.5263E-02  0.2089E+00
      3.575 -0.7272E-02  0.2085E+00
      3.636 -0.3899E-02  0.2082E+00
      3.696  0.1306E-01  0.2090E+00
      3.757  0.4846E-01  0.2120E+00
      3.818  0.9613E-01  0.2178E+00
      3.878  0.1392E+00  0.2262E+00
      3.939  0.1610E+00  0.2360E+00
      3.999  0.1562E+00  0.2455E+00
      4.060  0.1318E+00  0.2535E+00
      4.121  0.1005E+00  0.2596E+00
      4.181  0.7341E-01  0.2640E+00
      4.242  0.5478E-01  0.2673E+00
      4.303  0.4084E-01  0.2698E+00
      4.363  0.2603E-01  0.2714E+00
      4.424  0.9765E-02  0.2720E+00
      4.485 -0.2815E-02  0.2718E+00
      4.545 -0.4074E-02  0.2716E+00
      4.606  0.1271E-01  0.2723E+00
      4.666  0.4800E-01  0.2752E+00
      4.727  0.8985E-01  0.2807E+00
      4.788  0.1172E+00  0.2878E+00
      4.848  0.1171E+00  0.2949E+00
      4.909  0.1003E+00  0.3010E+00
      4.970  0.9284E-01  0.3066E+00
      5.030  0.1112E+00  0.3133E+00
      5.091  0.1471E+00  0.3223E+00
      5.151  0.1767E+00  0.3330E+00
      5.212  0.1815E+00  0.3440E+00
      5.273  0.1584E+00  0.3536E+00
      5.333  0.1169E+00  0.3607E+00
      5.394  0.7085E-01  0.3650E+00
      5.455  0.3228E-01  0.3669E+00
      5.515  0.7282E-02  0.3674E+00
      5.576 -0.4770E-02  0.3671E+00
      5.636 -0.8668E-02  0.3665E+00
      5.697 -0.8414E-02  0.3660E+00
      5.758 -0.3262E-02  0.3658E+00
      5.818  0.1153E-01  0.3665E+00
      5.879  0.3805E-01  0.3688E+00
      5.940  0.6834E-01  0.3730E+00
      6.000  0.8600E-01  0.3782E+00
      6.061  0.7923E-01  0.3830E+00
      6.121  0.5234E-01  0.3862E+00
      6.182  0.2262E-01  0.3875E+00
      6.243  0.6340E-02  0.3879E+00
      6.303  0.8678E-02  0.3885E+00
      6.364  0.2328E-01  0.3899E+00
      6.425  0.3784E-01  0.3922E+00
      6.485  0.4168E-01  0.3947E+00
      6.546  0.3214E-01  0.3966E+00
      6.606  0.1511E-01  0.3976E+00
      6.667 -0.3308E-03  0.3975E+00
      6.728 -0.6443E-02  0.3971E+00
      6.788  0.3038E-02  0.3973E+00
      6.849  0.3157E-01  0.3992E+00
      6.910  0.7348E-01  0.4037E+00
      6.970  0.1114E+00  0.4105E+00
      7.031  0.1282E+00  0.4182E+00
      7.091  0.1240E+00  0.4258E+00
      7.152  0.1162E+00  0.4328E+00
      7.213  0.1186E+00  0.4400E+00
      7.273  0.1267E+00  0.4477E+00
      7.334  0.1256E+00  0.4553E+00
      7.395  0.1082E+00  0.4618E+00
      7.455  0.7966E-01  0.4667E+00
      7.516  0.4924E-01  0.4697E+00
      7.576  0.2284E-01  0.4710E+00
      7.637  0.3409E-02  0.4712E+00
      7.698 -0.6521E-02  0.4709E+00
      7.758 -0.3268E-02  0.4707E+00
      7.819  0.1688E-01  0.4717E+00
      7.880  0.5235E-01  0.4749E+00
      7.940  0.9085E-01  0.4804E+00
      8.001  0.1136E+00  0.4872E+00
      8.061  0.1102E+00  0.4939E+00
      8.122  0.9018E-01  0.4994E+00
      8.183  0.7578E-01  0.5040E+00
      8.243  0.8267E-01  0.5090E+00
      8.304  0.1079E+00  0.5155E+00
      8.365  0.1359E+00  0.5238E+00
      8.425  0.1533E+00  0.5331E+00
      8.486  0.1549E+00  0.5425E+00
      8.546  0.1410E+00  0.5510E+00
      8.607  0.1135E+00  0.5579E+00
      8.668  0.7757E-01  0.5626E+00
      8.728  0.4190E-01  0.5651E+00
      8.789  0.1441E-01  0.5660E+00
      8.850 -0.1928E-02  0.5659E+00
      8.910 -0.8684E-02  0.5654E+00
      8.971 -0.7426E-02  0.5649E+00
      9.031  0.3553E-02  0.5651E+00
      9.092  0.2637E-01  0.5667E+00
      9.153  0.5644E-01  0.5702E+00
      9.213  0.8065E-01  0.5750E+00
      9.274  0.8694E-01  0.5803E+00
      9.335  0.7605E-01  0.5849E+00
      9.395  0.6108E-01  0.5886E+00
      9.456  0.5588E-01  0.5920E+00
      9.516  0.6622E-01  0.5960E+00
      9.577  0.8849E-01  0.6014E+00
      9.638  0.1112E+00  0.6081E+00
      9.698  0.1192E+00  0.6154E+00
      9.759  0.1029E+00  0.6216E+00
      9.820  0.6744E-01  0.6257E+00
      9.880  0.3040E-01  0.6275E+00
      9.941  0.1136E-01  0.6282E+00
     10.001  0.2079E-01  0.6295E+00
     10.062  0.5437E-01  0.6328E+00
     10.123  0.9511E-01  0.6385E+00
     10.183  0.1250E+00  0.6461E+00
     10.244  0.1387E+00  0.6545E+00
     10.305  0.1453E+00  0.6633E+00
     10.365  0.1544E+00  0.6727E+00
     10.426  0.1638E+00  0.6826E+00
     10.486  0.1617E+00  0.6924E+00
     10.547  0.1401E+00  0.7009E+00
     10.608  0.1018E+00  0.7071E+00
     10.668  0.5865E-01  0.7107E+00
     10.729  0.2356E-01  0.7121E+00
     10.790  0.5345E-02  0.7124E+00
     10.850  0.6468E-02  0.7128E+00
     10.911  0.2367E-01  0.7142E+00
     10.971  0.5026E-01  0.7173E+00
     11.032  0.7812E-01  0.7220E+00
     11.093  0.9793E-01  0.7280E+00
     11.153  0.1005E+00  0.7340E+00
     11.214  0.8280E-01  0.7391E+00
     11.275  0.5363E-01  0.7423E+00
     11.335  0.2976E-01  0.7441E+00
     11.396  0.2281E-01  0.7455E+00
     11.457  0.2998E-01  0.7473E+00
     11.517  0.3830E-01  0.7496E+00
     11.578  0.3700E-01  0.7519E+00
     11.638  0.2572E-01  0.7534E+00
     11.699  0.1178E-01  0.7542E+00
     11.760  0.2032E-02  0.7543E+00
     11.820 -0.1868E-02  0.7542E+00
     11.881 -0.2096E-02  0.7540E+00
     11.942 -0.1217E-02  0.7540E+00
     12.002 -0.5009E-03  0.7539E+00
     12.063 -0.1581E-03  0.7539E+00
     12.123 -0.3951E-04  0.7539E+00
     12.184 -0.7946E-05  0.7539E+00
     12.245 -0.1298E-05  0.7539E+00
     12.305 -0.1734E-06  0.7539E+00
     12.366 -0.1901E-07  0.7539E+00
     12.427 -0.1715E-08  0.7539E+00
     12.487 -0.1277E-09  0.7539E+00
     12.548 -0.7853E-11  0.7539E+00
     12.608 -0.3995E-12  0.7539E+00
     12.669 -0.1682E-13  0.7539E+00
     12.730 -0.5944E-15  0.7539E+00
     12.790 -0.9588E-17  0.7539E+00
     12.851  0.0000E+00  0.7539E+00
     12.912  0.0000E+00  0.7539E+00
     12.972  0.0000E+00  0.7539E+00
     13.033  0.0000E+00  0.7539E+00
     13.093  0.0000E+00  0.7539E+00
     13.154  0.0000E+00  0.7539E+00
     13.215  0.0000E+00  0.7539E+00
     13.275  0.0000E+00  0.7539E+00
     13.336  0.0000E+00  0.7539E+00
     13.397  0.0000E+00  0.7539E+00
     13.457  0.0000E+00  0.7539E+00
     13.518  0.0000E+00  0.7539E+00
