 vasp.5.2.2 15Apr09 complex 
 executed on             LinuxIFC date 2016.11.30  15:02:09
 running on    8 nodes
 distr:  one band on    1 nodes,    8 groups


--------------------------------------------------------------------------------------------------------


 INCAR:
 POTCAR:   PAW_PBE Al 04Jan2001                   
 POTCAR:   PAW_PBE Mg 05Jan2001                   
 POTCAR:   PAW_PBE Al 04Jan2001                   
   VRHFIN =Al: s2p1                                                             
   LEXCH  = PE                                                                  
   EATOM  =    53.5387 eV,    3.9350 Ry                                         
                                                                                
   TITEL  = PAW_PBE Al 04Jan2001                                                
   LULTRA =        F    use ultrasoft PP ?                                      
   IUNSCR =        1    unscreen: 0-lin 1-nonlin 2-no                           
   RPACOR =    1.500    partial core radius                                     
   POMASS =   26.982; ZVAL   =    3.000    mass and valenz                      
   RCORE  =    1.900    outmost cutoff radius                                   
   RWIGS  =    2.650; RWIGS  =    1.402    wigner-seitz radius (au A)           
   ENMAX  =  240.300; ENMIN  =  180.225 eV                                      
   ICORE  =        2    local potential                                         
   LCOR   =        T    correct aug charges                                     
   LPAW   =        T    paw PP                                                  
   EAUG   =  291.052                                                            
   DEXC   =    -.041                                                            
   RMAX   =    2.974    core radius for proj-oper                               
   RAUG   =    1.300    factor for augmentation sphere                          
   RDEP   =    1.966    radius for radial grids                                 
   QCUT   =   -4.203; QGAM   =    8.405    optimization parameters              
                                                                                
   Description                                                                  
     l     E      TYP  RCUT    TYP  RCUT                                        
     0   .000     23  1.900                                                     
     0   .000     23  1.900                                                     
     1   .000     23  1.900                                                     
     1  1.000     23  1.900                                                     
     2   .000      7  1.900                                                     
  local pseudopotential read in
  partial core-charges read in
  atomic valenz-charges read in
  non local Contribution for L=           0  read in
    real space projection operators read in
  non local Contribution for L=           0  read in
    real space projection operators read in
  non local Contribution for L=           1  read in
    real space projection operators read in
  non local Contribution for L=           1  read in
    real space projection operators read in
    PAW grid and wavefunctions read in
 
   number of l-projection  operators is LMAX  =           4
   number of lm-projection operators is LMMAX =           8
 
 POTCAR:   PAW_PBE Mg 05Jan2001                   
   VRHFIN =Mg: s2p0                                                             
   LEXCH  = PE                                                                  
   EATOM  =    23.0029 eV,    1.6907 Ry                                         
                                                                                
   TITEL  = PAW_PBE Mg 05Jan2001                                                
   LULTRA =        F    use ultrasoft PP ?                                      
   IUNSCR =        1    unscreen: 0-lin 1-nonlin 2-no                           
   RPACOR =    2.000    partial core radius                                     
   POMASS =   24.305; ZVAL   =    2.000    mass and valenz                      
   RCORE  =    2.000    outmost cutoff radius                                   
   RWIGS  =    2.880; RWIGS  =    1.524    wigner-seitz radius (au A)           
   ENMAX  =  210.012; ENMIN  =  157.509 eV                                      
   ICORE  =        2    local potential                                         
   LCOR   =        T    correct aug charges                                     
   LPAW   =        T    paw PP                                                  
   EAUG   =  274.554                                                            
   DEXC   =    -.136                                                            
   RMAX   =    3.182    core radius for proj-oper                               
   RAUG   =    1.300    factor for augmentation sphere                          
   RDEP   =    2.025    radius for radial grids                                 
   QCUT   =   -3.929; QGAM   =    7.858    optimization parameters              
                                                                                
   Description                                                                  
     l     E      TYP  RCUT    TYP  RCUT                                        
     0   .000     23  2.000                                                     
     0  2.000     23  2.000                                                     
     1   .000     23  2.000                                                     
     1  2.000     23  2.000                                                     
     2   .000     23  2.000                                                     
  local pseudopotential read in
  partial core-charges read in
  atomic valenz-charges read in
  non local Contribution for L=           0  read in
    real space projection operators read in
  non local Contribution for L=           0  read in
    real space projection operators read in
  non local Contribution for L=           1  read in
    real space projection operators read in
  non local Contribution for L=           1  read in
    real space projection operators read in
    PAW grid and wavefunctions read in
 
   number of l-projection  operators is LMAX  =           4
   number of lm-projection operators is LMMAX =           8
 

 ----------------------------------------------------------------------------- 
|                                                                             |
|  ADVICE TO THIS USER RUNNING 'VASP/VAMP'   (HEAR YOUR MASTER'S VOICE ...):  |
|                                                                             |
|      You have a (more or less) 'large supercell' and for larger cells       |
|      it might be more efficient to use real space projection operators      |
|      So try LREAL= Auto  in the INCAR   file.                               |
|      Mind: If you want to do a very accurate calculations keep the          |
|      reciprocal projection scheme          (i.e. LREAL=.FALSE.)             |
|                                                                             |
 ----------------------------------------------------------------------------- 

 PAW_PBE Al 04Jan2001                   :
 energy of atom  1       EATOM=  -53.5387
 kinetic energy error for atom=    0.0011 (will be added to EATOM!!)
 PAW_PBE Mg 05Jan2001                   :
 energy of atom  2       EATOM=  -23.0029
 kinetic energy error for atom=    0.0002 (will be added to EATOM!!)
 
 
 POSCAR: Mg1 Al32                                
  positions in direct lattice
  velocities in cartesian coordinates
 exchange correlation table for  LEXCH =        8
   RHO(1)=    0.500       N(1)  =     2000
   RHO(2)=  100.500       N(2)  =     4000

 VTST: version 2.03d, (02/18/09)

 CHAIN: initializing optimizer
 
 OPT: Using VASP Conjugate-Gradient optimizer
 CHAIN: Read ICHAIN            0
 


--------------------------------------------------------------------------------------------------------


 ion  position               nearest neighbor table
   1  0.010  0.010  0.989-  15 2.75  18 2.75  20 2.75   3 2.77  12 2.77   6 2.77  22 2.90  28 2.90
                             7 2.92  11 2.92   4 2.95   2 2.95
   2  0.245  0.028  0.266-  16 2.47   4 2.49   8 2.57  12 2.66  19 2.70  17 2.80  21 2.80   3 2.92
                             1 2.95   5 2.95  27 2.99
   3  0.252  0.252  0.983-  24 2.59  26 2.59  18 2.68  20 2.68  13 2.70   9 2.76   5 2.76   1 2.77
                            10 2.82   8 2.82   4 2.92   2 2.92
   4  0.028  0.245  0.266-  14 2.47   2 2.49  10 2.57   6 2.66  19 2.70  17 2.80  25 2.80   3 2.92
                             1 2.95   9 2.95  23 2.99
   5  0.488  0.005  0.995-  24 2.71   8 2.75  32 2.75   3 2.76  18 2.76   7 2.78  22 2.81  16 2.85
                             2 2.95  11 2.95  15 2.99   6 2.99
   6  0.770  0.045  0.231-   4 2.66   7 2.67   1 2.77  23 2.79   8 2.80  14 2.85   5 2.99  17 3.01
                            12 3.14  15 3.15  21 3.24  33 3.33
   7  0.735  0.243  0.970-  22 2.48  14 2.50  30 2.58   6 2.67  24 2.68   5 2.78  13 2.82  20 2.90
                             1 2.92   9 2.95   8 3.01
   8  0.483  0.237  0.243-   2 2.57  14 2.63   5 2.75   6 2.80  10 2.82   3 2.82  13 2.86  21 2.86
                            19 2.97  29 2.99   7 3.01  23 3.14
   9  0.005  0.488  0.995-  26 2.71  10 2.75  30 2.75   3 2.76  20 2.76  11 2.78  28 2.81  14 2.85
                             4 2.95   7 2.95  15 2.99  12 2.99
  10  0.237  0.483  0.243-   4 2.57  16 2.63   9 2.75  12 2.80   8 2.82   3 2.82  13 2.86  25 2.86
                            19 2.97  29 2.99  11 3.01  27 3.14
  11  0.243  0.735  0.970-  28 2.48  16 2.50  32 2.58  12 2.67  26 2.68   9 2.78  13 2.82  18 2.90
                             1 2.92   5 2.95  10 3.01
  12  0.045  0.770  0.231-   2 2.66  11 2.67   1 2.77  27 2.79  10 2.80  16 2.85   9 2.99  17 3.01
                             6 3.14  15 3.15  25 3.24  33 3.33
  13  0.487  0.487  0.994-   3 2.70  24 2.75  26 2.75   7 2.82  11 2.82  10 2.86   8 2.86  30 2.87
                            32 2.87  14 3.07  16 3.07  15 3.26  33 3.36
  14  0.765  0.397  0.236-  33 2.41   4 2.47   7 2.50   8 2.63  23 2.63   9 2.85   6 2.85  25 3.07
                            13 3.07  29 3.26
  15  0.771  0.771  0.954-  22 2.64  28 2.64   1 2.75  30 2.78  32 2.78  31 2.96   9 2.99   5 2.99
                            12 3.15   6 3.15  13 3.26  33 3.29
  16  0.397  0.765  0.236-  33 2.41   2 2.47  11 2.50  10 2.63  27 2.63   5 2.85  12 2.85  21 3.07
                            13 3.07  29 3.26
  17  0.006  0.006  0.516-  19 2.71  18 2.73  20 2.73  23 2.74  27 2.74   4 2.80   2 2.80  31 2.82
                            28 2.90  22 2.90   6 3.01  12 3.01
  18  0.251  0.017  0.749-  19 2.59  24 2.60  20 2.67   3 2.68  21 2.71  17 2.73   1 2.75   5 2.76
                            27 2.81  32 2.84  28 2.89  11 2.90
  19  0.243  0.243  0.522-  18 2.59  20 2.59   2 2.70   4 2.70  24 2.71  26 2.71  17 2.71  25 2.75
                            21 2.75  29 2.80   8 2.97  10 2.97
  20  0.017  0.251  0.749-  19 2.59  26 2.60  18 2.67   3 2.68  25 2.71  17 2.73   1 2.75   9 2.76
                            23 2.81  30 2.84  22 2.89   7 2.90
  21  0.488  0.007  0.513-  18 2.71  24 2.74  19 2.75   2 2.80  22 2.82  23 2.85  32 2.86   8 2.86
                            27 2.87  31 3.04  16 3.07   6 3.24  33 3.47
  22  0.739  0.026  0.754-   7 2.48  31 2.51  23 2.56  15 2.64  24 2.72   5 2.81  21 2.82  20 2.89
                             1 2.90  17 2.90  32 2.99  28 3.29
  23  0.757  0.236  0.518-  22 2.56  14 2.63  17 2.74   6 2.79  20 2.81  30 2.82  21 2.85  25 2.87
                            24 2.96  29 2.99   4 2.99   8 3.14
  24  0.480  0.242  0.758-   3 2.59  18 2.60   7 2.68  19 2.71   5 2.71  22 2.72  26 2.72  21 2.74
                            13 2.75  29 2.80  23 2.96  30 2.98
  25  0.007  0.488  0.513-  20 2.71  26 2.74  19 2.75   4 2.80  28 2.82  27 2.85  30 2.86  10 2.86
                            23 2.87  31 3.04  14 3.07  12 3.24  33 3.47
  26  0.242  0.480  0.758-   3 2.59  20 2.60  11 2.68  19 2.71   9 2.71  28 2.72  24 2.72  25 2.74
                            13 2.75  29 2.80  27 2.96  32 2.98
  27  0.236  0.757  0.518-  28 2.56  16 2.63  17 2.74  12 2.79  18 2.81  32 2.82  25 2.85  21 2.87
                            26 2.96  29 2.99   2 2.99  10 3.14
  28  0.026  0.739  0.754-  11 2.48  31 2.51  27 2.56  15 2.64  26 2.72   9 2.81  25 2.82  18 2.89
                             1 2.90  17 2.90  30 2.99  22 3.29
  29  0.488  0.488  0.514-  33 2.47  19 2.80  26 2.80  24 2.80  32 2.96  30 2.96  27 2.99  23 2.99
                             8 2.99  10 2.99  31 3.23  16 3.26  14 3.26
  30  0.757  0.485  0.763-   7 2.58  31 2.66   9 2.75  15 2.78  23 2.82  20 2.84  25 2.86  13 2.87
                            29 2.96  24 2.98  28 2.99  32 3.11
  31  0.765  0.765  0.589-  33 2.42  28 2.51  22 2.51  32 2.66  30 2.66  17 2.82  15 2.96  21 3.04
                            25 3.04  29 3.23
  32  0.485  0.757  0.763-  11 2.58  31 2.66   5 2.75  15 2.78  27 2.82  18 2.84  21 2.86  13 2.87
                            29 2.96  26 2.98  22 2.99  30 3.11
  33  0.660  0.660  0.330-  14 2.41  16 2.41  31 2.42  29 2.47  15 3.29  12 3.33   6 3.33  13 3.36
                            21 3.47  25 3.47
 
  LATTYP: Found a simple cubic cell.
 ALAT       =     8.0870520000
  
  Lattice vectors:
  
 A1 = (   8.0870520000,   0.0000000000,   0.0000000000)
 A2 = (   0.0000000000,   8.0870520000,   0.0000000000)
 A3 = (   0.0000000000,   0.0000000000,   8.0870520000)
 Subroutine PRICEL returns:
 Original cell was already a primitive cell.
 

Analysis of symmetry for initial positions (statically):

 Routine SETGRP: Setting up the symmetry group for a 
 simple cubic supercell.


 Subroutine GETGRP returns: Found  2 space group operations
 (whereof  2 operations were pure point group operations)
 out of a pool of 48 trial point group operations.


The static configuration has the point symmetry C_1h.

Analysis of symmetry for dynamics (positions and initial velocities):

 Subroutine DYNSYM returns: Found  2 space group operations
 (whereof  2 operations were pure point group operations)
 out of a pool of  2 trial space group operations
 (whereof  2 operations were pure point group operations)
 and found also     1 'primitive' translations


The dynamic configuration has the point symmetry C_1h.
 
 
 KPOINTS: Automatic kpoint scheme                 

Automatic generation of k-mesh.
 
 Subroutine IBZKPT returns following result:
 ===========================================
 
 Found      3 irreducible k-points:
 
 Following reciprocal coordinates:
            Coordinates               Weight
  0.250000  0.250000  0.250000      2.000000
 -0.250000  0.250000  0.250000      4.000000
 -0.250000 -0.250000  0.250000      2.000000
 
 Following cartesian coordinates:
            Coordinates               Weight
  0.030914  0.030914  0.030914      2.000000
 -0.030914  0.030914  0.030914      4.000000
 -0.030914 -0.030914  0.030914      2.000000
 


--------------------------------------------------------------------------------------------------------




 Dimension of arrays:
   k-points           NKPTS =      3   k-points in BZ     NKDIM =      3   number of bands    NBANDS=     72
   number of dos      NEDOS =    301   number of ions     NIONS =     33
   non local maximal  LDIM  =      4   non local SUM 2l+1 LMDIM =      8
   total plane-waves  NPLWV = 110592
   max r-space proj   IRMAX =      1   max aug-charges    IRDMAX=   9081
   dimension x,y,z NGX =    48 NGY =   48 NGZ =   48
   dimension x,y,z NGXF=    96 NGYF=   96 NGZF=   96
   support grid    NGXF=    96 NGYF=   96 NGZF=   96
   ions per type =              32   1
 NGX,Y,Z   is equivalent  to a cutoff of   9.87,  9.87,  9.87 a.u.
 NGXF,Y,Z  is equivalent  to a cutoff of  19.73, 19.73, 19.73 a.u.


 I would recommend the setting:
   dimension x,y,z NGX =    46 NGY =   46 NGZ =   46
 SYSTEM =  unknown system                          
 POSCAR =  Mg1 Al32                                

 Startparameter for this run:
   NWRITE =      2    write-flag & timer
   PREC   = accura    medium, high low
   ISTART =      0    job   : 0-new  1-cont  2-samecut
   ICHARG =      2    charge: 1-file 2-atom 10-const
   ISPIN  =      1    spin polarized calculation?
   LNONCOLLINEAR =      F non collinear calculations
   LSORBIT =      F    spin-orbit coupling
   INIWAV =      1    electr: 0-lowe 1-rand  2-diag
   LASPH  =      F    aspherical Exc in radial PAW
   METAGGA=      F    non-selfconsistent MetaGGA calc.

 Electronic Relaxation 1
   ENCUT  =  300.0 eV  22.05 Ry    4.70 a.u.  11.42 11.42 11.42*2*pi/ulx,y,z
   ENINI  =  300.0     initial cutoff
   ENAUG  =  291.1 eV  augmentation charge cutoff
   NELM   =     60;   NELMIN=  2; NELMDL=-12     # of ELM steps 
   EDIFF  = 0.1E-03   stopping-criterion for ELM
   LREAL  =      F    real-space projection
   LCOMPAT=      F    compatible to vasp.4.4
   LREAL_COMPAT= F    compatible to vasp.4.5.1-3
   GGA_COMPAT  = T    GGA compatible to vasp.4.4-vasp.4.6
   LMAXPAW     = -100 max onsite density
   LMAXMIX     =    2 max onsite mixed and CHGCAR
   VOSKOWN=      0    Vosko Wilk Nusair interpolation
   ROPT   =    0.00000   0.00000
 Ionic relaxation
   EDIFFG = 0.5E-01   stopping-criterion for IOM
   NSW    =    191    number of steps for IOM
   NBLOCK =      1;   KBLOCK =    191    inner block; outer block 
   IBRION =      2    ionic relax: 0-MD 1-quasi-New 2-CG
   NFREE  =      1    steps in history (QN), initial steepest desc. (CG)
   ISIF   =      2    stress and relaxation
   IWAVPR =     11    prediction:  0-non 1-charg 2-wave 3-comb
   ISYM   =      2    0-nonsym 1-usesym 2-fastsym
   LCORR  =      T    Harris-Foulkes like correction to forces

   POTIM  = 0.5000    time-step for ionic-motion
   TEIN   =    0.0    initial temperature
   TEBEG  =    0.0;   TEEND  =   0.0 temperature during run
   SMASS  =  -3.00    Nose mass-parameter (am)
   estimated Nose-frequenzy (Omega)   =  0.10E-29 period in steps =****** mass=  -0.149E-26a.u.
   NPACO  =    256;   APACO  = 16.0  distance and # of slots for P.C.
   PSTRESS=    0.0 pullay stress

  Mass of Ions in am
   POMASS =  26.98 24.30
  Ionic Valenz
   ZVAL   =   3.00  2.00
  Atomic Wigner-Seitz radii
   RWIGS  =  -1.00 -1.00
   NELECT =      98.0000    total number of electrons
   NUPDOWN=      -1.0000    fix difference up-down

 DOS related values:
   EMIN   =  10.00;   EMAX   =-10.00  energy-range for DOS
   EFERMI =   0.00
   ISMEAR =     1;   SIGMA  =   0.20  broadening in eV -4-tet -1-fermi 0-gaus

 Electronic relaxation 2 (details)
   IALGO  =     48    algorithm
   LDIAG  =      T    sub-space diagonalisation
   IMIX   =      4    mixing-type and parameters
     AMIX     =   0.40;   BMIX     =  1.00
     AMIX_MAG =   1.60;   BMIX_MAG =  1.00
     AMIN     =   0.10
     WC   =   100.;   INIMIX=   1;  MIXPRE=   1

 Intra band minimization:
   WEIMIN = 0.0010     energy-eigenvalue tresh-hold
   EBREAK =  0.38E-06  absolut break condition
   DEPER  =   0.30     relativ break condition  

   TIME   =   0.40     timestep for ELM

  volume/ion in A,a.u.               =      16.03       108.16
  Fermi-wavevector in a.u.,A,eV,Ry     =   0.933312  1.763703 11.851632  0.871070
  Thomas-Fermi vector in A             =   2.060000
 
 Write flags
   LWAVE  =      F    write WAVECAR
   LCHARG =      F    write CHGCAR
   LVTOT  =      F    write LOCPOT, local potential
   LELF   =      F    write electronic localiz. function (ELF)
   LORBIT =      0    0 simple, 1 ext, 2 COOP (PROOUT)


 Dipole corrections
   LMONO  =      F    monopole corrections only (constant potential shift)
   LDIPOL =      F    correct potential (dipole corrections)
   IDIPOL =      0    1-x, 2-y, 3-z, 4-all directions 
   EPSILON=  1.0000000 bulk dielectric constant

 Exchange correlation treatment:
   GGA     =    --    GGA type
   LEXCH   =     8    internal setting for exchange type
   VOSKOWN=      0    Vosko Wilk Nusair interpolation
   LHFCALC =     F    Hartree Fock is set to
   LHFONE  =     F    Hartree Fock one center treatment
   AEXX    =    0.0000 exact exchange contribution

 Linear response parameters
   LEPSILON=     F    determine dielectric tensor
   LRPA    =     F    only Hartree local field effects (RPA)
   LNABLA  =     F    use nabla operator in PAW spheres
   LVEL    =     F    velocity operator in full k-point grid
   LINTERFAST=   F  fast interpolation
   KINTER  =     0    interpolate to denser k-point grid
   CSHIFT  =0.1000    complex shift for real part using Kramers Kronig
   OMEGAMAX=  -1.0    maximum frequency

 Orbital magnetization related:
   ORBITALMAG=     F  switch on orbital magnetization
   LCHIMAG   =     F  perturbation theory with respect to B field



--------------------------------------------------------------------------------------------------------


 conjugate gradient relaxation of ions
 charge density and potential will be updated during run
 non-spin polarized calculation
 RMM-DIIS sequential band-by-band
 perform sub-space diagonalisation
    before iterative eigenvector-optimisation
 modified Broyden-mixing scheme, WC =      100.0
 initial mixing is a Kerker type mixing with AMIX =  0.4000 and BMIX =      1.0000
 Hartree-type preconditioning will be used
 using additional bands           23
 reciprocal scheme for non local part
 use partial core corrections
 calculate Harris-corrections to forces 
   (improved forces if not selfconsistent)
 use gradient corrections 
 use of overlap-Matrix (Vanderbilt PP)
 Methfessel and Paxton  Order N= 1 SIGMA  =   0.20


--------------------------------------------------------------------------------------------------------


  energy-cutoff  :      300.00
  volume of cell :      528.90
      direct lattice vectors                 reciprocal lattice vectors
     8.087052000  0.000000000  0.000000000     0.123654454  0.000000000  0.000000000
     0.000000000  8.087052000  0.000000000     0.000000000  0.123654454  0.000000000
     0.000000000  0.000000000  8.087052000     0.000000000  0.000000000  0.123654454

  length of vectors
     8.087052000  8.087052000  8.087052000     0.123654454  0.123654454  0.123654454


 
 k-points in units of 2pi/SCALE and weight: Automatic kpoint scheme                 
   0.03091361  0.03091361  0.03091361       0.250
  -0.03091361  0.03091361  0.03091361       0.500
  -0.03091361 -0.03091361  0.03091361       0.250
 
 k-points in reciprocal lattice and weights: Automatic kpoint scheme                 
   0.25000000  0.25000000  0.25000000       0.250
  -0.25000000  0.25000000  0.25000000       0.500
  -0.25000000 -0.25000000  0.25000000       0.250
 
 position of ions in fractional coordinates (direct lattice) 
   0.00975500  0.00975500  0.98879100
   0.24516600  0.02777400  0.26639400
   0.25166200  0.25166200  0.98256300
   0.02777400  0.24516600  0.26639400
   0.48776500  0.00540300  0.99457800
   0.77012900  0.04458900  0.23092100
   0.73517800  0.24333700  0.97002700
   0.48297100  0.23662400  0.24331900
   0.00540300  0.48776500  0.99457800
   0.23662400  0.48297100  0.24331900
   0.24333700  0.73517800  0.97002700
   0.04458900  0.77012900  0.23092100
   0.48725000  0.48725000  0.99361500
   0.76508700  0.39723800  0.23604200
   0.77068300  0.77068300  0.95441800
   0.39723800  0.76508700  0.23604200
   0.00645400  0.00645400  0.51576800
   0.25071200  0.01714300  0.74874000
   0.24313300  0.24313300  0.52180300
   0.01714300  0.25071200  0.74874000
   0.48816600  0.00748600  0.51290000
   0.73861100  0.02594300  0.75422800
   0.75741100  0.23563400  0.51829400
   0.48005500  0.24185100  0.75795000
   0.00748600  0.48816600  0.51290000
   0.24185100  0.48005500  0.75795000
   0.23563400  0.75741100  0.51829400
   0.02594300  0.73861100  0.75422800
   0.48786100  0.48786100  0.51395600
   0.75685300  0.48520400  0.76258600
   0.76522200  0.76522200  0.58909100
   0.48520400  0.75685300  0.76258600
   0.66000000  0.66000000  0.33000000
 
 position of ions in cartesian coordinates  (Angst):
   0.07888919  0.07888919  7.99640423
   1.98267019  0.22460978  2.15434213
   2.03520368  2.03520368  7.94603807
   0.22460978  1.98267019  2.15434213
   3.94458092  0.04369434  8.04320400
   6.22807327  0.36059356  1.86747013
   5.94542272  1.96787897  7.84465879
   3.90581159  1.91359059  1.96773341
   0.04369434  3.94458092  8.04320400
   1.91359059  3.90581159  1.96773341
   1.96787897  5.94542272  7.84465879
   0.36059356  6.22807327  1.86747013
   3.94041609  3.94041609  8.03541617
   6.18729835  3.21248436  1.90888393
   6.23255350  6.23255350  7.71842800
   3.21248436  6.18729835  1.90888393
   0.05219383  0.05219383  4.17104264
   2.02752098  0.13863633  6.05509931
   1.96622921  1.96622921  4.21984799
   0.13863633  2.02752098  6.05509931
   3.94782383  0.06053967  4.14784897
   5.97318556  0.20980239  6.09948106
   6.12522214  1.90558441  4.19147053
   3.88222975  1.95586161  6.12958106
   0.06053967  3.94782383  4.14784897
   1.95586161  3.88222975  6.12958106
   1.90558441  6.12522214  4.19147053
   0.20980239  5.97318556  6.09948106
   3.94535728  3.94535728  4.15638890
   6.12070957  3.92386998  6.16707264
   6.18839011  6.18839011  4.76400955
   3.92386998  6.12070957  6.16707264
   5.33745432  5.33745432  2.66872716
 


--------------------------------------------------------------------------------------------------------


 k-point  1 :  0.25000.25000.2500  plane waves:    6238
 k-point  2 :  -.25000.25000.2500  plane waves:    6238
 k-point  3 :  -.2500-.25000.2500  plane waves:    6238

 maximum and minimum number of plane-waves per node :    6238   6238

 maximum number of plane-waves:    6238
 maximal index in each direction: 
   IXMAX= 11   IYMAX= 11   IZMAX= 11
   IXMIN=-11   IYMIN=-11   IZMIN=-11

 NGX is ok and might be reduce to  46
 NGY is ok and might be reduce to  46
 NGZ is ok and might be reduce to  46

 serial   3D FFT for wavefunctions
 parallel 3D FFT for charge:
    minimum data exchange during FFTs selected (reduces bandwidth)


 total amount of memory used by VASP on root node  65972. kBytes
========================================================================

   base      :    30000. kBytes
   nonl-proj :     5690. kBytes
   fftplans  :     4240. kBytes
   grid      :    23132. kBytes
   one-center:      101. kBytes
   wavefun   :     2809. kBytes
 
 Broyden mixing: mesh for mixing (old mesh)
   NGX = 23   NGY = 23   NGZ = 23
  (NGX  = 96   NGY  = 96   NGZ  = 96)
  gives a total of  12167 points

 initial charge density was supplied:
 charge density of overlapping atoms calculated
 number of electron   98.0000000 magnetization 
 keeping initial charge density in first step


--------------------------------------------------------------------------------------------------------


 Maximum index for augmentation-charges         1116 (set IRDMAX)


--------------------------------------------------------------------------------------------------------


 First call to EWALD:  gamma=   0.219
 Maximum number of real-space cells 3x 3x 3
 Maximum number of reciprocal cells 3x 3x 3

    FEWALD:  cpu time    0.02: real time    0.02
   RESPFUN:  cpu time    0.00: real time    0.00


----------------------------------------- Iteration    1(   1)  ---------------------------------------


    POTLOK:  cpu time    0.26: real time    0.27
    SETDIJ:  cpu time    0.02: real time    0.02
    EDDIAG:  cpu time    0.70: real time    0.70
  RMM-DIIS:  cpu time    1.60: real time    1.60
    ORTHCH:  cpu time    0.04: real time    0.04
       DOS:  cpu time    0.00: real time    0.00
    --------------------------------------------
      LOOP:  cpu time    2.63: real time    2.63

 eigenvalue-minimisations  :   216
 total energy-change (2. order) : 0.2820045E+03  (-0.1735807E+04)
 number of electron   98.0000000 magnetization 
 augmentation part    98.0000000 magnetization 

 Free energy of the ion-electron system (eV)
  ---------------------------------------------------
  alpha Z        PSCENC =        -8.27954604
  Ewald energy   TEWEN  =     -2349.57704412
  -1/2 Hartree   DENC   =       -38.20084354
  -exchange  EXHF       =         0.00000000
  -V(xc)+E(xc)   XCENC  =      -845.14067781
  PAW double counting   =      1149.32568210     -115.70169129
  entropy T*S    EENTRO =        -0.01030434
  eigenvalues    EBANDS =       753.38221163
  atomic energy  EATOM  =      1736.20668909
  ---------------------------------------------------
  free energy    TOTEN  =       282.00447567 eV

  energy without entropy =      282.01478002  energy(sigma->0) =      282.00791046


--------------------------------------------------------------------------------------------------------




----------------------------------------- Iteration    1(   2)  ---------------------------------------


    EDDIAG:  cpu time    0.69: real time    0.69
  RMM-DIIS:  cpu time    1.61: real time    1.61
    ORTHCH:  cpu time    0.04: real time    0.04
       DOS:  cpu time    0.00: real time    0.00
    --------------------------------------------
      LOOP:  cpu time    2.34: real time    2.35

 eigenvalue-minimisations  :   216
 total energy-change (2. order) :-0.3062512E+03  (-0.2994712E+03)
 number of electron   98.0000000 magnetization 
 augmentation part    98.0000000 magnetization 

 Free energy of the ion-electron system (eV)
  ---------------------------------------------------
  alpha Z        PSCENC =        -8.27954604
  Ewald energy   TEWEN  =     -2349.57704412
  -1/2 Hartree   DENC   =       -38.20084354
  -exchange  EXHF       =         0.00000000
  -V(xc)+E(xc)   XCENC  =      -845.14067781
  PAW double counting   =      1149.32568210     -115.70169129
  entropy T*S    EENTRO =        -0.01081848
  eigenvalues    EBANDS =       447.13155438
  atomic energy  EATOM  =      1736.20668909
  ---------------------------------------------------
  free energy    TOTEN  =       -24.24669572 eV

  energy without entropy =      -24.23587724  energy(sigma->0) =      -24.24308956


--------------------------------------------------------------------------------------------------------




----------------------------------------- Iteration    1(   3)  ---------------------------------------


    EDDIAG:  cpu time    0.69: real time    0.69
  RMM-DIIS:  cpu time    1.60: real time    1.60
    ORTHCH:  cpu time    0.04: real time    0.04
       DOS:  cpu time    0.00: real time    0.00
    --------------------------------------------
      LOOP:  cpu time    2.34: real time    2.34

 eigenvalue-minimisations  :   216
 total energy-change (2. order) :-0.6762143E+02  (-0.6836531E+02)
 number of electron   98.0000000 magnetization 
 augmentation part    98.0000000 magnetization 

 Free energy of the ion-electron system (eV)
  ---------------------------------------------------
  alpha Z        PSCENC =        -8.27954604
  Ewald energy   TEWEN  =     -2349.57704412
  -1/2 Hartree   DENC   =       -38.20084354
  -exchange  EXHF       =         0.00000000
  -V(xc)+E(xc)   XCENC  =      -845.14067781
  PAW double counting   =      1149.32568210     -115.70169129
  entropy T*S    EENTRO =        -0.01662996
  eigenvalues    EBANDS =       379.51593561
  atomic energy  EATOM  =      1736.20668909
  ---------------------------------------------------
  free energy    TOTEN  =       -91.86812597 eV

  energy without entropy =      -91.85149601  energy(sigma->0) =      -91.86258265


--------------------------------------------------------------------------------------------------------




----------------------------------------- Iteration    1(   4)  ---------------------------------------


    EDDIAG:  cpu time    0.70: real time    0.70
  RMM-DIIS:  cpu time    1.60: real time    1.60
    ORTHCH:  cpu time    0.04: real time    0.04
       DOS:  cpu time    0.00: real time    0.00
    --------------------------------------------
      LOOP:  cpu time    2.34: real time    2.34

 eigenvalue-minimisations  :   216
 total energy-change (2. order) :-0.1484474E+02  (-0.1451365E+02)
 number of electron   98.0000000 magnetization 
 augmentation part    98.0000000 magnetization 

 Free energy of the ion-electron system (eV)
  ---------------------------------------------------
  alpha Z        PSCENC =        -8.27954604
  Ewald energy   TEWEN  =     -2349.57704412
  -1/2 Hartree   DENC   =       -38.20084354
  -exchange  EXHF       =         0.00000000
  -V(xc)+E(xc)   XCENC  =      -845.14067781
  PAW double counting   =      1149.32568210     -115.70169129
  entropy T*S    EENTRO =        -0.05050713
  eigenvalues    EBANDS =       364.70506982
  atomic energy  EATOM  =      1736.20668909
  ---------------------------------------------------
  free energy    TOTEN  =      -106.71286893 eV

  energy without entropy =     -106.66236180  energy(sigma->0) =     -106.69603322


--------------------------------------------------------------------------------------------------------




----------------------------------------- Iteration    1(   5)  ---------------------------------------


    EDDIAG:  cpu time    0.69: real time    0.69
  RMM-DIIS:  cpu time    1.60: real time    1.60
    ORTHCH:  cpu time    0.04: real time    0.04
       DOS:  cpu time    0.00: real time    0.00
    --------------------------------------------
      LOOP:  cpu time    2.33: real time    2.34

 eigenvalue-minimisations  :   216
 total energy-change (2. order) :-0.5611478E+01  (-0.4353985E+01)
 number of electron   98.0000000 magnetization 
 augmentation part    98.0000000 magnetization 

 Free energy of the ion-electron system (eV)
  ---------------------------------------------------
  alpha Z        PSCENC =        -8.27954604
  Ewald energy   TEWEN  =     -2349.57704412
  -1/2 Hartree   DENC   =       -38.20084354
  -exchange  EXHF       =         0.00000000
  -V(xc)+E(xc)   XCENC  =      -845.14067781
  PAW double counting   =      1149.32568210     -115.70169129
  entropy T*S    EENTRO =        -0.02999232
  eigenvalues    EBANDS =       359.07307713
  atomic energy  EATOM  =      1736.20668909
  ---------------------------------------------------
  free energy    TOTEN  =      -112.32434680 eV

  energy without entropy =     -112.29435448  energy(sigma->0) =     -112.31434936


--------------------------------------------------------------------------------------------------------




----------------------------------------- Iteration    1(   6)  ---------------------------------------


    EDDIAG:  cpu time    0.69: real time    0.69
  RMM-DIIS:  cpu time    1.60: real time    1.60
    ORTHCH:  cpu time    0.04: real time    0.04
       DOS:  cpu time    0.00: real time    0.00
    --------------------------------------------
      LOOP:  cpu time    2.34: real time    2.34

 eigenvalue-minimisations  :   216
 total energy-change (2. order) :-0.1933649E+01  (-0.1505601E+01)
 number of electron   98.0000000 magnetization 
 augmentation part    98.0000000 magnetization 

 Free energy of the ion-electron system (eV)
  ---------------------------------------------------
  alpha Z        PSCENC =        -8.27954604
  Ewald energy   TEWEN  =     -2349.57704412
  -1/2 Hartree   DENC   =       -38.20084354
  -exchange  EXHF       =         0.00000000
  -V(xc)+E(xc)   XCENC  =      -845.14067781
  PAW double counting   =      1149.32568210     -115.70169129
  entropy T*S    EENTRO =        -0.06936312
  eigenvalues    EBANDS =       357.17879895
  atomic energy  EATOM  =      1736.20668909
  ---------------------------------------------------
  free energy    TOTEN  =      -114.25799579 eV

  energy without entropy =     -114.18863267  energy(sigma->0) =     -114.23487475


--------------------------------------------------------------------------------------------------------




----------------------------------------- Iteration    1(   7)  ---------------------------------------


    EDDIAG:  cpu time    0.69: real time    0.69
  RMM-DIIS:  cpu time    1.61: real time    1.61
    ORTHCH:  cpu time    0.04: real time    0.04
       DOS:  cpu time    0.00: real time    0.00
    --------------------------------------------
      LOOP:  cpu time    2.34: real time    2.34

 eigenvalue-minimisations  :   216
 total energy-change (2. order) :-0.7550823E+00  (-0.5917101E+00)
 number of electron   98.0000000 magnetization 
 augmentation part    98.0000000 magnetization 

 Free energy of the ion-electron system (eV)
  ---------------------------------------------------
  alpha Z        PSCENC =        -8.27954604
  Ewald energy   TEWEN  =     -2349.57704412
  -1/2 Hartree   DENC   =       -38.20084354
  -exchange  EXHF       =         0.00000000
  -V(xc)+E(xc)   XCENC  =      -845.14067781
  PAW double counting   =      1149.32568210     -115.70169129
  entropy T*S    EENTRO =        -0.09757449
  eigenvalues    EBANDS =       356.45192800
  atomic energy  EATOM  =      1736.20668909
  ---------------------------------------------------
  free energy    TOTEN  =      -115.01307810 eV

  energy without entropy =     -114.91550361  energy(sigma->0) =     -114.98055327


--------------------------------------------------------------------------------------------------------




----------------------------------------- Iteration    1(   8)  ---------------------------------------


    EDDIAG:  cpu time    0.70: real time    0.70
  RMM-DIIS:  cpu time    1.60: real time    1.60
    ORTHCH:  cpu time    0.04: real time    0.04
       DOS:  cpu time    0.00: real time    0.00
    --------------------------------------------
      LOOP:  cpu time    2.34: real time    2.34

 eigenvalue-minimisations  :   216
 total energy-change (2. order) :-0.3073176E+00  (-0.2523433E+00)
 number of electron   98.0000000 magnetization 
 augmentation part    98.0000000 magnetization 

 Free energy of the ion-electron system (eV)
  ---------------------------------------------------
  alpha Z        PSCENC =        -8.27954604
  Ewald energy   TEWEN  =     -2349.57704412
  -1/2 Hartree   DENC   =       -38.20084354
  -exchange  EXHF       =         0.00000000
  -V(xc)+E(xc)   XCENC  =      -845.14067781
  PAW double counting   =      1149.32568210     -115.70169129
  entropy T*S    EENTRO =        -0.10181660
  eigenvalues    EBANDS =       356.14885256
  atomic energy  EATOM  =      1736.20668909
  ---------------------------------------------------
  free energy    TOTEN  =      -115.32039565 eV

  energy without entropy =     -115.21857905  energy(sigma->0) =     -115.28645679


--------------------------------------------------------------------------------------------------------




----------------------------------------- Iteration    1(   9)  ---------------------------------------


    EDDIAG:  cpu time    0.69: real time    0.69
  RMM-DIIS:  cpu time    3.19: real time    3.19
    ORTHCH:  cpu time    0.04: real time    0.04
       DOS:  cpu time    0.00: real time    0.00
    --------------------------------------------
      LOOP:  cpu time    3.92: real time    3.92

 eigenvalue-minimisations  :   492
 total energy-change (2. order) :-0.2018446E+00  (-0.1801817E+00)
 number of electron   98.0000000 magnetization 
 augmentation part    98.0000000 magnetization 

 Free energy of the ion-electron system (eV)
  ---------------------------------------------------
  alpha Z        PSCENC =        -8.27954604
  Ewald energy   TEWEN  =     -2349.57704412
  -1/2 Hartree   DENC   =       -38.20084354
  -exchange  EXHF       =         0.00000000
  -V(xc)+E(xc)   XCENC  =      -845.14067781
  PAW double counting   =      1149.32568210     -115.70169129
  entropy T*S    EENTRO =        -0.09886227
  eigenvalues    EBANDS =       355.94405364
  atomic energy  EATOM  =      1736.20668909
  ---------------------------------------------------
  free energy    TOTEN  =      -115.52224025 eV

  energy without entropy =     -115.42337798  energy(sigma->0) =     -115.48928616


--------------------------------------------------------------------------------------------------------




----------------------------------------- Iteration    1(  10)  ---------------------------------------


    EDDIAG:  cpu time    0.69: real time    0.69
  RMM-DIIS:  cpu time    2.98: real time    2.98
    ORTHCH:  cpu time    0.04: real time    0.04
       DOS:  cpu time    0.00: real time    0.00
    --------------------------------------------
      LOOP:  cpu time    3.72: real time    3.72

 eigenvalue-minimisations  :   460
 total energy-change (2. order) :-0.3374147E-01  (-0.2254993E-01)
 number of electron   98.0000000 magnetization 
 augmentation part    98.0000000 magnetization 

 Free energy of the ion-electron system (eV)
  ---------------------------------------------------
  alpha Z        PSCENC =        -8.27954604
  Ewald energy   TEWEN  =     -2349.57704412
  -1/2 Hartree   DENC   =       -38.20084354
  -exchange  EXHF       =         0.00000000
  -V(xc)+E(xc)   XCENC  =      -845.14067781
  PAW double counting   =      1149.32568210     -115.70169129
  entropy T*S    EENTRO =        -0.09583848
  eigenvalues    EBANDS =       355.90728838
  atomic energy  EATOM  =      1736.20668909
  ---------------------------------------------------
  free energy    TOTEN  =      -115.55598172 eV

  energy without entropy =     -115.46014324  energy(sigma->0) =     -115.52403556


--------------------------------------------------------------------------------------------------------




----------------------------------------- Iteration    1(  11)  ---------------------------------------


    EDDIAG:  cpu time    0.69: real time    0.69
  RMM-DIIS:  cpu time    2.46: real time    2.46
    ORTHCH:  cpu time    0.04: real time    0.04
       DOS:  cpu time    0.00: real time    0.00
    --------------------------------------------
      LOOP:  cpu time    3.20: real time    3.20

 eigenvalue-minimisations  :   355
 total energy-change (2. order) :-0.1612477E-02  (-0.8173590E-03)
 number of electron   98.0000000 magnetization 
 augmentation part    98.0000000 magnetization 

 Free energy of the ion-electron system (eV)
  ---------------------------------------------------
  alpha Z        PSCENC =        -8.27954604
  Ewald energy   TEWEN  =     -2349.57704412
  -1/2 Hartree   DENC   =       -38.20084354
  -exchange  EXHF       =         0.00000000
  -V(xc)+E(xc)   XCENC  =      -845.14067781
  PAW double counting   =      1149.32568210     -115.70169129
  entropy T*S    EENTRO =        -0.09561921
  eigenvalues    EBANDS =       355.90545663
  atomic energy  EATOM  =      1736.20668909
  ---------------------------------------------------
  free energy    TOTEN  =      -115.55759420 eV

  energy without entropy =     -115.46197498  energy(sigma->0) =     -115.52572113


--------------------------------------------------------------------------------------------------------




----------------------------------------- Iteration    1(  12)  ---------------------------------------


    EDDIAG:  cpu time    0.70: real time    0.70
  RMM-DIIS:  cpu time    2.00: real time    2.02
    ORTHCH:  cpu time    0.04: real time    0.04
       DOS:  cpu time    0.00: real time    0.00
    CHARGE:  cpu time    0.39: real time    0.39
    MIXING:  cpu time    0.01: real time    0.01
    --------------------------------------------
      LOOP:  cpu time    3.14: real time    3.16

 eigenvalue-minimisations  :   263
 total energy-change (2. order) :-0.3186010E-04  (-0.2439054E-04)
 number of electron   98.0000001 magnetization 
 augmentation part    -1.1672713 magnetization 

 Broyden mixing:
  rms(total) = 0.64973E+00    rms(broyden)= 0.64972E+00
  rms(prec ) = 0.14178E+01
  weight for this iteration     100.00

 Free energy of the ion-electron system (eV)
  ---------------------------------------------------
  alpha Z        PSCENC =        -8.27954604
  Ewald energy   TEWEN  =     -2349.57704412
  -1/2 Hartree   DENC   =       -38.20084354
  -exchange  EXHF       =         0.00000000
  -V(xc)+E(xc)   XCENC  =      -845.14067781
  PAW double counting   =      1149.32568210     -115.70169129
  entropy T*S    EENTRO =        -0.09561458
  eigenvalues    EBANDS =       355.90542014
  atomic energy  EATOM  =      1736.20668909
  ---------------------------------------------------
  free energy    TOTEN  =      -115.55762606 eV

  energy without entropy =     -115.46201148  energy(sigma->0) =     -115.52575453


--------------------------------------------------------------------------------------------------------




----------------------------------------- Iteration    1(  13)  ---------------------------------------


    POTLOK:  cpu time    0.25: real time    0.25
    SETDIJ:  cpu time    0.02: real time    0.02
    EDDIAG:  cpu time    0.69: real time    0.69
  RMM-DIIS:  cpu time    2.83: real time    2.83
    ORTHCH:  cpu time    0.04: real time    0.04
       DOS:  cpu time    0.00: real time    0.00
    CHARGE:  cpu time    0.39: real time    0.39
    MIXING:  cpu time    0.01: real time    0.01
    --------------------------------------------
      LOOP:  cpu time    4.23: real time    4.24

 eigenvalue-minimisations  :   432
 total energy-change (2. order) : 0.1782625E+01  (-0.4946678E+00)
 number of electron   98.0000001 magnetization 
 augmentation part    -1.1644682 magnetization 

 Broyden mixing:
  rms(total) = 0.37083E+00    rms(broyden)= 0.37083E+00
  rms(prec ) = 0.65331E+00
  weight for this iteration     100.00

 eigenvalues of (default mixing * dielectric matrix)
  average eigenvalue GAMMA=   1.6186
  1.6186

 Free energy of the ion-electron system (eV)
  ---------------------------------------------------
  alpha Z        PSCENC =        -8.27954604
  Ewald energy   TEWEN  =     -2349.57704412
  -1/2 Hartree   DENC   =       -44.51078895
  -exchange  EXHF       =         0.00000000
  -V(xc)+E(xc)   XCENC  =      -843.66812336
  PAW double counting   =      1157.03371232     -123.82328010
  entropy T*S    EENTRO =         0.02190917
  eigenvalues    EBANDS =       362.82147110
  atomic energy  EATOM  =      1736.20668909
  ---------------------------------------------------
  free energy    TOTEN  =      -113.77500088 eV

  energy without entropy =     -113.79691005  energy(sigma->0) =     -113.78230394


--------------------------------------------------------------------------------------------------------




----------------------------------------- Iteration    1(  14)  ---------------------------------------


    POTLOK:  cpu time    0.25: real time    0.25
    SETDIJ:  cpu time    0.02: real time    0.02
    EDDIAG:  cpu time    0.69: real time    0.69
  RMM-DIIS:  cpu time    2.83: real time    2.83
    ORTHCH:  cpu time    0.04: real time    0.04
       DOS:  cpu time    0.00: real time    0.00
    CHARGE:  cpu time    0.39: real time    0.39
    MIXING:  cpu time    0.01: real time    0.01
    --------------------------------------------
      LOOP:  cpu time    4.24: real time    4.24

 eigenvalue-minimisations  :   432
 total energy-change (2. order) : 0.3672966E+00  (-0.5036199E-01)
 number of electron   98.0000001 magnetization 
 augmentation part    -1.1769463 magnetization 

 Broyden mixing:
  rms(total) = 0.23232E+00    rms(broyden)= 0.23232E+00
  rms(prec ) = 0.33875E+00
  weight for this iteration     100.00

 eigenvalues of (default mixing * dielectric matrix)
  average eigenvalue GAMMA=   1.5462
  2.3154  0.7770

 Free energy of the ion-electron system (eV)
  ---------------------------------------------------
  alpha Z        PSCENC =        -8.27954604
  Ewald energy   TEWEN  =     -2349.57704412
  -1/2 Hartree   DENC   =       -44.44493021
  -exchange  EXHF       =         0.00000000
  -V(xc)+E(xc)   XCENC  =      -842.83055045
  PAW double counting   =      1160.73169829     -127.75923017
  entropy T*S    EENTRO =        -0.02503535
  eigenvalues    EBANDS =       362.57024462
  atomic energy  EATOM  =      1736.20668909
  ---------------------------------------------------
  free energy    TOTEN  =      -113.40770432 eV

  energy without entropy =     -113.38266898  energy(sigma->0) =     -113.39935921


--------------------------------------------------------------------------------------------------------




----------------------------------------- Iteration    1(  15)  ---------------------------------------


    POTLOK:  cpu time    0.25: real time    0.25
    SETDIJ:  cpu time    0.02: real time    0.02
    EDDIAG:  cpu time    0.69: real time    0.69
  RMM-DIIS:  cpu time    2.83: real time    2.83
    ORTHCH:  cpu time    0.04: real time    0.04
       DOS:  cpu time    0.00: real time    0.00
    CHARGE:  cpu time    0.39: real time    0.39
    MIXING:  cpu time    0.01: real time    0.01
    --------------------------------------------
      LOOP:  cpu time    4.23: real time    4.24

 eigenvalue-minimisations  :   433
 total energy-change (2. order) : 0.1395194E+00  (-0.1193290E-01)
 number of electron   98.0000001 magnetization 
 augmentation part    -1.1906826 magnetization 

 Broyden mixing:
  rms(total) = 0.72904E-01    rms(broyden)= 0.72904E-01
  rms(prec ) = 0.11205E+00
  weight for this iteration     100.00

 eigenvalues of (default mixing * dielectric matrix)
  average eigenvalue GAMMA=   1.5239
  2.5697  1.2082  0.7939

 Free energy of the ion-electron system (eV)
  ---------------------------------------------------
  alpha Z        PSCENC =        -8.27954604
  Ewald energy   TEWEN  =     -2349.57704412
  -1/2 Hartree   DENC   =       -45.72071224
  -exchange  EXHF       =         0.00000000
  -V(xc)+E(xc)   XCENC  =      -841.58390779
  PAW double counting   =      1165.48326308     -132.84081603
  entropy T*S    EENTRO =        -0.03022883
  eigenvalues    EBANDS =       363.07411794
  atomic energy  EATOM  =      1736.20668909
  ---------------------------------------------------
  free energy    TOTEN  =      -113.26818494 eV

  energy without entropy =     -113.23795611  energy(sigma->0) =     -113.25810867


--------------------------------------------------------------------------------------------------------




----------------------------------------- Iteration    1(  16)  ---------------------------------------


    POTLOK:  cpu time    0.25: real time    0.25
    SETDIJ:  cpu time    0.02: real time    0.02
    EDDIAG:  cpu time    0.69: real time    0.69
  RMM-DIIS:  cpu time    2.88: real time    2.88
    ORTHCH:  cpu time    0.04: real time    0.04
       DOS:  cpu time    0.00: real time    0.00
    CHARGE:  cpu time    0.39: real time    0.39
    MIXING:  cpu time    0.01: real time    0.01
    --------------------------------------------
      LOOP:  cpu time    4.28: real time    4.29

 eigenvalue-minimisations  :   434
 total energy-change (2. order) : 0.1731822E-01  (-0.1740042E-02)
 number of electron   98.0000001 magnetization 
 augmentation part    -1.1978141 magnetization 

 Broyden mixing:
  rms(total) = 0.11771E-01    rms(broyden)= 0.11771E-01
  rms(prec ) = 0.27776E-01
  weight for this iteration     100.00

 eigenvalues of (default mixing * dielectric matrix)
  average eigenvalue GAMMA=   1.5425
  2.6261  0.8273  1.0532  1.6635

 Free energy of the ion-electron system (eV)
  ---------------------------------------------------
  alpha Z        PSCENC =        -8.27954604
  Ewald energy   TEWEN  =     -2349.57704412
  -1/2 Hartree   DENC   =       -46.14920675
  -exchange  EXHF       =         0.00000000
  -V(xc)+E(xc)   XCENC  =      -841.01552350
  PAW double counting   =      1167.39443108     -134.89761364
  entropy T*S    EENTRO =        -0.02371188
  eigenvalues    EBANDS =       363.09065903
  atomic energy  EATOM  =      1736.20668909
  ---------------------------------------------------
  free energy    TOTEN  =      -113.25086672 eV

  energy without entropy =     -113.22715484  energy(sigma->0) =     -113.24296276


--------------------------------------------------------------------------------------------------------




----------------------------------------- Iteration    1(  17)  ---------------------------------------


    POTLOK:  cpu time    0.25: real time    0.25
    SETDIJ:  cpu time    0.02: real time    0.02
    EDDIAG:  cpu time    0.69: real time    0.69
  RMM-DIIS:  cpu time    2.86: real time    2.86
    ORTHCH:  cpu time    0.04: real time    0.04
       DOS:  cpu time    0.00: real time    0.00
    CHARGE:  cpu time    0.39: real time    0.39
    MIXING:  cpu time    0.01: real time    0.01
    --------------------------------------------
      LOOP:  cpu time    4.27: real time    4.27

 eigenvalue-minimisations  :   430
 total energy-change (2. order) : 0.8797800E-03  (-0.1781722E-03)
 number of electron   98.0000001 magnetization 
 augmentation part    -1.1999880 magnetization 

 Broyden mixing:
  rms(total) = 0.43081E-02    rms(broyden)= 0.43081E-02
  rms(prec ) = 0.70454E-02
  weight for this iteration     100.00

 eigenvalues of (default mixing * dielectric matrix)
  average eigenvalue GAMMA=   1.5308
  2.6362  2.0036  0.8560  0.8560  1.3021

 Free energy of the ion-electron system (eV)
  ---------------------------------------------------
  alpha Z        PSCENC =        -8.27954604
  Ewald energy   TEWEN  =     -2349.57704412
  -1/2 Hartree   DENC   =       -46.06379864
  -exchange  EXHF       =         0.00000000
  -V(xc)+E(xc)   XCENC  =      -840.95667051
  PAW double counting   =      1167.54761058     -135.06709478
  entropy T*S    EENTRO =        -0.02581159
  eigenvalues    EBANDS =       362.96567907
  atomic energy  EATOM  =      1736.20668909
  ---------------------------------------------------
  free energy    TOTEN  =      -113.24998694 eV

  energy without entropy =     -113.22417535  energy(sigma->0) =     -113.24138308


--------------------------------------------------------------------------------------------------------




----------------------------------------- Iteration    1(  18)  ---------------------------------------


    POTLOK:  cpu time    0.25: real time    0.25
    SETDIJ:  cpu time    0.02: real time    0.02
    EDDIAG:  cpu time    0.69: real time    0.69
  RMM-DIIS:  cpu time    2.10: real time    2.10
    ORTHCH:  cpu time    0.04: real time    0.04
       DOS:  cpu time    0.00: real time    0.00
    --------------------------------------------
      LOOP:  cpu time    3.11: real time    3.11

 eigenvalue-minimisations  :   299
 total energy-change (2. order) : 0.5242140E-04  (-0.2177699E-04)
 number of electron   98.0000001 magnetization 
 augmentation part    -1.1999880 magnetization 

 Free energy of the ion-electron system (eV)
  ---------------------------------------------------
  alpha Z        PSCENC =        -8.27954604
  Ewald energy   TEWEN  =     -2349.57704412
  -1/2 Hartree   DENC   =       -46.06156664
  -exchange  EXHF       =         0.00000000
  -V(xc)+E(xc)   XCENC  =      -840.93615176
  PAW double counting   =      1167.56431927     -135.09002351
  entropy T*S    EENTRO =        -0.02592321
  eigenvalues    EBANDS =       362.94931239
  atomic energy  EATOM  =      1736.20668909
  ---------------------------------------------------
  free energy    TOTEN  =      -113.24993452 eV

  energy without entropy =     -113.22401131  energy(sigma->0) =     -113.24129345


--------------------------------------------------------------------------------------------------------




 average (electrostatic) potential at core
  the test charge radii are     1.0406  1.0714
  (the norm of the test charge is              1.0000)
       1 -72.2380       2 -72.2400       3 -72.3619       4 -72.2400       5 -72.2970
       6 -72.4320       7 -72.2410       8 -72.4563       9 -72.2970      10 -72.4563
      11 -72.2410      12 -72.4320      13 -72.3781      14 -71.9306      15 -72.4127
      16 -71.9306      17 -72.2759      18 -72.3634      19 -72.3620      20 -72.3634
      21 -72.3723      22 -72.2511      23 -72.4502      24 -72.3638      25 -72.3723
      26 -72.3638      27 -72.4502      28 -72.2511      29 -72.2602      30 -72.4621
      31 -71.9847      32 -72.4621      33 -49.6052
 
 
 
 E-fermi :   8.2408     XC(G=0): -10.2335     alpha+bet :-15.2356
   add alpha+bet to get absolut eigen values

 k-point   1 :       0.2500    0.2500    0.2500
  band No.  band energies     occupation 
      1      -2.9049      2.00000
      2      -1.7786      2.00000
      3      -1.7786      2.00000
      4      -1.5967      2.00000
      5      -0.6192      2.00000
      6      -0.5148      2.00000
      7      -0.2475      2.00000
      8       0.3892      2.00000
      9       0.4236      2.00000
     10       0.6219      2.00000
     11       0.9814      2.00000
     12       1.4732      2.00000
     13       1.5860      2.00000
     14       1.7532      2.00000
     15       1.8067      2.00000
     16       1.8254      2.00000
     17       2.0132      2.00000
     18       2.9536      2.00000
     19       3.0378      2.00000
     20       3.1358      2.00000
     21       3.7348      2.00000
     22       3.7454      2.00000
     23       3.8059      2.00000
     24       3.8713      2.00000
     25       3.9005      2.00000
     26       4.0619      2.00000
     27       4.6649      2.00000
     28       4.7662      2.00000
     29       4.8295      2.00000
     30       4.9853      2.00000
     31       5.0057      2.00000
     32       5.0703      2.00000
     33       5.1557      2.00000
     34       5.2619      2.00000
     35       5.3121      2.00000
     36       6.1114      2.00000
     37       6.2037      2.00000
     38       6.6533      2.00000
     39       6.8551      2.00000
     40       6.9166      2.00000
     41       6.9546      2.00000
     42       7.0989      2.00000
     43       7.1128      2.00000
     44       7.2155      2.00000
     45       7.2495      2.00000
     46       8.0211      2.06512
     47       8.0383      2.05278
     48       8.1707      1.55462
     49       8.1928      1.39348
     50       8.2922      0.58042
     51       8.3236      0.36142
     52       8.4550     -0.06205
     53       8.4789     -0.07054
     54       8.6928     -0.00632
     55       9.1757      0.00000
     56       9.1966      0.00000
     57       9.3186      0.00000
     58       9.4465      0.00000
     59       9.5741      0.00000
     60       9.6071      0.00000
     61       9.9785      0.00000
     62      10.0603      0.00000
     63      10.0874      0.00000
     64      10.3069      0.00000
     65      10.4102      0.00000
     66      10.5471      0.00000
     67      10.7407      0.00000
     68      10.7662      0.00000
     69      10.9484      0.00000
     70      11.2644      0.00000
     71      11.3817      0.00000
     72      11.4721      0.00000

 k-point   2 :      -0.2500    0.2500    0.2500
  band No.  band energies     occupation 
      1      -2.9047      2.00000
      2      -1.7938      2.00000
      3      -1.7742      2.00000
      4      -1.5819      2.00000
      5      -0.6193      2.00000
      6      -0.5258      2.00000
      7      -0.2435      2.00000
      8       0.3804      2.00000
      9       0.4270      2.00000
     10       0.6292      2.00000
     11       0.9904      2.00000
     12       1.4801      2.00000
     13       1.5751      2.00000
     14       1.7360      2.00000
     15       1.8060      2.00000
     16       1.8440      2.00000
     17       2.0062      2.00000
     18       2.9555      2.00000
     19       3.0300      2.00000
     20       3.1510      2.00000
     21       3.7263      2.00000
     22       3.7463      2.00000
     23       3.7979      2.00000
     24       3.8733      2.00000
     25       3.8989      2.00000
     26       4.0629      2.00000
     27       4.6726      2.00000
     28       4.7608      2.00000
     29       4.8108      2.00000
     30       4.9783      2.00000
     31       5.0087      2.00000
     32       5.0755      2.00000
     33       5.1790      2.00000
     34       5.2591      2.00000
     35       5.3370      2.00000
     36       6.1013      2.00000
     37       6.1977      2.00000
     38       6.6574      2.00000
     39       6.8451      2.00000
     40       6.8951      2.00000
     41       6.9510      2.00000
     42       7.1022      2.00000
     43       7.1194      2.00000
     44       7.2210      2.00000
     45       7.2618      2.00000
     46       8.0060      2.07007
     47       8.0279      2.06118
     48       8.1761      1.51707
     49       8.1854      1.44993
     50       8.2922      0.58065
     51       8.3129      0.43200
     52       8.4640     -0.06669
     53       8.4801     -0.07066
     54       8.7083     -0.00464
     55       9.1717      0.00000
     56       9.2051      0.00000
     57       9.3174      0.00000
     58       9.4573      0.00000
     59       9.5696      0.00000
     60       9.6237      0.00000
     61       9.9757      0.00000
     62      10.0688      0.00000
     63      10.0899      0.00000
     64      10.2963      0.00000
     65      10.4089      0.00000
     66      10.5649      0.00000
     67      10.7225      0.00000
     68      10.7631      0.00000
     69      10.9346      0.00000
     70      11.2503      0.00000
     71      11.3019      0.00000
     72      11.5062      0.00000

 k-point   3 :      -0.2500   -0.2500    0.2500
  band No.  band energies     occupation 
      1      -2.9078      2.00000
      2      -1.7867      2.00000
      3      -1.7749      2.00000
      4      -1.5494      2.00000
      5      -0.6505      2.00000
      6      -0.6447      2.00000
      7      -0.1962      2.00000
      8       0.4634      2.00000
      9       0.4830      2.00000
     10       0.6073      2.00000
     11       1.0579      2.00000
     12       1.4675      2.00000
     13       1.5138      2.00000
     14       1.5268      2.00000
     15       1.9409      2.00000
     16       1.9504      2.00000
     17       1.9597      2.00000
     18       2.9813      2.00000
     19       3.0875      2.00000
     20       3.1044      2.00000
     21       3.6301      2.00000
     22       3.7341      2.00000
     23       3.7450      2.00000
     24       3.7874      2.00000
     25       3.7990      2.00000
     26       4.2057      2.00000
     27       4.6396      2.00000
     28       4.7840      2.00000
     29       4.7928      2.00000
     30       4.9311      2.00000
     31       5.0338      2.00000
     32       5.0403      2.00000
     33       5.3288      2.00000
     34       5.4175      2.00000
     35       5.4343      2.00000
     36       6.1690      2.00000
     37       6.1829      2.00000
     38       6.6252      2.00000
     39       6.7169      2.00000
     40       6.8475      2.00000
     41       6.8638      2.00000
     42       7.1919      2.00000
     43       7.2146      2.00000
     44       7.2154      2.00000
     45       7.2868      2.00000
     46       7.9404      2.05510
     47       7.9599      2.06322
     48       8.0169      2.06702
     49       8.1270      1.81135
     50       8.3492      0.21560
     51       8.3549      0.18748
     52       8.4762     -0.07016
     53       8.5035     -0.06877
     54       8.5082     -0.06760
     55       9.2357      0.00000
     56       9.2518      0.00000
     57       9.3423      0.00000
     58       9.5498      0.00000
     59       9.6572      0.00000
     60       9.6795      0.00000
     61      10.0032      0.00000
     62      10.0507      0.00000
     63      10.0669      0.00000
     64      10.3208      0.00000
     65      10.3215      0.00000
     66      10.5590      0.00000
     67      10.5710      0.00000
     68      10.6271      0.00000
     69      10.9739      0.00000
     70      11.2035      0.00000
     71      11.3225      0.00000
     72      11.4987      0.00000


--------------------------------------------------------------------------------------------------------


 soft charge-density along one line, spin component           1
         0         1         2         3         4         5         6         7         8         9
 total charge-density along one line
 
 pseudopotential strength for first ion, spin component:           1
  8.438  -0.007   0.000   0.000   0.000   0.000   0.000   0.000
 -0.007   0.000   0.000   0.000   0.000   0.000   0.000   0.000
  0.000   0.000   1.992   0.000   0.000  -0.028   0.000   0.000
  0.000   0.000   0.000   1.992   0.000   0.000  -0.028   0.000
  0.000   0.000   0.000   0.000   1.992   0.000   0.000  -0.028
  0.000   0.000  -0.028   0.000   0.000  -0.012   0.000   0.000
  0.000   0.000   0.000  -0.028   0.000   0.000  -0.012   0.000
  0.000   0.000   0.000   0.000  -0.028   0.000   0.000  -0.012
 total augmentation occupancy for first ion, spin component:           1
  1.372  -0.531   0.009  -0.010   0.009   0.000   0.005   0.000
 -0.531   0.555   0.002   0.010   0.002   0.001  -0.005   0.001
  0.009   0.002   0.762  -0.011   0.011  -0.193   0.007  -0.007
 -0.010   0.010  -0.011   0.761  -0.011   0.007  -0.192   0.007
  0.009   0.002   0.011  -0.011   0.762  -0.007   0.007  -0.193
  0.000   0.001  -0.193   0.007  -0.007   0.055  -0.003   0.003
  0.005  -0.005   0.007  -0.192   0.007  -0.003   0.054  -0.003
  0.000   0.001  -0.007   0.007  -0.193   0.003  -0.003   0.055


------------------------ aborting loop because EDIFF is reached ----------------------------------------




--------------------------------------------------------------------------------------------------------



  FREE ENERGIE OF THE ION-ELECTRON SYSTEM (eV)
  ---------------------------------------------------
  free  energy   TOTEN  =      -113.249935 eV

  energy  without entropy=     -113.224011  energy(sigma->0) =     -113.241293
 
    CHARGE:  cpu time    0.39: real time    0.39
    FORLOC:  cpu time    0.07: real time    0.07
    FORNL :  cpu time    1.16: real time    1.16
    STRESS:  cpu time    2.14: real time    2.15
    FORCOR:  cpu time    0.30: real time    0.30
    FORHAR:  cpu time    0.13: real time    0.13
    MIXING:  cpu time    0.01: real time    0.01

  FORCE on cell =-STRESS in cart. coord.  units (eV):
  Direction    XX          YY          ZZ          XY          YZ          ZX
  --------------------------------------------------------------------------------------
  Alpha Z    -8.27955    -8.27955    -8.27955
  Ewald    -782.68068  -782.68068  -784.22496    -5.50652     5.93731     5.93731
  Hartree    15.38415    15.38415    15.36423    -1.46154     1.38331     1.38331
  E(xc)    -285.17126  -285.17126  -285.12768     0.08865    -0.10621    -0.10621
  Local     -24.67820   -24.67820   -22.99100     6.54634    -7.07641    -7.07641
  n-local   640.64302   640.01904   639.84079    -0.94022     0.55951     1.76152
  augment   -32.07565   -32.07564   -32.04349     0.05972    -0.06773    -0.06772
  Kinetic   509.69314   505.04064   507.20628    -0.86226    -0.41681     1.55362
  Fock        0.00000     0.00000     0.00000     0.00000     0.00000     0.00000
  -------------------------------------------------------------------------------------
  Total      30.19672    30.19672    29.74463    -2.07582     1.79921     1.79921
  in kB      91.47443    91.47443    90.10490    -6.28824     5.45032     5.45033
  external pressure =       91.02 kB  Pullay stress =        0.00 kB


 VOLUME and BASIS-vectors are now :
 -----------------------------------------------------------------------------
  energy-cutoff  :      300.00
  volume of cell :      528.90
      direct lattice vectors                 reciprocal lattice vectors
     8.087052000  0.000000000  0.000000000     0.123654454  0.000000000  0.000000000
     0.000000000  8.087052000  0.000000000     0.000000000  0.123654454  0.000000000
     0.000000000  0.000000000  8.087052000     0.000000000  0.000000000  0.123654454

  length of vectors
     8.087052000  8.087052000  8.087052000     0.123654454  0.123654454  0.123654454


 FORCES acting on ions
    electron-ion (+dipol)            ewald-force                    non-local-force                 convergence-correction
 -----------------------------------------------------------------------------------------------
   0.555E+01 0.555E+01 -.732E+01   -.557E+01 -.557E+01 0.717E+01   -.155E+00 -.155E+00 0.416E+00   -.745E-02 -.745E-02 0.101E-01
   -.211E+01 0.599E+01 0.300E+01   0.230E+01 -.543E+01 -.249E+01   -.244E+00 -.708E+00 -.664E+00   0.433E-02 -.628E-02 0.161E-02
   0.122E+01 0.122E+01 -.128E+02   -.755E+00 -.755E+00 0.110E+02   -.765E+00 -.765E+00 0.295E+01   0.406E-02 0.406E-02 0.124E-01
   0.599E+01 -.211E+01 0.300E+01   -.543E+01 0.230E+01 -.249E+01   -.708E+00 -.244E+00 -.664E+00   -.628E-02 0.433E-02 0.161E-02
   -.752E+01 0.126E+02 -.123E+02   0.733E+01 -.117E+02 0.115E+02   0.496E+00 -.150E+01 0.132E+01   0.824E-02 -.841E-02 0.112E-01
   0.712E+01 0.228E+02 -.657E+01   -.633E+01 -.215E+02 0.579E+01   -.119E+01 -.216E+01 0.115E+01   -.510E-02 -.511E-02 0.399E-02
   -.236E+01 -.299E+01 -.692E+01   0.181E+01 0.300E+01 0.618E+01   0.703E+00 0.107E+00 0.107E+01   -.334E-02 0.414E-02 0.907E-02
   -.694E+01 -.353E+01 -.583E+01   0.620E+01 0.305E+01 0.523E+01   0.109E+01 0.839E+00 0.820E+00   0.745E-02 0.205E-02 0.267E-02
   0.126E+02 -.752E+01 -.123E+02   -.117E+02 0.733E+01 0.115E+02   -.150E+01 0.496E+00 0.132E+01   -.841E-02 0.824E-02 0.112E-01
   -.353E+01 -.694E+01 -.583E+01   0.305E+01 0.620E+01 0.523E+01   0.839E+00 0.109E+01 0.820E+00   0.205E-02 0.745E-02 0.267E-02
   -.299E+01 -.236E+01 -.692E+01   0.300E+01 0.181E+01 0.618E+01   0.107E+00 0.703E+00 0.107E+01   0.414E-02 -.334E-02 0.907E-02
   0.228E+02 0.712E+01 -.657E+01   -.215E+02 -.633E+01 0.579E+01   -.216E+01 -.119E+01 0.115E+01   -.511E-02 -.510E-02 0.399E-02
   -.136E+02 -.136E+02 -.108E+02   0.125E+02 0.125E+02 0.991E+01   0.173E+01 0.173E+01 0.151E+01   0.834E-02 0.834E-02 0.100E-01
   0.308E+01 -.210E+02 -.248E+01   -.313E+01 0.206E+02 0.252E+01   0.148E+00 0.417E+00 -.225E+00   -.333E-02 0.805E-02 0.224E-02
   0.771E+01 0.771E+01 -.228E+02   -.689E+01 -.689E+01 0.215E+02   -.127E+01 -.127E+01 0.221E+01   -.505E-02 -.505E-02 0.765E-02
   -.210E+02 0.308E+01 -.248E+01   0.206E+02 -.313E+01 0.252E+01   0.417E+00 0.148E+00 -.225E+00   0.805E-02 -.333E-02 0.224E-02
   0.118E+02 0.118E+02 0.900E+01   -.111E+02 -.111E+02 -.863E+01   -.130E+01 -.130E+01 -.797E+00   -.852E-02 -.852E-02 -.109E-01
   -.976E-01 0.122E+02 -.169E+01   0.363E+00 -.106E+02 0.123E+01   -.447E+00 -.282E+01 0.771E+00   0.411E-02 -.961E-02 -.275E-02
   -.635E+01 -.635E+01 0.108E+02   0.569E+01 0.569E+01 -.970E+01   0.125E+01 0.125E+01 -.197E+01   0.395E-02 0.395E-02 -.127E-01
   0.122E+02 -.976E-01 -.169E+01   -.106E+02 0.363E+00 0.123E+01   -.282E+01 -.447E+00 0.771E+00   -.961E-02 0.411E-02 -.275E-02
   -.131E+02 0.110E+02 0.133E+02   0.121E+02 -.101E+02 -.123E+02   0.158E+01 -.157E+01 -.167E+01   0.838E-02 -.733E-02 -.108E-01
   -.106E+01 0.672E+01 0.200E+01   0.639E+00 -.604E+01 -.207E+01   0.497E+00 -.105E+01 0.211E-01   -.355E-02 -.652E-02 -.296E-02
   0.647E+01 -.407E+01 0.731E+01   -.587E+01 0.361E+01 -.649E+01   -.843E+00 0.892E+00 -.120E+01   -.398E-02 0.213E-02 -.989E-02
   -.105E+02 -.608E+01 0.581E+01   0.942E+01 0.543E+01 -.511E+01   0.188E+01 0.123E+01 -.129E+01   0.102E-01 0.375E-02 -.241E-02
   0.110E+02 -.131E+02 0.133E+02   -.101E+02 0.121E+02 -.123E+02   -.157E+01 0.158E+01 -.167E+01   -.733E-02 0.838E-02 -.108E-01
   -.608E+01 -.105E+02 0.581E+01   0.543E+01 0.942E+01 -.511E+01   0.123E+01 0.188E+01 -.129E+01   0.375E-02 0.102E-01 -.241E-02
   -.407E+01 0.647E+01 0.731E+01   0.361E+01 -.587E+01 -.649E+01   0.892E+00 -.843E+00 -.120E+01   0.213E-02 -.398E-02 -.989E-02
   0.672E+01 -.106E+01 0.200E+01   -.604E+01 0.639E+00 -.207E+01   -.105E+01 0.497E+00 0.211E-01   -.652E-02 -.355E-02 -.296E-02
   -.753E+01 -.753E+01 0.766E+01   0.752E+01 0.752E+01 -.760E+01   -.622E+00 -.622E+00 0.646E+00   0.717E-02 0.717E-02 -.967E-02
   0.609E+01 -.713E+01 0.304E+01   -.553E+01 0.637E+01 -.261E+01   -.777E+00 0.112E+01 -.769E+00   -.382E-02 0.758E-02 -.746E-03
   0.360E+01 0.360E+01 0.206E+02   -.362E+01 -.362E+01 -.203E+02   0.158E+00 0.158E+00 -.678E-01   -.338E-02 -.338E-02 -.937E-02
   -.713E+01 0.609E+01 0.304E+01   0.637E+01 -.553E+01 -.261E+01   0.112E+01 -.777E+00 -.769E+00   0.758E-02 -.382E-02 -.746E-03
   -.696E+01 -.696E+01 0.708E+01   0.624E+01 0.624E+01 -.629E+01   0.220E+01 0.220E+01 -.240E+01   0.123E-03 0.123E-03 -.132E-02
 -----------------------------------------------------------------------------------------------
   0.106E+01 0.106E+01 -.118E+01   0.160E-13 -.213E-13 -.719E-13   -.107E+01 -.107E+01 0.118E+01   0.332E-02 0.332E-02 -.140E-02
 
 
 POSITION                                       TOTAL-FORCE (eV/Angst)
 -----------------------------------------------------------------------------------
      0.07889      0.07889      7.99640        -0.177236     -0.177236      0.277339
      1.98267      0.22461      2.15434        -0.047973     -0.162668     -0.147306
      2.03520      2.03520      7.94604        -0.294792     -0.294792      1.234007
      0.22461      1.98267      2.15434        -0.162668     -0.047973     -0.147306
      3.94458      0.04369      8.04320         0.309262     -0.602401      0.561974
      6.22807      0.36059      1.86747        -0.406067     -0.871177      0.371984
      5.94542      1.96788      7.84466         0.154639      0.122289      0.350666
      3.90581      1.91359      1.96773         0.352781      0.363045      0.222701
      0.04369      3.94458      8.04320        -0.602401      0.309262      0.561974
      1.91359      3.90581      1.96773         0.363045      0.352781      0.222701
      1.96788      5.94542      7.84466         0.122289      0.154639      0.350666
      0.36059      6.22807      1.86747        -0.871177     -0.406067      0.371984
      3.94042      3.94042      8.03542         0.619359      0.619359      0.588393
      6.18730      3.21248      1.90888         0.094399     -0.040166     -0.181988
      6.23255      6.23255      7.71843        -0.455361     -0.455361      0.884746
      3.21248      6.18730      1.90888        -0.040166      0.094399     -0.181988
      0.05219      0.05219      4.17104        -0.563878     -0.563878     -0.430617
      2.02752      0.13864      6.05510        -0.177662     -1.199684      0.309054
      1.96623      1.96623      4.21985         0.595551      0.595551     -0.880358
      0.13864      2.02752      6.05510        -1.199684     -0.177662      0.309054
      3.94782      0.06054      4.14785         0.575186     -0.636861     -0.595312
      5.97319      0.20980      6.09948         0.070586     -0.370112     -0.044017
      6.12522      1.90558      4.19147        -0.247067      0.438724     -0.386351
      3.88223      1.95586      6.12958         0.843638      0.586901     -0.592770
      0.06054      3.94782      4.14785        -0.636861      0.575186     -0.595312
      1.95586      3.88223      6.12958         0.586901      0.843638     -0.592770
      1.90558      6.12522      4.19147         0.438724     -0.247067     -0.386351
      0.20980      5.97319      6.09948        -0.370112      0.070586     -0.044017
      3.94536      3.94536      4.15639        -0.631824     -0.631824      0.691223
      6.12071      3.92387      6.16707        -0.227649      0.368908     -0.342448
      6.18839      6.18839      4.76401         0.141487      0.141487      0.197287
      3.92387      6.12071      6.16707         0.368908     -0.227649     -0.342448
      5.33745      5.33745      2.66873         1.475825      1.475825     -1.614399
 -----------------------------------------------------------------------------------
    total drift:                                0.000006      0.000006     -0.000271


--------------------------------------------------------------------------------------------------------


    POTLOK:  cpu time    0.27: real time    0.27


--------------------------------------------------------------------------------------------------------


  FORCES: max atom, RMS     2.638636    0.943886
  FORCE total and by dimension    5.422211    1.614399


--------------------------------------------------------------------------------------------------------


    WAVPRE:  cpu time    0.09: real time    0.09
    FEWALD:  cpu time    0.01: real time    0.01
    ORTHCH:  cpu time    0.25: real time    0.25
     LOOP+:  cpu time   62.19: real time   63.44
   RESPFUN:  cpu time    0.00: real time    0.00


----------------------------------------- Iteration    2(   1)  ---------------------------------------


    POTLOK:  cpu time    0.25: real time    0.25
    SETDIJ:  cpu time    0.02: real time    0.02
    EDDIAG:  cpu time    0.69: real time    0.69
  RMM-DIIS:  cpu time    2.84: real time    2.84
    ORTHCH:  cpu time    0.04: real time    0.04
       DOS:  cpu time    0.00: real time    0.00
    CHARGE:  cpu time    0.39: real time    0.39
    MIXING:  cpu time    0.01: real time    0.01
    --------------------------------------------
      LOOP:  cpu time    4.25: real time    4.25

 eigenvalue-minimisations  :   432
 total energy-change (2. order) :-0.1234819E+01  (-0.8515757E+00)
 number of electron   98.0000001 magnetization 
 augmentation part    -1.1978385 magnetization 

 Broyden mixing:
  rms(total) = 0.92686E-01    rms(broyden)= 0.92676E-01
  rms(prec ) = 0.29396E+00
  weight for this iteration     100.00

 Free energy of the ion-electron system (eV)
  ---------------------------------------------------
  alpha Z        PSCENC =        -8.27954604
  Ewald energy   TEWEN  =     -2362.77698554
  -1/2 Hartree   DENC   =       -36.49465413
  -exchange  EXHF       =         0.00000000
  -V(xc)+E(xc)   XCENC  =      -841.07768206
  PAW double counting   =      1167.55606198     -135.08353695
  entropy T*S    EENTRO =        -0.00712721
  eigenvalues    EBANDS =       365.47197477
  atomic energy  EATOM  =      1736.20668909
  ---------------------------------------------------
  free energy    TOTEN  =      -114.48480609 eV

  energy without entropy =     -114.47767888  energy(sigma->0) =     -114.48243035


--------------------------------------------------------------------------------------------------------




----------------------------------------- Iteration    2(   2)  ---------------------------------------


    POTLOK:  cpu time    0.25: real time    0.25
    SETDIJ:  cpu time    0.02: real time    0.02
    EDDIAG:  cpu time    0.69: real time    0.69
  RMM-DIIS:  cpu time    2.83: real time    2.83
    ORTHCH:  cpu time    0.04: real time    0.04
       DOS:  cpu time    0.00: real time    0.00
    CHARGE:  cpu time    0.39: real time    0.39
    MIXING:  cpu time    0.01: real time    0.01
    --------------------------------------------
      LOOP:  cpu time    4.23: real time    4.24

 eigenvalue-minimisations  :   432
 total energy-change (2. order) : 0.9242259E-01  (-0.2617257E-01)
 number of electron   98.0000001 magnetization 
 augmentation part    -1.1981619 magnetization 

 Broyden mixing:
  rms(total) = 0.34084E-01    rms(broyden)= 0.34083E-01
  rms(prec ) = 0.78927E-01
  weight for this iteration     100.00

 eigenvalues of (default mixing * dielectric matrix)
  average eigenvalue GAMMA=   1.1206
  1.1206

 Free energy of the ion-electron system (eV)
  ---------------------------------------------------
  alpha Z        PSCENC =        -8.27954604
  Ewald energy   TEWEN  =     -2362.77698554
  -1/2 Hartree   DENC   =       -35.73034371
  -exchange  EXHF       =         0.00000000
  -V(xc)+E(xc)   XCENC  =      -841.11298479
[...]
     40       6.9840      2.00000
     41       7.0180      2.00000
     42       7.2068      2.00000
     43       7.2720      2.00000
     44       7.2914      2.00000
     45       7.4482      2.00000
     46       7.9599      2.04465
     47       7.9643      2.04667
     48       8.0604      2.06649
     49       8.2547      1.23786
     50       8.3521      0.45314
     51       8.3621      0.38580
     52       8.4850     -0.05211
     53       8.5217     -0.07059
     54       8.6313     -0.03359
     55       9.2085      0.00000
     56       9.2279      0.00000
     57       9.4478      0.00000
     58       9.6235      0.00000
     59       9.6703      0.00000
     60       9.7453      0.00000
     61      10.1284      0.00000
     62      10.1341      0.00000
     63      10.2117      0.00000
     64      10.3590      0.00000
     65      10.3806      0.00000
     66      10.4707      0.00000
     67      10.4792      0.00000
     68      10.5919      0.00000
     69      10.9736      0.00000
     70      11.1341      0.00000
     71      11.1456      0.00000
     72      11.5178      0.00000

 k-point   2 :      -0.2500    0.2500    0.2500
  band No.  band energies     occupation 
      1      -2.6695      2.00000
      2      -1.6700      2.00000
      3      -1.6674      2.00000
      4      -1.3170      2.00000
      5      -0.5675      2.00000
      6      -0.5647      2.00000
      7      -0.1071      2.00000
      8       0.6035      2.00000
      9       0.6127      2.00000
     10       0.7033      2.00000
     11       0.9511      2.00000
     12       1.5969      2.00000
     13       1.6098      2.00000
     14       1.6691      2.00000
     15       1.9534      2.00000
     16       1.9692      2.00000
     17       2.1670      2.00000
     18       2.8281      2.00000
     19       2.9530      2.00000
     20       2.9610      2.00000
     21       3.8507      2.00000
     22       3.8549      2.00000
     23       3.9103      2.00000
     24       4.0285      2.00000
     25       4.0395      2.00000
     26       4.2586      2.00000
     27       4.7513      2.00000
     28       4.7680      2.00000
     29       4.8174      2.00000
     30       5.0338      2.00000
     31       5.1004      2.00000
     32       5.1164      2.00000
     33       5.1960      2.00000
     34       5.2303      2.00000
     35       5.3376      2.00000
     36       5.9820      2.00000
     37       5.9876      2.00000
     38       6.4428      2.00000
     39       6.9547      2.00000
     40       6.9865      2.00000
     41       7.0130      2.00000
     42       7.2039      2.00000
     43       7.2754      2.00000
     44       7.2872      2.00000
     45       7.4532      2.00000
     46       7.9575      2.04355
     47       7.9673      2.04805
     48       8.0600      2.06670
     49       8.2543      1.24080
     50       8.3467      0.49105
     51       8.3713      0.32805
     52       8.4867     -0.05381
     53       8.5198     -0.07036
     54       8.6421     -0.02927
     55       9.2098      0.00000
     56       9.2209      0.00000
     57       9.4410      0.00000
     58       9.6258      0.00000
     59       9.6717      0.00000
     60       9.7510      0.00000
     61      10.1312      0.00000
     62      10.1332      0.00000
     63      10.2101      0.00000
     64      10.3620      0.00000
     65      10.3805      0.00000
     66      10.4633      0.00000
     67      10.4840      0.00000
     68      10.5968      0.00000
     69      10.9757      0.00000
     70      11.1248      0.00000
     71      11.1469      0.00000
     72      11.5076      0.00000

 k-point   3 :      -0.2500   -0.2500    0.2500
  band No.  band energies     occupation 
      1      -2.6700      2.00000
      2      -1.6701      2.00000
      3      -1.6610      2.00000
      4      -1.3235      2.00000
      5      -0.5698      2.00000
      6      -0.5607      2.00000
      7      -0.1164      2.00000
      8       0.6120      2.00000
      9       0.6207      2.00000
     10       0.6859      2.00000
     11       0.9667      2.00000
     12       1.6119      2.00000
     13       1.6183      2.00000
     14       1.6588      2.00000
     15       1.9572      2.00000
     16       1.9704      2.00000
     17       2.1413      2.00000
     18       2.8274      2.00000
     19       2.9519      2.00000
     20       2.9521      2.00000
     21       3.8474      2.00000
     22       3.8540      2.00000
     23       3.9016      2.00000
     24       4.0432      2.00000
     25       4.0473      2.00000
     26       4.2541      2.00000
     27       4.7690      2.00000
     28       4.7742      2.00000
     29       4.8159      2.00000
     30       5.0348      2.00000
     31       5.1049      2.00000
     32       5.1076      2.00000
     33       5.2196      2.00000
     34       5.2321      2.00000
     35       5.2952      2.00000
     36       5.9803      2.00000
     37       5.9906      2.00000
     38       6.4274      2.00000
     39       6.9751      2.00000
     40       6.9981      2.00000
     41       7.0078      2.00000
     42       7.2099      2.00000
     43       7.2912      2.00000
     44       7.2992      2.00000
     45       7.4436      2.00000
     46       7.9582      2.04385
     47       7.9613      2.04529
     48       8.0464      2.07036
     49       8.2840      0.99287
     50       8.3514      0.45748
     51       8.3611      0.39207
     52       8.5190     -0.07024
     53       8.5253     -0.07086
     54       8.5462     -0.06867
     55       9.2193      0.00000
     56       9.2262      0.00000
     57       9.4669      0.00000
     58       9.6349      0.00000
     59       9.6402      0.00000
     60       9.7269      0.00000
     61      10.1337      0.00000
     62      10.1364      0.00000
     63      10.2284      0.00000
     64      10.3343      0.00000
     65      10.3439      0.00000
     66      10.4722      0.00000
     67      10.4818      0.00000
     68      10.5808      0.00000
     69      10.9740      0.00000
     70      11.1459      0.00000
     71      11.1552      0.00000
     72      11.4704      0.00000


--------------------------------------------------------------------------------------------------------


 soft charge-density along one line, spin component           1
         0         1         2         3         4         5         6         7         8         9
 total charge-density along one line
 
 pseudopotential strength for first ion, spin component:           1
  8.436  -0.006   0.000   0.000   0.000   0.000   0.000   0.000
 -0.006   0.000   0.000   0.000   0.000   0.000   0.000   0.000
  0.000   0.000   1.989   0.000   0.000  -0.028   0.000   0.000
  0.000   0.000   0.000   1.989   0.000   0.000  -0.028   0.000
  0.000   0.000   0.000   0.000   1.989   0.000   0.000  -0.028
  0.000   0.000  -0.028   0.000   0.000  -0.012   0.000   0.000
  0.000   0.000   0.000  -0.028   0.000   0.000  -0.012   0.000
  0.000   0.000   0.000   0.000  -0.028   0.000   0.000  -0.012
 total augmentation occupancy for first ion, spin component:           1
  1.343  -0.494  -0.006   0.008  -0.006   0.000  -0.002   0.000
 -0.494   0.498  -0.013   0.010  -0.013   0.004  -0.003   0.004
 -0.006  -0.013   0.739   0.023  -0.024  -0.181  -0.004   0.005
  0.008   0.010   0.023   0.738   0.023  -0.004  -0.181  -0.004
 -0.006  -0.013  -0.024   0.023   0.739   0.005  -0.004  -0.181
  0.000   0.004  -0.181  -0.004   0.005   0.050   0.001  -0.001
 -0.002  -0.003  -0.004  -0.181  -0.004   0.001   0.050   0.001
  0.000   0.004   0.005  -0.004  -0.181  -0.001   0.001   0.050


------------------------ aborting loop because EDIFF is reached ----------------------------------------




--------------------------------------------------------------------------------------------------------



  FREE ENERGIE OF THE ION-ELECTRON SYSTEM (eV)
  ---------------------------------------------------
  free  energy   TOTEN  =      -116.187201 eV

  energy  without entropy=     -116.185896  energy(sigma->0) =     -116.186766
 
    CHARGE:  cpu time    0.39: real time    0.39
    FORLOC:  cpu time    0.07: real time    0.07
    FORNL :  cpu time    1.15: real time    1.15
    STRESS:  cpu time    2.15: real time    2.15
    FORCOR:  cpu time    0.30: real time    0.30
    FORHAR:  cpu time    0.13: real time    0.13
    MIXING:  cpu time    0.01: real time    0.01

  FORCE on cell =-STRESS in cart. coord.  units (eV):
  Direction    XX          YY          ZZ          XY          YZ          ZX
  --------------------------------------------------------------------------------------
  Alpha Z    -8.27955    -8.27955    -8.27955
  Ewald    -796.09521  -796.09521  -796.15478     0.00379    -0.01528    -0.01528
  Hartree     5.06644     5.06644     5.05305    -0.29527     0.14437     0.14437
  E(xc)    -283.45311  -283.45311  -283.45246    -0.04000     0.02606     0.02606
  Local       2.74071     2.74071     2.79468     0.01505     0.09263     0.09263
  n-local   630.05499   629.94856   630.00268     0.43939    -0.79140     0.22013
  augment   -31.73271   -31.73271   -31.72041    -0.02655     0.01776     0.01777
  Kinetic   502.11231   502.48675   501.75787     0.10426    -4.28737     4.14300
  Fock        0.00000     0.00000     0.00000     0.00000     0.00000     0.00000
  -------------------------------------------------------------------------------------
  Total      20.54787    20.54787    20.00108     0.20066    -0.09227    -0.09227
  in kB      62.24531    62.24531    60.58893     0.60786    -0.27952    -0.27950
  external pressure =       61.69 kB  Pullay stress =        0.00 kB


 VOLUME and BASIS-vectors are now :
 -----------------------------------------------------------------------------
  energy-cutoff  :      300.00
  volume of cell :      528.90
      direct lattice vectors                 reciprocal lattice vectors
     8.087052000  0.000000000  0.000000000     0.123654454  0.000000000  0.000000000
     0.000000000  8.087052000  0.000000000     0.000000000  0.123654454  0.000000000
     0.000000000  0.000000000  8.087052000     0.000000000  0.000000000  0.123654454

  length of vectors
     8.087052000  8.087052000  8.087052000     0.123654454  0.123654454  0.123654454


 FORCES acting on ions
    electron-ion (+dipol)            ewald-force                    non-local-force                 convergence-correction
 -----------------------------------------------------------------------------------------------
   0.199E+01 0.199E+01 -.159E+01   -.204E+01 -.204E+01 0.170E+01   -.446E-01 -.446E-01 -.646E-01   -.785E-03 -.785E-03 0.156E-02
   -.487E+00 0.146E+01 -.120E+00   0.463E+00 -.895E+00 0.207E+00   0.105E+00 -.653E+00 -.120E+00   -.111E-02 -.162E-02 0.113E-03
   -.622E+00 -.622E+00 0.260E+01   0.689E+00 0.689E+00 -.262E+01   -.831E-01 -.831E-01 0.246E-01   -.748E-03 -.748E-03 0.148E-03
   0.146E+01 -.487E+00 -.120E+00   -.895E+00 0.463E+00 0.207E+00   -.653E+00 0.105E+00 -.120E+00   -.162E-02 -.111E-02 0.113E-03
   -.244E+01 0.260E+01 -.247E+01   0.245E+01 -.248E+01 0.237E+01   0.630E-01 -.189E+00 0.140E+00   0.136E-02 -.838E-03 0.792E-03
   0.915E+00 0.149E+02 -.808E+00   -.830E+00 -.143E+02 0.720E+00   -.114E+00 -.603E+00 0.139E+00   0.260E-03 -.461E-03 -.274E-03
   0.985E-01 -.125E+00 -.690E+00   -.212E+00 0.156E+00 0.250E+00   0.167E+00 -.176E-01 0.387E+00   -.530E-04 -.640E-03 0.213E-02
   -.571E+00 -.258E+00 -.354E-02   0.761E-01 0.172E+00 0.112E+00   0.494E+00 0.132E+00 -.157E+00   0.210E-02 -.127E-03 0.107E-03
   0.260E+01 -.244E+01 -.247E+01   -.248E+01 0.245E+01 0.237E+01   -.189E+00 0.630E-01 0.140E+00   -.838E-03 0.136E-02 0.792E-03
   -.258E+00 -.571E+00 -.354E-02   0.172E+00 0.761E-01 0.112E+00   0.132E+00 0.494E+00 -.157E+00   -.127E-03 0.210E-02 0.107E-03
   -.125E+00 0.985E-01 -.690E+00   0.156E+00 -.212E+00 0.250E+00   -.176E-01 0.167E+00 0.387E+00   -.640E-03 -.530E-04 0.213E-02
   0.149E+02 0.915E+00 -.808E+00   -.143E+02 -.830E+00 0.720E+00   -.603E+00 -.114E+00 0.139E+00   -.461E-03 0.260E-03 -.274E-03
   -.182E+01 -.182E+01 -.153E+01   0.196E+01 0.196E+01 0.155E+01   -.183E+00 -.183E+00 -.889E-01   0.146E-02 0.146E-02 0.160E-02
   -.127E+00 -.140E+02 -.373E+00   0.947E-01 0.134E+02 0.302E+00   0.840E-01 0.434E+00 0.136E+00   -.204E-03 0.728E-04 -.179E-03
   0.743E+00 0.743E+00 -.147E+02   -.668E+00 -.668E+00 0.141E+02   -.969E-01 -.969E-01 0.508E+00   0.227E-03 0.227E-03 0.527E-03
   -.140E+02 -.127E+00 -.373E+00   0.134E+02 0.947E-01 0.302E+00   0.434E+00 0.840E-01 0.136E+00   0.728E-04 -.204E-03 -.179E-03
   0.260E+01 0.260E+01 0.245E+01   -.249E+01 -.249E+01 -.246E+01   -.173E+00 -.173E+00 -.806E-01   -.899E-03 -.899E-03 -.125E-02
   -.641E+00 -.232E+01 0.334E+00   0.706E+00 0.234E+01 -.394E+00   -.842E-01 -.441E-01 0.987E-01   -.166E-03 -.784E-04 0.117E-03
   -.480E+00 -.480E+00 -.213E+01   0.567E+00 0.567E+00 0.242E+01   -.909E-01 -.909E-01 -.258E+00   -.754E-03 -.754E-03 -.125E-02
   -.232E+01 -.641E+00 0.334E+00   0.234E+01 0.706E+00 -.394E+00   -.441E-01 -.842E-01 0.987E-01   -.784E-04 -.166E-03 0.117E-03
   -.187E+01 0.188E+01 0.204E+01   0.200E+01 -.186E+01 -.215E+01   -.165E+00 0.245E-01 0.117E+00   0.157E-02 -.981E-03 -.630E-03
   0.197E+00 0.832E+00 -.192E+00   -.297E+00 -.380E+00 0.111E+00   0.140E+00 -.448E+00 0.130E+00   -.364E-03 -.201E-02 -.240E-03
   0.420E-01 -.460E+00 0.745E+00   -.156E+00 0.351E+00 -.190E+00   0.182E+00 0.183E+00 -.617E+00   -.151E-03 -.317E-03 -.148E-02
   0.197E+01 -.417E+00 0.260E+00   -.228E+01 0.498E+00 -.320E+00   0.269E+00 -.891E-01 0.813E-01   0.137E-02 -.107E-02 0.647E-04
   0.188E+01 -.187E+01 0.204E+01   -.186E+01 0.200E+01 -.215E+01   0.245E-01 -.165E+00 0.117E+00   -.981E-03 0.157E-02 -.630E-03
   -.417E+00 0.197E+01 0.260E+00   0.498E+00 -.228E+01 -.320E+00   -.891E-01 0.269E+00 0.813E-01   -.107E-02 0.137E-02 0.647E-04
   -.460E+00 0.420E-01 0.745E+00   0.351E+00 -.156E+00 -.190E+00   0.183E+00 0.182E+00 -.617E+00   -.317E-03 -.151E-03 -.148E-02
   0.832E+00 0.197E+00 -.192E+00   -.380E+00 -.297E+00 0.111E+00   -.448E+00 0.140E+00 0.130E+00   -.201E-02 -.364E-03 -.240E-03
   -.203E+01 -.203E+01 0.190E+01   0.204E+01 0.204E+01 -.191E+01   -.960E-01 -.960E-01 0.957E-01   0.182E-02 0.182E-02 -.173E-02
   0.792E-01 -.310E+00 0.138E+00   -.185E+00 -.140E+00 -.592E-01   0.167E+00 0.443E+00 -.951E-01   0.459E-03 0.185E-02 -.448E-03
   0.282E+00 0.282E+00 0.144E+02   -.257E+00 -.257E+00 -.139E+02   -.471E-01 -.471E-01 -.618E+00   0.261E-03 0.261E-03 -.476E-04
   -.310E+00 0.792E-01 0.138E+00   -.140E+00 -.185E+00 -.592E-01   0.443E+00 0.167E+00 -.951E-01   0.185E-02 0.459E-03 -.448E-03
   -.159E+01 -.159E+01 0.913E+00   0.147E+01 0.147E+01 -.859E+00   0.335E+00 0.335E+00 -.990E-01   -.148E-03 -.148E-03 0.124E-03
 -----------------------------------------------------------------------------------------------
   0.122E-02 0.122E-02 0.990E-01   -.600E-14 -.302E-13 0.193E-13   -.468E-03 -.468E-03 -.990E-01   -.715E-03 -.715E-03 -.177E-03
 
 
 POSITION                                       TOTAL-FORCE (eV/Angst)
 -----------------------------------------------------------------------------------
      0.03035      0.03035      8.06081        -0.093873     -0.093873      0.041896
      1.96091      0.14107      2.08679         0.079022     -0.090041     -0.033316
      2.03758      2.03758      0.00647        -0.016205     -0.016205      0.003230
      0.14107      1.96091      2.08679        -0.090041      0.079022     -0.033316
      3.99706     -0.05682      0.05482         0.066259     -0.067817      0.041174
      6.11833      0.38502      1.98112        -0.028673     -0.047211      0.051459
      5.99605      1.95949      7.95520         0.053790      0.012832     -0.050643
      3.90196      1.93949      2.09263         0.000616      0.046456     -0.048154
     -0.05682      3.99706      0.05482        -0.067817      0.066259      0.041174
      1.93949      3.90196      2.09263         0.046456      0.000616     -0.048154
      1.95949      5.99605      7.95520         0.012832      0.053790     -0.050643
      0.38502      6.11833      1.98112        -0.047211     -0.028673      0.051459
      4.09721      4.09721      0.16731        -0.041219     -0.041219     -0.066822
      6.07728      3.33669      2.00474         0.051109     -0.074481      0.065251
      6.11703      6.11703      7.68195        -0.021551     -0.021551     -0.036358
      3.33669      6.07728      2.00474        -0.074481      0.051109      0.065251
     -0.04053     -0.04053      4.10078        -0.067846     -0.067846     -0.085382
      2.03837     -0.00340      6.05512        -0.019512     -0.031612      0.039516
      2.02214      2.02214      4.12280        -0.004492     -0.004492      0.024672
     -0.00340      2.03837      6.05512        -0.031612     -0.019512      0.039516
      4.08657     -0.16377      3.99496        -0.034229      0.039502      0.007522
      5.99940      0.12948      6.10830         0.040232      0.002278      0.047939
      5.99056      1.94152      4.19254         0.067710      0.073595     -0.064867
      3.96824      2.02078      6.07190        -0.040626     -0.008570      0.020836
     -0.16377      4.08657      3.99496         0.039502     -0.034229      0.007522
      2.02078      3.96824      6.07190        -0.008570     -0.040626      0.020836
      1.94152      5.99056      4.19254         0.073595      0.067710     -0.064867
      0.12948      5.99940      6.10830         0.002278      0.040232      0.047939
      4.11407      4.11407      3.96775        -0.090616     -0.090616      0.079393
      5.99364      3.90851      6.13642         0.060972     -0.004325     -0.016859
      6.08453      6.08453      4.71272        -0.021608     -0.021608     -0.035302
      3.90851      5.99364      6.13642        -0.004325      0.060972     -0.016859
      5.83556      5.83556      2.19214         0.210137      0.210137     -0.045042
 -----------------------------------------------------------------------------------
    total drift:                                0.000034      0.000034     -0.000151
 d Force = 0.1238586E-01[-0.255E-03, 0.250E-01]  d Energy = 0.1249295E-01-0.107E-03
 d Force =-0.7312061E+00[-0.839E+00,-0.624E+00]  d Ewald  =-0.7311775E+00-0.285E-04


--------------------------------------------------------------------------------------------------------


    POTLOK:  cpu time    0.27: real time    0.28


--------------------------------------------------------------------------------------------------------


  FORCES: max atom, RMS     0.300572    0.100186
  FORCE total and by dimension    0.575525    0.210137


--------------------------------------------------------------------------------------------------------


  
 reached required accuracy - stopping structural energy minimisation
     LOOP+:  cpu time   20.12: real time   20.16
    4ORBIT:  cpu time    0.00: real time    0.00

 total amount of memory used by VASP on root node  65972. kBytes
========================================================================

   base      :    30000. kBytes
   nonl-proj :     5690. kBytes
   fftplans  :     4240. kBytes
   grid      :    23132. kBytes
   one-center:      101. kBytes
   wavefun   :     2809. kBytes
 
  
  
 General timing and accounting informations for this job:
 ========================================================
  
                  Total CPU time used (sec):      324.637
                            User time (sec):      324.474
                          System time (sec):        0.163
                         Elapsed time (sec):      326.271
  
                   Maximum memory used (kb):           0.
                   Average memory used (kb):           0.
  
                          Minor page faults:        21781
                          Major page faults:           28
                 Voluntary context switches:         3010
