   7   7   0   0
  0.2544720E+02  0.5626600E-09  0.5626600E-09  0.5626600E-09  0.5000000E-15
  1.000000000000000E-004
  CAR 
 unknown system                          
     11.21406039    -21.43037259  301      3.94553577      1.00000000
    -21.430  0.0000E+00  0.0000E+00  0.0000E+00  0.0000E+00
    -21.322  0.0000E+00  0.0000E+00  0.0000E+00  0.0000E+00
    -21.213  0.0000E+00  0.0000E+00  0.0000E+00  0.0000E+00
    -21.104 -0.1530E-30 -0.1495E-30 -0.1664E-31 -0.1627E-31
    -20.995 -0.9886E-27 -0.9674E-27 -0.1076E-27 -0.1053E-27
    -20.886 -0.3511E-23 -0.3441E-23 -0.3821E-24 -0.3745E-24
    -20.777 -0.6870E-20 -0.6742E-20 -0.7479E-21 -0.7340E-21
    -20.669 -0.7402E-17 -0.7275E-17 -0.8062E-18 -0.7923E-18
    -20.560 -0.4255E-14 -0.4186E-14 -0.4638E-15 -0.4562E-15
    -20.451 -0.1376E-11 -0.1356E-11 -0.1502E-12 -0.1480E-12
    -20.342 -0.2435E-09 -0.2403E-09 -0.2665E-10 -0.2630E-10
    -20.233 -0.2348E-07 -0.2321E-07 -0.2582E-08 -0.2552E-08
    -20.125 -0.1225E-05 -0.1213E-05 -0.1359E-06 -0.1345E-06
    -20.016 -0.3416E-04 -0.3386E-04 -0.3853E-05 -0.3819E-05
    -19.907 -0.4952E-03 -0.4917E-03 -0.5774E-04 -0.5732E-04
    -19.798 -0.3490E-02 -0.3472E-02 -0.4375E-03 -0.4352E-03
    -19.689 -0.9253E-02 -0.9239E-02 -0.1444E-02 -0.1440E-02
    -19.581  0.1111E-01  0.1094E-01 -0.2352E-03 -0.2496E-03
    -19.472  0.1044E+00  0.1040E+00  0.1113E-01  0.1106E-01
    -19.363  0.1936E+00  0.1934E+00  0.3219E-01  0.3211E-01
    -19.254  0.1438E+00  0.1441E+00  0.4783E-01  0.4779E-01
    -19.145  0.3459E-01  0.3494E-01  0.5160E-01  0.5160E-01
    -19.036 -0.7965E-02 -0.7909E-02  0.5073E-01  0.5074E-01
    -18.928 -0.5561E-02 -0.5587E-02  0.5013E-01  0.5013E-01
    -18.819 -0.1066E-02 -0.1076E-02  0.5001E-01  0.5001E-01
    -18.710 -0.9543E-04 -0.9671E-04  0.5000E-01  0.5000E-01
    -18.601 -0.4402E-05 -0.4478E-05  0.5000E-01  0.5000E-01
    -18.492 -0.1084E-06 -0.1106E-06  0.5000E-01  0.5000E-01
    -18.384 -0.1445E-08 -0.1481E-08  0.5000E-01  0.5000E-01
    -18.275 -0.1052E-10 -0.1082E-10  0.5000E-01  0.5000E-01
    -18.166 -0.4200E-13 -0.4335E-13  0.5000E-01  0.5000E-01
    -18.057 -0.8162E-16 -0.8162E-16  0.5000E-01  0.5000E-01
    -17.948  0.0000E+00  0.0000E+00  0.5000E-01  0.5000E-01
    -17.839  0.0000E+00  0.0000E+00  0.5000E-01  0.5000E-01
    -17.731  0.0000E+00  0.0000E+00  0.5000E-01  0.5000E-01
    -17.622  0.0000E+00  0.0000E+00  0.5000E-01  0.5000E-01
    -17.513  0.0000E+00  0.0000E+00  0.5000E-01  0.5000E-01
    -17.404  0.0000E+00  0.0000E+00  0.5000E-01  0.5000E-01
    -17.295  0.0000E+00  0.0000E+00  0.5000E-01  0.5000E-01
    -17.187  0.0000E+00  0.0000E+00  0.5000E-01  0.5000E-01
    -17.078  0.0000E+00  0.0000E+00  0.5000E-01  0.5000E-01
    -16.969  0.0000E+00  0.0000E+00  0.5000E-01  0.5000E-01
    -16.860  0.0000E+00  0.0000E+00  0.5000E-01  0.5000E-01
    -16.751  0.0000E+00  0.0000E+00  0.5000E-01  0.5000E-01
    -16.643  0.0000E+00  0.0000E+00  0.5000E-01  0.5000E-01
    -16.534  0.0000E+00  0.0000E+00  0.5000E-01  0.5000E-01
    -16.425  0.0000E+00  0.0000E+00  0.5000E-01  0.5000E-01
    -16.316  0.0000E+00  0.0000E+00  0.5000E-01  0.5000E-01
    -16.207  0.0000E+00  0.0000E+00  0.5000E-01  0.5000E-01
    -16.098  0.0000E+00  0.0000E+00  0.5000E-01  0.5000E-01
    -15.990  0.0000E+00  0.0000E+00  0.5000E-01  0.5000E-01
    -15.881  0.0000E+00  0.0000E+00  0.5000E-01  0.5000E-01
    -15.772  0.0000E+00  0.0000E+00  0.5000E-01  0.5000E-01
    -15.663  0.0000E+00  0.0000E+00  0.5000E-01  0.5000E-01
    -15.554  0.0000E+00  0.0000E+00  0.5000E-01  0.5000E-01
    -15.446  0.0000E+00  0.0000E+00  0.5000E-01  0.5000E-01
    -15.337  0.0000E+00  0.0000E+00  0.5000E-01  0.5000E-01
    -15.228  0.0000E+00  0.0000E+00  0.5000E-01  0.5000E-01
    -15.119  0.0000E+00  0.0000E+00  0.5000E-01  0.5000E-01
    -15.010  0.0000E+00  0.0000E+00  0.5000E-01  0.5000E-01
    -14.901  0.0000E+00  0.0000E+00  0.5000E-01  0.5000E-01
    -14.793  0.0000E+00  0.0000E+00  0.5000E-01  0.5000E-01
    -14.684  0.0000E+00  0.0000E+00  0.5000E-01  0.5000E-01
    -14.575  0.0000E+00  0.0000E+00  0.5000E-01  0.5000E-01
    -14.466  0.0000E+00  0.0000E+00  0.5000E-01  0.5000E-01
    -14.357  0.0000E+00  0.0000E+00  0.5000E-01  0.5000E-01
    -14.249  0.0000E+00  0.0000E+00  0.5000E-01  0.5000E-01
    -14.140  0.0000E+00  0.0000E+00  0.5000E-01  0.5000E-01
    -14.031  0.0000E+00  0.0000E+00  0.5000E-01  0.5000E-01
    -13.922  0.0000E+00  0.0000E+00  0.5000E-01  0.5000E-01
    -13.813  0.0000E+00  0.0000E+00  0.5000E-01  0.5000E-01
    -13.705  0.0000E+00  0.0000E+00  0.5000E-01  0.5000E-01
    -13.596  0.0000E+00  0.0000E+00  0.5000E-01  0.5000E-01
    -13.487  0.0000E+00  0.0000E+00  0.5000E-01  0.5000E-01
    -13.378  0.0000E+00  0.0000E+00  0.5000E-01  0.5000E-01
    -13.269  0.0000E+00  0.0000E+00  0.5000E-01  0.5000E-01
    -13.160  0.0000E+00  0.0000E+00  0.5000E-01  0.5000E-01
    -13.052 -0.8928E-29 -0.8833E-29  0.5000E-01  0.5000E-01
    -12.943 -0.4291E-25 -0.4248E-25  0.5000E-01  0.5000E-01
    -12.834 -0.1140E-21 -0.1129E-21  0.5000E-01  0.5000E-01
    -12.725 -0.1673E-18 -0.1659E-18  0.5000E-01  0.5000E-01
    -12.616 -0.1320E-15 -0.1310E-15  0.5000E-01  0.5000E-01
    -12.508 -0.5893E-13 -0.5853E-13  0.5000E-01  0.5000E-01
    -12.399 -0.1452E-10 -0.1443E-10  0.5000E-01  0.5000E-01
    -12.290 -0.1973E-08 -0.1962E-08  0.5000E-01  0.5000E-01
    -12.181 -0.1477E-06 -0.1470E-06  0.5000E-01  0.5000E-01
    -12.072 -0.6080E-05 -0.6056E-05  0.5000E-01  0.5000E-01
    -11.963 -0.1366E-03 -0.1362E-03  0.4998E-01  0.4998E-01
    -11.855 -0.1642E-02 -0.1638E-02  0.4981E-01  0.4981E-01
    -11.746 -0.9930E-02 -0.9917E-02  0.4873E-01  0.4873E-01
    -11.637 -0.2297E-01 -0.2298E-01  0.4623E-01  0.4623E-01
    -11.528  0.3439E-01  0.3425E-01  0.4997E-01  0.4995E-01
    -11.419  0.2830E+00  0.2827E+00  0.8076E-01  0.8072E-01
    -11.311  0.5481E+00  0.5480E+00  0.1404E+00  0.1403E+00
    -11.202  0.4512E+00  0.4514E+00  0.1895E+00  0.1895E+00
    -11.093  0.1363E+00  0.1366E+00  0.2043E+00  0.2043E+00
    -10.984 -0.1640E-01 -0.1636E-01  0.2025E+00  0.2025E+00
    -10.875 -0.1876E-01 -0.1878E-01  0.2005E+00  0.2005E+00
    -10.767 -0.4185E-02 -0.4192E-02  0.2000E+00  0.2000E+00
    -10.658 -0.4207E-03 -0.4216E-03  0.2000E+00  0.2000E+00
    -10.549 -0.2152E-04 -0.2158E-04  0.2000E+00  0.2000E+00
    -10.440 -0.5837E-06 -0.5855E-06  0.2000E+00  0.2000E+00
    -10.331 -0.8548E-08 -0.8578E-08  0.2000E+00  0.2000E+00
    -10.222 -0.6823E-10 -0.6850E-10  0.2000E+00  0.2000E+00
    -10.114 -0.2983E-12 -0.2997E-12  0.2000E+00  0.2000E+00
    -10.005 -0.7193E-15 -0.7193E-15  0.2000E+00  0.2000E+00
     -9.896 -0.8163E-25 -0.7382E-25  0.2000E+00  0.2000E+00
     -9.787 -0.1934E-21 -0.1762E-21  0.2000E+00  0.2000E+00
     -9.678 -0.2520E-18 -0.2313E-18  0.2000E+00  0.2000E+00
     -9.570 -0.1767E-15 -0.1631E-15  0.2000E+00  0.2000E+00
     -9.461 -0.6852E-13 -0.6384E-13  0.2000E+00  0.2000E+00
     -9.352 -0.1463E-10 -0.1373E-10  0.2000E+00  0.2000E+00
     -9.243 -0.1699E-08 -0.1607E-08  0.2000E+00  0.2000E+00
     -9.134 -0.1066E-06 -0.1016E-06  0.2000E+00  0.2000E+00
     -9.025 -0.3566E-05 -0.3426E-05  0.2000E+00  0.2000E+00
     -8.917 -0.6205E-04 -0.6012E-04  0.2000E+00  0.2000E+00
     -8.808 -0.5306E-03 -0.5190E-03  0.1999E+00  0.1999E+00
     -8.699 -0.1848E-02 -0.1834E-02  0.1997E+00  0.1997E+00
     -8.590  0.4383E-03  0.3369E-03  0.1998E+00  0.1998E+00
     -8.481  0.1757E-01  0.1726E-01  0.2017E+00  0.2017E+00
     -8.373  0.3881E-01  0.3867E-01  0.2059E+00  0.2059E+00
     -8.264  0.3211E-01  0.3238E-01  0.2094E+00  0.2094E+00
     -8.155  0.8611E-02  0.8854E-02  0.2103E+00  0.2103E+00
     -8.046 -0.1649E-02 -0.1615E-02  0.2102E+00  0.2102E+00
     -7.937 -0.1279E-02 -0.1298E-02  0.2100E+00  0.2100E+00
     -7.829 -0.2486E-03 -0.2550E-03  0.2100E+00  0.2100E+00
     -7.720 -0.7318E-04 -0.7235E-04  0.2100E+00  0.2100E+00
     -7.611 -0.4546E-03 -0.4448E-03  0.2099E+00  0.2099E+00
     -7.502 -0.1767E-02 -0.1750E-02  0.2098E+00  0.2098E+00
     -7.393 -0.1167E-02 -0.1231E-02  0.2096E+00  0.2096E+00
     -7.284  0.1198E-01  0.1171E-01  0.2109E+00  0.2109E+00
     -7.176  0.4137E-01  0.4105E-01  0.2154E+00  0.2154E+00
     -7.067  0.6461E-01  0.6457E-01  0.2225E+00  0.2224E+00
     -6.958  0.5403E-01  0.5432E-01  0.2283E+00  0.2283E+00
     -6.849  0.2351E-01  0.2374E-01  0.2309E+00  0.2309E+00
     -6.740  0.7710E-02  0.7746E-02  0.2317E+00  0.2317E+00
     -6.632  0.9926E-02  0.9813E-02  0.2328E+00  0.2328E+00
     -6.523  0.2356E-01  0.2336E-01  0.2354E+00  0.2353E+00
     -6.414  0.2924E-01  0.2933E-01  0.2386E+00  0.2385E+00
     -6.305  0.1441E-01  0.1468E-01  0.2401E+00  0.2401E+00
     -6.196  0.7635E-03  0.8671E-03  0.2402E+00  0.2402E+00
     -6.087 -0.1462E-02 -0.1473E-02  0.2401E+00  0.2401E+00
     -5.979 -0.4531E-03 -0.4643E-03  0.2400E+00  0.2400E+00
     -5.870 -0.5554E-04 -0.5756E-04  0.2400E+00  0.2400E+00
     -5.761 -0.3316E-05 -0.3470E-05  0.2400E+00  0.2400E+00
     -5.652 -0.1025E-06 -0.1083E-06  0.2400E+00  0.2400E+00
     -5.543 -0.1685E-08 -0.1796E-08  0.2400E+00  0.2400E+00
     -5.435 -0.1492E-10 -0.1604E-10  0.2400E+00  0.2400E+00
     -5.326 -0.7172E-13 -0.7782E-13  0.2400E+00  0.2400E+00
     -5.217 -0.1990E-15 -0.1990E-15  0.2400E+00  0.2400E+00
     -5.108  0.0000E+00  0.0000E+00  0.2400E+00  0.2400E+00
     -4.999  0.0000E+00  0.0000E+00  0.2400E+00  0.2400E+00
     -4.891  0.0000E+00  0.0000E+00  0.2400E+00  0.2400E+00
     -4.782  0.0000E+00  0.0000E+00  0.2400E+00  0.2400E+00
     -4.673  0.0000E+00  0.0000E+00  0.2400E+00  0.2400E+00
     -4.564  0.0000E+00  0.0000E+00  0.2400E+00  0.2400E+00
     -4.455 -0.3381E-30 -0.3190E-30  0.2400E+00  0.2400E+00
     -4.346 -0.1894E-26 -0.1794E-26  0.2400E+00  0.2400E+00
     -4.238 -0.5840E-23 -0.5553E-23  0.2400E+00  0.2400E+00
     -4.129 -0.9903E-20 -0.9454E-20  0.2400E+00  0.2400E+00
     -4.020 -0.9226E-17 -0.8842E-17  0.2400E+00  0.2400E+00
     -3.911 -0.4562E-14 -0.4391E-14  0.2400E+00  0.2400E+00
     -3.802 -0.1268E-11 -0.1224E-11  0.2400E+00  0.2400E+00
     -3.694 -0.1916E-09 -0.1858E-09  0.2400E+00  0.2400E+00
     -3.585 -0.1567E-07 -0.1526E-07  0.2400E+00  0.2400E+00
     -3.476 -0.6862E-06 -0.6709E-06  0.2400E+00  0.2400E+00
     -3.367 -0.1580E-04 -0.1551E-04  0.2400E+00  0.2400E+00
     -3.258 -0.1837E-03 -0.1812E-03  0.2400E+00  0.2400E+00
     -3.149 -0.9676E-03 -0.9602E-03  0.2399E+00  0.2399E+00
     -3.041 -0.1267E-02 -0.1279E-02  0.2397E+00  0.2397E+00
     -2.932  0.6478E-02  0.6384E-02  0.2404E+00  0.2404E+00
     -2.823  0.2403E-01  0.2392E-01  0.2431E+00  0.2430E+00
     -2.714  0.2793E-01  0.2800E-01  0.2461E+00  0.2461E+00
     -2.605  0.1162E-01  0.1171E-01  0.2474E+00  0.2474E+00
     -2.497  0.8248E-02  0.8109E-02  0.2483E+00  0.2482E+00
     -2.388  0.2836E-01  0.2813E-01  0.2513E+00  0.2513E+00
     -2.279  0.4174E-01  0.4174E-01  0.2559E+00  0.2558E+00
     -2.170  0.3013E-01  0.3034E-01  0.2592E+00  0.2591E+00
     -2.061  0.9807E-02  0.9980E-02  0.2602E+00  0.2602E+00
     -1.953 -0.6494E-03 -0.6026E-03  0.2602E+00  0.2602E+00
     -1.844 -0.2422E-02 -0.2418E-02  0.2599E+00  0.2599E+00
     -1.735 -0.2046E-02 -0.2070E-02  0.2597E+00  0.2597E+00
     -1.626  0.7037E-02  0.6865E-02  0.2604E+00  0.2604E+00
     -1.517  0.2961E-01  0.2938E-01  0.2637E+00  0.2636E+00
     -1.408  0.3917E-01  0.3923E-01  0.2679E+00  0.2679E+00
     -1.300  0.2014E-01  0.2039E-01  0.2701E+00  0.2701E+00
     -1.191  0.1599E-02  0.1704E-02  0.2703E+00  0.2703E+00
     -1.082 -0.1906E-02 -0.1912E-02  0.2701E+00  0.2701E+00
     -0.973 -0.6465E-03 -0.6573E-03  0.2700E+00  0.2700E+00
     -0.864 -0.8485E-04 -0.8697E-04  0.2700E+00  0.2700E+00
     -0.756 -0.5420E-05 -0.5595E-05  0.2700E+00  0.2700E+00
     -0.647 -0.2115E-06 -0.2172E-06  0.2700E+00  0.2700E+00
     -0.538 -0.1175E-05 -0.1134E-05  0.2700E+00  0.2700E+00
     -0.429 -0.2243E-04 -0.2180E-04  0.2700E+00  0.2700E+00
     -0.320 -0.2132E-03 -0.2089E-03  0.2700E+00  0.2700E+00
     -0.211 -0.8718E-03 -0.8636E-03  0.2699E+00  0.2699E+00
     -0.103 -0.4660E-03 -0.4944E-03  0.2698E+00  0.2698E+00
      0.006  0.5973E-02  0.5866E-02  0.2705E+00  0.2705E+00
      0.115  0.1578E-01  0.1569E-01  0.2722E+00  0.2722E+00
      0.224  0.2318E-01  0.2306E-01  0.2747E+00  0.2747E+00
      0.333  0.4366E-01  0.4336E-01  0.2795E+00  0.2794E+00
      0.441  0.6431E-01  0.6425E-01  0.2865E+00  0.2864E+00
      0.550  0.4881E-01  0.4908E-01  0.2918E+00  0.2917E+00
      0.659  0.2817E-01  0.2821E-01  0.2948E+00  0.2948E+00
      0.768  0.2767E-01  0.2767E-01  0.2979E+00  0.2978E+00
      0.877  0.1874E-01  0.1898E-01  0.2999E+00  0.2999E+00
      0.985  0.3249E-02  0.3407E-02  0.3002E+00  0.3002E+00
      1.094 -0.2161E-02 -0.2148E-02  0.3000E+00  0.3000E+00
      1.203 -0.1531E-02 -0.1549E-02  0.2998E+00  0.2998E+00
      1.312  0.2817E-02  0.2758E-02  0.3002E+00  0.3001E+00
      1.421  0.1309E-01  0.1295E-01  0.3016E+00  0.3016E+00
      1.530  0.2630E-01  0.2608E-01  0.3044E+00  0.3044E+00
      1.638  0.3747E-01  0.3734E-01  0.3085E+00  0.3085E+00
      1.747  0.4133E-01  0.4144E-01  0.3130E+00  0.3130E+00
      1.856  0.3683E-01  0.3700E-01  0.3170E+00  0.3170E+00
      1.965  0.2776E-01  0.2774E-01  0.3200E+00  0.3200E+00
      2.074  0.2647E-01  0.2630E-01  0.3229E+00  0.3229E+00
      2.182  0.2628E-01  0.2638E-01  0.3258E+00  0.3257E+00
      2.291  0.1878E-01  0.1894E-01  0.3278E+00  0.3278E+00
      2.400  0.2830E-01  0.2812E-01  0.3309E+00  0.3309E+00
      2.509  0.4410E-01  0.4398E-01  0.3357E+00  0.3356E+00
      2.618  0.3305E-01  0.3328E-01  0.3393E+00  0.3393E+00
      2.727  0.9366E-02  0.9614E-02  0.3403E+00  0.3403E+00
      2.835 -0.1221E-02 -0.1162E-02  0.3402E+00  0.3402E+00
      2.944 -0.1360E-02 -0.1375E-02  0.3400E+00  0.3400E+00
      3.053 -0.3171E-03 -0.3256E-03  0.3400E+00  0.3400E+00
      3.162 -0.3403E-04 -0.3533E-04  0.3400E+00  0.3400E+00
      3.271 -0.7014E-05 -0.6817E-05  0.3400E+00  0.3400E+00
      3.379 -0.7250E-04 -0.6934E-04  0.3400E+00  0.3400E+00
      3.488 -0.4912E-03 -0.4767E-03  0.3399E+00  0.3399E+00
      3.597 -0.1289E-02 -0.1280E-02  0.3398E+00  0.3398E+00
      3.706  0.9465E-03  0.8355E-03  0.3399E+00  0.3399E+00
      3.815  0.1184E-01  0.1153E-01  0.3412E+00  0.3411E+00
      3.923  0.2797E-01  0.2759E-01  0.3442E+00  0.3441E+00
      4.032  0.4135E-01  0.4115E-01  0.3487E+00  0.3486E+00
      4.141  0.4756E-01  0.4776E-01  0.3539E+00  0.3538E+00
      4.250  0.3933E-01  0.3975E-01  0.3582E+00  0.3581E+00
      4.359  0.1781E-01  0.1811E-01  0.3601E+00  0.3601E+00
      4.468  0.1444E-02  0.1532E-02  0.3603E+00  0.3603E+00
      4.576 -0.1827E-02 -0.1839E-02  0.3601E+00  0.3601E+00
      4.685 -0.6739E-03 -0.6867E-03  0.3600E+00  0.3600E+00
      4.794 -0.1443E-03 -0.1459E-03  0.3600E+00  0.3600E+00
      4.903 -0.4283E-03 -0.4224E-03  0.3599E+00  0.3599E+00
      5.012 -0.1529E-02 -0.1520E-02  0.3598E+00  0.3598E+00
      5.120 -0.2858E-03 -0.3289E-03  0.3598E+00  0.3597E+00
      5.229  0.1189E-01  0.1173E-01  0.3610E+00  0.3610E+00
      5.338  0.3169E-01  0.3154E-01  0.3645E+00  0.3645E+00
      5.447  0.4297E-01  0.4290E-01  0.3692E+00  0.3691E+00
      5.556  0.4555E-01  0.4550E-01  0.3741E+00  0.3741E+00
      5.665  0.4230E-01  0.4235E-01  0.3787E+00  0.3787E+00
      5.773  0.2741E-01  0.2761E-01  0.3817E+00  0.3817E+00
      5.882  0.1378E-01  0.1385E-01  0.3832E+00  0.3832E+00
      5.991  0.1977E-01  0.1968E-01  0.3854E+00  0.3853E+00
      6.100  0.2626E-01  0.2631E-01  0.3882E+00  0.3882E+00
      6.209  0.1548E-01  0.1562E-01  0.3899E+00  0.3899E+00
      6.317  0.2545E-02  0.2604E-02  0.3902E+00  0.3902E+00
      6.426 -0.1806E-02 -0.1797E-02  0.3900E+00  0.3900E+00
      6.535 -0.2120E-02 -0.2130E-02  0.3898E+00  0.3898E+00
      6.644  0.3264E-02  0.3145E-02  0.3901E+00  0.3901E+00
      6.753  0.1975E-01  0.1955E-01  0.3923E+00  0.3922E+00
      6.861  0.3028E-01  0.3028E-01  0.3956E+00  0.3955E+00
      6.970  0.2111E-01  0.2127E-01  0.3979E+00  0.3978E+00
      7.079  0.1136E-01  0.1143E-01  0.3991E+00  0.3991E+00
      7.188  0.7113E-02  0.7151E-02  0.3999E+00  0.3999E+00
      7.297  0.2141E-02  0.2177E-02  0.4001E+00  0.4001E+00
      7.406 -0.4155E-03 -0.4090E-03  0.4000E+00  0.4000E+00
      7.514 -0.3983E-03 -0.4010E-03  0.4000E+00  0.4000E+00
      7.623 -0.4063E-03 -0.4010E-03  0.4000E+00  0.4000E+00
      7.732 -0.1771E-02 -0.1749E-02  0.3998E+00  0.3998E+00
      7.841 -0.2990E-02 -0.3006E-02  0.3994E+00  0.3994E+00
      7.950  0.9228E-02  0.8977E-02  0.4004E+00  0.4004E+00
      8.058  0.4690E-01  0.4645E-01  0.4056E+00  0.4055E+00
      8.167  0.7425E-01  0.7420E-01  0.4136E+00  0.4136E+00
      8.276  0.4921E-01  0.4965E-01  0.4190E+00  0.4190E+00
      8.385  0.1269E-01  0.1287E-01  0.4204E+00  0.4204E+00
      8.494  0.1981E-01  0.1949E-01  0.4225E+00  0.4225E+00
      8.603  0.5005E-01  0.4982E-01  0.4280E+00  0.4279E+00
      8.711  0.5761E-01  0.5775E-01  0.4342E+00  0.4342E+00
      8.820  0.3907E-01  0.3935E-01  0.4385E+00  0.4385E+00
      8.929  0.1309E-01  0.1330E-01  0.4399E+00  0.4399E+00
      9.038  0.3008E-02  0.2949E-02  0.4402E+00  0.4402E+00
      9.147  0.2132E-01  0.2105E-01  0.4426E+00  0.4425E+00
      9.255  0.3987E-01  0.3983E-01  0.4469E+00  0.4469E+00
      9.364  0.2693E-01  0.2718E-01  0.4498E+00  0.4498E+00
      9.473  0.4721E-02  0.4878E-02  0.4503E+00  0.4503E+00
      9.582 -0.2023E-02 -0.2016E-02  0.4501E+00  0.4501E+00
      9.691 -0.9582E-03 -0.9722E-03  0.4500E+00  0.4500E+00
      9.799 -0.1496E-03 -0.1532E-03  0.4500E+00  0.4500E+00
      9.908 -0.1100E-04 -0.1134E-04  0.4500E+00  0.4500E+00
     10.017 -0.4137E-06 -0.4296E-06  0.4500E+00  0.4500E+00
     10.126 -0.8230E-08 -0.8604E-08  0.4500E+00  0.4500E+00
     10.235 -0.8799E-10 -0.9261E-10  0.4500E+00  0.4500E+00
     10.344 -0.5102E-12 -0.5405E-12  0.4500E+00  0.4500E+00
     10.452 -0.1622E-14 -0.1724E-14  0.4500E+00  0.4500E+00
     10.561  0.0000E+00  0.0000E+00  0.4500E+00  0.4500E+00
     10.670  0.0000E+00  0.0000E+00  0.4500E+00  0.4500E+00
     10.779  0.0000E+00  0.0000E+00  0.4500E+00  0.4500E+00
     10.888  0.0000E+00  0.0000E+00  0.4500E+00  0.4500E+00
     10.996  0.0000E+00  0.0000E+00  0.4500E+00  0.4500E+00
     11.105  0.0000E+00  0.0000E+00  0.4500E+00  0.4500E+00
     11.214  0.0000E+00  0.0000E+00  0.4500E+00  0.4500E+00
