 vasp.5.2.2 15Apr09 complex 
 executed on             LinuxIFC date 2013.11.25  22:22:39
 running on    1 nodes
 distr:  one band on    1 nodes,    1 groups


--------------------------------------------------------------------------------------------------------


 INCAR:
 POTCAR:   PAW_PBE Ga_d 06Sep2000                 
 POTCAR:   PAW_PBE Bi_d 06Sep2000                 
 POTCAR:   PAW_PBE As 06Sep2000                   
 POTCAR:   PAW_PBE Ga_d 06Sep2000                 
   VRHFIN =Ga: s2p1                                                             
   LEXCH  = PE                                                                  
   EATOM  =  2149.0616 eV,  157.9516 Ry                                         
                                                                                
   TITEL  = PAW_PBE Ga_d 06Sep2000                                              
   LULTRA =        F    use ultrasoft PP ?                                      
   IUNSCR =        1    unscreen: 0-lin 1-nonlin 2-no                           
   RPACOR =    2.000    partial core radius                                     
   POMASS =   69.723; ZVAL   =   13.000    mass and valenz                      
   RCORE  =    2.300    outmost cutoff radius                                   
   RWIGS  =    2.300; RWIGS  =    1.217    wigner-seitz radius (au A)           
   ENMAX  =  282.697; ENMIN  =  212.022 eV                                      
   ICORE  =        3    local potential                                         
   LCOR   =        T    correct aug charges                                     
   LPAW   =        T    paw PP                                                  
   EAUG   =  490.690                                                            
   DEXC   =    -.001                                                            
   RMAX   =    2.742    core radius for proj-oper                               
   RAUG   =    1.300    factor for augmentation sphere                          
   RDEP   =    2.413    radius for radial grids                                 
   QCUT   =   -4.558; QGAM   =    9.117    optimization parameters              
                                                                                
   Description                                                                  
     l     E      TYP  RCUT    TYP  RCUT                                        
     2   .000     23  2.300                                                     
     2  -.400     23  2.300                                                     
     0   .000     23  2.300                                                     
     0   .000     23  2.300                                                     
     1   .000     23  2.300                                                     
     1   .000     23  2.300                                                     
     3  -.100      7  2.300                                                     
  local pseudopotential read in
  partial core-charges read in
  atomic valenz-charges read in
  non local Contribution for L=           2  read in
    real space projection operators read in
  non local Contribution for L=           2  read in
    real space projection operators read in
  non local Contribution for L=           0  read in
    real space projection operators read in
  non local Contribution for L=           0  read in
    real space projection operators read in
  non local Contribution for L=           1  read in
    real space projection operators read in
  non local Contribution for L=           1  read in
    real space projection operators read in
    PAW grid and wavefunctions read in
 
   number of l-projection  operators is LMAX  =           6
   number of lm-projection operators is LMMAX =          18
 
 POTCAR:   PAW_PBE Bi_d 06Sep2000                 
   VRHFIN =Bi:                                                                  
   LEXCH  = PE                                                                  
   EATOM  =  1958.6135 eV,  143.9540 Ry                                         
                                                                                
   TITEL  = PAW_PBE Bi_d 06Sep2000                                              
   LULTRA =        F    use ultrasoft PP ?                                      
   IUNSCR =        1    unscreen: 0-lin 1-nonlin 2-no                           
   RPACOR =    2.200    partial core radius                                     
   POMASS =  208.980; ZVAL   =   15.000    mass and valenz                      
   RCORE  =    2.500    outmost cutoff radius                                   
   RWIGS  =    3.090; RWIGS  =    1.635    wigner-seitz radius (au A)           
   ENMAX  =  242.851; ENMIN  =  182.138 eV                                      
   ICORE  =        3    local potential                                         
   LCOR   =        T    correct aug charges                                     
   LPAW   =        T    paw PP                                                  
   EAUG   =  442.899                                                            
   DEXC   =    -.001                                                            
   RMAX   =    2.959    core radius for proj-oper                               
   RAUG   =    1.300    factor for augmentation sphere                          
   RDEP   =    2.650    radius for radial grids                                 
   QCUT   =   -4.225; QGAM   =    8.450    optimization parameters              
                                                                                
   Description                                                                  
     l     E      TYP  RCUT    TYP  RCUT                                        
     2   .000     23  2.500                                                     
     2  -.100     23  2.500                                                     
     0   .000     23  2.500                                                     
     0   .500     23  2.500                                                     
     1   .000     23  2.500                                                     
     1  1.000     23  2.500                                                     
     3  -.100      7  2.500                                                     
  local pseudopotential read in
  partial core-charges read in
  atomic valenz-charges read in
  non local Contribution for L=           2  read in
    real space projection operators read in
  non local Contribution for L=           2  read in
    real space projection operators read in
  non local Contribution for L=           0  read in
    real space projection operators read in
  non local Contribution for L=           0  read in
    real space projection operators read in
  non local Contribution for L=           1  read in
    real space projection operators read in
  non local Contribution for L=           1  read in
    real space projection operators read in
    PAW grid and wavefunctions read in
 
   number of l-projection  operators is LMAX  =           6
   number of lm-projection operators is LMMAX =          18
 
 POTCAR:   PAW_PBE As 06Sep2000                   
   VRHFIN =As: s2p3                                                             
   LEXCH  = PE                                                                  
   EATOM  =   170.0753 eV,   12.5002 Ry                                         
                                                                                
   TITEL  = PAW_PBE As 06Sep2000                                                
   LULTRA =        F    use ultrasoft PP ?                                      
   IUNSCR =        1    unscreen: 0-lin 1-nonlin 2-no                           
   RPACOR =    1.900    partial core radius                                     
   POMASS =   74.922; ZVAL   =    5.000    mass and valenz                      
   RCORE  =    2.100    outmost cutoff radius                                   
   RWIGS  =    2.300; RWIGS  =    1.217    wigner-seitz radius (au A)           
   ENMAX  =  208.680; ENMIN  =  156.510 eV                                      
   ICORE  =        3    local potential                                         
   LCOR   =        T    correct aug charges                                     
   LPAW   =        T    paw PP                                                  
   EAUG   =  462.758                                                            
   DEXC   =    -.108                                                            
   RMAX   =    3.192    core radius for proj-oper                               
   RAUG   =    1.300    factor for augmentation sphere                          
   RDEP   =    2.140    radius for radial grids                                 
   QCUT   =   -3.916; QGAM   =    7.833    optimization parameters              
                                                                                
   Description                                                                  
     l     E      TYP  RCUT    TYP  RCUT                                        
     0   .000     23  2.100                                                     
     0   .000     23  2.100                                                     
     1   .000     23  2.100                                                     
     1   .000     23  2.100                                                     
     2   .000     23  2.100                                                     
     3  -.100      7  2.100                                                     
  local pseudopotential read in
  partial core-charges read in
  atomic valenz-charges read in
  non local Contribution for L=           0  read in
    real space projection operators read in
  non local Contribution for L=           0  read in
    real space projection operators read in
  non local Contribution for L=           1  read in
    real space projection operators read in
  non local Contribution for L=           1  read in
    real space projection operators read in
  non local Contribution for L=           2  read in
    real space projection operators read in
    PAW grid and wavefunctions read in
 
   number of l-projection  operators is LMAX  =           5
   number of lm-projection operators is LMMAX =          13
 
 PAW_PBE Ga_d 06Sep2000                 :
 energy of atom  1       EATOM=-2149.0616
 kinetic energy error for atom=    0.0253 (will be added to EATOM!!)
 PAW_PBE Bi_d 06Sep2000                 :
 energy of atom  2       EATOM=-1958.6135
 kinetic energy error for atom=    0.0432 (will be added to EATOM!!)
 PAW_PBE As 06Sep2000                   :
 energy of atom  3       EATOM= -170.0753
 kinetic energy error for atom=    0.0022 (will be added to EATOM!!)
 
 
 POSCAR: Ga3 Bi1 As3                             
  positions in direct lattice
  No initial velocities read in
 exchange correlation table for  LEXCH =        8
   RHO(1)=    0.500       N(1)  =     2000
   RHO(2)=  100.500       N(2)  =     4000

 VTST: version 2.03d, (02/18/09)

 CHAIN: initializing optimizer
 
 OPT: Using VASP Conjugate-Gradient optimizer
 CHAIN: Read ICHAIN            0
 


--------------------------------------------------------------------------------------------------------


 ion  position               nearest neighbor table
   1  0.500  0.500  0.000-   4 2.44   5 2.44   6 2.44   7 2.44
   2  0.000  0.500  0.500-   4 2.44   5 2.44   6 2.44   7 2.44
   3  0.500  0.000  0.500-   4 2.44   5 2.44   6 2.44   7 2.44
   4  0.250  0.250  0.250-   1 2.44   2 2.44   3 2.44
   5  0.750  0.750  0.250-   1 2.44   2 2.44   3 2.44
   6  0.250  0.750  0.750-   1 2.44   2 2.44   3 2.44
   7  0.750  0.250  0.750-   1 2.44   2 2.44   3 2.44
 
  LATTYP: Found a simple cubic cell.
 ALAT       =     5.6266000000
  
  Lattice vectors:
  
 A1 = (   5.6266000000,   0.0000000000,   0.0000000000)
 A2 = (   0.0000000000,   5.6266000000,   0.0000000000)
 A3 = (   0.0000000000,   0.0000000000,   5.6266000000)
 Subroutine PRICEL returns:
 Original cell was already a primitive cell.
 

Analysis of symmetry for initial positions (statically):

 Routine SETGRP: Setting up the symmetry group for a 
 simple cubic supercell.


 Subroutine GETGRP returns: Found  6 space group operations
 (whereof  6 operations were pure point group operations)
 out of a pool of 48 trial point group operations.


The static configuration has the point symmetry C_3v.

Analysis of symmetry for dynamics (positions and initial velocities):

 Subroutine DYNSYM returns: Found  6 space group operations
 (whereof  6 operations were pure point group operations)
 out of a pool of  6 trial space group operations
 (whereof  6 operations were pure point group operations)
 and found also     1 'primitive' translations


The dynamic configuration has the point symmetry C_3v.

Analysis of magnetic symmetry:

 Subroutine MAGSYM returns: Found  6 space group operations
 (whereof  6 operations were pure point group operations)
 out of a pool of  6 trial space group operations
 (whereof  6 operations were pure point group operations)
 and found also     1 'primitive' translations


The magnetic configuration has the point symmetry C_3v.
 
 
 KPOINTS: Automatic kpoint scheme                 

Automatic generation of k-mesh.
 
 Subroutine IBZKPT returns following result:
 ===========================================
 
 Found      2 irreducible k-points:
 
 Following reciprocal coordinates:
            Coordinates               Weight
  0.250000  0.250000  0.250000      2.000000
 -0.250000  0.250000  0.250000      6.000000
 
 Following cartesian coordinates:
            Coordinates               Weight
  0.044432  0.044432  0.044432      2.000000
 -0.044432  0.044432  0.044432      6.000000
 


--------------------------------------------------------------------------------------------------------




 Dimension of arrays:
   k-points           NKPTS =      2   k-points in BZ     NKDIM =      2   number of bands    NBANDS=     45
   number of dos      NEDOS =    301   number of ions     NIONS =      7
   non local maximal  LDIM  =      6   non local SUM 2l+1 LMDIM =     18
   total plane-waves  NPLWV =  13824
   max r-space proj   IRMAX =      1   max aug-charges    IRDMAX=   3629
   dimension x,y,z NGX =    24 NGY =   24 NGZ =   24
   dimension x,y,z NGXF=    48 NGYF=   48 NGZF=   48
   support grid    NGXF=    48 NGYF=   48 NGZF=   48
   ions per type =               3   1   3
 NGX,Y,Z   is equivalent  to a cutoff of   7.09,  7.09,  7.09 a.u.
 NGXF,Y,Z  is equivalent  to a cutoff of  14.18, 14.18, 14.18 a.u.


 I would recommend the setting:
   dimension x,y,z NGX =    24 NGY =   24 NGZ =   24
 SYSTEM =  unknown system                          
 POSCAR =  Ga3 Bi1 As3                             

 Startparameter for this run:
   NWRITE =      2    write-flag & timer
   PREC   = normal    medium, high low
   ISTART =      0    job   : 0-new  1-cont  2-samecut
   ICHARG =      2    charge: 1-file 2-atom 10-const
   ISPIN  =      2    spin polarized calculation?
   LNONCOLLINEAR =      F non collinear calculations
   LSORBIT =      F    spin-orbit coupling
   INIWAV =      1    electr: 0-lowe 1-rand  2-diag
   LASPH  =      F    aspherical Exc in radial PAW
   METAGGA=      F    non-selfconsistent MetaGGA calc.

 Electronic Relaxation 1
   ENCUT  =  313.0 eV  23.00 Ry    4.80 a.u.   8.12  8.12  8.12*2*pi/ulx,y,z
   ENINI  =  313.0     initial cutoff
   ENAUG  =  490.7 eV  augmentation charge cutoff
   NELM   =     60;   NELMIN=  2; NELMDL= -5     # of ELM steps 
   EDIFF  = 0.1E-03   stopping-criterion for ELM
   LREAL  =      F    real-space projection
   LCOMPAT=      F    compatible to vasp.4.4
   LREAL_COMPAT= F    compatible to vasp.4.5.1-3
   GGA_COMPAT  = T    GGA compatible to vasp.4.4-vasp.4.6
   LMAXPAW     = -100 max onsite density
   LMAXMIX     =    2 max onsite mixed and CHGCAR
   VOSKOWN=      0    Vosko Wilk Nusair interpolation
   ROPT   =    0.00000   0.00000   0.00000
 Ionic relaxation
   EDIFFG = 0.1E-02   stopping-criterion for IOM
   NSW    =    100    number of steps for IOM
   NBLOCK =      1;   KBLOCK =    100    inner block; outer block 
   IBRION =      2    ionic relax: 0-MD 1-quasi-New 2-CG
   NFREE  =      1    steps in history (QN), initial steepest desc. (CG)
   ISIF   =      2    stress and relaxation
   IWAVPR =     11    prediction:  0-non 1-charg 2-wave 3-comb
   ISYM   =      2    0-nonsym 1-usesym 2-fastsym
   LCORR  =      T    Harris-Foulkes like correction to forces

   POTIM  = 0.5000    time-step for ionic-motion
   TEIN   =    0.0    initial temperature
   TEBEG  =    0.0;   TEEND  =   0.0 temperature during run
   SMASS  =  -3.00    Nose mass-parameter (am)
   estimated Nose-frequenzy (Omega)   =  0.10E-29 period in steps =****** mass=  -0.723E-27a.u.
   NPACO  =    256;   APACO  = 16.0  distance and # of slots for P.C.
   PSTRESS=    0.0 pullay stress

  Mass of Ions in am
   POMASS =  69.72208.98 74.92
  Ionic Valenz
   ZVAL   =  13.00 15.00  5.00
  Atomic Wigner-Seitz radii
   RWIGS  =  -1.00 -1.00 -1.00
   NELECT =      69.0000    total number of electrons
   NUPDOWN=      -1.0000    fix difference up-down

 DOS related values:
   EMIN   =  10.00;   EMAX   =-10.00  energy-range for DOS
   EFERMI =   0.00
   ISMEAR =     1;   SIGMA  =   0.20  broadening in eV -4-tet -1-fermi 0-gaus

 Electronic relaxation 2 (details)
   IALGO  =     38    algorithm
   LDIAG  =      T    sub-space diagonalisation
   IMIX   =      4    mixing-type and parameters
     AMIX     =   0.40;   BMIX     =  1.00
     AMIX_MAG =   1.60;   BMIX_MAG =  1.00
     AMIN     =   0.10
     WC   =   100.;   INIMIX=   1;  MIXPRE=   1

 Intra band minimization:
   WEIMIN = 0.0010     energy-eigenvalue tresh-hold
   EBREAK =  0.56E-06  absolut break condition
   DEPER  =   0.30     relativ break condition  

   TIME   =   0.40     timestep for ELM

  volume/ion in A,a.u.               =      25.45       171.73
  Fermi-wavevector in a.u.,A,eV,Ry     =   1.193379  2.255160 19.376792  1.424154
  Thomas-Fermi vector in A             =   2.329395
 
 Write flags
   LWAVE  =      F    write WAVECAR
   LCHARG =      F    write CHGCAR
   LVTOT  =      F    write LOCPOT, local potential
   LELF   =      F    write electronic localiz. function (ELF)
   LORBIT =      0    0 simple, 1 ext, 2 COOP (PROOUT)


 Dipole corrections
   LMONO  =      F    monopole corrections only (constant potential shift)
   LDIPOL =      F    correct potential (dipole corrections)
   IDIPOL =      0    1-x, 2-y, 3-z, 4-all directions 
   EPSILON=  1.0000000 bulk dielectric constant

 Exchange correlation treatment:
   GGA     =    --    GGA type
   LEXCH   =     8    internal setting for exchange type
   VOSKOWN=      0    Vosko Wilk Nusair interpolation
   LHFCALC =     F    Hartree Fock is set to
   LHFONE  =     F    Hartree Fock one center treatment
   AEXX    =    0.0000 exact exchange contribution

 Linear response parameters
   LEPSILON=     F    determine dielectric tensor
   LRPA    =     F    only Hartree local field effects (RPA)
   LNABLA  =     F    use nabla operator in PAW spheres
   LVEL    =     F    velocity operator in full k-point grid
   LINTERFAST=   F  fast interpolation
   KINTER  =     0    interpolate to denser k-point grid
   CSHIFT  =0.1000    complex shift for real part using Kramers Kronig
   OMEGAMAX=  -1.0    maximum frequency

 Orbital magnetization related:
   ORBITALMAG=     F  switch on orbital magnetization
   LCHIMAG   =     F  perturbation theory with respect to B field



--------------------------------------------------------------------------------------------------------


 conjugate gradient relaxation of ions
 charge density and potential will be updated during run
 spin polarized calculation
 Variant of blocked Davidson
 Davidson routine will perform the subspace rotation
 perform sub-space diagonalisation
    after iterative eigenvector-optimisation
 modified Broyden-mixing scheme, WC =      100.0
 initial mixing is a Kerker type mixing with AMIX =  0.4000 and BMIX =      1.0000
 Hartree-type preconditioning will be used
 using additional bands           10
 reciprocal scheme for non local part
 use partial core corrections
 calculate Harris-corrections to forces 
   (improved forces if not selfconsistent)
 use gradient corrections 
 use of overlap-Matrix (Vanderbilt PP)
 Methfessel and Paxton  Order N= 1 SIGMA  =   0.20


--------------------------------------------------------------------------------------------------------


  energy-cutoff  :      313.00
  volume of cell :      178.13
      direct lattice vectors                 reciprocal lattice vectors
     5.626600000  0.000000000  0.000000000     0.177727224  0.000000000  0.000000000
     0.000000000  5.626600000  0.000000000     0.000000000  0.177727224  0.000000000
     0.000000000  0.000000000  5.626600000     0.000000000  0.000000000  0.177727224

  length of vectors
     5.626600000  5.626600000  5.626600000     0.177727224  0.177727224  0.177727224


 
 k-points in units of 2pi/SCALE and weight: Automatic kpoint scheme                 
   0.04443181  0.04443181  0.04443181       0.250
  -0.04443181  0.04443181  0.04443181       0.750
 
 k-points in reciprocal lattice and weights: Automatic kpoint scheme                 
   0.25000000  0.25000000  0.25000000       0.250
  -0.25000000  0.25000000  0.25000000       0.750
 
 position of ions in fractional coordinates (direct lattice) 
   0.50000000  0.50000000  0.00000000
   0.00000000  0.50000000  0.50000000
   0.50000000  0.00000000  0.50000000
   0.25000000  0.25000000  0.25000000
   0.75000000  0.75000000  0.25000000
   0.25000000  0.75000000  0.75000000
   0.75000000  0.25000000  0.75000000
 
 position of ions in cartesian coordinates  (Angst):
   2.81330000  2.81330000  0.00000000
   0.00000000  2.81330000  2.81330000
   2.81330000  0.00000000  2.81330000
   1.40665000  1.40665000  1.40665000
   4.21995000  4.21995000  1.40665000
   1.40665000  4.21995000  4.21995000
   4.21995000  1.40665000  4.21995000
 


--------------------------------------------------------------------------------------------------------


 k-point  1 :  0.25000.25000.2500  plane waves:    2238
 k-point  2 :  -.25000.25000.2500  plane waves:    2238

 maximum and minimum number of plane-waves per node :    2238   2238

 maximum number of plane-waves:    2238
 maximal index in each direction: 
   IXMAX=  8   IYMAX=  7   IZMAX=  7
   IXMIN= -8   IYMIN= -8   IZMIN= -8

 WARNING: aliasing errors must be expected set NGX to  34 to avoid them
 WARNING: aliasing errors must be expected set NGY to  32 to avoid them
 WARNING: aliasing errors must be expected set NGZ to  32 to avoid them
 aliasing errors are usually negligible using standard VASP settings
 and one can safely disregard these warnings

 serial   3D FFT for wavefunctions
 parallel 3D FFT for charge:
    minimum data exchange during FFTs selected (reduces bandwidth)


 total amount of memory used by VASP on root node  54270. kBytes
========================================================================

   base      :    30000. kBytes
   nonl-proj :     2184. kBytes
   fftplans  :     3916. kBytes
   grid      :    11188. kBytes
   one-center:      217. kBytes
   wavefun   :     6765. kBytes
 
 Broyden mixing: mesh for mixing (old mesh)
   NGX = 17   NGY = 17   NGZ = 17
  (NGX  = 48   NGY  = 48   NGZ  = 48)
  gives a total of   4913 points

 initial charge density was supplied:
 charge density of overlapping atoms calculated
 number of electron   69.0000000 magnetization    7.0000000
 keeping initial charge density in first step


--------------------------------------------------------------------------------------------------------


 Maximum index for augmentation-charges         3287 (set IRDMAX)


--------------------------------------------------------------------------------------------------------


 First call to EWALD:  gamma=   0.315
 Maximum number of real-space cells 3x 3x 3
 Maximum number of reciprocal cells 3x 3x 3

    FEWALD:  cpu time    0.02: real time    0.00
   RESPFUN:  cpu time    0.00: real time    0.00


----------------------------------------- Iteration    1(   1)  ---------------------------------------


    POTLOK:  cpu time    0.60: real time    0.52
    SETDIJ:  cpu time    0.13: real time    0.13
     EDDAV:  cpu time   11.60: real time    2.93
       DOS:  cpu time    0.01: real time    0.00
    --------------------------------------------
      LOOP:  cpu time   12.33: real time    3.58

 eigenvalue-minimisations  :   415
 total energy-change (2. order) : 0.5513678E+03  (-0.2418377E+04)
 number of electron   69.0000000 magnetization    7.0000000
 augmentation part    69.0000000 magnetization    7.0000000

 Free energy of the ion-electron system (eV)
  ---------------------------------------------------
  alpha Z        PSCENC =       264.60570703
  Ewald energy   TEWEN  =     -4733.33118583
  -1/2 Hartree   DENC   =     -3114.51564805
  -exchange  EXHF       =         0.00000000
  -V(xc)+E(xc)   XCENC  =       202.84754629
  PAW double counting   =      5895.91827243    -6860.71638875
  entropy T*S    EENTRO =        -0.00195638
  eigenvalues    EBANDS =       -19.33707179
  atomic energy  EATOM  =      8915.89851451
  ---------------------------------------------------
  free energy    TOTEN  =       551.36778946 eV

  energy without entropy =      551.36974584  energy(sigma->0) =      551.36844159


--------------------------------------------------------------------------------------------------------




----------------------------------------- Iteration    1(   2)  ---------------------------------------


     EDDAV:  cpu time   10.64: real time    2.67
       DOS:  cpu time    0.00: real time    0.00
    --------------------------------------------
      LOOP:  cpu time   10.65: real time    2.67

 eigenvalue-minimisations  :   360
 total energy-change (2. order) :-0.4914830E+03  (-0.4765030E+03)
 number of electron   69.0000000 magnetization    7.0000000
 augmentation part    69.0000000 magnetization    7.0000000

 Free energy of the ion-electron system (eV)
  ---------------------------------------------------
  alpha Z        PSCENC =       264.60570703
  Ewald energy   TEWEN  =     -4733.33118583
  -1/2 Hartree   DENC   =     -3114.51564805
  -exchange  EXHF       =         0.00000000
  -V(xc)+E(xc)   XCENC  =       202.84754629
  PAW double counting   =      5895.91827243    -6860.71638875
  entropy T*S    EENTRO =         0.00067887
  eigenvalues    EBANDS =      -510.82273533
  atomic energy  EATOM  =      8915.89851451
  ---------------------------------------------------
  free energy    TOTEN  =        59.88476118 eV

  energy without entropy =       59.88408231  energy(sigma->0) =       59.88453489


--------------------------------------------------------------------------------------------------------




----------------------------------------- Iteration    1(   3)  ---------------------------------------


     EDDAV:  cpu time   11.69: real time    2.94
       DOS:  cpu time    0.00: real time    0.00
    --------------------------------------------
      LOOP:  cpu time   11.70: real time    2.94

 eigenvalue-minimisations  :   417
 total energy-change (2. order) :-0.8070976E+02  (-0.7957555E+02)
 number of electron   69.0000000 magnetization    7.0000000
 augmentation part    69.0000000 magnetization    7.0000000

 Free energy of the ion-electron system (eV)
  ---------------------------------------------------
  alpha Z        PSCENC =       264.60570703
  Ewald energy   TEWEN  =     -4733.33118583
  -1/2 Hartree   DENC   =     -3114.51564805
  -exchange  EXHF       =         0.00000000
  -V(xc)+E(xc)   XCENC  =       202.84754629
  PAW double counting   =      5895.91827243    -6860.71638875
  entropy T*S    EENTRO =        -0.01127122
  eigenvalues    EBANDS =      -591.52054973
  atomic energy  EATOM  =      8915.89851451
  ---------------------------------------------------
  free energy    TOTEN  =       -20.82500331 eV

  energy without entropy =      -20.81373209  energy(sigma->0) =      -20.82124624


--------------------------------------------------------------------------------------------------------




----------------------------------------- Iteration    1(   4)  ---------------------------------------


     EDDAV:  cpu time   11.70: real time    2.94
       DOS:  cpu time    0.01: real time    0.00
    --------------------------------------------
      LOOP:  cpu time   11.72: real time    2.94

 eigenvalue-minimisations  :   416
 total energy-change (2. order) :-0.3839710E+01  (-0.3820550E+01)
 number of electron   69.0000000 magnetization    7.0000000
 augmentation part    69.0000000 magnetization    7.0000000

 Free energy of the ion-electron system (eV)
  ---------------------------------------------------
  alpha Z        PSCENC =       264.60570703
  Ewald energy   TEWEN  =     -4733.33118583
  -1/2 Hartree   DENC   =     -3114.51564805
  -exchange  EXHF       =         0.00000000
  -V(xc)+E(xc)   XCENC  =       202.84754629
  PAW double counting   =      5895.91827243    -6860.71638875
  entropy T*S    EENTRO =        -0.02025895
  eigenvalues    EBANDS =      -595.35127175
  atomic energy  EATOM  =      8915.89851451
  ---------------------------------------------------
  free energy    TOTEN  =       -24.66471307 eV

  energy without entropy =      -24.64445412  energy(sigma->0) =      -24.65796008


--------------------------------------------------------------------------------------------------------




----------------------------------------- Iteration    1(   5)  ---------------------------------------


     EDDAV:  cpu time   13.69: real time    3.49
       DOS:  cpu time    0.01: real time    0.00
    CHARGE:  cpu time    0.30: real time    0.20
    MIXING:  cpu time    0.01: real time    0.01
    --------------------------------------------
      LOOP:  cpu time   14.01: real time    3.70

 eigenvalue-minimisations  :   520
 total energy-change (2. order) :-0.8338894E-01  (-0.8335010E-01)
 number of electron   68.9999264 magnetization    1.6724022
 augmentation part    28.4988782 magnetization    0.6410540

 Broyden mixing:
  rms(total) = 0.12733E+01    rms(broyden)= 0.12733E+01
  rms(prec ) = 0.14589E+01
  weight for this iteration     100.00

 Free energy of the ion-electron system (eV)
  ---------------------------------------------------
  alpha Z        PSCENC =       264.60570703
  Ewald energy   TEWEN  =     -4733.33118583
  -1/2 Hartree   DENC   =     -3114.51564805
  -exchange  EXHF       =         0.00000000
  -V(xc)+E(xc)   XCENC  =       202.84754629
  PAW double counting   =      5895.91827243    -6860.71638875
  entropy T*S    EENTRO =        -0.02018759
  eigenvalues    EBANDS =      -595.43473206
  atomic energy  EATOM  =      8915.89851451
  ---------------------------------------------------
  free energy    TOTEN  =       -24.74810201 eV

  energy without entropy =      -24.72791443  energy(sigma->0) =      -24.74137282


--------------------------------------------------------------------------------------------------------




----------------------------------------- Iteration    1(   6)  ---------------------------------------


    POTLOK:  cpu time    0.49: real time    0.49
    SETDIJ:  cpu time    0.13: real time    0.13
     EDDAV:  cpu time   12.25: real time    3.10
       DOS:  cpu time    0.01: real time    0.00
    CHARGE:  cpu time    0.30: real time    0.20
    MIXING:  cpu time    0.01: real time    0.01
    --------------------------------------------
      LOOP:  cpu time   13.20: real time    3.95

 eigenvalue-minimisations  :   438
 total energy-change (2. order) :-0.4197812E+00  (-0.1045712E+00)
 number of electron   68.9999262 magnetization    1.2163985
 augmentation part    28.5747498 magnetization    0.0683257

 Broyden mixing:
  rms(total) = 0.49536E+00    rms(broyden)= 0.49536E+00
  rms(prec ) = 0.60176E+00
  weight for this iteration     100.00

 eigenvalues of (default mixing * dielectric matrix)
  average eigenvalue GAMMA=   0.7406
  0.7406

 Free energy of the ion-electron system (eV)
  ---------------------------------------------------
  alpha Z        PSCENC =       264.60570703
  Ewald energy   TEWEN  =     -4733.33118583
  -1/2 Hartree   DENC   =     -3100.83463069
  -exchange  EXHF       =         0.00000000
  -V(xc)+E(xc)   XCENC  =       202.10530140
  PAW double counting   =      5998.92685789    -6965.11158051
  entropy T*S    EENTRO =         0.00223416
  eigenvalues    EBANDS =      -607.42910113
  atomic energy  EATOM  =      8915.89851451
  ---------------------------------------------------
  free energy    TOTEN  =       -25.16788317 eV

  energy without entropy =      -25.17011733  energy(sigma->0) =      -25.16862789


--------------------------------------------------------------------------------------------------------




----------------------------------------- Iteration    1(   7)  ---------------------------------------


    POTLOK:  cpu time    0.49: real time    0.49
    SETDIJ:  cpu time    0.13: real time    0.13
     EDDAV:  cpu time   12.58: real time    3.19
       DOS:  cpu time    0.01: real time    0.00
    CHARGE:  cpu time    0.30: real time    0.20
    MIXING:  cpu time    0.01: real time    0.01
    --------------------------------------------
      LOOP:  cpu time   13.53: real time    4.03

 eigenvalue-minimisations  :   456
 total energy-change (2. order) :-0.1424433E+00  (-0.3298881E-01)
 number of electron   68.9999262 magnetization    1.0473147
 augmentation part    28.5938109 magnetization   -0.1365923

 Broyden mixing:
  rms(total) = 0.17585E+00    rms(broyden)= 0.17585E+00
  rms(prec ) = 0.28362E+00
  weight for this iteration     100.00

 eigenvalues of (default mixing * dielectric matrix)
  average eigenvalue GAMMA=   0.9157
  0.7135  1.1180

 Free energy of the ion-electron system (eV)
  ---------------------------------------------------
  alpha Z        PSCENC =       264.60570703
  Ewald energy   TEWEN  =     -4733.33118583
  -1/2 Hartree   DENC   =     -3098.36077520
  -exchange  EXHF       =         0.00000000
  -V(xc)+E(xc)   XCENC  =       201.93881616
  PAW double counting   =      6061.03051384    -7030.51985479
  entropy T*S    EENTRO =         0.01598695
  eigenvalues    EBANDS =      -606.58804909
  atomic energy  EATOM  =      8915.89851451
  ---------------------------------------------------
  free energy    TOTEN  =       -25.31032642 eV

  energy without entropy =      -25.32631337  energy(sigma->0) =      -25.31565540


--------------------------------------------------------------------------------------------------------




----------------------------------------- Iteration    1(   8)  ---------------------------------------


    POTLOK:  cpu time    0.52: real time    0.49
    SETDIJ:  cpu time    0.13: real time    0.13
     EDDAV:  cpu time   11.98: real time    3.03
       DOS:  cpu time    0.01: real time    0.00
    CHARGE:  cpu time    0.29: real time    0.20
    MIXING:  cpu time    0.02: real time    0.01
    --------------------------------------------
      LOOP:  cpu time   12.96: real time    3.88

 eigenvalue-minimisations  :   422
 total energy-change (2. order) : 0.1411614E-01  (-0.1042777E-01)
 number of electron   68.9999262 magnetization    1.0763283
 augmentation part    28.6017126 magnetization   -0.1002777

 Broyden mixing:
  rms(total) = 0.73375E-01    rms(broyden)= 0.73374E-01
  rms(prec ) = 0.11812E+00
  weight for this iteration     100.00

 eigenvalues of (default mixing * dielectric matrix)
  average eigenvalue GAMMA=   1.1366
  1.8312  0.8782  0.7004

 Free energy of the ion-electron system (eV)
  ---------------------------------------------------
  alpha Z        PSCENC =       264.60570703
  Ewald energy   TEWEN  =     -4733.33118583
  -1/2 Hartree   DENC   =     -3096.83514111
  -exchange  EXHF       =         0.00000000
  -V(xc)+E(xc)   XCENC  =       201.93575743
  PAW double counting   =      6138.45750359    -7112.48124340
  entropy T*S    EENTRO =         0.01239808
  eigenvalues    EBANDS =      -603.55852057
  atomic energy  EATOM  =      8915.89851451
  ---------------------------------------------------
  free energy    TOTEN  =       -25.29621027 eV

  energy without entropy =      -25.30860836  energy(sigma->0) =      -25.30034297


--------------------------------------------------------------------------------------------------------




----------------------------------------- Iteration    1(   9)  ---------------------------------------


    POTLOK:  cpu time    0.57: real time    0.52
    SETDIJ:  cpu time    0.13: real time    0.13
     EDDAV:  cpu time   11.75: real time    2.96
       DOS:  cpu time    0.00: real time    0.00
    CHARGE:  cpu time    0.30: real time    0.20
    MIXING:  cpu time    0.03: real time    0.01
    --------------------------------------------
      LOOP:  cpu time   12.79: real time    3.83

 eigenvalue-minimisations  :   419
 total energy-change (2. order) :-0.2678710E-02  (-0.2574102E-02)
 number of electron   68.9999262 magnetization    1.1040566
 augmentation part    28.6019208 magnetization   -0.0844078

 Broyden mixing:
  rms(total) = 0.25877E-01    rms(broyden)= 0.25877E-01
  rms(prec ) = 0.35888E-01
  weight for this iteration     100.00

 eigenvalues of (default mixing * dielectric matrix)
  average eigenvalue GAMMA=   1.2135
  2.3726  1.0206  0.7878  0.6731

 Free energy of the ion-electron system (eV)
  ---------------------------------------------------
  alpha Z        PSCENC =       264.60570703
  Ewald energy   TEWEN  =     -4733.33118583
  -1/2 Hartree   DENC   =     -3096.16079241
  -exchange  EXHF       =         0.00000000
  -V(xc)+E(xc)   XCENC  =       201.94357125
  PAW double counting   =      6182.09734509    -7158.88406619
  entropy T*S    EENTRO =         0.01411844
  eigenvalues    EBANDS =      -601.48210088
  atomic energy  EATOM  =      8915.89851451
  ---------------------------------------------------
  free energy    TOTEN  =       -25.29888898 eV

  energy without entropy =      -25.31300743  energy(sigma->0) =      -25.30359513


--------------------------------------------------------------------------------------------------------




----------------------------------------- Iteration    1(  10)  ---------------------------------------


    POTLOK:  cpu time    0.60: real time    0.52
    SETDIJ:  cpu time    0.13: real time    0.13
     EDDAV:  cpu time   12.05: real time    3.04
       DOS:  cpu time    0.00: real time    0.00
    CHARGE:  cpu time    0.30: real time    0.20
    MIXING:  cpu time    0.03: real time    0.02
    --------------------------------------------
      LOOP:  cpu time   13.12: real time    3.91

 eigenvalue-minimisations  :   435
 total energy-change (2. order) :-0.7620183E-03  (-0.3624985E-03)
 number of electron   68.9999262 magnetization    1.1130420
 augmentation part    28.6015960 magnetization   -0.0735810

 Broyden mixing:
  rms(total) = 0.96050E-02    rms(broyden)= 0.96049E-02
  rms(prec ) = 0.16081E-01
  weight for this iteration     100.00

 eigenvalues of (default mixing * dielectric matrix)
  average eigenvalue GAMMA=   1.2069
  2.5252  0.6465  0.7498  1.1952  0.9179

 Free energy of the ion-electron system (eV)
  ---------------------------------------------------
  alpha Z        PSCENC =       264.60570703
  Ewald energy   TEWEN  =     -4733.33118583
  -1/2 Hartree   DENC   =     -3095.87260730
  -exchange  EXHF       =         0.00000000
  -V(xc)+E(xc)   XCENC  =       201.94892559
  PAW double counting   =      6187.11803728    -7164.26502919
  entropy T*S    EENTRO =         0.01404552
  eigenvalues    EBANDS =      -601.41605862
  atomic energy  EATOM  =      8915.89851451
  ---------------------------------------------------
  free energy    TOTEN  =       -25.29965100 eV

  energy without entropy =      -25.31369653  energy(sigma->0) =      -25.30433284


--------------------------------------------------------------------------------------------------------




----------------------------------------- Iteration    1(  11)  ---------------------------------------


    POTLOK:  cpu time    0.59: real time    0.51
    SETDIJ:  cpu time    0.13: real time    0.13
     EDDAV:  cpu time   10.77: real time    2.72
       DOS:  cpu time    0.01: real time    0.00
    CHARGE:  cpu time    0.30: real time    0.20
    MIXING:  cpu time    0.03: real time    0.02
    --------------------------------------------
      LOOP:  cpu time   11.83: real time    3.58

 eigenvalue-minimisations  :   371
 total energy-change (2. order) :-0.2419111E-03  (-0.6768088E-04)
 number of electron   68.9999262 magnetization    1.1099407
 augmentation part    28.6013379 magnetization   -0.0768319

 Broyden mixing:
  rms(total) = 0.44953E-02    rms(broyden)= 0.44952E-02
  rms(prec ) = 0.72756E-02
  weight for this iteration     100.00

 eigenvalues of (default mixing * dielectric matrix)
  average eigenvalue GAMMA=   1.2571
  2.5709  1.6488  1.0701  0.8713  0.7440  0.6377

 Free energy of the ion-electron system (eV)
  ---------------------------------------------------
  alpha Z        PSCENC =       264.60570703
  Ewald energy   TEWEN  =     -4733.33118583
  -1/2 Hartree   DENC   =     -3095.77128140
  -exchange  EXHF       =         0.00000000
  -V(xc)+E(xc)   XCENC  =       201.95545091
  PAW double counting   =      6186.24630901    -7163.38741185
  entropy T*S    EENTRO =         0.01369286
  eigenvalues    EBANDS =      -601.52968815
  atomic energy  EATOM  =      8915.89851451
  ---------------------------------------------------
  free energy    TOTEN  =       -25.29989291 eV

  energy without entropy =      -25.31358577  energy(sigma->0) =      -25.30445720


--------------------------------------------------------------------------------------------------------




----------------------------------------- Iteration    1(  12)  ---------------------------------------


    POTLOK:  cpu time    0.59: real time    0.51
    SETDIJ:  cpu time    0.13: real time    0.13
     EDDAV:  cpu time   10.06: real time    2.53
       DOS:  cpu time    0.00: real time    0.00
    --------------------------------------------
      LOOP:  cpu time   10.79: real time    3.17

 eigenvalue-minimisations  :   336
 total energy-change (2. order) :-0.8641818E-04  (-0.2198166E-04)
 number of electron   68.9999262 magnetization    1.1099407
 augmentation part    28.6013379 magnetization   -0.0768319

 Free energy of the ion-electron system (eV)
  ---------------------------------------------------
  alpha Z        PSCENC =       264.60570703
  Ewald energy   TEWEN  =     -4733.33118583
  -1/2 Hartree   DENC   =     -3095.83391332
  -exchange  EXHF       =         0.00000000
  -V(xc)+E(xc)   XCENC  =       201.96121186
  PAW double counting   =      6185.14269244    -7162.26029246
  entropy T*S    EENTRO =         0.01384309
  eigenvalues    EBANDS =      -601.49655664
  atomic energy  EATOM  =      8915.89851451
  ---------------------------------------------------
  free energy    TOTEN  =       -25.29997933 eV

  energy without entropy =      -25.31382242  energy(sigma->0) =      -25.30459369


--------------------------------------------------------------------------------------------------------




 average (electrostatic) potential at core
  the test charge radii are     1.0314  1.0856  1.0621
  (the norm of the test charge is              1.0000)
       1 -30.2408       2 -30.2408       3 -30.2408       4-107.9422       5 -51.1296
       6 -51.1295       7 -51.1295
 
 
 
 E-fermi :   3.5755     XC(G=0):  -9.3481     alpha+bet : -8.9697
   add alpha+bet to get absolut eigen values

 spin component 1

 k-point   1 :       0.2500    0.2500    0.2500
  band No.  band energies     occupation 
      1     -19.7066      1.00000
      2     -19.7066      1.00000
      3     -19.6635      1.00000
      4     -19.6041      1.00000
      5     -19.6041      1.00000
      6     -11.8637      1.00000
      7     -11.7191      1.00000
      8     -11.7191      1.00000
      9     -11.7042      1.00000
     10     -11.6853      1.00000
     11     -11.6853      1.00000
     12     -11.6377      1.00000
     13     -11.6377      1.00000
     14     -11.6259      1.00000
     15     -11.6057      1.00000
     16     -11.6057      1.00000
     17     -11.6038      1.00000
     18     -11.5779      1.00000
     19     -11.5636      1.00000
     20     -11.5636      1.00000
     21      -8.9542      1.00000
     22      -7.3079      1.00000
     23      -7.3079      1.00000
     24      -7.2852      1.00000
     25      -3.0890      1.00000
     26      -3.0890      1.00000
     27      -1.1996      1.00000
     28       0.1494      1.00000
     29       0.1494      1.00000
     30       0.3735      1.00000
     31       1.1722      1.00000
     32       2.0187      1.00000
     33       2.0187      1.00000
     34       2.0586      1.00000
     35       3.4647      0.89817
     36       3.4647      0.89817
     37       5.3736      0.00000
     38       5.8720      0.00000
     39       5.8720      0.00000
     40       7.8939      0.00000
     41       8.1766      0.00000
     42       8.1766      0.00000
     43       8.8789      0.00000
     44       8.8789      0.00000
     45       9.1281      0.00000

 k-point   2 :      -0.2500    0.2500    0.2500
  band No.  band energies     occupation 
      1     -19.7067      1.00000
      2     -19.7066      1.00000
      3     -19.6635      1.00000
      4     -19.6041      1.00000
      5     -19.6040      1.00000
      6     -11.8554      1.00000
      7     -11.7431      1.00000
      8     -11.7256      1.00000
      9     -11.7027      1.00000
     10     -11.6752      1.00000
     11     -11.6654      1.00000
     12     -11.6445      1.00000
     13     -11.6432      1.00000
     14     -11.6250      1.00000
     15     -11.6167      1.00000
     16     -11.6057      1.00000
     17     -11.5915      1.00000
     18     -11.5777      1.00000
     19     -11.5633      1.00000
     20     -11.5631      1.00000
     21      -8.8964      1.00000
     22      -7.6825      1.00000
     23      -7.3121      1.00000
     24      -6.9865      1.00000
     25      -3.0771      1.00000
     26      -2.8920      1.00000
     27      -1.3357      1.00000
     28       0.1392      1.00000
     29       0.1403      1.00000
     30       0.3215      1.00000
     31       1.2989      1.00000
     32       1.8361      1.00000
     33       1.8491      1.00000
     34       1.9409      1.00000
     35       3.4876      0.83503
     36       3.7803     -0.02746
     37       5.1483      0.00000
     38       5.8371      0.00000
     39       6.1118      0.00000
     40       7.7391      0.00000
     41       8.2456      0.00000
     42       8.4025      0.00000
     43       8.8836      0.00000
     44       9.0024      0.00000
     45       9.5167      0.00000

 spin component 2

 k-point   1 :       0.2500    0.2500    0.2500
  band No.  band energies     occupation 
      1     -19.6940      1.00000
      2     -19.6940      1.00000
      3     -19.6574      1.00000
      4     -19.5898      1.00000
      5     -19.5898      1.00000
      6     -11.8512      1.00000
      7     -11.7048      1.00000
      8     -11.7048      1.00000
      9     -11.6955      1.00000
     10     -11.6744      1.00000
     11     -11.6744      1.00000
     12     -11.6306      1.00000
     13     -11.6306      1.00000
     14     -11.6164      1.00000
     15     -11.5985      1.00000
     16     -11.5985      1.00000
     17     -11.5946      1.00000
     18     -11.5724      1.00000
     19     -11.5584      1.00000
     20     -11.5584      1.00000
     21      -8.8506      1.00000
     22      -7.1296      1.00000
     23      -7.0917      1.00000
     24      -7.0917      1.00000
     25      -2.9880      1.00000
     26      -2.9880      1.00000
     27      -1.0682      1.00000
     28       0.2387      1.00000
     29       0.2387      1.00000
     30       0.6325      1.00000
     31       1.3236      1.00000
     32       2.1074      1.00000
     33       2.1964      1.00000
     34       2.1964      1.00000
     35       3.8287     -0.03521
     36       3.8287     -0.03521
     37       5.4377      0.00000
     38       5.9564      0.00000
     39       5.9564      0.00000
     40       8.0123      0.00000
     41       8.2861      0.00000
     42       8.2861      0.00000
     43       9.0043      0.00000
     44       9.0043      0.00000
     45       9.2378      0.00000

 k-point   2 :      -0.2500    0.2500    0.2500
  band No.  band energies     occupation 
      1     -19.6942      1.00000
      2     -19.6941      1.00000
      3     -19.6575      1.00000
      4     -19.5898      1.00000
      5     -19.5897      1.00000
      6     -11.8432      1.00000
      7     -11.7292      1.00000
      8     -11.7111      1.00000
      9     -11.6899      1.00000
     10     -11.6648      1.00000
     11     -11.6592      1.00000
     12     -11.6362      1.00000
     13     -11.6356      1.00000
     14     -11.6155      1.00000
     15     -11.6084      1.00000
     16     -11.5984      1.00000
     17     -11.5837      1.00000
     18     -11.5720      1.00000
     19     -11.5580      1.00000
     20     -11.5580      1.00000
     21      -8.7899      1.00000
     22      -7.5444      1.00000
     23      -7.0957      1.00000
     24      -6.7419      1.00000
     25      -2.9806      1.00000
     26      -2.8240      1.00000
     27      -1.2155      1.00000
     28       0.2304      1.00000
     29       0.2657      1.00000
     30       0.5449      1.00000
     31       1.3987      1.00000
     32       1.9622      1.00000
     33       2.0401      1.00000
     34       2.2939      1.00000
     35       3.8602     -0.03087
     36       3.9149     -0.01867
     37       5.2505      0.00000
     38       5.9110      0.00000
     39       6.1883      0.00000
     40       7.8292      0.00000
     41       8.3613      0.00000
     42       8.5014      0.00000
     43       8.9898      0.00000
     44       9.1098      0.00000
     45       9.6113      0.00000


--------------------------------------------------------------------------------------------------------


 soft charge-density along one line, spin component           1
         0         1         2         3         4         5         6         7         8         9
 total charge-density along one line
 
 soft charge-density along one line, spin component           2
         0         1         2         3         4         5         6         7         8         9
 total charge-density along one line
 
 pseudopotential strength for first ion, spin component:           1
-15.456   0.008   0.012   0.008   0.000   9.485  -0.007  -0.010
  0.008 -15.429   0.004  -0.011  -0.007  -0.007   9.461  -0.004
  0.012   0.004 -15.413   0.004   0.000  -0.010  -0.004   9.447
  0.008  -0.011   0.004 -15.429   0.007  -0.007   0.010  -0.004
  0.000  -0.007   0.000   0.007 -15.451   0.000   0.006   0.000
  9.485  -0.007  -0.010  -0.007   0.000  -3.760   0.005   0.009
 -0.007   9.461  -0.004   0.010   0.006   0.005  -3.739   0.003
 -0.010  -0.004   9.447  -0.004   0.000   0.009   0.003  -3.728
 -0.007   0.010  -0.004   9.461  -0.006   0.005  -0.008   0.003
  0.000   0.006   0.000  -0.006   9.482   0.000  -0.005   0.000
 -0.002   0.002   0.000   0.002   0.000   0.004  -0.004  -0.002
  0.000   0.000   0.000   0.000   0.000   0.000   0.000   0.000
  0.001   0.000   0.000  -0.002   0.000  -0.003   0.003   0.001
 -0.002   0.001   0.000   0.001   0.000   0.004  -0.003   0.002
  0.001  -0.002   0.000   0.000   0.000  -0.003   0.004   0.001
  0.000  -0.001   0.000   0.000   0.000   0.000   0.000   0.000
  0.000   0.000   0.000   0.000   0.000   0.000   0.000   0.000
  0.000   0.000   0.000  -0.001   0.000   0.000   0.000   0.000
 pseudopotential strength for first ion, spin component:           2
-15.448   0.007   0.012   0.007   0.000   9.478  -0.006  -0.011
  0.007 -15.423   0.004  -0.013  -0.007  -0.006   9.455  -0.004
  0.012   0.004 -15.408   0.004   0.000  -0.011  -0.004   9.442
  0.007  -0.013   0.004 -15.423   0.007  -0.006   0.011  -0.004
  0.000  -0.007   0.000   0.007 -15.446   0.000   0.006   0.000
  9.478  -0.006  -0.011  -0.006   0.000  -3.753   0.004   0.009
 -0.006   9.455  -0.004   0.011   0.006   0.004  -3.733   0.003
 -0.011  -0.004   9.442  -0.004   0.000   0.009   0.003  -3.723
 -0.006   0.011  -0.004   9.455  -0.006   0.004  -0.009   0.003
  0.000   0.006   0.000  -0.006   9.477   0.000  -0.005   0.000
 -0.002   0.002  -0.001   0.002   0.000   0.004  -0.004  -0.001
  0.000   0.000   0.000   0.000   0.000   0.000   0.000   0.000
  0.001   0.000   0.000  -0.003   0.000  -0.003   0.002   0.001
 -0.003   0.001   0.000   0.001   0.000   0.004  -0.003   0.002
  0.001  -0.003   0.000   0.000   0.000  -0.003   0.004   0.001
  0.000  -0.001   0.000   0.000   0.000   0.000   0.000   0.000
  0.000   0.000   0.000   0.000   0.000   0.000   0.000   0.000
  0.000   0.000   0.000  -0.001   0.000   0.000   0.000   0.000
 total augmentation occupancy for first ion, spin component:           1
  2.056  -0.007  -0.004  -0.007   0.000   0.074  -0.008  -0.003  -0.008   0.000   0.012  -0.007  -0.020   0.128  -0.020   0.004
 -0.007   2.055  -0.002   0.005   0.003  -0.008   0.070  -0.001   0.004   0.002  -0.011   0.007   0.015  -0.017   0.128  -0.001
 -0.004  -0.002   2.023  -0.002   0.000  -0.003  -0.001   0.032  -0.001   0.000   0.008   0.000   0.008   0.016   0.008  -0.001
 -0.007   0.005  -0.002   2.055  -0.003  -0.008   0.004  -0.001   0.070  -0.002  -0.011   0.007   0.128  -0.017   0.015  -0.063
  0.000   0.003   0.000  -0.003   2.020   0.000   0.002   0.000  -0.002   0.026   0.000   0.000   0.011   0.000  -0.011   0.000
  0.074  -0.008  -0.003  -0.008   0.000   0.091  -0.009   0.000  -0.009   0.000   0.014  -0.009  -0.020   0.209  -0.020   0.008
 -0.008   0.070  -0.001   0.004   0.002  -0.009   0.084   0.001   0.002   0.000  -0.012   0.009   0.009  -0.014   0.208  -0.008
 -0.003  -0.001   0.032  -0.001   0.000   0.000   0.001   0.039   0.001   0.000   0.018   0.008   0.008   0.013   0.008  -0.003
 -0.008   0.004  -0.001   0.070  -0.002  -0.009   0.002   0.001   0.084   0.000  -0.012   0.009   0.208  -0.014   0.009  -0.070
  0.000   0.002   0.000  -0.002   0.026   0.000   0.000   0.000   0.000   0.028   0.000   0.000   0.009   0.000  -0.009  -0.003
  0.012  -0.011   0.008  -0.011   0.000   0.014  -0.012   0.018  -0.012   0.000   1.456  -0.308  -0.037   0.042  -0.037   0.011
 -0.007   0.007   0.000   0.007   0.000  -0.009   0.009   0.008   0.009   0.000  -0.308   0.156   0.015  -0.017   0.015  -0.014
 -0.020   0.015   0.008   0.128   0.011  -0.020   0.009   0.008   0.208   0.009  -0.037   0.015   0.945  -0.036   0.016  -0.283
  0.128  -0.017   0.016  -0.017   0.000   0.209  -0.014   0.013  -0.014   0.000   0.042  -0.017  -0.036   1.093  -0.036   0.010
 -0.020   0.128   0.008   0.015  -0.011  -0.020   0.208   0.008   0.009  -0.009  -0.037   0.015   0.016  -0.036   0.945  -0.009
  0.004  -0.001  -0.001  -0.063   0.000   0.008  -0.008  -0.003  -0.070  -0.003   0.011  -0.014  -0.283   0.010  -0.009   0.110
 -0.063   0.003   0.001   0.003   0.000  -0.072   0.008  -0.004   0.008   0.000  -0.011   0.014   0.010  -0.305   0.010  -0.009
  0.004  -0.063  -0.001  -0.001   0.000   0.008  -0.070  -0.003  -0.008   0.003   0.011  -0.014  -0.009   0.010  -0.283   0.009
 total augmentation occupancy for first ion, spin component:           2
  0.003  -0.002   0.000  -0.002   0.000   0.005  -0.003   0.000  -0.003   0.000   0.001   0.001  -0.005   0.001  -0.005   0.001
 -0.002   0.003   0.000  -0.002   0.000  -0.003   0.005   0.001  -0.003   0.000   0.000   0.000  -0.004  -0.001   0.008   0.001
  0.000   0.000   0.001   0.000   0.000   0.000   0.001   0.002   0.001   0.000   0.000   0.000   0.002  -0.001   0.002  -0.001
 -0.002  -0.002   0.000   0.003   0.000  -0.003  -0.003   0.001   0.005   0.000   0.000   0.000   0.008  -0.001  -0.004  -0.001
  0.000   0.000   0.000   0.000   0.000   0.000   0.000   0.000   0.000   0.000   0.000   0.000   0.000   0.000   0.000   0.000
  0.005  -0.003   0.000  -0.003   0.000   0.009  -0.005  -0.001  -0.005   0.000   0.002   0.001  -0.009   0.002  -0.009   0.001
 -0.003   0.005   0.001  -0.003   0.000  -0.005   0.009   0.001  -0.005   0.000  -0.001   0.000  -0.007  -0.001   0.015   0.001
  0.000   0.001   0.002   0.001   0.000  -0.001   0.001   0.004   0.001   0.000   0.001   0.000   0.004  -0.002   0.004  -0.001
 -0.003  -0.003   0.001   0.005   0.000  -0.005  -0.005   0.001   0.009   0.000  -0.001   0.000   0.015  -0.001  -0.007  -0.002
  0.000   0.000   0.000   0.000   0.000   0.000   0.000   0.000   0.000   0.000   0.000   0.000   0.001   0.000  -0.001   0.000
  0.001   0.000   0.000   0.000   0.000   0.002  -0.001   0.001  -0.001   0.000  -0.008  -0.004  -0.001   0.005  -0.001   0.001
  0.001   0.000   0.000   0.000   0.000   0.001   0.000   0.000   0.000   0.000  -0.004   0.001   0.000   0.003   0.000   0.000
 -0.005  -0.004   0.002   0.008   0.000  -0.009  -0.007   0.004   0.015   0.001  -0.001   0.000   0.028  -0.005  -0.015  -0.004
  0.001  -0.001  -0.001  -0.001   0.000   0.002  -0.001  -0.002  -0.001   0.000   0.005   0.003  -0.005  -0.012  -0.005   0.001
 -0.005   0.008   0.002  -0.004   0.000  -0.009   0.015   0.004  -0.007  -0.001  -0.001   0.000  -0.015  -0.005   0.028   0.002
  0.001   0.001  -0.001  -0.001   0.000   0.001   0.001  -0.001  -0.002   0.000   0.001   0.000  -0.004   0.001   0.002   0.001
 -0.001   0.000   0.000   0.000   0.000  -0.001   0.000   0.001   0.000   0.000   0.000  -0.001   0.001  -0.002   0.001   0.000
  0.001  -0.001  -0.001   0.001   0.000   0.001  -0.002  -0.001   0.001   0.000   0.001   0.000   0.002   0.001  -0.004   0.000


------------------------ aborting loop because EDIFF is reached ----------------------------------------




--------------------------------------------------------------------------------------------------------



  FREE ENERGIE OF THE ION-ELECTRON SYSTEM (eV)
  ---------------------------------------------------
  free  energy   TOTEN  =       -25.299979 eV

  energy  without entropy=      -25.313822  energy(sigma->0) =      -25.304594
 
    CHARGE:  cpu time    0.26: real time    0.20
    FORLOC:  cpu time    0.04: real time    0.04
    FORNL :  cpu time    1.42: real time    1.42
    STRESS:  cpu time    5.25: real time    1.54
    FORCOR:  cpu time    0.54: real time    0.54
    FORHAR:  cpu time    0.08: real time    0.08
    MIXING:  cpu time    0.03: real time    0.02

  FORCE on cell =-STRESS in cart. coord.  units (eV):
  Direction    XX          YY          ZZ          XY          YZ          ZX
  --------------------------------------------------------------------------------------
  Alpha Z   264.60571   264.60571   264.60571
  Ewald   -1577.77932 -1577.77932 -1577.77932  -160.21327  -160.21327  -160.21327
  Hartree  1032.02887  1032.02887  1032.02887  -109.60768  -109.60768  -109.60768
  E(xc)    -354.65161  -354.65161  -354.65161    -0.06841    -0.06841    -0.06841
  Local     -16.90359   -16.90359   -16.90359   270.81417   270.81417   270.81417
  n-local   180.35922   183.65516   183.65519    -2.81956    -2.93559    -2.81793
  augment     1.19462     1.19463     1.19461     1.34028     1.34029     1.34028
  Kinetic   474.40715   478.33563   478.33560    -2.72781    -3.60153    -2.72787
  Fock        0.00000     0.00000     0.00000     0.00000     0.00000     0.00000
  -------------------------------------------------------------------------------------
  Total       8.07733     8.07733     8.07733    -3.61167    -3.61167    -3.61167
  in kB      72.65079    72.65079    72.65079   -32.48480   -32.48480   -32.48480
  external pressure =       72.65 kB  Pullay stress =        0.00 kB


 VOLUME and BASIS-vectors are now :
 -----------------------------------------------------------------------------
  energy-cutoff  :      313.00
  volume of cell :      178.13
      direct lattice vectors                 reciprocal lattice vectors
     5.626600000  0.000000000  0.000000000     0.177727224  0.000000000  0.000000000
     0.000000000  5.626600000  0.000000000     0.000000000  0.177727224  0.000000000
     0.000000000  0.000000000  5.626600000     0.000000000  0.000000000  0.177727224

  length of vectors
     5.626600000  5.626600000  5.626600000     0.177727224  0.177727224  0.177727224


 FORCES acting on ions
    electron-ion (+dipol)            ewald-force                    non-local-force                 convergence-correction
 -----------------------------------------------------------------------------------------------
   -.137E+03 -.137E+03 0.136E+03   0.139E+03 0.139E+03 -.139E+03   -.975E+00 -.975E+00 0.157E+01   0.932E-02 0.932E-02 -.869E-02
   0.136E+03 -.137E+03 -.137E+03   -.139E+03 0.139E+03 0.139E+03   0.157E+01 -.975E+00 -.975E+00   -.867E-02 0.932E-02 0.934E-02
   -.137E+03 0.136E+03 -.137E+03   0.139E+03 -.139E+03 0.139E+03   -.975E+00 0.157E+01 -.975E+00   0.932E-02 -.867E-02 0.934E-02
   0.205E+03 0.205E+03 0.205E+03   -.209E+03 -.209E+03 -.209E+03   0.301E+01 0.301E+01 0.301E+01   -.321E-01 -.321E-01 -.321E-01
   -.685E+02 -.685E+02 0.684E+02   0.697E+02 0.697E+02 -.697E+02   -.838E+00 -.838E+00 0.106E+01   0.584E-02 0.584E-02 -.545E-02
   0.684E+02 -.685E+02 -.685E+02   -.697E+02 0.697E+02 0.697E+02   0.106E+01 -.838E+00 -.838E+00   -.544E-02 0.584E-02 0.584E-02
   -.685E+02 0.684E+02 -.685E+02   0.697E+02 -.697E+02 0.697E+02   -.838E+00 0.106E+01 -.838E+00   0.584E-02 -.544E-02 0.584E-02
 -----------------------------------------------------------------------------------------------
   -.200E+01 -.200E+01 -.200E+01   -.284E-13 0.142E-13 -.142E-13   0.201E+01 0.201E+01 0.201E+01   -.159E-01 -.159E-01 -.159E-01
 
 
 POSITION                                       TOTAL-FORCE (eV/Angst)
 -----------------------------------------------------------------------------------
      2.81330      2.81330      0.00000         1.405362      1.405362     -1.690681
      0.00000      2.81330      2.81330        -1.690681      1.405362      1.405362
      2.81330      0.00000      2.81330         1.405362     -1.690681      1.405362
      1.40665      1.40665      1.40665        -1.627548     -1.627548     -1.627548
      4.21995      4.21995      1.40665         0.379855      0.379855     -0.252207
      1.40665      4.21995      4.21995        -0.252207      0.379855      0.379855
      4.21995      1.40665      4.21995         0.379855     -0.252207      0.379855
 -----------------------------------------------------------------------------------
    total drift:                               -0.000934     -0.000934     -0.000934


--------------------------------------------------------------------------------------------------------


    POTLOK:  cpu time    0.72: real time    0.64


--------------------------------------------------------------------------------------------------------


  FORCES: max atom, RMS     2.818995    2.050392
  FORCE total and by dimension    5.424827    1.690681


--------------------------------------------------------------------------------------------------------


    WAVPRE:  cpu time    0.09: real time    0.09
    FEWALD:  cpu time    0.00: real time    0.00
    ORTHCH:  cpu time    0.69: real time    0.18
     LOOP+:  cpu time  157.94: real time   47.08
   RESPFUN:  cpu time    0.01: real time    0.00


----------------------------------------- Iteration    2(   1)  ---------------------------------------


    POTLOK:  cpu time    0.60: real time    0.51
    SETDIJ:  cpu time    0.13: real time    0.13
     EDDAV:  cpu time   12.69: real time    3.22
       DOS:  cpu time    0.01: real time    0.00
    CHARGE:  cpu time    0.30: real time    0.20
    MIXING:  cpu time    0.01: real time    0.01
    --------------------------------------------
      LOOP:  cpu time   13.74: real time    4.08

 eigenvalue-minimisations  :   470
 total energy-change (2. order) :-0.5243046E-02  (-0.3907969E+02)
 number of electron   69.0000716 magnetization    1.0348902
 augmentation part    28.6799635 magnetization   -0.0633658

 Broyden mixing:
  rms(total) = 0.10858E+00    rms(broyden)= 0.10814E+00
  rms(prec ) = 0.16873E+00
  weight for this iteration     100.00

 Free energy of the ion-electron system (eV)
  ---------------------------------------------------
  alpha Z        PSCENC =       264.60570703
  Ewald energy   TEWEN  =     -4861.18560154
  -1/2 Hartree   DENC   =     -2976.34712160
  -exchange  EXHF       =         0.00000000
  -V(xc)+E(xc)   XCENC  =       201.54120047
  PAW double counting   =      6184.69124530    -7161.80364295
  entropy T*S    EENTRO =         0.00799543
  eigenvalues    EBANDS =      -592.71343261
  atomic energy  EATOM  =      8915.89851451
  ---------------------------------------------------
  free energy    TOTEN  =       -25.30513596 eV

  energy without entropy =      -25.31313139  energy(sigma->0) =      -25.30780110


--------------------------------------------------------------------------------------------------------




----------------------------------------- Iteration    2(   2)  ---------------------------------------


    POTLOK:  cpu time    0.49: real time    0.49
    SETDIJ:  cpu time    0.13: real time    0.13
     EDDAV:  cpu time   11.55: real time    2.91
       DOS:  cpu time    0.01: real time    0.00
    CHARGE:  cpu time    0.30: real time    0.20
    MIXING:  cpu time    0.01: real time    0.01
    --------------------------------------------
      LOOP:  cpu time   12.50: real time    3.75

 eigenvalue-minimisations  :   400
 total energy-change (2. order) :-0.8838080E+00  (-0.8929371E+00)
 number of electron   69.0000715 magnetization    0.9920537
 augmentation part    28.6420957 magnetization   -0.0550340

 Broyden mixing:
  rms(total) = 0.58385E-01    rms(broyden)= 0.58304E-01
  rms(prec ) = 0.10274E+00
  weight for this iteration     100.00

 eigenvalues of (default mixing * dielectric matrix)
  average eigenvalue GAMMA=   0.9209
  0.9209

 Free energy of the ion-electron system (eV)
  ---------------------------------------------------
  alpha Z        PSCENC =       264.60570703
  Ewald energy   TEWEN  =     -4861.18560154
  -1/2 Hartree   DENC   =     -2974.84646779
  -exchange  EXHF       =         0.00000000
  -V(xc)+E(xc)   XCENC  =       201.53989428
  PAW double counting   =      6152.94373815    -7130.30091273
  entropy T*S    EENTRO =         0.00437340
  eigenvalues    EBANDS =      -594.84818923
  atomic energy  EATOM  =      8915.89851451
  ---------------------------------------------------
  free energy    TOTEN  =       -26.18894393 eV

  energy without entropy =      -26.19331733  energy(sigma->0) =      -26.19040173


--------------------------------------------------------------------------------------------------------




----------------------------------------- Iteration    2(   3)  ---------------------------------------


    POTLOK:  cpu time    0.49: real time    0.49
    SETDIJ:  cpu time    0.13: real time    0.13
     EDDAV:  cpu time   12.82: real time    3.26
       DOS:  cpu time    0.00: real time    0.00
    CHARGE:  cpu time    0.30: real time    0.20
    MIXING:  cpu time    0.02: real time    0.01
    --------------------------------------------
      LOOP:  cpu time   13.77: real time    4.10

 eigenvalue-minimisations  :   467
 total energy-change (2. order) :-0.9054416E-02  (-0.1328122E-01)
 number of electron   69.0000716 magnetization    0.9506922
 augmentation part    28.6407315 magnetization   -0.0807169

 Broyden mixing:
  rms(total) = 0.36293E-01    rms(broyden)= 0.36269E-01
  rms(prec ) = 0.58895E-01
  weight for this iteration     100.00

 eigenvalues of (default mixing * dielectric matrix)
  average eigenvalue GAMMA=   1.2371
  0.9878  1.4865

 Free energy of the ion-electron system (eV)
  ---------------------------------------------------
  alpha Z        PSCENC =       264.60570703
  Ewald energy   TEWEN  =     -4861.18560154
  -1/2 Hartree   DENC   =     -2975.25182262
  -exchange  EXHF       =         0.00000000
  -V(xc)+E(xc)   XCENC  =       201.57333286
  PAW double counting   =      6147.99356134    -7124.35270990
  entropy T*S    EENTRO =         0.00262845
  eigenvalues    EBANDS =      -595.48160848
  atomic energy  EATOM  =      8915.89851451
  ---------------------------------------------------
  free energy    TOTEN  =       -26.19799834 eV

  energy without entropy =      -26.20062679  energy(sigma->0) =      -26.19887449


--------------------------------------------------------------------------------------------------------




----------------------------------------- Iteration    2(   4)  ---------------------------------------


    POTLOK:  cpu time    0.52: real time    0.49
    SETDIJ:  cpu time    0.13: real time    0.13
     EDDAV:  cpu time   12.28: real time    3.10
       DOS:  cpu time    0.00: real time    0.00
    CHARGE:  cpu time    0.30: real time    0.20
    MIXING:  cpu time    0.02: real time    0.01
    --------------------------------------------
      LOOP:  cpu time   13.26: real time    3.95

 eigenvalue-minimisations  :   440
 total energy-change (2. order) : 0.4698715E-03  (-0.7338380E-03)
 number of electron   69.0000716 magnetization    0.9319516
 augmentation part    28.6418255 magnetization   -0.0782909

 Broyden mixing:
  rms(total) = 0.14336E-01    rms(broyden)= 0.14334E-01
  rms(prec ) = 0.21684E-01
  weight for this iteration     100.00

 eigenvalues of (default mixing * dielectric matrix)
  average eigenvalue GAMMA=   1.2907
  2.1225  1.0540  0.6957

 Free energy of the ion-electron system (eV)
  ---------------------------------------------------
  alpha Z        PSCENC =       264.60570703
  Ewald energy   TEWEN  =     -4861.18560154
  -1/2 Hartree   DENC   =     -2976.42808308
  -exchange  EXHF       =         0.00000000
  -V(xc)+E(xc)   XCENC  =       201.62517251
  PAW double counting   =      6144.43207531    -7119.83833478
  entropy T*S    EENTRO =         0.00090498
  eigenvalues    EBANDS =      -595.30788342
  atomic energy  EATOM  =      8915.89851451
  ---------------------------------------------------
  free energy    TOTEN  =       -26.19752847 eV

  energy without entropy =      -26.19843345  energy(sigma->0) =      -26.19783013


--------------------------------------------------------------------------------------------------------




----------------------------------------- Iteration    2(   5)  ---------------------------------------


    POTLOK:  cpu time    0.57: real time    0.52
    SETDIJ:  cpu time    0.13: real time    0.13
     EDDAV:  cpu time   11.27: real time    2.84
       DOS:  cpu time    0.01: real time    0.00
    CHARGE:  cpu time    0.30: real time    0.20
    MIXING:  cpu time    0.03: real time    0.01
    --------------------------------------------
      LOOP:  cpu time   12.31: real time    3.71

 eigenvalue-minimisations  :   390
 total energy-change (2. order) :-0.2629628E-03  (-0.1417015E-03)
 number of electron   69.0000716 magnetization    0.9267348
 augmentation part    28.6429722 magnetization   -0.0717452

 Broyden mixing:
  rms(total) = 0.58240E-02    rms(broyden)= 0.58236E-02
  rms(prec ) = 0.84542E-02
  weight for this iteration     100.00

 eigenvalues of (default mixing * dielectric matrix)
  average eigenvalue GAMMA=   1.3075
  2.5136  1.0220  1.0220  0.6725

 Free energy of the ion-electron system (eV)
  ---------------------------------------------------
  alpha Z        PSCENC =       264.60570703
  Ewald energy   TEWEN  =     -4861.18560154
  -1/2 Hartree   DENC   =     -2977.08342341
  -exchange  EXHF       =         0.00000000
  -V(xc)+E(xc)   XCENC  =       201.65370072
  PAW double counting   =      6142.42335039    -7117.23827230
  entropy T*S    EENTRO =         0.00011188
  eigenvalues    EBANDS =      -595.27187872
  atomic energy  EATOM  =      8915.89851451
  ---------------------------------------------------
  free energy    TOTEN  =       -26.19779143 eV

  energy without entropy =      -26.19790331  energy(sigma->0) =      -26.19782873


--------------------------------------------------------------------------------------------------------




----------------------------------------- Iteration    2(   6)  ---------------------------------------


    POTLOK:  cpu time    0.59: real time    0.52
    SETDIJ:  cpu time    0.13: real time    0.13
     EDDAV:  cpu time    9.40: real time    2.36
       DOS:  cpu time    0.01: real time    0.00
    --------------------------------------------
      LOOP:  cpu time   10.15: real time    3.02

 eigenvalue-minimisations  :   304
 total energy-change (2. order) :-0.2938569E-04  (-0.1323120E-04)
 number of electron   69.0000716 magnetization    0.9267348
 augmentation part    28.6429722 magnetization   -0.0717452

 Free energy of the ion-electron system (eV)
  ---------------------------------------------------
  alpha Z        PSCENC =       264.60570703
  Ewald energy   TEWEN  =     -4861.18560154
  -1/2 Hartree   DENC   =     -2977.27915244
  -exchange  EXHF       =         0.00000000
  -V(xc)+E(xc)   XCENC  =       201.66230792
  PAW double counting   =      6141.78501535    -7116.45796946
  entropy T*S    EENTRO =        -0.00005839
  eigenvalues    EBANDS =      -595.22658381
  atomic energy  EATOM  =      8915.89851451
  ---------------------------------------------------
  free energy    TOTEN  =       -26.19782082 eV

  energy without entropy =      -26.19776242  energy(sigma->0) =      -26.19780135


--------------------------------------------------------------------------------------------------------




 average (electrostatic) potential at core
  the test charge radii are     1.0314  1.0856  1.0621
  (the norm of the test charge is              1.0000)
       1 -30.1577       2 -30.1577       3 -30.1577       4-107.7783       5 -51.1186
       6 -51.1186       7 -51.1186
 
 
 
 E-fermi :   3.6076     XC(G=0):  -9.3738     alpha+bet : -8.9697
   add alpha+bet to get absolut eigen values

 spin component 1

 k-point   1 :       0.2500    0.2500    0.2500
  band No.  band energies     occupation 
      1     -19.4587      1.00000
      2     -19.4574      1.00000
      3     -19.4574      1.00000
      4     -19.3764      1.00000
      5     -19.3764      1.00000
      6     -11.6932      1.00000
      7     -11.6548      1.00000
      8     -11.6548      1.00000
      9     -11.6124      1.00000
     10     -11.5824      1.00000
     11     -11.5824      1.00000
     12     -11.5561      1.00000
     13     -11.5561      1.00000
     14     -11.5316      1.00000
     15     -11.5287      1.00000
     16     -11.5287      1.00000
     17     -11.5229      1.00000
     18     -11.4966      1.00000
     19     -11.4808      1.00000
     20     -11.4808      1.00000
     21      -8.7087      1.00000
     22      -7.3519      1.00000
     23      -7.3519      1.00000
     24      -7.1241      1.00000
     25      -2.8522      1.00000
     26      -2.8522      1.00000
     27      -1.5145      1.00000
     28       0.0307      1.00000
     29       0.0307      1.00000
     30       0.4453      1.00000
     31       1.1612      1.00000
     32       1.9750      1.00000
     33       2.3169      1.00000
     34       2.3169      1.00000
     35       3.4526      0.98332
     36       3.4526      0.98331
     37       5.5621      0.00000
     38       6.0597      0.00000
     39       6.0597      0.00000
     40       7.3761      0.00000
     41       8.1766      0.00000
     42       8.1766      0.00000
     43       8.8534      0.00000
     44       8.8534      0.00000
     45       9.0326      0.00000

 k-point   2 :      -0.2500    0.2500    0.2500
  band No.  band energies     occupation 
      1     -19.4587      1.00000
      2     -19.4576      1.00000
      3     -19.4574      1.00000
      4     -19.3763      1.00000
      5     -19.3762      1.00000
      6     -11.6836      1.00000
      7     -11.6607      1.00000
      8     -11.6575      1.00000
      9     -11.6184      1.00000
     10     -11.5817      1.00000
     11     -11.5814      1.00000
     12     -11.5549      1.00000
     13     -11.5535      1.00000
     14     -11.5410      1.00000
     15     -11.5293      1.00000
     16     -11.5276      1.00000
     17     -11.5149      1.00000
     18     -11.4962      1.00000
     19     -11.4810      1.00000
     20     -11.4809      1.00000
     21      -8.6856      1.00000
     22      -7.4707      1.00000
     23      -7.3509      1.00000
     24      -7.0194      1.00000
     25      -3.0361      1.00000
     26      -2.8844      1.00000
     27      -1.2151      1.00000
     28       0.1220      1.00000
     29       0.2115      1.00000
     30       0.5135      1.00000
     31       1.3148      1.00000
     32       1.7023      1.00000
     33       1.8842      1.00000
     34       2.0260      1.00000
     35       3.5693      0.65883
     36       3.8177     -0.02961
     37       5.1263      0.00000
     38       5.7872      0.00000
     39       5.9989      0.00000
     40       7.6731      0.00000
     41       8.2547      0.00000
     42       8.3980      0.00000
     43       8.7779      0.00000
     44       9.0135      0.00000
     45       9.5467      0.00000

 spin component 2

 k-point   1 :       0.2500    0.2500    0.2500
  band No.  band energies     occupation 
      1     -19.4482      1.00000
      2     -19.4420      1.00000
      3     -19.4420      1.00000
      4     -19.3500      1.00000
      5     -19.3500      1.00000
      6     -11.6792      1.00000
      7     -11.6413      1.00000
      8     -11.6413      1.00000
      9     -11.6062      1.00000
     10     -11.5718      1.00000
     11     -11.5718      1.00000
     12     -11.5502      1.00000
     13     -11.5502      1.00000
     14     -11.5231      1.00000
     15     -11.5227      1.00000
     16     -11.5227      1.00000
     17     -11.5150      1.00000
     18     -11.4921      1.00000
     19     -11.4764      1.00000
     20     -11.4764      1.00000
     21      -8.5872      1.00000
     22      -7.1888      1.00000
     23      -7.1888      1.00000
     24      -7.0075      1.00000
     25      -2.7555      1.00000
     26      -2.7555      1.00000
     27      -1.4092      1.00000
     28       0.1065      1.00000
     29       0.1065      1.00000
     30       0.6343      1.00000
     31       1.2933      1.00000
     32       2.0186      1.00000
     33       2.4988      1.00000
     34       2.4988      1.00000
     35       3.6986      0.15556
     36       3.6986      0.15556
     37       5.6082      0.00000
     38       6.1358      0.00000
     39       6.1358      0.00000
     40       7.4569      0.00000
     41       8.2697      0.00000
     42       8.2697      0.00000
     43       8.9559      0.00000
     44       8.9559      0.00000
     45       9.1166      0.00000

 k-point   2 :      -0.2500    0.2500    0.2500
  band No.  band energies     occupation 
      1     -19.4482      1.00000
      2     -19.4422      1.00000
      3     -19.4421      1.00000
      4     -19.3499      1.00000
      5     -19.3498      1.00000
      6     -11.6696      1.00000
      7     -11.6489      1.00000
      8     -11.6441      1.00000
      9     -11.6063      1.00000
     10     -11.5765      1.00000
     11     -11.5712      1.00000
     12     -11.5480      1.00000
[...]
     27      -1.5232      1.00000
     28       0.1057      1.00000
     29       0.1057      1.00000
     30       0.4483      1.00000
     31       1.4064      1.00000
     32       1.5017      1.00000
     33       2.5317      1.00000
     34       2.5317      1.00000
     35       3.8628      0.81920
     36       3.8628      0.81920
     37       5.9954      0.00000
     38       5.9954      0.00000
     39       6.0972      0.00000
     40       7.0697      0.00000
     41       8.1571      0.00000
     42       8.1571      0.00000
     43       8.5409      0.00000
     44       8.5409      0.00000
     45       9.1989      0.00000

 k-point   2 :      -0.2500    0.2500    0.2500
  band No.  band energies     occupation 
      1     -19.4304      1.00000
      2     -19.4196      1.00000
      3     -19.4195      1.00000
      4     -19.3620      1.00000
      5     -19.3619      1.00000
      6     -11.4336      1.00000
      7     -11.4119      1.00000
      8     -11.3997      1.00000
      9     -11.3615      1.00000
     10     -11.3538      1.00000
     11     -11.3474      1.00000
     12     -11.3349      1.00000
     13     -11.3341      1.00000
     14     -11.3126      1.00000
     15     -11.3122      1.00000
     16     -11.3011      1.00000
     17     -11.2984      1.00000
     18     -11.2948      1.00000
     19     -11.2940      1.00000
     20     -11.2802      1.00000
     21      -8.4008      1.00000
     22      -7.2021      1.00000
     23      -7.0466      1.00000
     24      -6.4920      1.00000
     25      -2.8020      1.00000
     26      -2.3842      1.00000
     27      -1.4718      1.00000
     28       0.3542      1.00000
     29       0.4279      1.00000
     30       0.7239      1.00000
     31       1.6392      1.00000
     32       1.8321      1.00000
     33       2.1054      1.00000
     34       2.4268      1.00000
     35       4.0344      0.16203
     36       4.1957     -0.03536
     37       5.3130      0.00000
     38       5.4940      0.00000
     39       5.6659      0.00000
     40       6.7991      0.00000
     41       8.0597      0.00000
     42       8.1486      0.00000
     43       8.5931      0.00000
     44       8.7562      0.00000
     45       9.2129      0.00000

 spin component 2

 k-point   1 :       0.2500    0.2500    0.2500
  band No.  band energies     occupation 
      1     -19.4301      1.00000
      2     -19.4191      1.00000
      3     -19.4191      1.00000
      4     -19.3615      1.00000
      5     -19.3615      1.00000
      6     -11.4243      1.00000
      7     -11.4105      1.00000
      8     -11.4105      1.00000
      9     -11.3618      1.00000
     10     -11.3472      1.00000
     11     -11.3472      1.00000
     12     -11.3366      1.00000
     13     -11.3366      1.00000
     14     -11.3150      1.00000
     15     -11.3071      1.00000
     16     -11.3024      1.00000
     17     -11.3024      1.00000
     18     -11.2898      1.00000
     19     -11.2898      1.00000
     20     -11.2878      1.00000
     21      -8.3740      1.00000
     22      -7.0558      1.00000
     23      -7.0558      1.00000
     24      -6.7790      1.00000
     25      -2.2416      1.00000
     26      -2.2416      1.00000
     27      -1.5222      1.00000
     28       0.1069      1.00000
     29       0.1069      1.00000
     30       0.4493      1.00000
     31       1.4073      1.00000
     32       1.5029      1.00000
     33       2.5334      1.00000
     34       2.5334      1.00000
     35       3.8649      0.81251
     36       3.8649      0.81251
     37       5.9965      0.00000
     38       5.9965      0.00000
     39       6.0977      0.00000
     40       7.0707      0.00000
     41       8.1584      0.00000
     42       8.1584      0.00000
     43       8.5423      0.00000
     44       8.5423      0.00000
     45       9.1997      0.00000

 k-point   2 :      -0.2500    0.2500    0.2500
  band No.  band energies     occupation 
      1     -19.4301      1.00000
      2     -19.4194      1.00000
      3     -19.4192      1.00000
      4     -19.3614      1.00000
      5     -19.3613      1.00000
      6     -11.4335      1.00000
      7     -11.4118      1.00000
      8     -11.3995      1.00000
      9     -11.3614      1.00000
     10     -11.3537      1.00000
     11     -11.3472      1.00000
     12     -11.3348      1.00000
     13     -11.3340      1.00000
     14     -11.3125      1.00000
     15     -11.3122      1.00000
     16     -11.3010      1.00000
     17     -11.2983      1.00000
     18     -11.2948      1.00000
     19     -11.2939      1.00000
     20     -11.2801      1.00000
     21      -8.3995      1.00000
     22      -7.2008      1.00000
     23      -7.0456      1.00000
     24      -6.4904      1.00000
     25      -2.8013      1.00000
     26      -2.3830      1.00000
     27      -1.4707      1.00000
     28       0.3553      1.00000
     29       0.4291      1.00000
     30       0.7254      1.00000
     31       1.6408      1.00000
     32       1.8330      1.00000
     33       2.1072      1.00000
     34       2.4277      1.00000
     35       4.0370      0.15416
     36       4.1969     -0.03531
     37       5.3139      0.00000
     38       5.4950      0.00000
     39       5.6672      0.00000
     40       6.8003      0.00000
     41       8.0607      0.00000
     42       8.1497      0.00000
     43       8.5942      0.00000
     44       8.7572      0.00000
     45       9.2141      0.00000


--------------------------------------------------------------------------------------------------------


 soft charge-density along one line, spin component           1
         0         1         2         3         4         5         6         7         8         9
 total charge-density along one line
 
 soft charge-density along one line, spin component           2
         0         1         2         3         4         5         6         7         8         9
 total charge-density along one line
 
 pseudopotential strength for first ion, spin component:           1
-15.184   0.013   0.023   0.013   0.000   9.233  -0.011  -0.021
  0.013 -15.196   0.007  -0.020  -0.012  -0.011   9.243  -0.006
  0.023   0.007 -15.198   0.007   0.000  -0.021  -0.006   9.245
  0.013  -0.020   0.007 -15.196   0.012  -0.011   0.019  -0.006
  0.000  -0.012   0.000   0.012 -15.183   0.000   0.011   0.000
  9.233  -0.011  -0.021  -0.011   0.000  -3.528   0.010   0.020
 -0.011   9.243  -0.006   0.019   0.011   0.010  -3.538   0.006
 -0.021  -0.006   9.245  -0.006   0.000   0.020   0.006  -3.541
 -0.011   0.019  -0.006   9.243  -0.011   0.010  -0.017   0.006
  0.000   0.011   0.000  -0.011   9.232   0.000  -0.010   0.000
  0.001  -0.001   0.001  -0.001   0.000   0.000   0.000  -0.001
  0.000   0.000   0.000   0.000   0.000   0.000   0.000   0.000
  0.000   0.003   0.000  -0.001   0.000   0.001  -0.003   0.000
 -0.001   0.000   0.002   0.000   0.000   0.002   0.001  -0.003
  0.000  -0.001   0.000   0.003   0.000   0.001   0.002   0.000
  0.000   0.000   0.000   0.000   0.000   0.000   0.000   0.000
  0.000   0.000   0.000   0.000   0.000   0.000   0.000   0.000
  0.000   0.000   0.000   0.000   0.000   0.000   0.000   0.000
 pseudopotential strength for first ion, spin component:           2
-15.184   0.013   0.023   0.013   0.000   9.233  -0.011  -0.021
  0.013 -15.196   0.007  -0.020  -0.012  -0.011   9.243  -0.006
  0.023   0.007 -15.198   0.007   0.000  -0.021  -0.006   9.245
  0.013  -0.020   0.007 -15.196   0.012  -0.011   0.019  -0.006
  0.000  -0.012   0.000   0.012 -15.183   0.000   0.011   0.000
  9.233  -0.011  -0.021  -0.011   0.000  -3.528   0.010   0.020
 -0.011   9.243  -0.006   0.019   0.011   0.010  -3.538   0.006
 -0.021  -0.006   9.245  -0.006   0.000   0.020   0.006  -3.541
 -0.011   0.019  -0.006   9.243  -0.011   0.010  -0.017   0.006
  0.000   0.011   0.000  -0.011   9.232   0.000  -0.010   0.000
  0.001  -0.001   0.001  -0.001   0.000   0.000   0.000  -0.001
  0.000   0.000   0.000   0.000   0.000   0.000   0.000   0.000
  0.000   0.003   0.000  -0.001   0.000   0.001  -0.003   0.000
 -0.001   0.000   0.002   0.000   0.000   0.002   0.001  -0.003
  0.000  -0.001   0.000   0.003   0.000   0.001   0.002   0.000
  0.000   0.000   0.000   0.000   0.000   0.000   0.000   0.000
  0.000   0.000   0.000   0.000   0.000   0.000   0.000   0.000
  0.000   0.000   0.000   0.000   0.000   0.000   0.000   0.000
 total augmentation occupancy for first ion, spin component:           1
  2.044   0.007   0.007   0.007   0.000   0.064   0.009   0.009   0.009   0.000  -0.014   0.025   0.015   0.107   0.015  -0.006
  0.007   2.025   0.001  -0.009  -0.003   0.009   0.038   0.002  -0.012  -0.003   0.011  -0.014  -0.034   0.028   0.084   0.015
  0.007   0.001   2.006   0.001   0.000   0.009   0.002   0.014   0.002   0.000  -0.011   0.016   0.002   0.002   0.002  -0.004
  0.007  -0.009   0.001   2.025   0.003   0.009  -0.012   0.002   0.038   0.003   0.011  -0.014   0.084   0.028  -0.034  -0.043
  0.000  -0.003   0.000   0.003   2.010   0.000  -0.003   0.000   0.003   0.018   0.000   0.000   0.002   0.000  -0.002  -0.005
  0.064   0.009   0.009   0.009   0.000   0.087   0.013   0.010   0.013   0.000  -0.029   0.019   0.024   0.181   0.024  -0.011
  0.009   0.038   0.002  -0.012  -0.003   0.013   0.051   0.001  -0.015  -0.003   0.024  -0.011  -0.055   0.046   0.140   0.017
  0.009   0.002   0.014   0.002   0.000   0.010   0.001   0.023   0.001   0.000  -0.023   0.015   0.005   0.004   0.005  -0.002
  0.009  -0.012   0.002   0.038   0.003   0.013  -0.015   0.001   0.051   0.003   0.024  -0.011   0.140   0.046  -0.055  -0.046
  0.000  -0.003   0.000   0.003   0.018   0.000  -0.003   0.000   0.003   0.024   0.000   0.000   0.007   0.000  -0.007  -0.002
 -0.014   0.011  -0.011   0.011   0.000  -0.029   0.024  -0.023   0.024   0.000   1.507  -0.232  -0.024  -0.002  -0.024  -0.005
  0.025  -0.014   0.016  -0.014   0.000   0.019  -0.011   0.015  -0.011   0.000  -0.232   0.111  -0.029   0.035  -0.029   0.011
  0.015  -0.034   0.002   0.084   0.002   0.024  -0.055   0.005   0.140   0.007  -0.024  -0.029   0.825   0.060  -0.143  -0.237
  0.107   0.028   0.002   0.028   0.000   0.181   0.046   0.004   0.046   0.000  -0.002   0.035   0.060   0.776   0.060  -0.029
  0.015   0.084   0.002  -0.034  -0.002   0.024   0.140   0.005  -0.055  -0.007  -0.024  -0.029  -0.143   0.060   0.825   0.045
 -0.006   0.015  -0.004  -0.043  -0.005  -0.011   0.017  -0.002  -0.046  -0.002  -0.005   0.011  -0.237  -0.029   0.045   0.086
 -0.045  -0.009  -0.001  -0.009   0.000  -0.050  -0.014  -0.001  -0.014   0.000   0.024  -0.016  -0.029  -0.193  -0.029   0.013
 -0.006  -0.043  -0.004   0.015   0.005  -0.011  -0.046  -0.002   0.017   0.002  -0.005   0.011   0.045  -0.029  -0.237  -0.019
 total augmentation occupancy for first ion, spin component:           2
  0.000   0.000   0.000   0.000   0.000   0.000   0.000   0.000   0.000   0.000   0.000   0.000   0.000   0.000   0.000   0.000
  0.000   0.000   0.000   0.000   0.000   0.000   0.000   0.000   0.000   0.000   0.000   0.000   0.000   0.000   0.000   0.000
  0.000   0.000   0.000   0.000   0.000   0.000   0.000   0.000   0.000   0.000   0.000   0.000   0.000   0.000   0.000   0.000
  0.000   0.000   0.000   0.000   0.000   0.000   0.000   0.000   0.000   0.000   0.000   0.000   0.000   0.000   0.000   0.000
  0.000   0.000   0.000   0.000   0.000   0.000   0.000   0.000   0.000   0.000   0.000   0.000   0.000   0.000   0.000   0.000
  0.000   0.000   0.000   0.000   0.000   0.000   0.000   0.000   0.000   0.000   0.000   0.000   0.000   0.000   0.000   0.000
  0.000   0.000   0.000   0.000   0.000   0.000   0.000   0.000   0.000   0.000   0.000   0.000   0.000   0.000   0.000   0.000
  0.000   0.000   0.000   0.000   0.000   0.000   0.000   0.000   0.000   0.000   0.000   0.000   0.000   0.000   0.000   0.000
  0.000   0.000   0.000   0.000   0.000   0.000   0.000   0.000   0.000   0.000   0.000   0.000   0.000   0.000   0.000   0.000
  0.000   0.000   0.000   0.000   0.000   0.000   0.000   0.000   0.000   0.000   0.000   0.000   0.000   0.000   0.000   0.000
  0.000   0.000   0.000   0.000   0.000   0.000   0.000   0.000   0.000   0.000   0.000   0.000   0.000   0.000   0.000   0.000
  0.000   0.000   0.000   0.000   0.000   0.000   0.000   0.000   0.000   0.000   0.000   0.000   0.000   0.000   0.000   0.000
  0.000   0.000   0.000   0.000   0.000   0.000   0.000   0.000   0.000   0.000   0.000   0.000   0.000   0.000   0.000   0.000
  0.000   0.000   0.000   0.000   0.000   0.000   0.000   0.000   0.000   0.000   0.000   0.000   0.000   0.000   0.000   0.000
  0.000   0.000   0.000   0.000   0.000   0.000   0.000   0.000   0.000   0.000   0.000   0.000   0.000   0.000   0.000   0.000
  0.000   0.000   0.000   0.000   0.000   0.000   0.000   0.000   0.000   0.000   0.000   0.000   0.000   0.000   0.000   0.000
  0.000   0.000   0.000   0.000   0.000   0.000   0.000   0.000   0.000   0.000   0.000   0.000   0.000   0.000   0.000   0.000
  0.000   0.000   0.000   0.000   0.000   0.000   0.000   0.000   0.000   0.000   0.000   0.000   0.000   0.000   0.000   0.000


------------------------ aborting loop because EDIFF is reached ----------------------------------------




--------------------------------------------------------------------------------------------------------



  FREE ENERGIE OF THE ION-ELECTRON SYSTEM (eV)
  ---------------------------------------------------
  free  energy   TOTEN  =       -27.045338 eV

  energy  without entropy=      -27.027783  energy(sigma->0) =      -27.039486
 
    CHARGE:  cpu time    0.27: real time    0.21
    FORLOC:  cpu time    0.04: real time    0.04
    FORNL :  cpu time    1.43: real time    1.43
    STRESS:  cpu time    5.25: real time    1.55
    FORCOR:  cpu time    0.54: real time    0.54
    FORHAR:  cpu time    0.08: real time    0.08
    MIXING:  cpu time    0.01: real time    0.01

  FORCE on cell =-STRESS in cart. coord.  units (eV):
  Direction    XX          YY          ZZ          XY          YZ          ZX
  --------------------------------------------------------------------------------------
  Alpha Z   264.60571   264.60571   264.60571
  Ewald   -1698.44345 -1698.44345 -1698.44345    12.05007    12.05007    12.05007
  Hartree   919.77524   919.77524   919.77524    -6.25153    -6.25153    -6.25153
  E(xc)    -353.61343  -353.61343  -353.61343     0.12412     0.12412     0.12412
  Local     225.34580   225.34580   225.34580    -4.00913    -4.00913    -4.00913
  n-local   169.94955   172.54030   172.54028    -0.76777     0.27482    -0.76891
  augment     0.15221     0.15225     0.15223     0.50845     0.50846     0.50849
  Kinetic   470.28085   471.30923   471.30925    -4.71510    -5.90323    -4.71511
  Fock        0.00000     0.00000     0.00000     0.00000     0.00000     0.00000
  -------------------------------------------------------------------------------------
  Total       0.46525     0.46525     0.46525    -3.10977    -3.10977    -3.10977
  in kB       4.18465     4.18465     4.18465   -27.97053   -27.97053   -27.97053
  external pressure =        4.18 kB  Pullay stress =        0.00 kB


 VOLUME and BASIS-vectors are now :
 -----------------------------------------------------------------------------
  energy-cutoff  :      313.00
  volume of cell :      178.13
      direct lattice vectors                 reciprocal lattice vectors
     5.626600000  0.000000000  0.000000000     0.177727224  0.000000000  0.000000000
     0.000000000  5.626600000  0.000000000     0.000000000  0.177727224  0.000000000
     0.000000000  0.000000000  5.626600000     0.000000000  0.000000000  0.177727224

  length of vectors
     5.626600000  5.626600000  5.626600000     0.177727224  0.177727224  0.177727224


 FORCES acting on ions
    electron-ion (+dipol)            ewald-force                    non-local-force                 convergence-correction
 -----------------------------------------------------------------------------------------------
   -.360E+02 -.360E+02 -.101E+02   0.348E+02 0.348E+02 0.957E+01   0.124E+01 0.124E+01 0.521E+00   -.459E-02 -.459E-02 0.308E-02
   -.101E+02 -.360E+02 -.360E+02   0.957E+01 0.348E+02 0.348E+02   0.521E+00 0.124E+01 0.124E+01   0.308E-02 -.461E-02 -.459E-02
   -.360E+02 -.101E+02 -.360E+02   0.348E+02 0.957E+01 0.348E+02   0.124E+01 0.521E+00 0.124E+01   -.461E-02 0.308E-02 -.459E-02
   0.854E+02 0.854E+02 0.854E+02   -.846E+02 -.846E+02 -.846E+02   -.805E+00 -.805E+00 -.805E+00   0.299E-01 0.299E-01 0.299E-01
   -.328E+02 -.328E+02 0.606E+02   0.335E+02 0.335E+02 -.615E+02   -.674E+00 -.674E+00 0.970E+00   -.584E-02 -.584E-02 0.313E-02
   0.606E+02 -.328E+02 -.328E+02   -.615E+02 0.335E+02 0.335E+02   0.970E+00 -.674E+00 -.674E+00   0.314E-02 -.584E-02 -.584E-02
   -.328E+02 0.606E+02 -.328E+02   0.335E+02 -.615E+02 0.335E+02   -.674E+00 0.970E+00 -.674E+00   -.584E-02 0.314E-02 -.584E-02
 -----------------------------------------------------------------------------------------------
   -.182E+01 -.182E+01 -.182E+01   0.213E-13 0.284E-13 0.142E-13   0.181E+01 0.181E+01 0.181E+01   0.153E-01 0.153E-01 0.153E-01
 
 
 POSITION                                       TOTAL-FORCE (eV/Angst)
 -----------------------------------------------------------------------------------
      2.92886      2.92886     -0.06028        -0.012328     -0.012328     -0.001346
     -0.06028      2.92886      2.92886        -0.001346     -0.012328     -0.012328
      2.92886     -0.06028      2.92886        -0.012328     -0.001346     -0.012328
      0.94047      0.94047      0.94047         0.003769      0.003769      0.003769
      4.39260      4.39260      1.35670        -0.006630     -0.006630      0.035493
      1.35670      4.39260      4.39260         0.035493     -0.006630     -0.006630
      4.39260      1.35670      4.39260        -0.006630      0.035493     -0.006630
 -----------------------------------------------------------------------------------
    total drift:                                0.010820      0.010820      0.010830
 d Force =-0.1820817E-05[-0.644E-04, 0.608E-04]  d Energy =-0.1799621E-05-0.212E-07
 d Force = 0.3938809E+00[ 0.393E+00, 0.395E+00]  d Ewald  = 0.3938808E+00 0.104E-06


--------------------------------------------------------------------------------------------------------


    POTLOK:  cpu time    0.65: real time    0.65


--------------------------------------------------------------------------------------------------------


  FORCES: max atom, RMS     0.036711    0.026734
  FORCE total and by dimension    0.070732    0.035493


--------------------------------------------------------------------------------------------------------


  
 reached required accuracy - stopping structural energy minimisation
     LOOP+:  cpu time   31.63: real time   11.56
    4ORBIT:  cpu time    0.00: real time    0.00

 total amount of memory used by VASP on root node  54270. kBytes
========================================================================

   base      :    30000. kBytes
   nonl-proj :     2184. kBytes
   fftplans  :     3916. kBytes
   grid      :    11188. kBytes
   one-center:      217. kBytes
   wavefun   :     6765. kBytes
 
  
  
 General timing and accounting informations for this job:
 ========================================================
  
                  Total CPU time used (sec):     1094.445
                            User time (sec):     1090.433
                          System time (sec):        4.011
                         Elapsed time (sec):      357.317
  
                   Maximum memory used (kb):           0.
                   Average memory used (kb):           0.
  
                          Minor page faults:       248239
                          Major page faults:            0
                 Voluntary context switches:         2463
