       N       E                     dE             d eps       ncg     rms          rms(c)
DAV:   1     0.515896007336E+01    0.51590E+01   -0.30317E+03    20   0.554E+02
DAV:   2    -0.137362870800E+02   -0.18895E+02   -0.18825E+02    30   0.977E+01
DAV:   3    -0.140960130142E+02   -0.35973E+00   -0.28106E+00    22   0.106E+01
DAV:   4    -0.140988442450E+02   -0.28312E-02   -0.28261E-02    36   0.111E+00
DAV:   5    -0.140988443458E+02   -0.10078E-06   -0.10093E-06    22   0.677E-03    0.173E+00
DAV:   6    -0.140555469862E+02    0.43297E-01   -0.59347E-03    36   0.540E-01    0.108E+00
DAV:   7    -0.140255141380E+02    0.30033E-01   -0.17200E-02    28   0.994E-01    0.503E-02
DAV:   8    -0.140255479460E+02   -0.33808E-04   -0.82838E-05    36   0.866E-02
   1 F= -.14025548E+02 E0= -.13975767E+02  d E =-.149344E+00
