  33  33   0   0
  0.1602710E+02  0.8087040E-09  0.8087040E-09  0.8087040E-09  0.5000000E-15
  1.000000000000000E-004
  CAR 
 unknown system                          
     16.74723673     -4.67230005  301      8.28390688      1.00000000
     -4.672  0.0000E+00  0.0000E+00
     -4.601  0.0000E+00  0.0000E+00
     -4.530  0.0000E+00  0.0000E+00
     -4.458  0.0000E+00  0.0000E+00
     -4.387  0.0000E+00  0.0000E+00
     -4.315 -0.3162E-27 -0.2257E-28
     -4.244 -0.9359E-25 -0.6705E-26
     -4.173 -0.2148E-22 -0.1540E-23
     -4.101 -0.3811E-20 -0.2736E-21
     -4.030 -0.5225E-18 -0.3758E-19
     -3.958 -0.5533E-16 -0.3988E-17
     -3.887 -0.4525E-14 -0.3270E-15
     -3.816 -0.2762E-12 -0.2005E-13
     -3.744 -0.1342E-10 -0.9780E-12
     -3.673 -0.5004E-09 -0.3670E-10
     -3.601 -0.1434E-07 -0.1061E-08
     -3.530 -0.3154E-06 -0.2358E-07
     -3.459 -0.5307E-05 -0.4025E-06
     -3.387 -0.6808E-04 -0.5263E-05
     -3.316 -0.6623E-03 -0.5255E-04
     -3.244 -0.4847E-02 -0.3986E-03
     -3.173 -0.2633E-01 -0.2279E-02
     -3.102 -0.1036E+00 -0.9677E-02
     -3.030 -0.2800E+00 -0.2967E-01
     -2.959 -0.4394E+00 -0.6104E-01
     -2.887 -0.2192E-01 -0.6260E-01
     -2.816  0.1823E+01  0.6756E-01
     -2.745  0.5076E+01  0.4300E+00
     -2.673  0.7873E+01  0.9921E+00
     -2.602  0.7916E+01  0.1557E+01
     -2.530  0.5167E+01  0.1926E+01
     -2.459  0.1894E+01  0.2061E+01
     -2.388  0.4932E-02  0.2062E+01
     -2.316 -0.4408E+00  0.2030E+01
     -2.245 -0.2952E+00  0.2009E+01
     -2.173 -0.1589E+00  0.1998E+01
     -2.102 -0.2322E+00  0.1981E+01
     -2.031 -0.5593E+00  0.1941E+01
     -1.959 -0.8754E+00  0.1879E+01
     -1.888 -0.6529E-01  0.1874E+01
     -1.816  0.3550E+01  0.2128E+01
     -1.745  0.9923E+01  0.2836E+01
     -1.674  0.1535E+02  0.3932E+01
     -1.602  0.1542E+02  0.5034E+01
     -1.531  0.1062E+02  0.5792E+01
     -1.459  0.6201E+01  0.6234E+01
     -1.388  0.5696E+01  0.6641E+01
     -1.317  0.7197E+01  0.7155E+01
     -1.245  0.6988E+01  0.7654E+01
     -1.174  0.4357E+01  0.7965E+01
     -1.102  0.1398E+01  0.8065E+01
     -1.031 -0.2510E+00  0.8047E+01
     -0.960 -0.7858E+00  0.7991E+01
     -0.888 -0.1010E+01  0.7919E+01
     -0.817 -0.7887E+00  0.7862E+01
     -0.745  0.1349E+01  0.7959E+01
     -0.674  0.6637E+01  0.8432E+01
     -0.603  0.1326E+02  0.9379E+01
     -0.531  0.1642E+02  0.1055E+02
     -0.460  0.1325E+02  0.1150E+02
     -0.388  0.6533E+01  0.1196E+02
     -0.317  0.1731E+01  0.1209E+02
     -0.246  0.1658E+01  0.1221E+02
     -0.174  0.4890E+01  0.1255E+02
     -0.103  0.7735E+01  0.1311E+02
     -0.031  0.7468E+01  0.1364E+02
      0.040  0.4526E+01  0.1396E+02
      0.111  0.1381E+01  0.1406E+02
      0.183 -0.3978E+00  0.1403E+02
      0.254 -0.1102E+01  0.1395E+02
      0.326 -0.1348E+01  0.1386E+02
      0.397 -0.3734E+00  0.1383E+02
      0.468  0.3814E+01  0.1410E+02
      0.540  0.1174E+02  0.1494E+02
      0.611  0.1980E+02  0.1636E+02
      0.683  0.2245E+02  0.1796E+02
      0.754  0.1836E+02  0.1927E+02
      0.825  0.1212E+02  0.2013E+02
      0.897  0.8551E+01  0.2075E+02
      0.968  0.7573E+01  0.2129E+02
      1.040  0.6266E+01  0.2173E+02
      1.111  0.3562E+01  0.2199E+02
      1.182  0.7868E+00  0.2204E+02
      1.254 -0.9502E+00  0.2198E+02
      1.325 -0.1576E+01  0.2186E+02
      1.397 -0.4484E+00  0.2183E+02
      1.468  0.4236E+01  0.2213E+02
      1.539  0.1274E+02  0.2304E+02
      1.611  0.2081E+02  0.2453E+02
      1.682  0.2251E+02  0.2614E+02
      1.754  0.1739E+02  0.2738E+02
      1.825  0.1197E+02  0.2823E+02
      1.896  0.1180E+02  0.2908E+02
      1.968  0.1521E+02  0.3016E+02
      2.039  0.1697E+02  0.3137E+02
      2.111  0.1514E+02  0.3245E+02
      2.182  0.1138E+02  0.3327E+02
      2.253  0.7239E+01  0.3378E+02
      2.325  0.3414E+01  0.3403E+02
      2.396  0.6335E+00  0.3407E+02
      2.468 -0.7623E+00  0.3402E+02
      2.539 -0.1162E+01  0.3393E+02
      2.610 -0.7193E+00  0.3388E+02
      2.682  0.1374E+01  0.3398E+02
      2.753  0.6095E+01  0.3442E+02
      2.825  0.1296E+02  0.3534E+02
      2.896  0.1917E+02  0.3671E+02
      2.967  0.2088E+02  0.3820E+02
      3.039  0.1647E+02  0.3938E+02
      3.110  0.8720E+01  0.4000E+02
      3.182  0.2280E+01  0.4016E+02
      3.253 -0.6167E+00  0.4012E+02
      3.324 -0.9767E+00  0.4005E+02
      3.396 -0.6485E+00  0.4000E+02
      3.467 -0.6486E+00  0.3996E+02
      3.539 -0.1106E+01  0.3988E+02
      3.610 -0.1243E+01  0.3979E+02
      3.681  0.9320E+00  0.3985E+02
      3.753  0.7530E+01  0.4039E+02
      3.824  0.1791E+02  0.4167E+02
      3.896  0.2756E+02  0.4364E+02
      3.967  0.3148E+02  0.4589E+02
      4.038  0.2836E+02  0.4791E+02
      4.110  0.2116E+02  0.4942E+02
      4.181  0.1427E+02  0.5044E+02
      4.253  0.9908E+01  0.5115E+02
      4.324  0.6950E+01  0.5164E+02
      4.395  0.3633E+01  0.5190E+02
      4.467  0.3439E+00  0.5193E+02
      4.538 -0.7365E+00  0.5188E+02
      4.609  0.2641E+01  0.5206E+02
      4.681  0.1067E+02  0.5283E+02
      4.752  0.1935E+02  0.5421E+02
      4.824  0.2277E+02  0.5583E+02
      4.895  0.2003E+02  0.5726E+02
      4.966  0.1751E+02  0.5851E+02
      5.038  0.2119E+02  0.6003E+02
      5.109  0.2934E+02  0.6212E+02
      5.181  0.3492E+02  0.6461E+02
      5.252  0.3314E+02  0.6698E+02
      5.323  0.2478E+02  0.6875E+02
      5.395  0.1410E+02  0.6976E+02
      5.466  0.5320E+01  0.7014E+02
      5.538  0.3529E+00  0.7016E+02
      5.609 -0.1437E+01  0.7006E+02
      5.680 -0.1679E+01  0.6994E+02
      5.752 -0.9086E+00  0.6987E+02
      5.823  0.2049E+01  0.7002E+02
      5.895  0.7982E+01  0.7059E+02
      5.966  0.1435E+02  0.7161E+02
      6.037  0.1630E+02  0.7278E+02
      6.109  0.1201E+02  0.7364E+02
      6.180  0.5222E+01  0.7401E+02
      6.252  0.1195E+01  0.7409E+02
      6.323  0.1907E+01  0.7423E+02
      6.394  0.5373E+01  0.7461E+02
      6.466  0.7870E+01  0.7518E+02
      6.537  0.6985E+01  0.7567E+02
      6.609  0.3436E+01  0.7592E+02
      6.680 -0.9299E-01  0.7591E+02
      6.751 -0.9967E+00  0.7584E+02
      6.823  0.2701E+01  0.7603E+02
      6.894  0.1115E+02  0.7683E+02
      6.966  0.2042E+02  0.7829E+02
      7.037  0.2484E+02  0.8006E+02
      7.108  0.2382E+02  0.8176E+02
      7.180  0.2247E+02  0.8337E+02
      7.251  0.2363E+02  0.8505E+02
      7.323  0.2427E+02  0.8679E+02
      7.394  0.2103E+02  0.8829E+02
      7.465  0.1459E+02  0.8933E+02
      7.537  0.7646E+01  0.8988E+02
      7.608  0.2134E+01  0.9003E+02
      7.680 -0.9774E+00  0.8996E+02
      7.751 -0.8404E+00  0.8990E+02
      7.822  0.3520E+01  0.9015E+02
      7.894  0.1155E+02  0.9097E+02
      7.965  0.1920E+02  0.9234E+02
      8.037  0.2140E+02  0.9387E+02
      8.108  0.1790E+02  0.9515E+02
      8.179  0.1443E+02  0.9618E+02
      8.251  0.1611E+02  0.9733E+02
      8.322  0.2194E+02  0.9890E+02
      8.394  0.2723E+02  0.1008E+03
      8.465  0.2925E+02  0.1029E+03
      8.536  0.2775E+02  0.1049E+03
      8.608  0.2271E+02  0.1065E+03
      8.679  0.1477E+02  0.1076E+03
      8.751  0.6609E+01  0.1081E+03
      8.822  0.9807E+00  0.1081E+03
      8.893 -0.1510E+01  0.1080E+03
      8.965 -0.1645E+01  0.1079E+03
      9.036  0.6109E+00  0.1079E+03
      9.108  0.5863E+01  0.1084E+03
      9.179  0.1249E+02  0.1093E+03
      9.250  0.1628E+02  0.1104E+03
      9.322  0.1501E+02  0.1115E+03
      9.393  0.1151E+02  0.1123E+03
      9.465  0.1045E+02  0.1131E+03
      9.536  0.1374E+02  0.1140E+03
      9.607  0.1962E+02  0.1154E+03
      9.679  0.2359E+02  0.1171E+03
      9.750  0.2136E+02  0.1187E+03
      9.822  0.1325E+02  0.1196E+03
      9.893  0.4624E+01  0.1199E+03
      9.964  0.1482E+01  0.1200E+03
     10.036  0.6047E+01  0.1205E+03
     10.107  0.1535E+02  0.1216E+03
     10.179  0.2343E+02  0.1232E+03
     10.250  0.2694E+02  0.1252E+03
     10.321  0.2804E+02  0.1272E+03
     10.393  0.2992E+02  0.1293E+03
     10.464  0.3146E+02  0.1315E+03
     10.536  0.2886E+02  0.1336E+03
     10.607  0.2093E+02  0.1351E+03
     10.678  0.1075E+02  0.1359E+03
     10.750  0.2895E+01  0.1361E+03
     10.821  0.1536E+00  0.1361E+03
     10.893  0.2608E+01  0.1363E+03
     10.964  0.8494E+01  0.1369E+03
     11.035  0.1508E+02  0.1379E+03
     11.107  0.1907E+02  0.1393E+03
     11.178  0.1782E+02  0.1406E+03
     11.250  0.1214E+02  0.1415E+03
     11.321  0.7451E+01  0.1420E+03
     11.392  0.9434E+01  0.1427E+03
     11.464  0.1778E+02  0.1439E+03
     11.535  0.2599E+02  0.1458E+03
     11.607  0.2840E+02  0.1478E+03
     11.678  0.2584E+02  0.1497E+03
     11.749  0.2263E+02  0.1513E+03
     11.821  0.2043E+02  0.1527E+03
     11.892  0.1788E+02  0.1540E+03
     11.964  0.1395E+02  0.1550E+03
     12.035  0.8952E+01  0.1556E+03
     12.106  0.3822E+01  0.1559E+03
     12.178  0.8381E-01  0.1559E+03
     12.249 -0.9222E-01  0.1559E+03
     12.321  0.4996E+01  0.1563E+03
     12.392  0.1409E+02  0.1573E+03
     12.463  0.2192E+02  0.1588E+03
     12.535  0.2373E+02  0.1605E+03
     12.606  0.2091E+02  0.1620E+03
     12.678  0.1831E+02  0.1633E+03
     12.749  0.1673E+02  0.1645E+03
     12.820  0.1307E+02  0.1655E+03
     12.892  0.6701E+01  0.1659E+03
     12.963  0.7866E+00  0.1660E+03
     13.035 -0.1478E+01  0.1659E+03
     13.106  0.1456E+01  0.1660E+03
     13.177  0.9528E+01  0.1667E+03
     13.249  0.1978E+02  0.1681E+03
     13.320  0.2715E+02  0.1700E+03
     13.392  0.2898E+02  0.1721E+03
     13.463  0.2668E+02  0.1740E+03
     13.534  0.2236E+02  0.1756E+03
     13.606  0.1707E+02  0.1768E+03
     13.677  0.1213E+02  0.1777E+03
     13.749  0.9075E+01  0.1783E+03
     13.820  0.7836E+01  0.1789E+03
     13.891  0.7369E+01  0.1794E+03
     13.963  0.8358E+01  0.1800E+03
     14.034  0.1243E+02  0.1809E+03
     14.105  0.1806E+02  0.1822E+03
     14.177  0.2082E+02  0.1837E+03
     14.248  0.1934E+02  0.1851E+03
     14.320  0.1713E+02  0.1863E+03
     14.391  0.1692E+02  0.1875E+03
     14.462  0.1710E+02  0.1887E+03
     14.534  0.1532E+02  0.1898E+03
     14.605  0.1206E+02  0.1907E+03
     14.677  0.8861E+01  0.1913E+03
     14.748  0.6007E+01  0.1917E+03
     14.819  0.3320E+01  0.1920E+03
     14.891  0.1185E+01  0.1920E+03
     14.962  0.2319E-01  0.1920E+03
     15.034 -0.2976E+00  0.1920E+03
     15.105 -0.2274E+00  0.1920E+03
     15.176 -0.1027E+00  0.1920E+03
     15.248 -0.3251E-01  0.1920E+03
     15.319 -0.7575E-02  0.1920E+03
     15.391 -0.1324E-02  0.1920E+03
     15.462 -0.1754E-03  0.1920E+03
     15.533 -0.1768E-04  0.1920E+03
     15.605 -0.1361E-05  0.1920E+03
     15.676 -0.8029E-07  0.1920E+03
     15.748 -0.3634E-08  0.1920E+03
     15.819 -0.1264E-09  0.1920E+03
     15.890 -0.3385E-11  0.1920E+03
     15.962 -0.6842E-13  0.1920E+03
     16.033 -0.1555E-14  0.1920E+03
     16.105  0.0000E+00  0.1920E+03
     16.176  0.0000E+00  0.1920E+03
     16.247  0.0000E+00  0.1920E+03
     16.319  0.0000E+00  0.1920E+03
     16.390  0.0000E+00  0.1920E+03
     16.462  0.0000E+00  0.1920E+03
     16.533  0.0000E+00  0.1920E+03
     16.604  0.0000E+00  0.1920E+03
     16.676  0.0000E+00  0.1920E+03
     16.747  0.0000E+00  0.1920E+03
