   33   33    1    1
  0.1602710E+02  0.8087040E-09  0.8087040E-09  0.8087040E-09  0.5000000E-15
  1.000000000000000E-004
  CAR 
 unknown system                          
   98    2   96
 
  0.2500000E+00  0.2500000E+00  0.2500000E+00  0.2500000E+00
   1       -2.671926
   2       -1.676824
   3       -1.676823
   4       -1.307272
   5       -0.574970
   6       -0.574970
   7       -0.105271
   8        0.607255
   9        0.607255
  10        0.675082
  11        0.985495
  12        1.605179
  13        1.620249
  14        1.620249
  15        1.996212
  16        1.996212
  17        2.130353
  18        2.817064
  19        2.953533
  20        2.953533
  21        3.836538
  22        3.836538
  23        3.896125
  24        4.042307
  25        4.042307
  26        4.276073
  27        4.761533
  28        4.777621
  29        4.777621
  30        5.023653
  31        5.116365
  32        5.116365
  33        5.264031
  34        5.264031
  35        5.278990
  36        5.974116
  37        5.974116
  38        6.454617
  39        6.950223
  40        6.994947
  41        6.994947
  42        7.195344
  43        7.306914
  44        7.306914
  45        7.435398
  46        7.950575
  47        7.950575
  48        8.025896
  49        8.281467
  50        8.372934
  51        8.372934
  52        8.533747
  53        8.533747
  54        8.541704
  55        9.225234
  56        9.225234
  57        9.455253
  58        9.656640
  59        9.656640
  60        9.730805
  61       10.146810
  62       10.146811
  63       10.215281
  64       10.327316
  65       10.327316
  66       10.479764
  67       10.479764
  68       10.581748
  69       10.977657
  70       11.133297
  71       11.133297
  72       11.424992
  73       11.542048
  74       11.542048
  75       11.651287
  76       11.828003
  77       11.828004
  78       11.952080
  79       12.446472
  80       12.446472
  81       12.466618
  82       12.755400
  83       12.755401
  84       13.256897
  85       13.290093
  86       13.290092
  87       13.466758
  88       13.466760
  89       13.655931
  90       13.837256
  91       14.076815
  92       14.088196
  93       14.301823
  94       14.381302
  95       14.499609
  96       14.747237
 
 -0.2500000E+00  0.2500000E+00  0.2500000E+00  0.7500000E+00
   1       -2.672300
   2       -1.677043
   3       -1.662720
   4       -1.334433
   5       -0.573011
   6       -0.550807
   7       -0.117209
   8        0.597524
   9        0.615666
  10        0.710505
  11        0.936377
  12        1.588119
  13        1.623753
  14        1.684848
  15        1.949335
  16        1.953535
  17        2.175932
  18        2.811873
  19        2.949654
  20        2.956806
  21        3.845844
  22        3.877339
  23        3.922911
  24        4.018832
  25        4.041594
  26        4.252260
  27        4.738954
  28        4.781271
  29        4.826812
  30        5.027546
  31        5.096991
  32        5.131831
  33        5.193036
  34        5.204074
  35        5.330320
  36        5.987360
  37        6.000332
  38        6.442261
  39        6.969042
  40        6.994074
  41        7.006817
  42        7.199940
  43        7.272651
  44        7.279509
  45        7.441744
  46        7.947413
  47        7.972343
  48        8.068810
  49        8.266609
  50        8.326506
  51        8.370041
  52        8.482772
  53        8.536503
  54        8.628885
  55        9.215068
  56        9.220169
  57        9.461676
  58        9.636507
  59        9.653446
  60        9.736000
  61       10.131518
  62       10.142888
  63       10.206757
  64       10.372249
  65       10.379102
  66       10.460646
  67       10.499770
  68       10.578021
  69       10.982709
  70       11.115144
  71       11.161877
  72       11.482157
  73       11.513193
  74       11.536335
  75       11.628684
  76       11.777709
  77       11.778996
  78       11.975597
  79       12.429232
  80       12.464039
  81       12.512213
  82       12.713982
  83       12.722523
  84       13.241346
  85       13.287257
  86       13.311448
  87       13.462613
  88       13.472601
  89       13.600543
  90       13.827488
  91       14.095499
  92       14.136113
  93       14.190757
  94       14.410015
  95       14.429097
  96       14.627292
