       N       E                     dE             d eps       ncg     rms          rms(c)
RMM:   1     0.160146551805E+03    0.16015E+03   -0.14537E+04   192   0.400E+02
RMM:   2    -0.670321681040E+02   -0.22718E+03   -0.20974E+03   192   0.801E+01
RMM:   3    -0.105729632817E+03   -0.38697E+02   -0.33736E+02   192   0.247E+01
RMM:   4    -0.114611829955E+03   -0.88822E+01   -0.57834E+01   192   0.125E+01
RMM:   5    -0.116912622688E+03   -0.23008E+01   -0.13107E+01   192   0.552E+00
RMM:   6    -0.117357482785E+03   -0.44486E+00   -0.29395E+00   192   0.274E+00
RMM:   7    -0.117438207551E+03   -0.80725E-01   -0.64723E-01   192   0.135E+00
RMM:   8    -0.117456185338E+03   -0.17978E-01   -0.15535E-01   192   0.708E-01
RMM:   9    -0.117461770236E+03   -0.55849E-02   -0.52159E-02   484   0.383E-01
RMM:  10    -0.117462312943E+03   -0.54271E-03   -0.44876E-03   464   0.110E-01
RMM:  11    -0.117462332967E+03   -0.20024E-04   -0.18467E-04   364   0.237E-02
RMM:  12    -0.117462335929E+03   -0.29617E-05   -0.28764E-05   274   0.123E-02    0.589E+00
RMM:  13    -0.116538710571E+03    0.92363E+00   -0.75031E-01   414   0.108E+00    0.348E+00
RMM:  14    -0.116241906614E+03    0.29680E+00   -0.21161E-01   430   0.696E-01    0.119E+00
RMM:  15    -0.116197719446E+03    0.44187E-01   -0.24421E-02   442   0.287E-01    0.125E-01
RMM:  16    -0.116196943685E+03    0.77576E-03   -0.12049E-03   452   0.665E-02    0.498E-02
RMM:  17    -0.116196893533E+03    0.50152E-04   -0.19695E-04   304   0.265E-02
   1 F= -.11619689E+03 E0= -.11619458E+03  d E =-.692838E-02
