 107 107   0   0
  0.1212439E+02  0.1090639E-08  0.1090639E-08  0.1090639E-08  0.5000000E-15
  1.000000000000000E-004
  CAR 
 unknown system                          
     26.90826754     -7.52954490  301      3.68585263      1.00000000
     -7.530  0.0000E+00  0.0000E+00  0.0000E+00  0.0000E+00
     -7.415  0.0000E+00  0.0000E+00  0.0000E+00  0.0000E+00
     -7.300  0.0000E+00  0.0000E+00  0.0000E+00  0.0000E+00
     -7.185  0.0000E+00  0.0000E+00  0.0000E+00  0.0000E+00
     -7.070  0.0000E+00  0.0000E+00  0.0000E+00  0.0000E+00
     -6.956  0.0000E+00  0.0000E+00  0.0000E+00  0.0000E+00
     -6.841  0.0000E+00  0.0000E+00  0.0000E+00  0.0000E+00
     -6.726  0.0000E+00  0.0000E+00  0.0000E+00  0.0000E+00
     -6.611  0.0000E+00  0.0000E+00  0.0000E+00  0.0000E+00
     -6.496  0.0000E+00  0.0000E+00  0.0000E+00  0.0000E+00
     -6.382  0.0000E+00  0.0000E+00  0.0000E+00  0.0000E+00
     -6.267  0.0000E+00  0.0000E+00  0.0000E+00  0.0000E+00
     -6.152  0.0000E+00  0.0000E+00  0.0000E+00  0.0000E+00
     -6.037  0.0000E+00  0.0000E+00  0.0000E+00  0.0000E+00
     -5.922  0.0000E+00  0.0000E+00  0.0000E+00  0.0000E+00
     -5.808  0.0000E+00  0.0000E+00  0.0000E+00  0.0000E+00
     -5.693  0.0000E+00  0.0000E+00  0.0000E+00  0.0000E+00
     -5.578  0.0000E+00  0.0000E+00  0.0000E+00  0.0000E+00
     -5.463  0.1151E+01  0.1149E+01  0.7227E-01  0.7205E-01
     -5.348  0.2936E+01  0.2934E+01  0.3350E+00  0.3344E+00
     -5.234  0.2936E+01  0.2937E+01  0.6808E+00  0.6801E+00
     -5.119  0.1105E+01  0.1107E+01  0.9419E+00  0.9417E+00
     -5.004  0.3821E+01  0.3817E+01  0.1157E+01  0.1156E+01
     -4.889  0.3394E+01  0.3398E+01  0.1705E+01  0.1705E+01
     -4.775  0.3038E+01  0.3038E+01  0.2107E+01  0.2107E+01
     -4.660  0.2137E+01  0.2128E+01  0.2463E+01  0.2462E+01
     -4.545  0.4586E+01  0.4583E+01  0.2958E+01  0.2957E+01
     -4.430  0.4361E+01  0.4362E+01  0.3715E+01  0.3715E+01
     -4.315  0.2403E+01  0.2396E+01  0.4168E+01  0.4168E+01
     -4.201  0.5076E+01  0.5076E+01  0.4604E+01  0.4603E+01
     -4.086  0.3896E+01  0.3897E+01  0.5220E+01  0.5220E+01
     -3.971  0.4401E+01  0.4416E+01  0.6141E+01  0.6140E+01
     -3.856  0.1286E+02  0.1280E+02  0.6750E+01  0.6748E+01
     -3.741  0.3073E+01  0.3043E+01  0.7254E+01  0.7254E+01
     -3.627  0.9828E+00  0.9756E+00  0.8001E+01  0.8001E+01
     -3.512  0.3487E+01  0.3481E+01  0.8870E+01  0.8869E+01
     -3.397  0.8766E+01  0.8789E+01  0.9640E+01  0.9639E+01
     -3.282  0.4395E+01  0.4396E+01  0.1038E+02  0.1038E+02
     -3.167  0.9414E+01  0.9382E+01  0.1108E+02  0.1108E+02
     -3.053  0.7179E+01  0.7260E+01  0.1236E+02  0.1236E+02
     -2.938  0.1114E+02  0.1124E+02  0.1360E+02  0.1360E+02
     -2.823  0.8813E+01  0.8822E+01  0.1453E+02  0.1453E+02
     -2.708  0.6801E+01  0.6807E+01  0.1585E+02  0.1585E+02
     -2.593  0.3336E+01  0.3333E+01  0.1644E+02  0.1644E+02
     -2.479  0.8030E+01  0.8010E+01  0.1701E+02  0.1701E+02
     -2.364  0.1878E+02  0.1878E+02  0.1892E+02  0.1891E+02
     -2.249  0.9448E+01  0.9443E+01  0.2073E+02  0.2073E+02
     -2.134  0.8956E+01  0.8955E+01  0.2196E+02  0.2196E+02
     -2.019  0.1991E+02  0.1993E+02  0.2298E+02  0.2298E+02
     -1.905  0.1552E+02  0.1549E+02  0.2469E+02  0.2469E+02
     -1.790  0.1405E+02  0.1407E+02  0.2644E+02  0.2644E+02
     -1.675  0.2374E+02  0.2380E+02  0.2907E+02  0.2907E+02
     -1.560  0.4785E+01  0.4786E+01  0.3101E+02  0.3101E+02
     -1.446  0.1410E+02  0.1326E+02  0.3262E+02  0.3261E+02
     -1.331  0.3815E+02  0.3823E+02  0.3687E+02  0.3687E+02
     -1.216  0.3477E+02  0.3477E+02  0.4157E+02  0.4157E+02
     -1.101  0.6268E+02  0.6270E+02  0.4699E+02  0.4699E+02
     -0.986  0.3612E+02  0.3614E+02  0.5459E+02  0.5459E+02
     -0.872  0.3927E+02  0.3928E+02  0.6149E+02  0.6149E+02
     -0.757  0.4663E+02  0.4659E+02  0.6924E+02  0.6924E+02
     -0.642  0.1014E+03  0.1023E+03  0.7854E+02  0.7854E+02
     -0.527  0.6726E+02  0.6733E+02  0.8973E+02  0.8973E+02
     -0.412  0.1556E+03  0.1561E+03  0.1030E+03  0.1030E+03
     -0.298  0.1191E+03  0.1189E+03  0.1186E+03  0.1186E+03
     -0.183  0.1210E+03  0.1233E+03  0.1321E+03  0.1321E+03
     -0.068  0.1462E+03  0.1459E+03  0.1454E+03  0.1454E+03
      0.047  0.1576E+03  0.1604E+03  0.1596E+03  0.1596E+03
      0.162  0.1214E+03  0.1205E+03  0.1728E+03  0.1728E+03
      0.276  0.1160E+03  0.1159E+03  0.1891E+03  0.1891E+03
      0.391  0.3872E+03  0.3362E+03  0.2089E+03  0.2090E+03
      0.506  0.1831E+03  0.1832E+03  0.2270E+03  0.2270E+03
      0.621  0.1974E+03  0.1940E+03  0.2506E+03  0.2506E+03
      0.736  0.1897E+03  0.1905E+03  0.2750E+03  0.2750E+03
      0.850  0.2507E+03  0.2504E+03  0.3028E+03  0.3028E+03
      0.965  0.1525E+03  0.1533E+03  0.3252E+03  0.3252E+03
      1.080  0.1286E+03  0.1468E+03  0.3433E+03  0.3433E+03
      1.195  0.2191E+03  0.1490E+03  0.3602E+03  0.3602E+03
      1.309  0.1606E+03  0.1605E+03  0.3795E+03  0.3795E+03
      1.424  0.2060E+03  0.2141E+03  0.4036E+03  0.4037E+03
      1.539  0.2282E+03  0.2233E+03  0.4264E+03  0.4264E+03
      1.654  0.1320E+03  0.1317E+03  0.4466E+03  0.4466E+03
      1.769  0.3025E+03  0.2442E+03  0.4671E+03  0.4671E+03
      1.883  0.2070E+03  0.2086E+03  0.4905E+03  0.4905E+03
      1.998  0.3100E+03  0.3070E+03  0.5228E+03  0.5229E+03
      2.113  0.1319E+03  0.1316E+03  0.5504E+03  0.5504E+03
      2.228  0.2178E+02  0.2178E+02  0.5572E+03  0.5572E+03
      2.343  0.1634E+02  0.1634E+02  0.5595E+03  0.5595E+03
      2.457  0.1879E+02  0.1879E+02  0.5629E+03  0.5629E+03
      2.572  0.1618E+02  0.1618E+02  0.5645E+03  0.5645E+03
      2.687  0.8475E+01  0.8435E+01  0.5663E+03  0.5663E+03
      2.802  0.2593E+02  0.2594E+02  0.5689E+03  0.5689E+03
      2.917  0.2035E+02  0.2034E+02  0.5718E+03  0.5718E+03
      3.031  0.5768E+01  0.5767E+01  0.5730E+03  0.5730E+03
      3.146  0.2316E+02  0.2316E+02  0.5754E+03  0.5754E+03
      3.261  0.1548E+02  0.1547E+02  0.5778E+03  0.5778E+03
      3.376  0.1575E+02  0.1575E+02  0.5802E+03  0.5802E+03
      3.491  0.1342E+02  0.1342E+02  0.5819E+03  0.5819E+03
      3.605  0.1198E+02  0.1198E+02  0.5835E+03  0.5835E+03
      3.720  0.1447E+02  0.1447E+02  0.5850E+03  0.5850E+03
      3.835  0.1598E+02  0.1600E+02  0.5870E+03  0.5870E+03
      3.950  0.1869E+02  0.1868E+02  0.5884E+03  0.5884E+03
      4.065  0.2928E+02  0.2925E+02  0.5915E+03  0.5915E+03
      4.179  0.1082E+02  0.1081E+02  0.5933E+03  0.5933E+03
      4.294  0.5595E+01  0.5598E+01  0.5942E+03  0.5942E+03
      4.409  0.1183E+02  0.1182E+02  0.5953E+03  0.5953E+03
      4.524  0.2281E+02  0.2279E+02  0.5970E+03  0.5970E+03
      4.638  0.1114E+02  0.1114E+02  0.5988E+03  0.5988E+03
      4.753  0.2937E+02  0.2927E+02  0.6007E+03  0.6007E+03
      4.868  0.1742E+02  0.1734E+02  0.6030E+03  0.6030E+03
      4.983  0.1759E+02  0.1760E+02  0.6046E+03  0.6046E+03
      5.098  0.1616E+02  0.1615E+02  0.6064E+03  0.6064E+03
      5.212  0.9416E+01  0.9403E+01  0.6079E+03  0.6079E+03
      5.327  0.1222E+02  0.1222E+02  0.6092E+03  0.6092E+03
      5.442  0.7785E+01  0.7787E+01  0.6105E+03  0.6105E+03
      5.557  0.1843E+02  0.1846E+02  0.6119E+03  0.6119E+03
      5.672  0.6454E+01  0.6461E+01  0.6131E+03  0.6131E+03
      5.786  0.1592E+02  0.1583E+02  0.6146E+03  0.6146E+03
      5.901  0.1950E+02  0.1972E+02  0.6168E+03  0.6168E+03
      6.016  0.9952E+01  0.9918E+01  0.6181E+03  0.6181E+03
      6.131  0.9038E+01  0.9038E+01  0.6192E+03  0.6192E+03
      6.246  0.1342E+02  0.1343E+02  0.6208E+03  0.6208E+03
      6.360  0.5419E+01  0.5423E+01  0.6221E+03  0.6221E+03
      6.475  0.7986E+01  0.7976E+01  0.6229E+03  0.6229E+03
      6.590  0.1082E+02  0.1082E+02  0.6241E+03  0.6241E+03
      6.705  0.8772E+01  0.8773E+01  0.6253E+03  0.6253E+03
      6.820  0.5659E+01  0.5658E+01  0.6263E+03  0.6263E+03
      6.934  0.1474E+02  0.1473E+02  0.6273E+03  0.6273E+03
      7.049  0.1238E+02  0.1243E+02  0.6286E+03  0.6286E+03
      7.164  0.9823E+01  0.9824E+01  0.6300E+03  0.6299E+03
      7.279  0.1496E+02  0.1501E+02  0.6315E+03  0.6315E+03
      7.394  0.9785E+01  0.9782E+01  0.6328E+03  0.6328E+03
      7.508  0.5973E+01  0.5974E+01  0.6337E+03  0.6337E+03
      7.623  0.1141E+02  0.1141E+02  0.6347E+03  0.6347E+03
      7.738  0.1463E+02  0.1455E+02  0.6366E+03  0.6366E+03
      7.853  0.1553E+02  0.1554E+02  0.6391E+03  0.6391E+03
      7.967  0.1928E+02  0.1936E+02  0.6410E+03  0.6410E+03
      8.082  0.1050E+02  0.1053E+02  0.6424E+03  0.6424E+03
      8.197  0.1531E+02  0.1530E+02  0.6438E+03  0.6438E+03
      8.312  0.1790E+02  0.1782E+02  0.6460E+03  0.6460E+03
      8.427  0.1263E+02  0.1263E+02  0.6479E+03  0.6479E+03
      8.541  0.1818E+02  0.1819E+02  0.6496E+03  0.6496E+03
      8.656  0.1344E+02  0.1347E+02  0.6517E+03  0.6517E+03
      8.771  0.2348E+01  0.2348E+01  0.6532E+03  0.6532E+03
      8.886  0.2881E+02  0.2976E+02  0.6548E+03  0.6548E+03
      9.001  0.5101E+01  0.5181E+01  0.6572E+03  0.6572E+03
      9.115  0.9295E+01  0.9309E+01  0.6579E+03  0.6579E+03
      9.230  0.1175E+02  0.1175E+02  0.6592E+03  0.6592E+03
      9.345  0.1481E+02  0.1481E+02  0.6610E+03  0.6610E+03
      9.460  0.1221E+02  0.1220E+02  0.6627E+03  0.6627E+03
      9.575  0.1973E+02  0.1973E+02  0.6647E+03  0.6647E+03
      9.689  0.8345E+01  0.8366E+01  0.6668E+03  0.6668E+03
      9.804  0.8338E+01  0.8333E+01  0.6677E+03  0.6677E+03
      9.919  0.3115E+02  0.2930E+02  0.6690E+03  0.6690E+03
     10.034  0.1861E+02  0.1765E+02  0.6708E+03  0.6708E+03
     10.149  0.1005E+02  0.1005E+02  0.6726E+03  0.6726E+03
     10.263  0.7494E+01  0.7480E+01  0.6736E+03  0.6736E+03
     10.378  0.1386E+02  0.1392E+02  0.6751E+03  0.6751E+03
     10.493  0.1139E+02  0.1139E+02  0.6765E+03  0.6765E+03
     10.608  0.1032E+02  0.1032E+02  0.6781E+03  0.6781E+03
     10.722  0.1376E+02  0.1376E+02  0.6797E+03  0.6797E+03
     10.837  0.1878E+02  0.1873E+02  0.6817E+03  0.6817E+03
     10.952  0.1619E+02  0.1614E+02  0.6835E+03  0.6835E+03
     11.067  0.1296E+02  0.1296E+02  0.6857E+03  0.6857E+03
     11.182  0.2126E+02  0.2127E+02  0.6878E+03  0.6878E+03
     11.296  0.7143E+01  0.7157E+01  0.6898E+03  0.6898E+03
     11.411  0.1587E+02  0.1595E+02  0.6914E+03  0.6914E+03
     11.526  0.1083E+02  0.1084E+02  0.6934E+03  0.6934E+03
     11.641  0.1642E+02  0.1643E+02  0.6950E+03  0.6950E+03
     11.756  0.1767E+02  0.1766E+02  0.6968E+03  0.6968E+03
     11.870  0.1712E+02  0.1722E+02  0.6988E+03  0.6988E+03
     11.985  0.1745E+02  0.1744E+02  0.7009E+03  0.7009E+03
     12.100  0.2386E+02  0.2392E+02  0.7034E+03  0.7034E+03
     12.215  0.2616E+02  0.2617E+02  0.7064E+03  0.7064E+03
     12.330  0.2319E+02  0.2310E+02  0.7092E+03  0.7092E+03
     12.444  0.1608E+02  0.1603E+02  0.7111E+03  0.7111E+03
     12.559  0.1755E+02  0.1720E+02  0.7129E+03  0.7128E+03
     12.674  0.1737E+02  0.1739E+02  0.7147E+03  0.7147E+03
     12.789  0.2388E+02  0.2387E+02  0.7173E+03  0.7173E+03
     12.904  0.3557E+02  0.3514E+02  0.7201E+03  0.7201E+03
     13.018  0.1604E+02  0.1604E+02  0.7225E+03  0.7225E+03
     13.133  0.1870E+02  0.1858E+02  0.7244E+03  0.7244E+03
     13.248  0.1702E+02  0.1688E+02  0.7263E+03  0.7263E+03
     13.363  0.1588E+02  0.1587E+02  0.7279E+03  0.7279E+03
     13.478  0.1657E+02  0.1654E+02  0.7296E+03  0.7296E+03
     13.592  0.2791E+02  0.2787E+02  0.7317E+03  0.7317E+03
     13.707  0.1437E+02  0.1458E+02  0.7346E+03  0.7346E+03
     13.822  0.6500E+02  0.6387E+02  0.7373E+03  0.7373E+03
     13.937  0.3201E+02  0.3189E+02  0.7395E+03  0.7395E+03
     14.051  0.4065E+02  0.4098E+02  0.7422E+03  0.7422E+03
     14.166  0.1466E+02  0.1464E+02  0.7445E+03  0.7445E+03
     14.281  0.1291E+02  0.1290E+02  0.7470E+03  0.7470E+03
     14.396  0.9597E+01  0.9627E+01  0.7491E+03  0.7491E+03
     14.511  0.2550E+02  0.2576E+02  0.7512E+03  0.7512E+03
     14.625  0.2332E+02  0.2329E+02  0.7535E+03  0.7535E+03
     14.740  0.2105E+02  0.2102E+02  0.7563E+03  0.7563E+03
     14.855  0.1629E+02  0.1629E+02  0.7587E+03  0.7587E+03
     14.970  0.2153E+02  0.2152E+02  0.7607E+03  0.7607E+03
     15.085  0.1564E+02  0.1565E+02  0.7633E+03  0.7632E+03
     15.199  0.2256E+02  0.2256E+02  0.7661E+03  0.7661E+03
     15.314  0.4507E+02  0.6971E+02  0.7688E+03  0.7688E+03
     15.429  0.1750E+02  0.1752E+02  0.7705E+03  0.7705E+03
     15.544  0.1259E+02  0.1287E+02  0.7726E+03  0.7726E+03
     15.659  0.9116E+01  0.9128E+01  0.7759E+03  0.7759E+03
     15.773  0.1427E+02  0.1426E+02  0.7772E+03  0.7772E+03
     15.888  0.2931E+02  0.2923E+02  0.7795E+03  0.7795E+03
     16.003  0.2352E+02  0.2350E+02  0.7828E+03  0.7828E+03
     16.118  0.1793E+02  0.1792E+02  0.7854E+03  0.7854E+03
     16.233  0.1859E+02  0.1854E+02  0.7879E+03  0.7879E+03
     16.347  0.1082E+02  0.1083E+02  0.7903E+03  0.7903E+03
     16.462  0.2082E+02  0.2080E+02  0.7930E+03  0.7930E+03
     16.577  0.1328E+02  0.1330E+02  0.7957E+03  0.7957E+03
     16.692  0.6347E+02  0.6493E+02  0.7979E+03  0.7979E+03
     16.807  0.2809E+02  0.2814E+02  0.8012E+03  0.8012E+03
     16.921  0.3386E+02  0.3399E+02  0.8046E+03  0.8046E+03
     17.036  0.2575E+02  0.2567E+02  0.8076E+03  0.8076E+03
     17.151  0.1724E+02  0.1718E+02  0.8105E+03  0.8105E+03
     17.266  0.1911E+02  0.1911E+02  0.8130E+03  0.8130E+03
     17.380  0.2267E+02  0.2317E+02  0.8156E+03  0.8156E+03
     17.495  0.1346E+02  0.1348E+02  0.8186E+03  0.8186E+03
     17.610  0.1255E+02  0.1255E+02  0.8210E+03  0.8210E+03
     17.725  0.1446E+02  0.1446E+02  0.8227E+03  0.8227E+03
     17.840  0.2177E+02  0.2184E+02  0.8255E+03  0.8255E+03
     17.954  0.1375E+02  0.1377E+02  0.8277E+03  0.8277E+03
     18.069  0.3790E+02  0.3782E+02  0.8306E+03  0.8306E+03
     18.184  0.2685E+02  0.2684E+02  0.8341E+03  0.8341E+03
     18.299  0.1717E+02  0.1716E+02  0.8363E+03  0.8363E+03
     18.414  0.1975E+02  0.1975E+02  0.8391E+03  0.8391E+03
     18.528  0.1556E+02  0.1555E+02  0.8412E+03  0.8411E+03
     18.643  0.1554E+02  0.1555E+02  0.8430E+03  0.8430E+03
     18.758  0.1991E+02  0.1989E+02  0.8455E+03  0.8455E+03
     18.873  0.2606E+02  0.2602E+02  0.8485E+03  0.8485E+03
     18.988  0.2350E+02  0.2331E+02  0.8513E+03  0.8513E+03
     19.102  0.1425E+02  0.1426E+02  0.8532E+03  0.8532E+03
     19.217  0.1796E+02  0.1806E+02  0.8551E+03  0.8551E+03
     19.332  0.2298E+02  0.2296E+02  0.8577E+03  0.8577E+03
     19.447  0.2747E+02  0.2733E+02  0.8604E+03  0.8604E+03
     19.562  0.2053E+02  0.2054E+02  0.8632E+03  0.8632E+03
     19.676  0.1898E+02  0.1912E+02  0.8656E+03  0.8656E+03
     19.791  0.1319E+02  0.1314E+02  0.8678E+03  0.8678E+03
     19.906  0.1907E+02  0.1906E+02  0.8701E+03  0.8701E+03
     20.021  0.1137E+02  0.1130E+02  0.8721E+03  0.8721E+03
     20.135  0.9912E+01  0.9913E+01  0.8736E+03  0.8736E+03
     20.250  0.2116E+02  0.2111E+02  0.8753E+03  0.8753E+03
     20.365  0.1826E+02  0.1822E+02  0.8772E+03  0.8772E+03
     20.480  0.1954E+02  0.1957E+02  0.8795E+03  0.8795E+03
     20.595  0.1718E+02  0.1717E+02  0.8816E+03  0.8816E+03
     20.709  0.1438E+02  0.1438E+02  0.8835E+03  0.8835E+03
     20.824  0.1433E+02  0.1437E+02  0.8854E+03  0.8854E+03
     20.939  0.1857E+02  0.1876E+02  0.8873E+03  0.8873E+03
     21.054  0.1698E+02  0.1702E+02  0.8895E+03  0.8895E+03
     21.169  0.1779E+02  0.1780E+02  0.8915E+03  0.8915E+03
     21.283  0.1907E+02  0.2337E+02  0.8938E+03  0.8938E+03
     21.398  0.1563E+02  0.1563E+02  0.8960E+03  0.8960E+03
     21.513  0.1695E+02  0.1695E+02  0.8980E+03  0.8980E+03
     21.628  0.1738E+02  0.1737E+02  0.9000E+03  0.9000E+03
     21.743  0.3387E+02  0.1081E+03  0.9025E+03  0.9025E+03
     21.857  0.1948E+02  0.1939E+02  0.9048E+03  0.9048E+03
     21.972  0.1571E+02  0.1571E+02  0.9068E+03  0.9068E+03
     22.087  0.1468E+02  0.1467E+02  0.9087E+03  0.9087E+03
     22.202  0.1620E+02  0.1619E+02  0.9107E+03  0.9107E+03
     22.317  0.1971E+02  0.1969E+02  0.9128E+03  0.9128E+03
     22.431  0.1952E+02  0.1941E+02  0.9151E+03  0.9151E+03
     22.546  0.2099E+02  0.2043E+02  0.9172E+03  0.9172E+03
     22.661  0.1688E+02  0.1689E+02  0.9193E+03  0.9193E+03
     22.776  0.2135E+02  0.2131E+02  0.9216E+03  0.9216E+03
     22.891  0.2630E+02  0.2628E+02  0.9244E+03  0.9244E+03
     23.005  0.2226E+02  0.2230E+02  0.9273E+03  0.9273E+03
     23.120  0.2156E+02  0.2156E+02  0.9307E+03  0.9307E+03
     23.235  0.1406E+02  0.1407E+02  0.9326E+03  0.9326E+03
     23.350  0.2031E+02  0.2029E+02  0.9348E+03  0.9348E+03
     23.464  0.2746E+02  0.2748E+02  0.9380E+03  0.9380E+03
     23.579  0.2596E+02  0.2597E+02  0.9410E+03  0.9410E+03
     23.694  0.1765E+02  0.1765E+02  0.9437E+03  0.9437E+03
     23.809  0.1944E+02  0.1946E+02  0.9460E+03  0.9460E+03
     23.924  0.3306E+02  0.3313E+02  0.9492E+03  0.9492E+03
     24.038  0.2504E+02  0.2503E+02  0.9526E+03  0.9526E+03
     24.153  0.2590E+02  0.2593E+02  0.9561E+03  0.9561E+03
     24.268  0.1943E+02  0.1939E+02  0.9584E+03  0.9584E+03
     24.383  0.3958E+02  0.3929E+02  0.9617E+03  0.9617E+03
     24.498  0.2797E+02  0.2751E+02  0.9658E+03  0.9658E+03
     24.612  0.1180E+02  0.1172E+02  0.9678E+03  0.9678E+03
     24.727  0.2197E+02  0.2177E+02  0.9700E+03  0.9700E+03
     24.842  0.6047E+01  0.5767E+01  0.9719E+03  0.9718E+03
     24.957  0.0000E+00  0.0000E+00  0.9720E+03  0.9720E+03
     25.072  0.0000E+00  0.0000E+00  0.9720E+03  0.9720E+03
     25.186  0.0000E+00  0.0000E+00  0.9720E+03  0.9720E+03
     25.301  0.0000E+00  0.0000E+00  0.9720E+03  0.9720E+03
     25.416  0.0000E+00  0.0000E+00  0.9720E+03  0.9720E+03
     25.531  0.0000E+00  0.0000E+00  0.9720E+03  0.9720E+03
     25.646  0.0000E+00  0.0000E+00  0.9720E+03  0.9720E+03
     25.760  0.0000E+00  0.0000E+00  0.9720E+03  0.9720E+03
     25.875  0.0000E+00  0.0000E+00  0.9720E+03  0.9720E+03
     25.990  0.0000E+00  0.0000E+00  0.9720E+03  0.9720E+03
     26.105  0.0000E+00  0.0000E+00  0.9720E+03  0.9720E+03
     26.220  0.0000E+00  0.0000E+00  0.9720E+03  0.9720E+03
     26.334  0.0000E+00  0.0000E+00  0.9720E+03  0.9720E+03
     26.449  0.0000E+00  0.0000E+00  0.9720E+03  0.9720E+03
     26.564  0.0000E+00  0.0000E+00  0.9720E+03  0.9720E+03
     26.679  0.0000E+00  0.0000E+00  0.9720E+03  0.9720E+03
     26.793  0.0000E+00  0.0000E+00  0.9720E+03  0.9720E+03
     26.908  0.0000E+00  0.0000E+00  0.9720E+03  0.9720E+03
