unknown system                          
           1
    10.906394    0.000000    0.000000
     0.000000   10.906394    0.000000
     0.000000    0.000000   10.906394
   Al   Mg
   1 106
Direct configuration=     1
   0.16256615  0.00000000  0.16256615
   0.99921841  0.00000000  0.33238609
   0.99976966  0.00000000  0.66785436
   0.99954191  0.33274657  0.99954191
   0.99951702  0.33365647  0.33369755
   0.99970861  0.33311795  0.66699679
   0.99954191  0.66725343  0.99954191
   0.99951702  0.66634353  0.33369755
   0.99970861  0.66688205  0.66699679
   0.33238609  0.00000000  0.99921841
   0.33320626  0.00000000  0.33320626
   0.33315777  0.00000000  0.66702729
   0.33369755  0.33365647  0.99951702
   0.33337577  0.33338820  0.33337577
   0.33317882  0.33321443  0.66698723
   0.33369755  0.66634353  0.99951702
   0.33337577  0.66661180  0.33337577
   0.33317882  0.66678557  0.66698723
   0.66785436  0.00000000  0.99976966
   0.66702729  0.00000000  0.33315777
   0.66719545  0.00000000  0.66719545
   0.66699679  0.33311795  0.99970861
   0.66698723  0.33321443  0.33317882
   0.66709420  0.33310649  0.66709420
   0.66699679  0.66688205  0.99970861
   0.66698723  0.66678557  0.33317882
   0.66709420  0.66689351  0.66709420
   0.99907164  0.16650937  0.16495135
   0.99959128  0.16644514  0.50023785
   0.99974687  0.16502550  0.83509707
   0.99959107  0.50000000  0.16619819
   0.99966590  0.50000000  0.50054209
   0.99967002  0.50000000  0.83343192
   0.99907164  0.83349063  0.16495135
   0.99959128  0.83355486  0.50023785
   0.99974687  0.83497450  0.83509707
   0.33346008  0.16710039  0.16613674
   0.33327765  0.16667145  0.50035631
   0.33293196  0.16653325  0.83348725
   0.33330569  0.50000000  0.16632735
   0.33327150  0.50000000  0.50032640
   0.33312517  0.50000000  0.83322234
   0.33346008  0.83289961  0.16613674
   0.33327765  0.83332855  0.50035631
   0.33293196  0.83346675  0.83348725
   0.66757347  0.16623760  0.16606461
   0.66710521  0.16648673  0.50032427
   0.66757774  0.16619948  0.83375488
   0.66707118  0.50000000  0.16625831
   0.66694927  0.50000000  0.50025240
   0.66722633  0.50000000  0.83343232
   0.66757347  0.83376240  0.16606461
   0.66710521  0.83351327  0.50032427
   0.66757774  0.83380052  0.83375488
   0.16611789  0.00000000  0.50037164
   0.16444920  0.00000000  0.83534241
   0.16614141  0.33342576  0.16614141
   0.16631859  0.33334473  0.50053782
   0.16609084  0.33306654  0.83336370
   0.16614141  0.66657424  0.16614141
   0.16631859  0.66665527  0.50053782
   0.16609084  0.66693346  0.83336370
   0.50037164  0.00000000  0.16611789
   0.50042033  0.00000000  0.50042033
   0.50031797  0.00000000  0.83344934
   0.50053782  0.33334473  0.16631859
   0.50032782  0.33328394  0.50032782
   0.50040171  0.33317673  0.83327306
   0.50053782  0.66665527  0.16631859
   0.50032782  0.66671606  0.50032782
   0.50040171  0.66682327  0.83327306
   0.83534241  0.00000000  0.16444920
   0.83344934  0.00000000  0.50031797
   0.83534872  0.00000000  0.83534872
   0.83336370  0.33306654  0.16609084
   0.83327306  0.33317673  0.50040171
   0.83366772  0.33266291  0.83366772
   0.83336370  0.66693346  0.16609084
   0.83327306  0.66682327  0.50040171
   0.83366772  0.66733709  0.83366772
   0.16495135  0.16650937  0.99907164
   0.16613674  0.16710039  0.33346008
   0.16606461  0.16623760  0.66757347
   0.16619819  0.50000000  0.99959107
   0.16632735  0.50000000  0.33330569
   0.16625831  0.50000000  0.66707118
   0.16495135  0.83349063  0.99907164
   0.16613674  0.83289961  0.33346008
   0.16606461  0.83376240  0.66757347
   0.50023785  0.16644514  0.99959128
   0.50035631  0.16667145  0.33327765
   0.50032427  0.16648673  0.66710521
   0.50054209  0.50000000  0.99966590
   0.50032640  0.50000000  0.33327150
   0.50025240  0.50000000  0.66694927
   0.50023785  0.83355486  0.99959128
   0.50035631  0.83332855  0.33327765
   0.50032427  0.83351327  0.66710521
   0.83509707  0.16502550  0.99974687
   0.83348725  0.16653325  0.33293196
   0.83375488  0.16619948  0.66757774
   0.83343192  0.50000000  0.99967002
   0.83322234  0.50000000  0.33312517
   0.83343232  0.50000000  0.66722633
   0.83509707  0.83497450  0.99974687
   0.83348725  0.83346675  0.33293196
   0.83375488  0.83380052  0.66757774
