   3   3   0   0
  0.1429167E+02  0.3500000E-09  0.3500000E-09  0.3500000E-09  0.5000000E-15
  1.000000000000000E-004
  CAR 
 unknown system                          
     18.28607029     -2.84248042  301     10.45970519      1.00000000
     -2.842  0.0000E+00  0.0000E+00
     -2.772  0.0000E+00  0.0000E+00
     -2.702  0.0000E+00  0.0000E+00
     -2.631  0.0000E+00  0.0000E+00
     -2.561  0.0000E+00  0.0000E+00
     -2.490 -0.1138E-29 -0.8014E-31
     -2.420 -0.3176E-27 -0.2245E-28
     -2.349 -0.6920E-25 -0.4896E-26
     -2.279 -0.1174E-22 -0.8316E-24
     -2.209 -0.1550E-20 -0.1100E-21
     -2.138 -0.1591E-18 -0.1132E-19
     -2.068 -0.1270E-16 -0.9060E-18
     -1.997 -0.7635E-15 -0.5468E-16
     -1.927 -0.3672E-13 -0.2641E-14
     -1.856 -0.1366E-11 -0.9885E-13
     -1.786 -0.3936E-10 -0.2871E-11
     -1.716 -0.8764E-09 -0.6459E-10
     -1.645 -0.1505E-07 -0.1124E-08
     -1.575 -0.1986E-06 -0.1511E-07
     -1.504 -0.2006E-05 -0.1564E-06
     -1.434 -0.1539E-04 -0.1240E-05
     -1.363 -0.8872E-04 -0.7489E-05
     -1.293 -0.3769E-03 -0.3403E-04
     -1.223 -0.1133E-02 -0.1138E-03
     -1.152 -0.2167E-02 -0.2664E-03
     -1.082 -0.1470E-02 -0.3699E-03
     -1.011  0.5174E-02 -0.5526E-05
     -0.941  0.2004E-01  0.1406E-02
     -0.870  0.3695E-01  0.4008E-02
     -0.800  0.4346E-01  0.7069E-02
     -0.730  0.3393E-01  0.9459E-02
     -0.659  0.1647E-01  0.1062E-01
     -0.589  0.3128E-02  0.1084E-01
     -0.518 -0.1943E-02  0.1070E-01
     -0.448 -0.1991E-02  0.1056E-01
     -0.377 -0.9334E-03  0.1050E-01
     -0.307 -0.2877E-03  0.1048E-01
     -0.237 -0.6348E-04  0.1047E-01
     -0.166 -0.1037E-04  0.1047E-01
     -0.096 -0.1277E-05  0.1047E-01
     -0.025 -0.1197E-06  0.1047E-01
      0.045 -0.8587E-08  0.1047E-01
      0.116 -0.4741E-09  0.1047E-01
      0.186 -0.2019E-10  0.1047E-01
      0.256 -0.6650E-12  0.1047E-01
      0.327 -0.1694E-13  0.1047E-01
      0.397 -0.3631E-15  0.1047E-01
      0.468  0.0000E+00  0.1047E-01
      0.538  0.0000E+00  0.1047E-01
      0.609  0.0000E+00  0.1047E-01
      0.679  0.0000E+00  0.1047E-01
      0.749  0.0000E+00  0.1047E-01
      0.820  0.0000E+00  0.1047E-01
      0.890  0.0000E+00  0.1047E-01
      0.961  0.0000E+00  0.1047E-01
      1.031  0.0000E+00  0.1047E-01
      1.102  0.0000E+00  0.1047E-01
      1.172  0.0000E+00  0.1047E-01
      1.242  0.0000E+00  0.1047E-01
      1.313  0.0000E+00  0.1047E-01
      1.383  0.0000E+00  0.1047E-01
      1.454  0.0000E+00  0.1047E-01
      1.524  0.0000E+00  0.1047E-01
      1.595  0.0000E+00  0.1047E-01
      1.665  0.0000E+00  0.1047E-01
      1.735  0.0000E+00  0.1047E-01
      1.806  0.0000E+00  0.1047E-01
      1.876  0.0000E+00  0.1047E-01
      1.947  0.0000E+00  0.1047E-01
      2.017  0.0000E+00  0.1047E-01
      2.088  0.0000E+00  0.1047E-01
      2.158  0.0000E+00  0.1047E-01
      2.228  0.0000E+00  0.1047E-01
      2.299  0.0000E+00  0.1047E-01
      2.369  0.0000E+00  0.1047E-01
      2.440  0.0000E+00  0.1047E-01
      2.510  0.0000E+00  0.1047E-01
      2.581  0.0000E+00  0.1047E-01
      2.651  0.0000E+00  0.1047E-01
      2.721  0.0000E+00  0.1047E-01
      2.792  0.0000E+00  0.1047E-01
      2.862  0.0000E+00  0.1047E-01
      2.933  0.0000E+00  0.1047E-01
      3.003  0.0000E+00  0.1047E-01
      3.074  0.0000E+00  0.1047E-01
      3.144  0.0000E+00  0.1047E-01
      3.214  0.0000E+00  0.1047E-01
      3.285 -0.4984E-29  0.1047E-01
      3.355 -0.1304E-26  0.1047E-01
      3.426 -0.2664E-24  0.1047E-01
      3.496 -0.4235E-22  0.1047E-01
      3.567 -0.5240E-20  0.1047E-01
      3.637 -0.5043E-18  0.1047E-01
      3.707 -0.3773E-16  0.1047E-01
      3.778 -0.2128E-14  0.1047E-01
      3.848 -0.9560E-13  0.1047E-01
      3.919 -0.3331E-11  0.1047E-01
      3.989 -0.8980E-10  0.1047E-01
      4.060 -0.1871E-08  0.1047E-01
      4.130 -0.3003E-07  0.1047E-01
      4.200 -0.3701E-06  0.1047E-01
      4.271 -0.3485E-05  0.1047E-01
      4.341 -0.2489E-04  0.1047E-01
      4.412 -0.1331E-03  0.1046E-01
      4.482 -0.5219E-03  0.1042E-01
      4.553 -0.1435E-02  0.1032E-01
      4.623 -0.2446E-02  0.1015E-01
      4.693 -0.1170E-02  0.1007E-01
      4.764  0.6218E-02  0.1051E-01
      4.834  0.2050E-01  0.1195E-01
      4.905  0.3663E-01  0.1453E-01
      4.975  0.5070E-01  0.1810E-01
      5.046  0.6624E-01  0.2276E-01
      5.116  0.8338E-01  0.2864E-01
      5.186  0.8819E-01  0.3485E-01
      5.257  0.6864E-01  0.3968E-01
      5.327  0.3463E-01  0.4212E-01
      5.398  0.7427E-02  0.4264E-01
      5.468 -0.3687E-02  0.4238E-01
      5.539 -0.4205E-02  0.4209E-01
      5.609 -0.2061E-02  0.4194E-01
      5.679 -0.6575E-03  0.4190E-01
      5.750 -0.1496E-03  0.4189E-01
      5.820 -0.2515E-04  0.4189E-01
      5.891 -0.3182E-05  0.4188E-01
      5.961 -0.3062E-06  0.4188E-01
      6.032 -0.2256E-07  0.4188E-01
      6.102 -0.1278E-08  0.4188E-01
      6.172 -0.5584E-10  0.4188E-01
      6.243 -0.1886E-11  0.4188E-01
      6.313 -0.4939E-13  0.4188E-01
      6.384 -0.9904E-15  0.4188E-01
      6.454  0.0000E+00  0.4188E-01
      6.525  0.0000E+00  0.4188E-01
      6.595  0.0000E+00  0.4188E-01
      6.665  0.0000E+00  0.4188E-01
      6.736  0.0000E+00  0.4188E-01
      6.806  0.0000E+00  0.4188E-01
      6.877  0.0000E+00  0.4188E-01
      6.947  0.0000E+00  0.4188E-01
      7.018  0.0000E+00  0.4188E-01
      7.088  0.0000E+00  0.4188E-01
      7.158  0.0000E+00  0.4188E-01
      7.229  0.0000E+00  0.4188E-01
      7.299  0.0000E+00  0.4188E-01
      7.370  0.0000E+00  0.4188E-01
      7.440  0.0000E+00  0.4188E-01
      7.511  0.0000E+00  0.4188E-01
      7.581  0.0000E+00  0.4188E-01
      7.651  0.0000E+00  0.4188E-01
      7.722  0.0000E+00  0.4188E-01
      7.792  0.0000E+00  0.4188E-01
      7.863  0.0000E+00  0.4188E-01
      7.933  0.0000E+00  0.4188E-01
      8.004  0.0000E+00  0.4188E-01
      8.074  0.0000E+00  0.4188E-01
      8.144  0.0000E+00  0.4188E-01
      8.215  0.0000E+00  0.4188E-01
      8.285  0.0000E+00  0.4188E-01
      8.356  0.0000E+00  0.4188E-01
      8.426  0.0000E+00  0.4188E-01
      8.497  0.0000E+00  0.4188E-01
      8.567  0.0000E+00  0.4188E-01
      8.637  0.0000E+00  0.4188E-01
      8.708  0.0000E+00  0.4188E-01
      8.778  0.0000E+00  0.4188E-01
      8.849  0.0000E+00  0.4188E-01
      8.919 -0.8525E-28  0.4188E-01
      8.990 -0.2027E-25  0.4188E-01
      9.060 -0.3765E-23  0.4188E-01
      9.130 -0.5443E-21  0.4188E-01
      9.201 -0.6122E-19  0.4188E-01
      9.271 -0.5355E-17  0.4188E-01
      9.342 -0.3475E-15  0.4188E-01
      9.412 -0.1862E-13  0.4188E-01
      9.483 -0.7594E-12  0.4188E-01
      9.553 -0.2401E-10  0.4188E-01
      9.623 -0.5870E-09  0.4188E-01
      9.694 -0.1108E-07  0.4188E-01
      9.764 -0.1609E-06  0.4188E-01
      9.835 -0.1791E-05  0.4188E-01
      9.905 -0.1520E-04  0.4188E-01
      9.976 -0.9734E-04  0.4188E-01
     10.046 -0.4633E-03  0.4184E-01
     10.116 -0.1590E-02  0.4173E-01
     10.187 -0.3661E-02  0.4147E-01
     10.257 -0.4323E-02  0.4117E-01
     10.328  0.3624E-02  0.4143E-01
     10.398  0.2774E-01  0.4338E-01
     10.469  0.6274E-01  0.4780E-01
     10.539  0.8593E-01  0.5385E-01
     10.609  0.7793E-01  0.5934E-01
     10.680  0.4572E-01  0.6256E-01
     10.750  0.1400E-01  0.6354E-01
     10.821 -0.1884E-02  0.6341E-01
     10.891 -0.4593E-02  0.6309E-01
     10.962 -0.2916E-02  0.6288E-01
     11.032 -0.1922E-02  0.6275E-01
     11.102 -0.2288E-02  0.6259E-01
     11.173 -0.1839E-02  0.6246E-01
     11.243  0.3820E-02  0.6273E-01
     11.314  0.1775E-01  0.6398E-01
     11.384  0.3507E-01  0.6645E-01
     11.455  0.4355E-01  0.6951E-01
     11.525  0.3591E-01  0.7204E-01
     11.595  0.1873E-01  0.7336E-01
     11.666  0.4389E-02  0.7367E-01
     11.736 -0.1668E-02  0.7355E-01
     11.807 -0.2109E-02  0.7340E-01
     11.877 -0.1058E-02  0.7333E-01
     11.948 -0.3423E-03  0.7331E-01
     12.018 -0.7870E-04  0.7330E-01
     12.088 -0.1336E-04  0.7330E-01
     12.159 -0.1705E-05  0.7330E-01
     12.229 -0.1655E-06  0.7330E-01
     12.300 -0.1230E-07  0.7330E-01
     12.370 -0.7023E-09  0.7330E-01
     12.441 -0.3094E-10  0.7330E-01
     12.511 -0.1054E-11  0.7330E-01
     12.581 -0.2776E-13  0.7330E-01
     12.652 -0.5942E-15  0.7330E-01
     12.722  0.0000E+00  0.7330E-01
     12.793  0.0000E+00  0.7330E-01
     12.863  0.0000E+00  0.7330E-01
     12.934  0.0000E+00  0.7330E-01
     13.004  0.0000E+00  0.7330E-01
     13.074  0.0000E+00  0.7330E-01
     13.145  0.0000E+00  0.7330E-01
     13.215  0.0000E+00  0.7330E-01
     13.286  0.0000E+00  0.7330E-01
     13.356  0.0000E+00  0.7330E-01
     13.427  0.0000E+00  0.7330E-01
     13.497  0.0000E+00  0.7330E-01
     13.567  0.0000E+00  0.7330E-01
     13.638  0.0000E+00  0.7330E-01
     13.708  0.0000E+00  0.7330E-01
     13.779  0.0000E+00  0.7330E-01
     13.849  0.0000E+00  0.7330E-01
     13.920  0.0000E+00  0.7330E-01
     13.990  0.0000E+00  0.7330E-01
     14.060  0.0000E+00  0.7330E-01
     14.131  0.0000E+00  0.7330E-01
     14.201  0.0000E+00  0.7330E-01
     14.272  0.0000E+00  0.7330E-01
     14.342  0.0000E+00  0.7330E-01
     14.413  0.0000E+00  0.7330E-01
     14.483  0.0000E+00  0.7330E-01
     14.553  0.0000E+00  0.7330E-01
     14.624 -0.3479E-30  0.7330E-01
     14.694 -0.1022E-27  0.7330E-01
     14.765 -0.2345E-25  0.7330E-01
     14.835 -0.4186E-23  0.7330E-01
     14.906 -0.5818E-21  0.7330E-01
     14.976 -0.6289E-19  0.7330E-01
     15.046 -0.5287E-17  0.7330E-01
     15.117 -0.3372E-15  0.7330E-01
     15.187 -0.1696E-13  0.7330E-01
     15.258 -0.6650E-12  0.7330E-01
     15.328 -0.2019E-10  0.7330E-01
     15.399 -0.4741E-09  0.7330E-01
     15.469 -0.8587E-08  0.7330E-01
     15.539 -0.1197E-06  0.7330E-01
     15.610 -0.1277E-05  0.7330E-01
     15.680 -0.1037E-04  0.7330E-01
     15.751 -0.6348E-04  0.7329E-01
     15.821 -0.2877E-03  0.7327E-01
     15.892 -0.9334E-03  0.7321E-01
     15.962 -0.1991E-02  0.7307E-01
     16.032 -0.1943E-02  0.7293E-01
     16.103  0.3128E-02  0.7315E-01
     16.173  0.1647E-01  0.7431E-01
     16.244  0.3393E-01  0.7670E-01
     16.314  0.4346E-01  0.7976E-01
     16.385  0.3695E-01  0.8236E-01
     16.455  0.2004E-01  0.8378E-01
     16.525  0.5174E-02  0.8414E-01
     16.596 -0.1470E-02  0.8404E-01
     16.666 -0.2167E-02  0.8388E-01
     16.737 -0.1133E-02  0.8380E-01
     16.807 -0.3769E-03  0.8378E-01
     16.878 -0.8872E-04  0.8377E-01
     16.948 -0.1539E-04  0.8377E-01
     17.018 -0.2006E-05  0.8377E-01
     17.089 -0.1986E-06  0.8377E-01
     17.159 -0.1505E-07  0.8377E-01
     17.230 -0.8764E-09  0.8377E-01
     17.300 -0.3936E-10  0.8377E-01
     17.370 -0.1366E-11  0.8377E-01
     17.441 -0.3674E-13  0.8377E-01
     17.511 -0.7593E-15  0.8377E-01
     17.582  0.0000E+00  0.8377E-01
     17.652  0.0000E+00  0.8377E-01
     17.723  0.0000E+00  0.8377E-01
     17.793  0.0000E+00  0.8377E-01
     17.863  0.0000E+00  0.8377E-01
     17.934  0.0000E+00  0.8377E-01
     18.004  0.0000E+00  0.8377E-01
     18.075  0.0000E+00  0.8377E-01
     18.145  0.0000E+00  0.8377E-01
     18.216  0.0000E+00  0.8377E-01
     18.286  0.0000E+00  0.8377E-01
