Processors received = 12
script running on host compute-1-25.local
PBS_NODEFILE
compute-1-25
compute-1-25
compute-1-25
compute-1-25
compute-1-25
compute-1-25
compute-1-25
compute-1-25
compute-1-25
compute-1-25
compute-1-25
compute-1-25
 running on   12 nodes
 each image running on   12 nodes
 distr:  one band on    1 nodes,   12 groups
 vasp.5.2.2 15Apr09 complex 
 POSCAR found type information on POSCAR  Al
 01/POSCAR found :  1 types and   31 ions

 ----------------------------------------------------------------------------- 
|                                                                             |
|  ADVICE TO THIS USER RUNNING 'VASP/VAMP'   (HEAR YOUR MASTER'S VOICE ...):  |
|                                                                             |
|      You have a (more or less) 'large supercell' and for larger cells       |
|      it might be more efficient to use real space projection operators      |
|      So try LREAL= Auto  in the INCAR   file.                               |
|      Mind: If you want to do a very accurate calculations keep the          |
|      reciprocal projection scheme          (i.e. LREAL=.FALSE.)             |
|                                                                             |
 ----------------------------------------------------------------------------- 

 LDA part: xc-table for Pade appr. of Perdew
 POSCAR found type information on POSCAR  Al
 00/POSCAR found :  1 types and   31 ions
 POSCAR found type information on POSCAR  Al
 02/POSCAR found :  1 types and   31 ions
 POSCAR, INCAR and KPOINTS ok, starting setup
 FFT: planning ...(           1 )
 reading WAVECAR
 entering main loop
       N       E                     dE             d eps       ncg     rms          rms(c)
RMM:   1     0.239885564717E+03    0.23989E+03   -0.15696E+04    72   0.537E+02
RMM:   2    -0.245653778175E+02   -0.26445E+03   -0.25664E+03    72   0.111E+02
RMM:   3    -0.731261483290E+02   -0.48561E+02   -0.48092E+02    72   0.354E+01
RMM:   4    -0.887280821756E+02   -0.15602E+02   -0.11590E+02    72   0.197E+01
RMM:   5    -0.958678634623E+02   -0.71398E+01   -0.47777E+01    72   0.111E+01
RMM:   6    -0.985127266679E+02   -0.26449E+01   -0.19250E+01    72   0.671E+00
RMM:   7    -0.993799672413E+02   -0.86724E+00   -0.73998E+00    72   0.394E+00
RMM:   8    -0.997249759547E+02   -0.34501E+00   -0.30828E+00    72   0.238E+00
RMM:   9    -0.999624931338E+02   -0.23752E+00   -0.22211E+00   164   0.148E+00
RMM:  10    -0.100002855736E+03   -0.40363E-01   -0.29916E-01   151   0.342E-01
RMM:  11    -0.100005168001E+03   -0.23123E-02   -0.11907E-02   128   0.775E-02
RMM:  12    -0.100005202538E+03   -0.34537E-04   -0.16739E-04    97   0.172E-02    0.662E+00
RMM:  13    -0.991271766831E+02    0.87803E+00   -0.90236E-01   145   0.141E+00    0.401E+00
RMM:  14    -0.987832412317E+02    0.34394E+00   -0.34230E-01   144   0.105E+00    0.164E+00
RMM:  15    -0.987143894457E+02    0.68852E-01   -0.92521E-02   146   0.548E-01    0.363E-01
RMM:  16    -0.987091421147E+02    0.52473E-02   -0.68639E-03   144   0.158E-01    0.124E-01
RMM:  17    -0.987085525340E+02    0.58958E-03   -0.14789E-03   145   0.670E-02    0.439E-02
RMM:  18    -0.987085185601E+02    0.33974E-04   -0.18119E-04    99   0.261E-02
   1 F= -.98708519E+02 E0= -.98700005E+02  d E =-.987085E+02
 BRION: g(F)=  0.464E+00 g(S)=  0.000E+00
 bond charge predicted
       N       E                     dE             d eps       ncg     rms          rms(c)
RMM:   1    -0.991260776361E+02   -0.41753E+00   -0.31875E+00   144   0.436E+00    0.665E-01
RMM:   2    -0.990860787458E+02    0.39999E-01   -0.10777E-01   145   0.643E-01    0.245E-01
RMM:   3    -0.990811673197E+02    0.49114E-02   -0.93742E-03   144   0.164E-01    0.117E-01
RMM:   4    -0.990807404274E+02    0.42689E-03   -0.13591E-03   142   0.626E-02    0.556E-02
RMM:   5    -0.990807302533E+02    0.10174E-04   -0.16006E-04    96   0.233E-02
   2 F= -.99080730E+02 E0= -.99070537E+02  d E =-.372212E+00
 BRION: g(F)=  0.180E+00 g(S)=  0.000E+00 retain N=  1 mean eig= 2.22
 eig:   2.224
 bond charge predicted
       N       E                     dE             d eps       ncg     rms          rms(c)
RMM:   1    -0.994325179274E+02   -0.35178E+00   -0.55157E+00   144   0.595E+00    0.953E-01
RMM:   2    -0.993524006658E+02    0.80117E-01   -0.24031E-01   144   0.899E-01    0.373E-01
RMM:   3    -0.993399593816E+02    0.12441E-01   -0.20797E-02   145   0.234E-01    0.168E-01
RMM:   4    -0.993393523484E+02    0.60703E-03   -0.23170E-03   145   0.823E-02    0.814E-02
RMM:   5    -0.993393524151E+02   -0.66718E-07   -0.29222E-04   107   0.315E-02
   3 F= -.99339352E+02 E0= -.99323223E+02  d E =-.258622E+00
 BRION: g(F)=  0.364E-01 g(S)=  0.000E+00 retain N=  1 mean eig= 2.54
 eig:   2.545
 bond charge predicted
       N       E                     dE             d eps       ncg     rms          rms(c)
RMM:   1    -0.993919238733E+02   -0.52572E-01   -0.39561E-01   144   0.170E+00    0.295E-01
RMM:   2    -0.993846741555E+02    0.72497E-02   -0.24535E-02   144   0.267E-01    0.124E-01
RMM:   3    -0.993831997140E+02    0.14744E-02   -0.21380E-03   128   0.701E-02    0.525E-02
RMM:   4    -0.993831778383E+02    0.21876E-04   -0.17115E-04    96   0.255E-02
   4 F= -.99383178E+02 E0= -.99367655E+02  d E =-.438254E-01
 BRION: g(F)=  0.200E-01 g(S)=  0.000E+00 retain N=  2 mean eig= 4.00
 eig:   4.004  4.004
 reached required accuracy - stopping structural energy minimisation
