       N       E                     dE             d eps       ncg     rms          rms(c)
RMM:   1     0.233163577681E+03    0.23316E+03   -0.15672E+04    72   0.536E+02
RMM:   2    -0.382751391427E+02   -0.27144E+03   -0.26148E+03    72   0.111E+02
RMM:   3    -0.957201698979E+02   -0.57445E+02   -0.55978E+02    72   0.364E+01
RMM:   4    -0.107972760309E+03   -0.12253E+02   -0.11154E+02    72   0.197E+01
RMM:   5    -0.112989845921E+03   -0.50171E+01   -0.36725E+01    72   0.101E+01
RMM:   6    -0.114611458088E+03   -0.16216E+01   -0.12079E+01    72   0.568E+00
RMM:   7    -0.115129731323E+03   -0.51827E+00   -0.42319E+00    72   0.318E+00
RMM:   8    -0.115316149301E+03   -0.18642E+00   -0.15631E+00    72   0.186E+00
RMM:   9    -0.115414567748E+03   -0.98418E-01   -0.89625E-01   185   0.108E+00
RMM:  10    -0.115427047791E+03   -0.12480E-01   -0.68664E-02   175   0.275E-01
RMM:  11    -0.115427409817E+03   -0.36203E-03   -0.26317E-03   140   0.621E-02
RMM:  12    -0.115427449107E+03   -0.39290E-04   -0.36190E-04   103   0.234E-02    0.536E+00
RMM:  13    -0.114893940722E+03    0.53351E+00   -0.36835E-01   151   0.932E-01    0.329E+00
RMM:  14    -0.114630305346E+03    0.26364E+00   -0.16220E-01   157   0.839E-01    0.960E-01
RMM:  15    -0.114603586562E+03    0.26719E-01   -0.18416E-02   166   0.315E-01    0.131E-01
RMM:  16    -0.114602880131E+03    0.70643E-03   -0.23713E-03   166   0.974E-02    0.417E-02
RMM:  17    -0.114602914002E+03   -0.33870E-04   -0.20039E-04   120   0.376E-02
   1 F= -.11460291E+03 E0= -.11458615E+03  d E =-.502888E-01
