<?xml version="1.0" encoding="ISO-8859-1"?>
<modeling>
 <generator>
  <i name="program" type="string">vasp </i>
  <i name="version" type="string">5.2.2  </i>
  <i name="subversion" type="string">15Apr09 complex  parallel </i>
  <i name="platform" type="string">LinuxIFC </i>
  <i name="date" type="string">2017 03 17 </i>
  <i name="time" type="string">11:30:10 </i>
 </generator>
 <incar>
  <i type="string" name="PREC">accurate</i>
  <i type="int" name="IALGO">    48</i>
  <i type="int" name="IBRION">     1</i>
  <i name="EDIFFG">      0.05000000</i>
  <i type="int" name="NSW">   191</i>
  <i type="int" name="ISIF">     2</i>
  <i name="ENCUT">    300.00000000</i>
  <i name="POTIM">      0.50000000</i>
  <i name="NELECT">     93.00000000</i>
  <i type="int" name="ISMEAR">     1</i>
  <i name="SIGMA">      0.20000000</i>
  <i type="logical" name="LWAVE"> F  </i>
  <i type="logical" name="LCHARG"> F  </i>
  <i type="logical" name="LPEAD"> F  </i>
  <i type="logical" name="LCALCPOL"> F  </i>
  <i type="logical" name="LCALCEPS"> F  </i>
  <v name="EFIELD_PEAD">      0.00000000      0.00000000      0.00000000</v>
  <i type="logical" name="LEFG"> F  </i>
 </incar>
 <kpoints>
  <generation param="Gamma">
   <v type="int" name="divisions">       1        1        1 </v>
   <v name="usershift">      0.00000000       0.00000000       0.00000000 </v>
   <v name="genvec1">      1.00000000       0.00000000       0.00000000 </v>
   <v name="genvec2">      0.00000000       1.00000000       0.00000000 </v>
   <v name="genvec3">      0.00000000       0.00000000       1.00000000 </v>
   <v name="shift">      0.00000000       0.00000000       0.00000000 </v>
  </generation>
  <varray name="kpointlist" >
   <v>       0.00000000       0.00000000       0.00000000 </v>
  </varray>
  <varray name="weights" >
   <v>       1.00000000 </v>
  </varray>
 </kpoints>
 <parameters>
  <separator name="general" >
   <i type="string" name="SYSTEM">unknown system</i>
   <i type="logical" name="LCOMPAT"> F  </i>
  </separator>
  <separator name="electronic" >
   <i type="string" name="PREC">accura</i>
   <i name="ENMAX">    300.00000000</i>
   <i name="ENAUG">    291.05200000</i>
   <i name="EDIFF">      0.00010000</i>
   <i type="int" name="IALGO">    48</i>
   <i type="int" name="IWAVPR">    11</i>
   <i type="int" name="NBANDS">    72</i>
   <i name="NELECT">     93.00000000</i>
   <separator name="electronic smearing" >
    <i type="int" name="ISMEAR">     1</i>
    <i name="SIGMA">      0.20000000</i>
   </separator>
   <separator name="electronic projectors" >
    <i type="logical" name="LREAL"> F  </i>
    <v name="ROPT">      0.00000000</v>
    <i type="int" name="LMAXPAW">  -100</i>
    <i type="int" name="LMAXMIX">     2</i>
   </separator>
   <separator name="electronic startup" >
    <i type="int" name="ISTART">     0</i>
    <i type="int" name="ICHARG">     2</i>
    <i type="int" name="INIWAV">     1</i>
   </separator>
   <separator name="electronic spin" >
    <i type="int" name="ISPIN">     1</i>
    <i type="logical" name="LNONCOLLINEAR"> F  </i>
    <v name="MAGMOM">      1.00000000      1.00000000      1.00000000      1.00000000      1.00000000      1.00000000      1.00000000      1.00000000      1.00000000      1.00000000      1.00000000      1.00000000      1.00000000      1.00000000      1.00000000      1.00000000      1.00000000      1.00000000      1.00000000      1.00000000
      1.00000000      1.00000000      1.00000000      1.00000000      1.00000000      1.00000000      1.00000000      1.00000000      1.00000000      1.00000000      1.00000000</v>
    <i name="NUPDOWN">     -1.00000000</i>
    <i type="logical" name="LSORBIT"> F  </i>
    <v name="SAXIS">      0.00000000      0.00000000      1.00000000</v>
    <i type="logical" name="LSPIRAL"> F  </i>
    <v name="QSPIRAL">      0.00000000      0.00000000      0.00000000</v>
    <i type="logical" name="LZEROZ"> F  </i>
   </separator>
   <separator name="electronic exchange-correlation" >
    <i type="logical" name="LASPH"> F  </i>
    <i type="logical" name="LMETAGGA"> F  </i>
   </separator>
   <separator name="electronic convergence" >
    <i type="int" name="NELM">    60</i>
    <i type="int" name="NELMDL">   -12</i>
    <i type="int" name="NELMIN">     2</i>
    <i name="ENINI">    300.00000000</i>
    <separator name="electronic convergence detail" >
     <i type="logical" name="LDIAG"> T  </i>
     <i name="WEIMIN">      0.00100000</i>
     <i name="EBREAK">      0.00000040</i>
     <i name="DEPER">      0.30000000</i>
     <i type="int" name="NRMM">     4</i>
     <i name="TIME">      0.40000000</i>
    </separator>
   </separator>
   <separator name="electronic mixer" >
    <i name="AMIX">      0.40000000</i>
    <i name="BMIX">      1.00000000</i>
    <i name="AMIN">      0.10000000</i>
    <i name="AMIX_MAG">      1.60000000</i>
    <i name="BMIX_MAG">      1.00000000</i>
    <separator name="electronic mixer details" >
     <i type="int" name="IMIX">     4</i>
     <i type="int" name="MAXMIX">   -45</i>
     <i name="WC">    100.00000000</i>
     <i type="int" name="INIMIX">     1</i>
     <i type="int" name="MIXPRE">     1</i>
     <i type="int" name="MREMOVE">     5</i>
    </separator>
   </separator>
   <separator name="electronic dipolcorrection" >
    <i type="logical" name="LDIPOL"> F  </i>
    <i type="logical" name="LMONO"> F  </i>
    <i type="int" name="IDIPOL">     0</i>
    <i name="EPSILON">      1.00000000</i>
    <v name="DIPOL">   -100.00000000   -100.00000000   -100.00000000</v>
    <i name="EFIELD">      0.00000000</i>
   </separator>
  </separator>
  <separator name="grids" >
   <i type="int" name="NGX">    48</i>
   <i type="int" name="NGY">    48</i>
   <i type="int" name="NGZ">    48</i>
   <i type="int" name="NGXF">    96</i>
   <i type="int" name="NGYF">    96</i>
   <i type="int" name="NGZF">    96</i>
   <i type="logical" name="ADDGRID"> F  </i>
  </separator>
  <separator name="ionic" >
   <i type="int" name="NSW">   191</i>
   <i type="int" name="IBRION">     1</i>
   <i type="int" name="ISIF">     2</i>
   <i name="PSTRESS">      0.00000000</i>
   <i name="EDIFFG">      0.05000000</i>
   <i type="int" name="NFREE">     0</i>
   <i name="POTIM">      0.50000000</i>
   <i name="SMASS">     -3.00000000</i>
  </separator>
  <separator name="ionic md" >
   <i name="TEBEG">      0.00010000</i>
   <i name="TEEND">      0.00010000</i>
   <i type="int" name="NBLOCK">     1</i>
   <i type="int" name="KBLOCK">   191</i>
   <i type="int" name="NPACO">   256</i>
   <i name="APACO">     16.00000000</i>
  </separator>
  <separator name="symmetry" >
   <i type="int" name="ISYM">     2</i>
   <i name="SYMPREC">      0.00001000</i>
  </separator>
  <separator name="dos" >
   <i type="logical" name="LORBIT"> F  </i>
   <v name="RWIGS">     -1.00000000</v>
   <i type="int" name="NEDOS">   301</i>
   <i name="EMIN">     10.00000000</i>
   <i name="EMAX">    -10.00000000</i>
   <i name="EFERMI">      0.00000000</i>
  </separator>
  <separator name="writing" >
   <i type="int" name="NWRITE">     2</i>
   <i type="logical" name="LWAVE"> F  </i>
   <i type="logical" name="LCHARG"> F  </i>
   <i type="logical" name="LPARD"> F  </i>
   <i type="logical" name="LVTOT"> F  </i>
   <i type="logical" name="LELF"> F  </i>
   <i type="logical" name="LOPTICS"> F  </i>
   <v name="STM">      0.00000000      0.00000000      0.00000000      0.00000000      0.00000000</v>
  </separator>
  <separator name="performance" >
   <i type="int" name="NPAR">    12</i>
   <i type="int" name="NSIM">     4</i>
   <i type="int" name="NBLK">    32</i>
   <i type="logical" name="LPLANE"> T  </i>
   <i type="logical" name="LSCALAPACK"> F  </i>
   <i type="logical" name="LSCAAWARE"> F  </i>
   <i type="logical" name="LSCALU"> F  </i>
   <i type="logical" name="LASYNC"> F  </i>
  </separator>
  <separator name="miscellaneous" >
   <i type="int" name="IDIOT">     3</i>
   <i type="logical" name="LMUSIC"> F  </i>
   <v name="POMASS">     26.98200000</v>
   <i type="logical" name="LCORR"> T  </i>
  </separator>
  <i type="logical" name="LREAL_COMPAT"> F  </i>
  <i type="logical" name="GGA_COMPAT"> T  </i>
  <i type="logical" name="LBERRY"> F  </i>
  <i type="int" name="ICORELEVEL">     0</i>
  <i type="logical" name="LDAU"> F  </i>
  <i type="int" name="I_CONSTRAINED_M">     0</i>
  <separator name="electronic exchange-correlation" >
   <i type="string" name="GGA">--</i>
   <i type="int" name="VOSKOWN">     0</i>
   <i type="logical" name="LHFCALC"> F  </i>
   <i type="logical" name="LHFONE"> F  </i>
   <i type="logical" name="LRHFCALC"> F  </i>
   <i type="logical" name="LTHOMAS"> F  </i>
   <i type="logical" name="LMODELHF"> F  </i>
   <i name="ENCUTFOCK">      0.00000000</i>
   <i name="ENCUT4O">     -1.00000000</i>
   <i type="int" name="EXXOEP">     0</i>
   <i type="int" name="FOURORBIT">     0</i>
   <i name="AEXX">      0.00000000</i>
   <i name="HFALPHA">      0.00000000</i>
   <i name="ALDAX">      1.00000000</i>
   <i name="AGGAX">      1.00000000</i>
   <i name="ALDAC">      1.00000000</i>
   <i name="AGGAC">      1.00000000</i>
   <i type="int" name="NKREDX">     1</i>
   <i type="int" name="NKREDY">     1</i>
   <i type="int" name="NKREDZ">     1</i>
   <i type="logical" name="SHIFTRED"> F  </i>
   <i type="logical" name="ODDONLY"> F  </i>
   <i type="logical" name="EVENONLY"> F  </i>
   <i type="int" name="LMAXFOCK">     0</i>
   <i type="int" name="NMAXFOCKAE">     0</i>
   <i name="HFSCREEN">      0.00000000</i>
   <i name="HFSCREENC">      0.00000000</i>
  </separator>
  <separator name="model GW" >
   <i type="int" name="MODEL_GW">     0</i>
   <i name="MODEL_EPS0">     10.23670678</i>
   <i name="MODEL_ALPHA">      1.00000000</i>
  </separator>
  <separator name="linear response parameters" >
   <i type="logical" name="LEPSILON"> F  </i>
   <i type="logical" name="LRPA"> F  </i>
   <i type="logical" name="LNABLA"> F  </i>
   <i type="logical" name="LVEL"> F  </i>
   <i type="int" name="KINTER">     0</i>
   <i name="CSHIFT">      0.10000000</i>
   <i name="OMEGAMAX">     -1.00000000</i>
  </separator>
  <separator name="orbital magnetization" >
   <i type="logical" name="ORBITALMAG"> F  </i>
   <i type="logical" name="LMAGBLOCH"> F  </i>
   <i type="logical" name="LCHIMAG"> F  </i>
   <i type="logical" name="LGAUGE"> T  </i>
   <i type="int" name="MAGATOM">     0</i>
   <v name="MAGDIPOL">      0.00000000      0.00000000      0.00000000</v>
   <v name="AVECCONST">      0.00000000      0.00000000      0.00000000</v>
  </separator>
  <separator name="response functions" >
   <i type="logical" name="LRPA"> T  </i>
   <i type="logical" name="LTCTE"> F  </i>
   <i type="logical" name="LTETE"> F  </i>
   <i type="logical" name="L2ORDER"> F  </i>
   <i type="logical" name="LGWLF"> F  </i>
   <i name="ENCUTGW">    200.00000000</i>
   <i name="ENCUTGWSOFT">     -2.00000000</i>
   <i name="ENCUTLF">     -1.00000000</i>
   <i type="int" name="LMAXMP2">    -1</i>
   <i name="SCISSOR">      0.00000000</i>
   <i type="int" name="NOMEGA">     0</i>
   <i type="int" name="NOMEGAR">     0</i>
   <i type="int" name="NBANDSGW">    -1</i>
   <i type="int" name="NBANDSLF">    -1</i>
   <i type="int" name="NELM">     1</i>
   <i type="int" name="DIM">     3</i>
   <i type="int" name="ANTIRES">     0</i>
   <i type="logical" name="LUSEW"> F  </i>
   <i name="OMEGAMAX">    -30.00000000</i>
   <i name="OMEGATL">   -200.00000000</i>
   <i type="int" name="OMEGAGRID">     0</i>
   <i name="CSHIFT">     -0.10000000</i>
   <i type="logical" name="SELFENERGY"> F  </i>
   <i type="logical" name="LSPECTRAL"> F  </i>
   <i type="logical" name="ODDONLYGW"> F  </i>
   <i type="logical" name="EVENONLYGW"> F  </i>
   <i type="int" name="NKREDLFX">     1</i>
   <i type="int" name="NKREDLFY">     1</i>
   <i type="int" name="NKREDLFZ">     1</i>
   <i type="int" name="MAXMEM">  1024</i>
   <i type="int" name="TELESCOPE">     0</i>
  </separator>
 </parameters>
 <atominfo>
  <atoms>      31 </atoms>
  <types>       1 </types>
  <array name="atoms" >
   <dimension dim="1">ion</dimension>
   <field type="string">element</field>
   <field type="int">atomtype</field>
   <set>
    <rc><c>Al</c><c>   1</c></rc>
    <rc><c>Al</c><c>   1</c></rc>
    <rc><c>Al</c><c>   1</c></rc>
    <rc><c>Al</c><c>   1</c></rc>
    <rc><c>Al</c><c>   1</c></rc>
    <rc><c>Al</c><c>   1</c></rc>
    <rc><c>Al</c><c>   1</c></rc>
    <rc><c>Al</c><c>   1</c></rc>
    <rc><c>Al</c><c>   1</c></rc>
    <rc><c>Al</c><c>   1</c></rc>
    <rc><c>Al</c><c>   1</c></rc>
    <rc><c>Al</c><c>   1</c></rc>
    <rc><c>Al</c><c>   1</c></rc>
    <rc><c>Al</c><c>   1</c></rc>
    <rc><c>Al</c><c>   1</c></rc>
    <rc><c>Al</c><c>   1</c></rc>
    <rc><c>Al</c><c>   1</c></rc>
    <rc><c>Al</c><c>   1</c></rc>
    <rc><c>Al</c><c>   1</c></rc>
    <rc><c>Al</c><c>   1</c></rc>
    <rc><c>Al</c><c>   1</c></rc>
    <rc><c>Al</c><c>   1</c></rc>
    <rc><c>Al</c><c>   1</c></rc>
    <rc><c>Al</c><c>   1</c></rc>
    <rc><c>Al</c><c>   1</c></rc>
    <rc><c>Al</c><c>   1</c></rc>
    <rc><c>Al</c><c>   1</c></rc>
    <rc><c>Al</c><c>   1</c></rc>
    <rc><c>Al</c><c>   1</c></rc>
    <rc><c>Al</c><c>   1</c></rc>
    <rc><c>Al</c><c>   1</c></rc>
   </set>
  </array>
  <array name="atomtypes" >
   <dimension dim="1">type</dimension>
   <field type="int">atomspertype</field>
   <field type="string">element</field>
   <field>mass</field>
   <field>valence</field>
   <field type="string">pseudopotential</field>
   <set>
    <rc><c>  31</c><c>Al</c><c>     26.98200000</c><c>      3.00000000</c><c> PAW_PBE Al 04Jan2001                   </c></rc>
   </set>
  </array>
 </atominfo>
 <structure name="initialpos" >
  <crystal>
   <varray name="basis" >
    <v>       8.08705200       0.00000000       0.00000000 </v>
    <v>       0.00000000       8.08705200       0.00000000 </v>
    <v>       0.00000000       0.00000000       8.08705200 </v>
   </varray>
   <i name="volume">    528.89651690 </i>
   <varray name="rec_basis" >
    <v>       0.12365445       0.00000000       0.00000000 </v>
    <v>       0.00000000       0.12365445       0.00000000 </v>
    <v>       0.00000000       0.00000000       0.12365445 </v>
   </varray>
  </crystal>
  <varray name="positions" >
   <v>       0.99971900       0.00000000       0.99971900 </v>
   <v>       0.24972000       0.00000000       0.24972000 </v>
   <v>       0.24972000       0.25135600       0.00163600 </v>
   <v>       0.00163600       0.25135600       0.24972000 </v>
   <v>       0.50028100       0.00000000       0.99971900 </v>
   <v>       0.75028000       0.00000000       0.24972000 </v>
   <v>       0.75028000       0.24943900       0.99971900 </v>
   <v>       0.49836400       0.25327100       0.25163400 </v>
   <v>       0.00163600       0.50000000       0.00163600 </v>
   <v>       0.24972000       0.74864400       0.00163600 </v>
   <v>       0.00163600       0.74864400       0.24972000 </v>
   <v>       0.49836400       0.50000000       0.00163600 </v>
   <v>       0.74836600       0.50000000       0.25163400 </v>
   <v>       0.75028000       0.75056000       0.99971900 </v>
   <v>       0.49836400       0.74673000       0.25163400 </v>
   <v>       0.99971900       0.00000000       0.50028100 </v>
   <v>       0.24972000       0.00000000       0.75028000 </v>
   <v>       0.25163400       0.25327100       0.49836400 </v>
   <v>       0.99971900       0.24943900       0.75028000 </v>
   <v>       0.50028100       0.00000000       0.50028100 </v>
   <v>       0.75028000       0.00000000       0.75028000 </v>
   <v>       0.74836600       0.25135400       0.50028100 </v>
   <v>       0.50028100       0.25135400       0.74836600 </v>
   <v>       0.00163600       0.50000000       0.49836400 </v>
   <v>       0.25163400       0.50000000       0.74836600 </v>
   <v>       0.25163400       0.74673000       0.49836400 </v>
   <v>       0.99971900       0.75056000       0.75028000 </v>
   <v>       0.74836600       0.50000000       0.74836600 </v>
   <v>       0.74836600       0.74864600       0.50028100 </v>
   <v>       0.50028100       0.74864600       0.74836600 </v>
   <v>       0.37499900       0.50000000       0.37499900 </v>
  </varray>
 </structure>
 <calculation>
  <scstep>
   <time name="diag">    0.15    0.15</time>
   <time name="diis">    0.35    0.35</time>
   <time name="orth">    0.01    0.01</time>
   <time name="total">    0.67    0.68</time>
   <energy>
    <i name="alphaZ">     -6.10292983 </i>
    <i name="ewald">  -2234.88176561 </i>
    <i name="hartreedc">    -12.64391181 </i>
    <i name="XCdc">   -814.90345769 </i>
    <i name="pawpsdc">   1102.18190231 </i>
    <i name="pawaedc">   -111.56847430 </i>
    <i name="eentropy">     -0.05618022 </i>
    <i name="bandstr">    658.19403780 </i>
    <i name="atom">   1659.66634407 </i>
    <i name="e_fr_energy">    239.88556472 </i>
    <i name="e_wo_entrp">    239.94174493 </i>
    <i name="e_0_energy">    239.90429146 </i>
   </energy>
  </scstep>
  <scstep>
   <time name="diag">    0.15    0.15</time>
   <time name="diis">    0.34    0.34</time>
   <time name="orth">    0.01    0.01</time>
   <time name="total">    0.50    0.51</time>
   <energy>
    <i name="e_fr_energy">    -24.56537782 </i>
    <i name="e_wo_entrp">    -24.51790727 </i>
    <i name="e_0_energy">    -24.54955430 </i>
   </energy>
  </scstep>
  <scstep>
   <time name="diag">    0.15    0.15</time>
   <time name="diis">    0.34    0.34</time>
   <time name="orth">    0.01    0.01</time>
   <time name="total">    0.50    0.50</time>
   <energy>
    <i name="e_fr_energy">    -73.12614833 </i>
    <i name="e_wo_entrp">    -73.11695107 </i>
    <i name="e_0_energy">    -73.12308258 </i>
   </energy>
  </scstep>
  <scstep>
   <time name="diag">    0.15    0.15</time>
   <time name="diis">    0.34    0.34</time>
   <time name="orth">    0.01    0.01</time>
   <time name="total">    0.50    0.51</time>
   <energy>
    <i name="e_fr_energy">    -88.72808218 </i>
    <i name="e_wo_entrp">    -88.65909630 </i>
    <i name="e_0_energy">    -88.70508688 </i>
   </energy>
  </scstep>
  <scstep>
   <time name="diag">    0.15    0.15</time>
   <time name="diis">    0.34    0.34</time>
   <time name="orth">    0.01    0.01</time>
   <time name="total">    0.50    0.51</time>
   <energy>
    <i name="e_fr_energy">    -95.86786346 </i>
    <i name="e_wo_entrp">    -95.85297705 </i>
    <i name="e_0_energy">    -95.86290133 </i>
   </energy>
  </scstep>
  <scstep>
   <time name="diag">    0.15    0.15</time>
   <time name="diis">    0.34    0.34</time>
   <time name="orth">    0.01    0.01</time>
   <time name="total">    0.50    0.51</time>
   <energy>
    <i name="e_fr_energy">    -98.51272667 </i>
    <i name="e_wo_entrp">    -98.49780467 </i>
    <i name="e_0_energy">    -98.50775267 </i>
   </energy>
  </scstep>
  <scstep>
   <time name="diag">    0.15    0.15</time>
   <time name="diis">    0.34    0.34</time>
   <time name="orth">    0.01    0.01</time>
   <time name="total">    0.50    0.50</time>
   <energy>
    <i name="e_fr_energy">    -99.37996724 </i>
    <i name="e_wo_entrp">    -99.36748306 </i>
    <i name="e_0_energy">    -99.37580585 </i>
   </energy>
  </scstep>
  <scstep>
   <time name="diag">    0.16    0.18</time>
   <time name="diis">    0.34    0.34</time>
   <time name="orth">    0.01    0.01</time>
   <time name="total">    0.51    0.53</time>
   <energy>
    <i name="e_fr_energy">    -99.72497595 </i>
    <i name="e_wo_entrp">    -99.71033996 </i>
    <i name="e_0_energy">    -99.72009729 </i>
   </energy>
  </scstep>
  <scstep>
   <time name="diag">    0.15    0.15</time>
   <time name="diis">    0.71    0.71</time>
   <time name="orth">    0.01    0.01</time>
   <time name="total">    0.88    0.90</time>
   <energy>
    <i name="e_fr_energy">    -99.96249313 </i>
    <i name="e_wo_entrp">    -99.94106945 </i>
    <i name="e_0_energy">    -99.95535191 </i>
   </energy>
  </scstep>
  <scstep>
   <time name="diag">    0.15    0.15</time>
   <time name="diis">    0.66    0.66</time>
   <time name="orth">    0.01    0.01</time>
   <time name="total">    0.82    0.82</time>
   <energy>
    <i name="e_fr_energy">   -100.00285574 </i>
    <i name="e_wo_entrp">    -99.98186210 </i>
    <i name="e_0_energy">    -99.99585786 </i>
   </energy>
  </scstep>
  <scstep>
   <time name="diag">    0.15    0.15</time>
   <time name="diis">    0.56    0.56</time>
   <time name="orth">    0.01    0.01</time>
   <time name="total">    0.72    0.72</time>
   <energy>
    <i name="e_fr_energy">   -100.00516800 </i>
    <i name="e_wo_entrp">    -99.98401548 </i>
    <i name="e_0_energy">    -99.99811716 </i>
   </energy>
  </scstep>
  <scstep>
   <time name="diag">    0.15    0.15</time>
   <time name="diis">    0.45    0.45</time>
   <time name="orth">    0.01    0.01</time>
   <time name="total">    0.74    0.74</time>
   <energy>
    <i name="e_fr_energy">   -100.00520254 </i>
    <i name="e_wo_entrp">    -99.98403784 </i>
    <i name="e_0_energy">    -99.99814764 </i>
   </energy>
  </scstep>
  <scstep>
   <time name="diag">    0.15    0.15</time>
   <time name="diis">    0.65    0.65</time>
   <time name="orth">    0.01    0.01</time>
   <time name="total">    1.10    1.10</time>
   <energy>
    <i name="e_fr_energy">    -99.12717668 </i>
    <i name="e_wo_entrp">    -99.09310079 </i>
    <i name="e_0_energy">    -99.11581805 </i>
   </energy>
  </scstep>
  <scstep>
   <time name="diag">    0.15    0.15</time>
   <time name="diis">    0.60    0.60</time>
   <time name="orth">    0.01    0.01</time>
   <time name="total">    1.05    1.05</time>
   <energy>
    <i name="e_fr_energy">    -98.78324123 </i>
    <i name="e_wo_entrp">    -98.75760189 </i>
    <i name="e_0_energy">    -98.77469479 </i>
   </energy>
  </scstep>
  <scstep>
   <time name="diag">    0.15    0.15</time>
   <time name="diis">    0.62    0.62</time>
   <time name="orth">    0.01    0.01</time>
   <time name="total">    1.07    1.07</time>
   <energy>
    <i name="e_fr_energy">    -98.71438945 </i>
    <i name="e_wo_entrp">    -98.68978959 </i>
    <i name="e_0_energy">    -98.70618949 </i>
   </energy>
  </scstep>
  <scstep>
   <time name="diag">    0.15    0.15</time>
   <time name="diis">    0.61    0.61</time>
   <time name="orth">    0.01    0.01</time>
   <time name="total">    1.07    1.07</time>
   <energy>
    <i name="e_fr_energy">    -98.70914211 </i>
    <i name="e_wo_entrp">    -98.68379113 </i>
    <i name="e_0_energy">    -98.70069179 </i>
   </energy>
  </scstep>
  <scstep>
   <time name="diag">    0.15    0.15</time>
   <time name="diis">    0.63    0.63</time>
   <time name="orth">    0.01    0.01</time>
   <time name="total">    1.08    1.08</time>
   <energy>
    <i name="e_fr_energy">    -98.70855253 </i>
    <i name="e_wo_entrp">    -98.68297077 </i>
    <i name="e_0_energy">    -98.70002528 </i>
   </energy>
  </scstep>
  <scstep>
   <time name="diag">    0.15    0.15</time>
   <time name="diis">    0.45    0.45</time>
   <time name="orth">    0.01    0.01</time>
   <time name="total">    0.77    0.78</time>
   <energy>
    <i name="alphaZ">     -6.10292983 </i>
    <i name="ewald">  -2234.88176561 </i>
    <i name="hartreedc">    -16.63063601 </i>
    <i name="XCdc">   -810.88613002 </i>
    <i name="pawpsdc">   1102.27628780 </i>
    <i name="pawaedc">   -111.94192577 </i>
    <i name="eentropy">     -0.02554060 </i>
    <i name="bandstr">    319.81777741 </i>
    <i name="atom">   1659.66634407 </i>
    <i name="e_fr_energy">    -98.70851856 </i>
    <i name="e_wo_entrp">    -98.68297796 </i>
    <i name="e_0_energy">    -98.70000503 </i>
   </energy>
  </scstep>
  <structure>
   <crystal>
    <varray name="basis" >
     <v>       8.08705200       0.00000000       0.00000000 </v>
     <v>       0.00000000       8.08705200       0.00000000 </v>
     <v>       0.00000000       0.00000000       8.08705200 </v>
    </varray>
    <i name="volume">    528.89651690 </i>
    <varray name="rec_basis" >
     <v>       0.12365445       0.00000000       0.00000000 </v>
     <v>       0.00000000       0.12365445       0.00000000 </v>
     <v>       0.00000000       0.00000000       0.12365445 </v>
    </varray>
   </crystal>
   <varray name="positions" >
    <v>       0.99971900       0.00000000       0.99971900 </v>
    <v>       0.24972000       0.00000000       0.24972000 </v>
    <v>       0.24972000       0.25135600       0.00163600 </v>
    <v>       0.00163600       0.25135600       0.24972000 </v>
    <v>       0.50028100       0.00000000       0.99971900 </v>
    <v>       0.75028000       0.00000000       0.24972000 </v>
    <v>       0.75028000       0.24943900       0.99971900 </v>
    <v>       0.49836400       0.25327100       0.25163400 </v>
    <v>       0.00163600       0.50000000       0.00163600 </v>
    <v>       0.24972000       0.74864400       0.00163600 </v>
    <v>       0.00163600       0.74864400       0.24972000 </v>
    <v>       0.49836400       0.50000000       0.00163600 </v>
    <v>       0.74836600       0.50000000       0.25163400 </v>
    <v>       0.75028000       0.75056000       0.99971900 </v>
    <v>       0.49836400       0.74673000       0.25163400 </v>
    <v>       0.99971900       0.00000000       0.50028100 </v>
    <v>       0.24972000       0.00000000       0.75028000 </v>
    <v>       0.25163400       0.25327100       0.49836400 </v>
    <v>       0.99971900       0.24943900       0.75028000 </v>
    <v>       0.50028100       0.00000000       0.50028100 </v>
    <v>       0.75028000       0.00000000       0.75028000 </v>
    <v>       0.74836600       0.25135400       0.50028100 </v>
    <v>       0.50028100       0.25135400       0.74836600 </v>
    <v>       0.00163600       0.50000000       0.49836400 </v>
    <v>       0.25163400       0.50000000       0.74836600 </v>
    <v>       0.25163400       0.74673000       0.49836400 </v>
    <v>       0.99971900       0.75056000       0.75028000 </v>
    <v>       0.74836600       0.50000000       0.74836600 </v>
    <v>       0.74836600       0.74864600       0.50028100 </v>
    <v>       0.50028100       0.74864600       0.74836600 </v>
    <v>       0.37499900       0.50000000       0.37499900 </v>
   </varray>
  </structure>
  <varray name="forces" >
   <v>      -0.28522432       0.00000000      -0.28522432 </v>
   <v>      -0.08239463       0.00000000      -0.08239463 </v>
   <v>      -0.03985719      -0.08117867      -0.02669130 </v>
   <v>      -0.02669130      -0.08117867      -0.03985719 </v>
   <v>       0.39187370       0.00000000       0.00400012 </v>
   <v>      -0.00400012       0.00000000      -0.39187370 </v>
   <v>      -0.21730831      -0.45078664       0.21730831 </v>
   <v>       0.71546411      -0.76209923      -0.71546411 </v>
   <v>       0.14419882       0.00000000       0.14419882 </v>
   <v>      -0.03985719       0.08117867      -0.02669130 </v>
   <v>      -0.02669130       0.08117867      -0.03985719 </v>
   <v>       0.03773073       0.00000000       0.46977246 </v>
   <v>      -0.46977246       0.00000000      -0.03773073 </v>
   <v>      -0.21730831       0.45078664       0.21730831 </v>
   <v>       0.71546411       0.76209923      -0.71546411 </v>
   <v>       0.00400012       0.00000000       0.39187370 </v>
   <v>      -0.39187370       0.00000000      -0.00400012 </v>
   <v>      -0.71546411      -0.76209923       0.71546411 </v>
   <v>       0.21730831      -0.45078664      -0.21730831 </v>
   <v>       0.08239463       0.00000000       0.08239463 </v>
   <v>       0.28522432       0.00000000       0.28522432 </v>
   <v>       0.02669130      -0.08117867       0.03985719 </v>
   <v>       0.03985719      -0.08117867       0.02669130 </v>
   <v>       0.46977246       0.00000000       0.03773073 </v>
   <v>      -0.03773073       0.00000000      -0.46977246 </v>
   <v>      -0.71546411       0.76209923       0.71546411 </v>
   <v>       0.21730831       0.45078664      -0.21730831 </v>
   <v>      -0.14419882       0.00000000      -0.14419882 </v>
   <v>       0.02669130       0.08117867       0.03985719 </v>
   <v>       0.03985719       0.08117867       0.02669130 </v>
   <v>       0.00000000       0.00000000       0.00000000 </v>
  </varray>
  <varray name="stress" >
   <v>     -14.30266349       0.00000000       2.84266247 </v>
   <v>       0.00000000     -12.74960151       0.00000000 </v>
   <v>       2.84266247       0.00000000     -14.30266349 </v>
  </varray>
  <energy>
   <i name="e_fr_energy">    -98.70851856 </i>
   <i name="e_wo_entrp">    -98.70000503 </i>
   <i name="e_0_energy">     -0.02554060 </i>
  </energy>
  <time name="totalsc">   14.81   14.89</time>
 </calculation>
 <calculation>
  <scstep>
   <time name="diag">    0.15    0.15</time>
   <time name="diis">    0.61    0.61</time>
   <time name="orth">    0.01    0.01</time>
   <time name="total">    1.06    1.07</time>
   <energy>
    <i name="alphaZ">     -6.10292983 </i>
    <i name="ewald">  -2233.41941027 </i>
    <i name="hartreedc">    -18.33343203 </i>
    <i name="XCdc">   -810.84920116 </i>
    <i name="pawpsdc">   1102.30415205 </i>
    <i name="pawaedc">   -111.97343996 </i>
    <i name="eentropy">     -0.03044038 </i>
    <i name="bandstr">    319.61227988 </i>
    <i name="atom">   1659.66634407 </i>
    <i name="e_fr_energy">    -99.12607764 </i>
    <i name="e_wo_entrp">    -99.09563726 </i>
    <i name="e_0_energy">    -99.11593084 </i>
   </energy>
  </scstep>
  <scstep>
   <time name="diag">    0.15    0.15</time>
   <time name="diis">    0.61    0.61</time>
   <time name="orth">    0.01    0.01</time>
   <time name="total">    1.06    1.06</time>
   <energy>
    <i name="e_fr_energy">    -99.08607875 </i>
    <i name="e_wo_entrp">    -99.05484603 </i>
    <i name="e_0_energy">    -99.07566784 </i>
   </energy>
  </scstep>
  <scstep>
   <time name="diag">    0.15    0.15</time>
   <time name="diis">    0.61    0.61</time>
   <time name="orth">    0.01    0.01</time>
   <time name="total">    1.06    1.07</time>
   <energy>
    <i name="e_fr_energy">    -99.08116732 </i>
    <i name="e_wo_entrp">    -99.05001009 </i>
    <i name="e_0_energy">    -99.07078158 </i>
   </energy>
  </scstep>
  <scstep>
   <time name="diag">    0.15    0.15</time>
   <time name="diis">    0.62    0.62</time>
   <time name="orth">    0.01    0.01</time>
   <time name="total">    1.07    1.08</time>
   <energy>
    <i name="e_fr_energy">    -99.08074043 </i>
    <i name="e_wo_entrp">    -99.05013500 </i>
    <i name="e_0_energy">    -99.07053862 </i>
   </energy>
  </scstep>
  <scstep>
   <time name="diag">    0.15    0.15</time>
   <time name="diis">    0.45    0.46</time>
   <time name="orth">    0.01    0.01</time>
   <time name="total">    0.78    0.78</time>
   <energy>
    <i name="alphaZ">     -6.10292983 </i>
    <i name="ewald">  -2233.41941027 </i>
    <i name="hartreedc">    -18.49118852 </i>
    <i name="XCdc">   -810.86890277 </i>
    <i name="pawpsdc">   1101.95663318 </i>
    <i name="pawaedc">   -111.61041060 </i>
    <i name="eentropy">     -0.03057969 </i>
    <i name="bandstr">    319.81971418 </i>
    <i name="atom">   1659.66634407 </i>
    <i name="e_fr_energy">    -99.08073025 </i>
    <i name="e_wo_entrp">    -99.05015056 </i>
    <i name="e_0_energy">    -99.07053702 </i>
   </energy>
  </scstep>
  <structure>
   <crystal>
    <varray name="basis" >
     <v>       8.08705200       0.00000000       0.00000000 </v>
     <v>       0.00000000       8.08705200       0.00000000 </v>
     <v>       0.00000000       0.00000000       8.08705200 </v>
    </varray>
    <i name="volume">    528.89651690 </i>
    <varray name="rec_basis" >
     <v>       0.12365445       0.00000000       0.00000000 </v>
     <v>       0.00000000       0.12365445       0.00000000 </v>
     <v>       0.00000000       0.00000000       0.12365445 </v>
    </varray>
   </crystal>
   <varray name="positions" >
    <v>       0.99801752       0.00000000       0.99801752 </v>
    <v>       0.24922848       0.00000000       0.24922848 </v>
    <v>       0.24948224       0.25087174       0.00147678 </v>
    <v>       0.00147678       0.25087174       0.24948224 </v>
    <v>       0.50261869       0.00000000       0.99974286 </v>
    <v>       0.75025614       0.00000000       0.24738231 </v>
    <v>       0.74898366       0.24674987       1.00101533 </v>
    <v>       0.50263204       0.24872476       0.24736595 </v>
    <v>       0.00249621       0.50000000       0.00249621 </v>
    <v>       0.24948224       0.74912826       0.00147678 </v>
    <v>       0.00147678       0.74912826       0.24948224 </v>
    <v>       0.49858908       0.50000000       0.00443839 </v>
    <v>       0.74556361       0.50000000       0.25140892 </v>
    <v>       0.74898366       0.75324913       1.00101533 </v>
    <v>       0.50263204       0.75127624       0.24736595 </v>
    <v>       0.99974286       0.00000000       0.50261869 </v>
    <v>       0.24738231       0.00000000       0.75025614 </v>
    <v>       0.24736595       0.24872476       0.50263204 </v>
    <v>       1.00101533       0.24674987       0.74898366 </v>
    <v>       0.50077252       0.00000000       0.50077252 </v>
    <v>       0.75198148       0.00000000       0.75198148 </v>
    <v>       0.74852523       0.25086973       0.50051877 </v>
    <v>       0.50051877       0.25086973       0.74852523 </v>
    <v>       0.00443839       0.50000000       0.49858908 </v>
    <v>       0.25140892       0.50000000       0.74556361 </v>
    <v>       0.24736595       0.75127624       0.50263204 </v>
    <v>       1.00101533       0.75324913       0.74898366 </v>
    <v>       0.74750580       0.50000000       0.74750580 </v>
    <v>       0.74852523       0.74913027       0.50051877 </v>
    <v>       0.50051877       0.74913027       0.74852523 </v>
    <v>       0.37499931       0.50000000       0.37499931 </v>
   </varray>
  </structure>
  <varray name="forces" >
   <v>      -0.26690743       0.00000000      -0.26690743 </v>
   <v>       0.01072169       0.00000000       0.01072169 </v>
   <v>      -0.00579481      -0.08323805      -0.06476930 </v>
   <v>      -0.06476930      -0.08323805      -0.00579481 </v>
   <v>       0.18714308       0.00000000      -0.08505628 </v>
   <v>       0.08505628       0.00000000      -0.18714308 </v>
   <v>      -0.06917441      -0.31174864       0.06917441 </v>
   <v>       0.40025016      -0.53545289      -0.40025016 </v>
   <v>       0.01849477       0.00000000       0.01849477 </v>
   <v>      -0.00579481       0.08323805      -0.06476930 </v>
   <v>      -0.06476930       0.08323805      -0.00579481 </v>
   <v>       0.00433077       0.00000000       0.29105032 </v>
   <v>      -0.29105032       0.00000000      -0.00433077 </v>
   <v>      -0.06917441       0.31174864       0.06917441 </v>
   <v>       0.40025016       0.53545289      -0.40025016 </v>
   <v>      -0.08505628       0.00000000       0.18714308 </v>
   <v>      -0.18714308       0.00000000       0.08505628 </v>
   <v>      -0.40025016      -0.53545289       0.40025016 </v>
   <v>       0.06917441      -0.31174864      -0.06917441 </v>
   <v>      -0.01072169       0.00000000      -0.01072169 </v>
   <v>       0.26690743       0.00000000       0.26690743 </v>
   <v>       0.06476930      -0.08323805       0.00579481 </v>
   <v>       0.00579481      -0.08323805       0.06476930 </v>
   <v>       0.29105032       0.00000000       0.00433077 </v>
   <v>      -0.00433077       0.00000000      -0.29105032 </v>
   <v>      -0.40025016       0.53545289       0.40025016 </v>
   <v>       0.06917441       0.31174864      -0.06917441 </v>
   <v>      -0.01849477       0.00000000      -0.01849477 </v>
   <v>       0.06476930       0.08323805       0.00579481 </v>
   <v>       0.00579481       0.08323805       0.06476930 </v>
   <v>       0.00000000       0.00000000       0.00000000 </v>
  </varray>
  <varray name="stress" >
   <v>     -16.60527984       0.00000000       4.68509482 </v>
   <v>       0.00000000     -14.47232109       0.00000000 </v>
   <v>       4.68509482       0.00000000     -16.60527984 </v>
  </varray>
  <energy>
   <i name="e_fr_energy">    -99.08073025 </i>
   <i name="e_wo_entrp">    -99.07053702 </i>
   <i name="e_0_energy">     -0.03057969 </i>
  </energy>
  <time name="totalsc">    6.35    6.36</time>
 </calculation>
 <calculation>
  <scstep>
   <time name="diag">    0.15    0.15</time>
   <time name="diis">    0.61    0.61</time>
   <time name="orth">    0.01    0.01</time>
   <time name="total">    1.06    1.07</time>
   <energy>
    <i name="alphaZ">     -6.10292983 </i>
    <i name="ewald">  -2228.64903482 </i>
    <i name="hartreedc">    -22.66987037 </i>
    <i name="XCdc">   -810.79787311 </i>
    <i name="pawpsdc">   1101.94093068 </i>
    <i name="pawaedc">   -111.59401108 </i>
    <i name="eentropy">     -0.05282347 </i>
    <i name="bandstr">    318.82675001 </i>
    <i name="atom">   1659.66634407 </i>
    <i name="e_fr_energy">    -99.43251793 </i>
    <i name="e_wo_entrp">    -99.37969446 </i>
    <i name="e_0_energy">    -99.41491010 </i>
   </energy>
  </scstep>
  <scstep>
   <time name="diag">    0.15    0.15</time>
   <time name="diis">    0.61    0.61</time>
   <time name="orth">    0.01    0.01</time>
   <time name="total">    1.06    1.06</time>
   <energy>
    <i name="e_fr_energy">    -99.35240067 </i>
    <i name="e_wo_entrp">    -99.30396670 </i>
    <i name="e_0_energy">    -99.33625601 </i>
   </energy>
  </scstep>
  <scstep>
   <time name="diag">    0.15    0.15</time>
   <time name="diis">    0.63    0.63</time>
   <time name="orth">    0.01    0.01</time>
   <time name="total">    1.09    1.09</time>
   <energy>
    <i name="e_fr_energy">    -99.33995938 </i>
    <i name="e_wo_entrp">    -99.29069054 </i>
    <i name="e_0_energy">    -99.32353643 </i>
   </energy>
  </scstep>
  <scstep>
   <time name="diag">    0.15    0.15</time>
   <time name="diis">    0.65    0.65</time>
   <time name="orth">    0.01    0.01</time>
   <time name="total">    1.10    1.10</time>
   <energy>
    <i name="e_fr_energy">    -99.33935235 </i>
    <i name="e_wo_entrp">    -99.29092111 </i>
    <i name="e_0_energy">    -99.32320860 </i>
   </energy>
  </scstep>
  <scstep>
   <time name="diag">    0.15    0.15</time>
   <time name="diis">    0.47    0.47</time>
   <time name="orth">    0.01    0.01</time>
   <time name="total">    0.80    0.80</time>
   <energy>
    <i name="alphaZ">     -6.10292983 </i>
    <i name="ewald">  -2228.64903482 </i>
    <i name="hartreedc">    -23.14279881 </i>
    <i name="XCdc">   -810.80669744 </i>
    <i name="pawpsdc">   1101.89307116 </i>
    <i name="pawaedc">   -111.54386326 </i>
    <i name="eentropy">     -0.04838796 </i>
    <i name="bandstr">    319.39494449 </i>
    <i name="atom">   1659.66634407 </i>
    <i name="e_fr_energy">    -99.33935242 </i>
    <i name="e_wo_entrp">    -99.29096445 </i>
    <i name="e_0_energy">    -99.32322309 </i>
   </energy>
  </scstep>
  <structure>
   <crystal>
    <varray name="basis" >
     <v>       8.08705200       0.00000000       0.00000000 </v>
     <v>       0.00000000       8.08705200       0.00000000 </v>
     <v>       0.00000000       0.00000000       8.08705200 </v>
    </varray>
    <i name="volume">    528.89651690 </i>
    <varray name="rec_basis" >
     <v>       0.12365445       0.00000000       0.00000000 </v>
     <v>       0.00000000       0.12365445       0.00000000 </v>
     <v>       0.00000000       0.00000000       0.12365445 </v>
    </varray>
   </crystal>
   <varray name="positions" >
    <v>       0.99447629       0.00000000       0.99447629 </v>
    <v>       0.24937073       0.00000000       0.24937073 </v>
    <v>       0.24940535       0.24976738       0.00061745 </v>
    <v>       0.00061745       0.24976738       0.24940535 </v>
    <v>       0.50510163       0.00000000       0.99861437 </v>
    <v>       0.75138463       0.00000000       0.24489937 </v>
    <v>       0.74806588       0.24261371       1.00193311 </v>
    <v>       0.50794239       0.24162058       0.24205559 </v>
    <v>       0.00274160       0.50000000       0.00274160 </v>
    <v>       0.24940535       0.75023262       0.00061745 </v>
    <v>       0.00061745       0.75023262       0.24940535 </v>
    <v>       0.49864653       0.50000000       0.00829994 </v>
    <v>       0.74170208       0.50000000       0.25135145 </v>
    <v>       0.74806588       0.75738529       1.00193311 </v>
    <v>       0.50794239       0.75838042       0.24205559 </v>
    <v>       0.99861437       0.00000000       0.50510163 </v>
    <v>       0.24489937       0.00000000       0.75138463 </v>
    <v>       0.24205559       0.24162058       0.50794239 </v>
    <v>       1.00193311       0.24261371       0.74806588 </v>
    <v>       0.50063027       0.00000000       0.50063027 </v>
    <v>       0.75552270       0.00000000       0.75552270 </v>
    <v>       0.74938457       0.24976535       0.50059565 </v>
    <v>       0.50059565       0.24976535       0.74938457 </v>
    <v>       0.00829994       0.50000000       0.49864653 </v>
    <v>       0.25135145       0.50000000       0.74170208 </v>
    <v>       0.24205559       0.75838042       0.50794239 </v>
    <v>       1.00193311       0.75738529       0.74806588 </v>
    <v>       0.74726042       0.50000000       0.74726042 </v>
    <v>       0.74938457       0.75023465       0.50059565 </v>
    <v>       0.50059565       0.75023465       0.74938457 </v>
    <v>       0.37499979       0.50000000       0.37499979 </v>
   </varray>
  </structure>
  <varray name="forces" >
   <v>      -0.11905996       0.00000000      -0.11905996 </v>
   <v>       0.03496980       0.00000000       0.03496980 </v>
   <v>      -0.03657209      -0.07232550      -0.03090131 </v>
   <v>      -0.03090131      -0.07232550      -0.03657209 </v>
   <v>      -0.05143891       0.00000000      -0.18124465 </v>
   <v>       0.18124465       0.00000000       0.05143891 </v>
   <v>       0.10994054      -0.11265944      -0.10994054 </v>
   <v>       0.03926759      -0.27046961      -0.03926759 </v>
   <v>      -0.05111268       0.00000000      -0.05111268 </v>
   <v>      -0.03657209       0.07232550      -0.03090131 </v>
   <v>      -0.03090131       0.07232550      -0.03657209 </v>
   <v>      -0.03133473       0.00000000       0.07783142 </v>
   <v>      -0.07783142       0.00000000       0.03133473 </v>
   <v>       0.10994054       0.11265944      -0.10994054 </v>
   <v>       0.03926759       0.27046961      -0.03926759 </v>
   <v>      -0.18124465       0.00000000      -0.05143891 </v>
   <v>       0.05143891       0.00000000       0.18124465 </v>
   <v>      -0.03926759      -0.27046961       0.03926759 </v>
   <v>      -0.10994054      -0.11265944       0.10994054 </v>
   <v>      -0.03496980       0.00000000      -0.03496980 </v>
   <v>       0.11905996       0.00000000       0.11905996 </v>
   <v>       0.03090131      -0.07232550       0.03657209 </v>
   <v>       0.03657209      -0.07232550       0.03090131 </v>
   <v>       0.07783142       0.00000000      -0.03133473 </v>
   <v>       0.03133473       0.00000000      -0.07783142 </v>
   <v>      -0.03926759       0.27046961       0.03926759 </v>
   <v>      -0.10994054       0.11265944       0.10994054 </v>
   <v>       0.05111268       0.00000000       0.05111268 </v>
   <v>       0.03090131       0.07232550       0.03657209 </v>
   <v>       0.03657209       0.07232550       0.03090131 </v>
   <v>       0.00000000       0.00000000       0.00000000 </v>
  </varray>
  <varray name="stress" >
   <v>     -17.03160976       0.00000000       6.41869933 </v>
   <v>       0.00000000     -13.65041894       0.00000000 </v>
   <v>       6.41869933       0.00000000     -17.03160976 </v>
  </varray>
  <energy>
   <i name="e_fr_energy">    -99.33935242 </i>
   <i name="e_wo_entrp">    -99.32322309 </i>
   <i name="e_0_energy">     -0.04838796 </i>
  </energy>
  <time name="totalsc">    6.41    6.42</time>
 </calculation>
 <calculation>
  <scstep>
   <time name="diag">    0.15    0.15</time>
   <time name="diis">    0.60    0.60</time>
   <time name="orth">    0.01    0.01</time>
   <time name="total">    1.05    1.06</time>
   <energy>
    <i name="alphaZ">     -6.10292983 </i>
    <i name="ewald">  -2227.07261414 </i>
    <i name="hartreedc">    -24.53429220 </i>
    <i name="XCdc">   -810.78778367 </i>
    <i name="pawpsdc">   1101.89922964 </i>
    <i name="pawaedc">   -111.55010123 </i>
    <i name="eentropy">     -0.04485509 </i>
    <i name="bandstr">    319.13507859 </i>
    <i name="atom">   1659.66634407 </i>
    <i name="e_fr_energy">    -99.39192387 </i>
    <i name="e_wo_entrp">    -99.34706879 </i>
    <i name="e_0_energy">    -99.37697218 </i>
   </energy>
  </scstep>
  <scstep>
   <time name="diag">    0.15    0.15</time>
   <time name="diis">    0.60    0.60</time>
   <time name="orth">    0.01    0.01</time>
   <time name="total">    1.05    1.05</time>
   <energy>
    <i name="e_fr_energy">    -99.38467416 </i>
    <i name="e_wo_entrp">    -99.33853215 </i>
    <i name="e_0_energy">    -99.36929349 </i>
   </energy>
  </scstep>
  <scstep>
   <time name="diag">    0.15    0.15</time>
   <time name="diis">    0.55    0.55</time>
   <time name="orth">    0.01    0.01</time>
   <time name="total">    1.00    1.00</time>
   <energy>
    <i name="e_fr_energy">    -99.38319971 </i>
    <i name="e_wo_entrp">    -99.33664589 </i>
    <i name="e_0_energy">    -99.36768177 </i>
   </energy>
  </scstep>
  <scstep>
   <time name="diag">    0.15    0.15</time>
   <time name="diis">    0.45    0.45</time>
   <time name="orth">    0.01    0.01</time>
   <time name="total">    0.77    0.77</time>
   <energy>
    <i name="alphaZ">     -6.10292983 </i>
    <i name="ewald">  -2227.07261414 </i>
    <i name="hartreedc">    -24.66407452 </i>
    <i name="XCdc">   -810.78735470 </i>
    <i name="pawpsdc">   1101.91137263 </i>
    <i name="pawaedc">   -111.56293907 </i>
    <i name="eentropy">     -0.04656840 </i>
    <i name="bandstr">    319.27558613 </i>
    <i name="atom">   1659.66634407 </i>
    <i name="e_fr_energy">    -99.38317784 </i>
    <i name="e_wo_entrp">    -99.33660944 </i>
    <i name="e_0_energy">    -99.36765504 </i>
   </energy>
  </scstep>
  <structure>
   <crystal>
    <varray name="basis" >
     <v>       8.08705200       0.00000000       0.00000000 </v>
     <v>       0.00000000       8.08705200       0.00000000 </v>
     <v>       0.00000000       0.00000000       8.08705200 </v>
    </varray>
    <i name="volume">    528.89651690 </i>
    <varray name="rec_basis" >
     <v>       0.12365445       0.00000000       0.00000000 </v>
     <v>       0.00000000       0.12365445       0.00000000 </v>
     <v>       0.00000000       0.00000000       0.12365445 </v>
    </varray>
   </crystal>
   <varray name="positions" >
    <v>       0.99338293       0.00000000       0.99338293 </v>
    <v>       0.24962068       0.00000000       0.24962068 </v>
    <v>       0.24914966       0.24918620       0.00033842 </v>
    <v>       0.00033842       0.24918620       0.24914966 </v>
    <v>       0.50494745       0.00000000       0.99728792 </v>
    <v>       0.75271108       0.00000000       0.24505356 </v>
    <v>       0.74874344       0.24151686       1.00125556 </v>
    <v>       0.50863146       0.23921136       0.24136652 </v>
    <v>       0.00241222       0.50000000       0.00241222 </v>
    <v>       0.24914966       0.75081380       0.00033842 </v>
    <v>       0.00033842       0.75081380       0.24914966 </v>
    <v>       0.49843723       0.50000000       0.00913732 </v>
    <v>       0.74086470       0.50000000       0.25156075 </v>
    <v>       0.74874344       0.75848214       1.00125556 </v>
    <v>       0.50863146       0.76078964       0.24136652 </v>
    <v>       0.99728792       0.00000000       0.50494745 </v>
    <v>       0.24505356       0.00000000       0.75271108 </v>
    <v>       0.24136652       0.23921136       0.50863146 </v>
    <v>       1.00125556       0.24151686       0.74874344 </v>
    <v>       0.50038033       0.00000000       0.50038033 </v>
    <v>       0.75661606       0.00000000       0.75661606 </v>
    <v>       0.74966361       0.24918417       0.50085135 </v>
    <v>       0.50085135       0.24918417       0.74966361 </v>
    <v>       0.00913732       0.50000000       0.49843723 </v>
    <v>       0.25156075       0.50000000       0.74086470 </v>
    <v>       0.24136652       0.76078964       0.50863146 </v>
    <v>       1.00125556       0.75848214       0.74874344 </v>
    <v>       0.74758980       0.50000000       0.74758980 </v>
    <v>       0.74966361       0.75081583       0.50085135 </v>
    <v>       0.50085135       0.75081583       0.74966361 </v>
    <v>       0.37499990       0.50000000       0.37499990 </v>
   </varray>
  </structure>
  <varray name="forces" >
   <v>      -0.07791914       0.00000000      -0.07791914 </v>
   <v>       0.02090729       0.00000000       0.02090729 </v>
   <v>      -0.05022059      -0.05390576      -0.00543247 </v>
   <v>      -0.00543247      -0.05390576      -0.05022059 </v>
   <v>      -0.02972151       0.00000000      -0.13411227 </v>
   <v>       0.13411227       0.00000000       0.02972151 </v>
   <v>       0.08755356      -0.08858804      -0.08755356 </v>
   <v>       0.01102661      -0.19173948      -0.01102661 </v>
   <v>      -0.03445276       0.00000000      -0.03445276 </v>
   <v>      -0.05022059       0.05390576      -0.00543247 </v>
   <v>      -0.00543247       0.05390576      -0.05022059 </v>
   <v>      -0.01642483       0.00000000       0.07560393 </v>
   <v>      -0.07560393       0.00000000       0.01642483 </v>
   <v>       0.08755356       0.08858804      -0.08755356 </v>
   <v>       0.01102661       0.19173948      -0.01102661 </v>
   <v>      -0.13411227       0.00000000      -0.02972151 </v>
   <v>       0.02972151       0.00000000       0.13411227 </v>
   <v>      -0.01102661      -0.19173948       0.01102661 </v>
   <v>      -0.08755356      -0.08858804       0.08755356 </v>
   <v>      -0.02090729       0.00000000      -0.02090729 </v>
   <v>       0.07791914       0.00000000       0.07791914 </v>
   <v>       0.00543247      -0.05390576       0.05022059 </v>
   <v>       0.05022059      -0.05390576       0.00543247 </v>
   <v>       0.07560393       0.00000000      -0.01642483 </v>
   <v>       0.01642483       0.00000000      -0.07560393 </v>
   <v>      -0.01102661       0.19173948       0.01102661 </v>
   <v>      -0.08755356       0.08858804       0.08755356 </v>
   <v>       0.03445276       0.00000000       0.03445276 </v>
   <v>       0.00543247       0.05390576       0.05022059 </v>
   <v>       0.05022059       0.05390576       0.00543247 </v>
   <v>       0.00000000       0.00000000       0.00000000 </v>
  </varray>
  <varray name="stress" >
   <v>     -17.02844704       0.00000000       6.76491068 </v>
   <v>       0.00000000     -13.27773356       0.00000000 </v>
   <v>       6.76491068       0.00000000     -17.02844704 </v>
  </varray>
  <energy>
   <i name="e_fr_energy">    -99.38317784 </i>
   <i name="e_wo_entrp">    -99.36765504 </i>
   <i name="e_0_energy">     -0.04656840 </i>
  </energy>
  <time name="totalsc">    5.07    5.08</time>
  <eigenvalues>
   <array>
    <dimension dim="1">band</dimension>
    <dimension dim="2">kpoint</dimension>
    <dimension dim="3">spin</dimension>
    <field>eigene</field>
    <field>occ</field>
    <set>
     <set comment="spin 1">
      <set comment="kpoint 1">
       <r>   -3.3511    1.0000 </r>
       <r>   -1.3749    1.0000 </r>
       <r>   -1.1663    1.0000 </r>
       <r>   -1.1142    1.0000 </r>
       <r>   -1.1030    1.0000 </r>
       <r>   -0.9812    1.0000 </r>
       <r>   -0.8306    1.0000 </r>
       <r>    0.7980    1.0000 </r>
       <r>    0.8812    1.0000 </r>
       <r>    0.9351    1.0000 </r>
       <r>    1.0194    1.0000 </r>
       <r>    1.1119    1.0000 </r>
       <r>    1.1131    1.0000 </r>
       <r>    1.1133    1.0000 </r>
       <r>    1.1141    1.0000 </r>
       <r>    1.2167    1.0000 </r>
       <r>    1.2789    1.0000 </r>
       <r>    1.3643    1.0000 </r>
       <r>    1.9266    1.0000 </r>
       <r>    3.1490    1.0000 </r>
       <r>    3.2225    1.0000 </r>
       <r>    3.2291    1.0000 </r>
       <r>    3.2507    1.0000 </r>
       <r>    3.3263    1.0000 </r>
       <r>    3.3373    1.0000 </r>
       <r>    3.6946    1.0000 </r>
       <r>    3.8220    1.0000 </r>
       <r>    4.8756    1.0000 </r>
       <r>    4.9073    1.0000 </r>
       <r>    4.9297    1.0000 </r>
       <r>    6.0453    1.0000 </r>
       <r>    6.2249    1.0000 </r>
       <r>    6.3518    1.0000 </r>
       <r>    6.6261    1.0000 </r>
       <r>    6.6587    1.0000 </r>
       <r>    6.8014    1.0000 </r>
       <r>    6.9061    1.0000 </r>
       <r>    6.9365    1.0000 </r>
       <r>    6.9547    1.0000 </r>
       <r>    6.9552    1.0000 </r>
       <r>    7.0584    1.0000 </r>
       <r>    7.1068    1.0000 </r>
       <r>    7.2350    1.0000 </r>
       <r>    7.2776    1.0000 </r>
       <r>    7.3167    1.0001 </r>
       <r>    7.4955    1.0045 </r>
       <r>    7.9873    0.2655 </r>
       <r>    8.0016    0.2149 </r>
       <r>    8.0796    0.0234 </r>
       <r>    8.0863    0.0139 </r>
       <r>    8.2530   -0.0222 </r>
       <r>    8.6086    0.0000 </r>
       <r>    8.6829    0.0000 </r>
       <r>    8.6983    0.0000 </r>
       <r>    8.7719    0.0000 </r>
       <r>    8.8001    0.0000 </r>
       <r>    8.9062    0.0000 </r>
       <r>    8.9916    0.0000 </r>
       <r>    9.0015    0.0000 </r>
       <r>    9.0235    0.0000 </r>
       <r>    9.0403    0.0000 </r>
       <r>    9.0924    0.0000 </r>
       <r>    9.1198    0.0000 </r>
       <r>    9.1601    0.0000 </r>
       <r>    9.2907    0.0000 </r>
       <r>    9.3303    0.0000 </r>
       <r>    9.4191    0.0000 </r>
       <r>    9.4332    0.0000 </r>
       <r>    9.9498    0.0000 </r>
       <r>   10.1910    0.0000 </r>
       <r>   10.2402    0.0000 </r>
       <r>   10.5636    0.0000 </r>
      </set>
     </set>
    </set>
   </array>
  </eigenvalues>
  <separator name="orbital magnetization" >
   <v name="MAGDIPOLOUT">      0.00000000      0.00000000      0.00000000</v>
  </separator>
 </calculation>
 <structure name="finalpos" >
  <crystal>
   <varray name="basis" >
    <v>       8.08705200       0.00000000       0.00000000 </v>
    <v>       0.00000000       8.08705200       0.00000000 </v>
    <v>       0.00000000       0.00000000       8.08705200 </v>
   </varray>
   <i name="volume">    528.89651690 </i>
   <varray name="rec_basis" >
    <v>       0.12365445       0.00000000       0.00000000 </v>
    <v>       0.00000000       0.12365445       0.00000000 </v>
    <v>       0.00000000       0.00000000       0.12365445 </v>
   </varray>
  </crystal>
  <varray name="positions" >
   <v>       0.99338293       0.00000000       0.99338293 </v>
   <v>       0.24962068       0.00000000       0.24962068 </v>
   <v>       0.24914966       0.24918620       0.00033842 </v>
   <v>       0.00033842       0.24918620       0.24914966 </v>
   <v>       0.50494745       0.00000000       0.99728792 </v>
   <v>       0.75271108       0.00000000       0.24505356 </v>
   <v>       0.74874344       0.24151686       1.00125556 </v>
   <v>       0.50863146       0.23921136       0.24136652 </v>
   <v>       0.00241222       0.50000000       0.00241222 </v>
   <v>       0.24914966       0.75081380       0.00033842 </v>
   <v>       0.00033842       0.75081380       0.24914966 </v>
   <v>       0.49843723       0.50000000       0.00913732 </v>
   <v>       0.74086470       0.50000000       0.25156075 </v>
   <v>       0.74874344       0.75848214       1.00125556 </v>
   <v>       0.50863146       0.76078964       0.24136652 </v>
   <v>       0.99728792       0.00000000       0.50494745 </v>
   <v>       0.24505356       0.00000000       0.75271108 </v>
   <v>       0.24136652       0.23921136       0.50863146 </v>
   <v>       1.00125556       0.24151686       0.74874344 </v>
   <v>       0.50038033       0.00000000       0.50038033 </v>
   <v>       0.75661606       0.00000000       0.75661606 </v>
   <v>       0.74966361       0.24918417       0.50085135 </v>
   <v>       0.50085135       0.24918417       0.74966361 </v>
   <v>       0.00913732       0.50000000       0.49843723 </v>
   <v>       0.25156075       0.50000000       0.74086470 </v>
   <v>       0.24136652       0.76078964       0.50863146 </v>
   <v>       1.00125556       0.75848214       0.74874344 </v>
   <v>       0.74758980       0.50000000       0.74758980 </v>
   <v>       0.74966361       0.75081583       0.50085135 </v>
   <v>       0.50085135       0.75081583       0.74966361 </v>
   <v>       0.37499990       0.50000000       0.37499990 </v>
  </varray>
 </structure>
</modeling>
