Processors received = 12
script running on host compute-1-27.local
PBS_NODEFILE
compute-1-27
compute-1-27
compute-1-27
compute-1-27
compute-1-27
compute-1-27
compute-1-27
compute-1-27
compute-1-27
compute-1-27
compute-1-27
compute-1-27
 running on   12 nodes
 distr:  one band on    1 nodes,   12 groups
 vasp.5.2.2 15Apr09 complex 
 POSCAR found type information on POSCAR  Al Ag Pt Au
 POSCAR found :  4 types and   32 ions

 ----------------------------------------------------------------------------- 
|                                                                             |
|  ADVICE TO THIS USER RUNNING 'VASP/VAMP'   (HEAR YOUR MASTER'S VOICE ...):  |
|                                                                             |
|      You have a (more or less) 'large supercell' and for larger cells       |
|      it might be more efficient to use real space projection operators      |
|      So try LREAL= Auto  in the INCAR   file.                               |
|      Mind: If you want to do a very accurate calculations keep the          |
|      reciprocal projection scheme          (i.e. LREAL=.FALSE.)             |
|                                                                             |
 ----------------------------------------------------------------------------- 

 LDA part: xc-table for Pade appr. of Perdew
 POSCAR, INCAR and KPOINTS ok, starting setup
 FFT: planning ...(           1 )
 reading WAVECAR
 entering main loop
       N       E                     dE             d eps       ncg     rms          rms(c)
RMM:   1     0.472725345926E+03    0.47273E+03   -0.22555E+04    84   0.627E+02
RMM:   2     0.477651535984E+02   -0.42496E+03   -0.41475E+03    84   0.143E+02
RMM:   3    -0.519106621964E+02   -0.99676E+02   -0.89824E+02    84   0.616E+01
RMM:   4    -0.868317330137E+02   -0.34921E+02   -0.24658E+02    84   0.513E+01
RMM:   5    -0.100436039256E+03   -0.13604E+02   -0.10594E+02    84   0.381E+01
RMM:   6    -0.107044503449E+03   -0.66085E+01   -0.57328E+01    84   0.270E+01
RMM:   7    -0.110899299728E+03   -0.38548E+01   -0.32880E+01    84   0.203E+01
RMM:   8    -0.113031304796E+03   -0.21320E+01   -0.19634E+01    84   0.147E+01
RMM:   9    -0.116142889819E+03   -0.31116E+01   -0.29903E+01   207   0.114E+01
RMM:  10    -0.116347217787E+03   -0.20433E+00   -0.17039E+00   203   0.132E+00
RMM:  11    -0.116364677795E+03   -0.17460E-01   -0.98533E-02   184   0.479E-01
RMM:  12    -0.116365548554E+03   -0.87076E-03   -0.70978E-03   158   0.120E-01    0.155E+01
RMM:  13    -0.112582988209E+03    0.37826E+01   -0.91207E+01   175   0.246E+01    0.731E+00
RMM:  14    -0.109501671763E+03    0.30813E+01   -0.40721E+00   168   0.718E+00    0.349E+00
RMM:  15    -0.109217905548E+03    0.28377E+00   -0.31890E+00   173   0.495E+00    0.212E+00
RMM:  16    -0.109120114330E+03    0.97791E-01   -0.16602E-01   172   0.114E+00    0.117E+00
RMM:  17    -0.109074835224E+03    0.45279E-01   -0.81128E-02   171   0.856E-01    0.438E-01
RMM:  18    -0.109068459803E+03    0.63754E-02   -0.49671E-02   181   0.607E-01    0.674E-02
RMM:  19    -0.109068965534E+03   -0.50573E-03   -0.58957E-03   185   0.175E-01    0.950E-02
RMM:  20    -0.109068661359E+03    0.30418E-03   -0.15448E-03   163   0.111E-01    0.134E-02
RMM:  21    -0.109068658435E+03    0.29233E-05   -0.43503E-05   106   0.221E-02
   1 F= -.10906866E+03 E0= -.10906835E+03  d E =-.109069E+03
 curvature:   0.00 expect dE= 0.000E+00 dE for cont linesearch  0.000E+00
 trial: gam= 0.00000 g(F)=  0.367E+00 g(S)=  0.000E+00 ort = 0.000E+00 (trialstep = 0.100E+01)
 search vector abs. value=  0.367E+00
 bond charge predicted
       N       E                     dE             d eps       ncg     rms          rms(c)
RMM:   1    -0.109389047941E+03   -0.32039E+00   -0.27345E+01   168   0.126E+01    0.936E-01
RMM:   2    -0.109394109689E+03   -0.50617E-02   -0.84802E-01   169   0.311E+00    0.771E-01
RMM:   3    -0.109379959254E+03    0.14150E-01   -0.12161E-01   184   0.872E-01    0.391E-01
RMM:   4    -0.109376922215E+03    0.30370E-02   -0.81198E-03   175   0.297E-01    0.224E-01
RMM:   5    -0.109376007566E+03    0.91465E-03   -0.33008E-03   172   0.141E-01    0.818E-02
RMM:   6    -0.109375894707E+03    0.11286E-03   -0.48735E-04   125   0.708E-02    0.230E-02
RMM:   7    -0.109375897447E+03   -0.27401E-05   -0.16691E-04   112   0.470E-02
   2 F= -.10937590E+03 E0= -.10937228E+03  d E =-.307239E+00
 trial-energy change:   -0.307239  1 .order   -0.308614   -0.367192   -0.250037
 step:   3.9599(harm=  3.1343)  dis= 0.16050  next Energy=  -109.710275 (dE=-0.642E+00)
 bond charge predicted
       N       E                     dE             d eps       ncg     rms          rms(c)
RMM:   1    -0.112291785914E+03   -0.29159E+01   -0.25721E+02   171   0.388E+01    0.467E+00
RMM:   2    -0.110768063371E+03    0.15237E+01   -0.18576E+01   168   0.142E+01    0.470E+00
RMM:   3    -0.109818600323E+03    0.94946E+00   -0.13300E+00   169   0.397E+00    0.251E+00
RMM:   4    -0.109614032830E+03    0.20457E+00   -0.85502E-01   168   0.276E+00    0.638E-01
RMM:   5    -0.109617541191E+03   -0.35084E-02   -0.12627E-01   191   0.741E-01    0.330E-01
RMM:   6    -0.109616491567E+03    0.10496E-02   -0.85303E-03   168   0.272E-01    0.218E-01
RMM:   7    -0.109615120995E+03    0.13706E-02   -0.39554E-03   169   0.176E-01    0.617E-02
RMM:   8    -0.109615115401E+03    0.55940E-05   -0.15203E-03   150   0.115E-01    0.282E-02
RMM:   9    -0.109615091433E+03    0.23968E-04   -0.13583E-04   110   0.329E-02
   3 F= -.10961509E+03 E0= -.10961869E+03  d E =-.546433E+00
 curvature:  -1.33 expect dE=-0.115E+00 dE for cont linesearch -0.228E-01
 trial: gam= 0.00000 g(F)=  0.863E-01 g(S)=  0.000E+00 ort =-0.792E-01 (trialstep = 0.159E+01)
 search vector abs. value=  0.863E-01
 bond charge predicted
       N       E                     dE             d eps       ncg     rms          rms(c)
RMM:   1    -0.109736905466E+03   -0.12179E+00   -0.24567E+00   168   0.388E+00    0.499E-01
RMM:   2    -0.109718799049E+03    0.18106E-01   -0.60099E-02   168   0.727E-01    0.196E-01
RMM:   3    -0.109717656074E+03    0.11430E-02   -0.92217E-03   169   0.262E-01    0.923E-02
RMM:   4    -0.109717501903E+03    0.15417E-03   -0.86147E-04   147   0.108E-01    0.537E-02
RMM:   5    -0.109717466262E+03    0.35642E-04   -0.15235E-04   108   0.444E-02
   4 F= -.10971747E+03 E0= -.10972527E+03  d E =-.102375E+00
 trial-energy change:   -0.102375  1 .order   -0.102071   -0.137383   -0.066760
 step:   3.0969(harm=  3.0969)  dis= 0.06799  next Energy=  -109.748717 (dE=-0.134E+00)
 bond charge predicted
       N       E                     dE             d eps       ncg     rms          rms(c)
RMM:   1    -0.109756281991E+03   -0.38780E-01   -0.21919E+00   168   0.366E+00    0.389E-01
RMM:   2    -0.109746811271E+03    0.94707E-02   -0.41585E-02   170   0.622E-01    0.175E-01
RMM:   3    -0.109745717670E+03    0.10936E-02   -0.71998E-03   169   0.229E-01    0.829E-02
RMM:   4    -0.109745568745E+03    0.14892E-03   -0.69718E-04   143   0.941E-02    0.454E-02
RMM:   5    -0.109745547919E+03    0.20827E-04   -0.11719E-04   107   0.416E-02
   5 F= -.10974555E+03 E0= -.10975353E+03  d E =-.130456E+00
 curvature:  -1.55 expect dE=-0.348E-01 dE for cont linesearch -0.751E-03
 trial: gam= 0.33547 g(F)=  0.225E-01 g(S)=  0.000E+00 ort =-0.647E-02 (trialstep = 0.189E+01)
 search vector abs. value=  0.279E-01
 bond charge predicted
       N       E                     dE             d eps       ncg     rms          rms(c)
RMM:   1    -0.109774187885E+03   -0.28619E-01   -0.97281E+00   168   0.691E+00    0.527E-01
RMM:   2    -0.109783351823E+03   -0.91639E-02   -0.27803E-01   170   0.176E+00    0.419E-01
RMM:   3    -0.109781313847E+03    0.20380E-02   -0.48569E-02   186   0.487E-01    0.244E-01
RMM:   4    -0.109780164744E+03    0.11491E-02   -0.18768E-03   163   0.152E-01    0.157E-01
RMM:   5    -0.109779572167E+03    0.59258E-03   -0.26034E-03   169   0.131E-01    0.288E-02
RMM:   6    -0.109779577884E+03   -0.57178E-05   -0.22901E-04   112   0.499E-02
   6 F= -.10977958E+03 E0= -.10978966E+03  d E =-.340300E-01
 ZBRENT: can't locate minimum, use default step
 trial-energy change:   -0.034030  1 .order   -0.034193   -0.038445   -0.029941
 step:   7.5719(harm=  8.5576)  dis= 0.10313  next Energy=  -109.832447 (dE=-0.869E-01)
 bond charge predicted
       N       E                     dE             d eps       ncg     rms          rms(c)
RMM:   1    -0.110334994558E+03   -0.55542E+00   -0.93264E+01   168   0.221E+01    0.289E+00
RMM:   2    -0.110157160822E+03    0.17783E+00   -0.72012E+00   170   0.982E+00    0.293E+00
RMM:   3    -0.109868630808E+03    0.28853E+00   -0.66660E-01   176   0.240E+00    0.163E+00
RMM:   4    -0.109803617226E+03    0.65014E-01   -0.15647E-01   168   0.129E+00    0.814E-01
RMM:   5    -0.109789851245E+03    0.13766E-01   -0.11468E-01   177   0.867E-01    0.169E-01
RMM:   6    -0.109789951027E+03   -0.99783E-04   -0.71584E-03   187   0.190E-01    0.709E-02
RMM:   7    -0.109789915124E+03    0.35903E-04   -0.38011E-04   120   0.657E-02
   7 F= -.10978992E+03 E0= -.10979697E+03  d E =-.443672E-01
 curvature:  -5.74 expect dE=-0.494E+00 dE for cont linesearch -0.462E-01
 trial: gam= 0.00000 g(F)=  0.861E-01 g(S)=  0.000E+00 ort =-0.150E-01 (trialstep = 0.980E+00)
 search vector abs. value=  0.861E-01
 reached required accuracy - stopping structural energy minimisation
