  32  32   0   0
  0.1652794E+02  0.8087040E-09  0.8087040E-09  0.8087040E-09  0.5000000E-15
  1.000000000000000E-004
  CAR 
 unknown system                          
     12.47193432     -5.24255867  301      7.91116018      1.00000000
     -5.243  0.0000E+00  0.0000E+00
     -5.184  0.0000E+00  0.0000E+00
     -5.124  0.0000E+00  0.0000E+00
     -5.065  0.0000E+00  0.0000E+00
     -5.006  0.0000E+00  0.0000E+00
     -4.947  0.0000E+00  0.0000E+00
     -4.888 -0.1617E-29 -0.9551E-31
     -4.829 -0.1826E-27 -0.1088E-28
     -4.770 -0.1741E-25 -0.1039E-26
     -4.711 -0.1392E-23 -0.8325E-25
     -4.652 -0.9332E-22 -0.5594E-23
     -4.593 -0.5243E-20 -0.3152E-21
     -4.534 -0.2468E-18 -0.1489E-19
     -4.475 -0.9734E-17 -0.5896E-18
     -4.416 -0.3116E-15 -0.1899E-16
     -4.357 -0.8599E-14 -0.5268E-15
     -4.298 -0.1982E-12 -0.1223E-13
     -4.239 -0.3815E-11 -0.2375E-12
     -4.180 -0.6130E-10 -0.3857E-11
     -4.121 -0.8214E-09 -0.5236E-10
     -4.062 -0.9164E-08 -0.5935E-09
     -4.003 -0.8497E-07 -0.5611E-08
     -3.943 -0.6531E-06 -0.4418E-07
     -3.884 -0.4147E-05 -0.2891E-06
     -3.825 -0.2165E-04 -0.1567E-05
     -3.766 -0.9219E-04 -0.7011E-05
     -3.707 -0.3164E-03 -0.2570E-04
     -3.648 -0.8565E-03 -0.7627E-04
     -3.589 -0.1745E-02 -0.1793E-03
     -3.530 -0.2337E-02 -0.3173E-03
     -3.471 -0.7090E-03 -0.3592E-03
     -3.412  0.5866E-02 -0.1282E-04
     -3.353  0.1840E-01  0.1074E-02
     -3.294  0.3328E-01  0.3039E-02
     -3.235  0.4293E-01  0.5574E-02
     -3.176  0.4136E-01  0.8016E-02
     -3.117  0.2960E-01  0.9764E-02
     -3.058  0.1469E-01  0.1063E-01
     -2.999  0.3569E-02  0.1084E-01
     -2.940 -0.1498E-02  0.1075E-01
     -2.881 -0.2295E-02  0.1062E-01
     -2.822 -0.1498E-02  0.1053E-01
     -2.763 -0.6784E-03  0.1049E-01
     -2.703 -0.2350E-03  0.1048E-01
     -2.644 -0.6464E-04  0.1047E-01
     -2.585 -0.1439E-04  0.1047E-01
     -2.526 -0.2618E-05  0.1047E-01
     -2.467 -0.3923E-06  0.1047E-01
     -2.408 -0.4861E-07  0.1047E-01
     -2.349 -0.4996E-08  0.1047E-01
     -2.290 -0.4270E-09  0.1047E-01
     -2.231 -0.3041E-10  0.1047E-01
     -2.172 -0.2001E-11  0.1047E-01
     -2.113 -0.3946E-11  0.1047E-01
     -2.054 -0.6361E-10  0.1047E-01
     -1.995 -0.8774E-09  0.1047E-01
     -1.936 -0.1011E-07  0.1047E-01
     -1.877 -0.9734E-07  0.1047E-01
     -1.818 -0.7809E-06  0.1047E-01
     -1.759 -0.5213E-05  0.1047E-01
     -1.700 -0.2889E-04  0.1047E-01
     -1.641 -0.1323E-03  0.1046E-01
     -1.582 -0.4978E-03  0.1043E-01
     -1.523 -0.1522E-02  0.1034E-01
     -1.463 -0.3698E-02  0.1012E-01
     -1.404 -0.6808E-02  0.9722E-02
     -1.345 -0.8125E-02  0.9242E-02
     -1.286 -0.8378E-03  0.9193E-02
     -1.227  0.2423E-01  0.1062E-01
     -1.168  0.7142E-01  0.1484E-01
     -1.109  0.1313E+00  0.2260E-01
     -1.050  0.1802E+00  0.3324E-01
     -0.991  0.1932E+00  0.4464E-01
     -0.932  0.1642E+00  0.5434E-01
     -0.873  0.1120E+00  0.6095E-01
     -0.814  0.6576E-01  0.6483E-01
     -0.755  0.4191E-01  0.6731E-01
     -0.696  0.3575E-01  0.6942E-01
     -0.637  0.3274E-01  0.7135E-01
     -0.578  0.2432E-01  0.7279E-01
     -0.519  0.1241E-01  0.7352E-01
     -0.460  0.2811E-02  0.7369E-01
     -0.401 -0.1708E-02  0.7359E-01
     -0.342 -0.2354E-02  0.7345E-01
     -0.283 -0.1520E-02  0.7336E-01
     -0.223 -0.6876E-03  0.7332E-01
     -0.164 -0.2385E-03  0.7330E-01
     -0.105 -0.6575E-04  0.7330E-01
     -0.046 -0.1467E-04  0.7330E-01
      0.013 -0.2701E-05  0.7330E-01
      0.072 -0.6347E-06  0.7330E-01
      0.131 -0.1794E-05  0.7330E-01
      0.190 -0.1082E-04  0.7330E-01
      0.249 -0.5525E-04  0.7329E-01
      0.308 -0.2314E-03  0.7328E-01
      0.367 -0.7879E-03  0.7323E-01
      0.426 -0.2148E-02  0.7311E-01
      0.485 -0.4562E-02  0.7284E-01
      0.544 -0.7040E-02  0.7242E-01
      0.603 -0.6017E-02  0.7207E-01
      0.662  0.4571E-02  0.7234E-01
      0.721  0.3048E-01  0.7414E-01
      0.780  0.7339E-01  0.7847E-01
      0.839  0.1295E+00  0.8612E-01
      0.898  0.1904E+00  0.9736E-01
      0.958  0.2424E+00  0.1117E+00
      1.017  0.2685E+00  0.1275E+00
      1.076  0.2564E+00  0.1427E+00
      1.135  0.2106E+00  0.1551E+00
      1.194  0.1520E+00  0.1641E+00
      1.253  0.1040E+00  0.1702E+00
      1.312  0.7700E-01  0.1748E+00
      1.371  0.6602E-01  0.1787E+00
      1.430  0.5893E-01  0.1822E+00
      1.489  0.4702E-01  0.1849E+00
      1.548  0.3094E-01  0.1868E+00
      1.607  0.1972E-01  0.1879E+00
      1.666  0.2369E-01  0.1893E+00
      1.725  0.4589E-01  0.1920E+00
      1.784  0.7927E-01  0.1967E+00
      1.843  0.1126E+00  0.2034E+00
      1.902  0.1382E+00  0.2115E+00
      1.961  0.1536E+00  0.2206E+00
      2.020  0.1565E+00  0.2298E+00
      2.079  0.1435E+00  0.2383E+00
      2.138  0.1162E+00  0.2452E+00
      2.198  0.8610E-01  0.2502E+00
      2.257  0.6786E-01  0.2543E+00
      2.316  0.6680E-01  0.2582E+00
      2.375  0.7481E-01  0.2626E+00
      2.434  0.7973E-01  0.2673E+00
      2.493  0.7680E-01  0.2719E+00
      2.552  0.7028E-01  0.2760E+00
      2.611  0.6704E-01  0.2800E+00
      2.670  0.7037E-01  0.2841E+00
      2.729  0.7773E-01  0.2887E+00
      2.788  0.8183E-01  0.2935E+00
      2.847  0.7511E-01  0.2980E+00
      2.906  0.5577E-01  0.3013E+00
      2.965  0.2993E-01  0.3030E+00
      3.024  0.7609E-02  0.3035E+00
      3.083 -0.2869E-02  0.3033E+00
      3.142  0.2897E-02  0.3035E+00
      3.201  0.2602E-01  0.3050E+00
      3.260  0.6403E-01  0.3088E+00
      3.319  0.1091E+00  0.3152E+00
      3.378  0.1488E+00  0.3240E+00
      3.438  0.1714E+00  0.3342E+00
      3.497  0.1737E+00  0.3444E+00
      3.556  0.1607E+00  0.3539E+00
      3.615  0.1391E+00  0.3621E+00
      3.674  0.1126E+00  0.3688E+00
      3.733  0.8549E-01  0.3738E+00
      3.792  0.6669E-01  0.3778E+00
      3.851  0.6310E-01  0.3815E+00
      3.910  0.7053E-01  0.3856E+00
      3.969  0.7500E-01  0.3901E+00
      4.028  0.6559E-01  0.3939E+00
      4.087  0.4483E-01  0.3966E+00
      4.146  0.2578E-01  0.3981E+00
      4.205  0.1967E-01  0.3993E+00
      4.264  0.2638E-01  0.4008E+00
      4.323  0.3559E-01  0.4029E+00
      4.382  0.3674E-01  0.4051E+00
      4.441  0.2873E-01  0.4068E+00
      4.500  0.2078E-01  0.4080E+00
      4.559  0.2373E-01  0.4094E+00
      4.619  0.4012E-01  0.4118E+00
      4.678  0.6160E-01  0.4154E+00
      4.737  0.7594E-01  0.4199E+00
      4.796  0.7680E-01  0.4245E+00
      4.855  0.6764E-01  0.4284E+00
      4.914  0.5774E-01  0.4319E+00
      4.973  0.5609E-01  0.4352E+00
      5.032  0.6808E-01  0.4392E+00
      5.091  0.9253E-01  0.4447E+00
      5.150  0.1183E+00  0.4516E+00
      5.209  0.1277E+00  0.4592E+00
      5.268  0.1102E+00  0.4657E+00
      5.327  0.7238E-01  0.4700E+00
      5.386  0.3262E-01  0.4719E+00
      5.445  0.5860E-02  0.4722E+00
      5.504 -0.5097E-02  0.4719E+00
      5.563 -0.6067E-02  0.4716E+00
      5.622 -0.3741E-02  0.4713E+00
      5.681 -0.1656E-02  0.4712E+00
      5.740 -0.5694E-03  0.4712E+00
      5.799 -0.1570E-03  0.4712E+00
      5.859 -0.3534E-04  0.4712E+00
      5.918 -0.6774E-05  0.4712E+00
      5.977 -0.2722E-05  0.4712E+00
      6.036 -0.1042E-04  0.4712E+00
      6.095 -0.5078E-04  0.4712E+00
      6.154 -0.2053E-03  0.4712E+00
      6.213 -0.6739E-03  0.4711E+00
      6.272 -0.1760E-02  0.4710E+00
      6.331 -0.3511E-02  0.4708E+00
      6.390 -0.4766E-02  0.4706E+00
      6.449 -0.2114E-02  0.4704E+00
      6.508  0.9483E-02  0.4710E+00
      6.567  0.3298E-01  0.4729E+00
      6.626  0.6446E-01  0.4767E+00
      6.685  0.9263E-01  0.4822E+00
      6.744  0.1054E+00  0.4884E+00
      6.803  0.9904E-01  0.4943E+00
      6.862  0.8104E-01  0.4991E+00
      6.921  0.6525E-01  0.5029E+00
      6.980  0.6264E-01  0.5066E+00
      7.039  0.7550E-01  0.5111E+00
      7.099  0.9739E-01  0.5168E+00
      7.158  0.1183E+00  0.5238E+00
      7.217  0.1326E+00  0.5316E+00
      7.276  0.1442E+00  0.5402E+00
      7.335  0.1625E+00  0.5498E+00
      7.394  0.1895E+00  0.5609E+00
      7.453  0.2121E+00  0.5735E+00
      7.512  0.2110E+00  0.5859E+00
      7.571  0.1792E+00  0.5965E+00
      7.630  0.1301E+00  0.6042E+00
      7.689  0.8724E-01  0.6093E+00
      7.748  0.6552E-01  0.6132E+00
      7.807  0.6178E-01  0.6169E+00
      7.866  0.6179E-01  0.6205E+00
      7.925  0.5488E-01  0.6237E+00
      7.984  0.4305E-01  0.6263E+00
      8.043  0.3763E-01  0.6285E+00
      8.102  0.4722E-01  0.6313E+00
      8.161  0.6790E-01  0.6353E+00
      8.220  0.8586E-01  0.6404E+00
      8.280  0.8980E-01  0.6457E+00
      8.339  0.7921E-01  0.6504E+00
      8.398  0.6139E-01  0.6540E+00
      8.457  0.4460E-01  0.6566E+00
      8.516  0.3619E-01  0.6588E+00
      8.575  0.4167E-01  0.6612E+00
      8.634  0.5971E-01  0.6647E+00
      8.693  0.7945E-01  0.6694E+00
      8.752  0.8823E-01  0.6746E+00
      8.811  0.8309E-01  0.6795E+00
      8.870  0.7227E-01  0.6838E+00
      8.929  0.6625E-01  0.6877E+00
      8.988  0.7015E-01  0.6919E+00
      9.047  0.8429E-01  0.6968E+00
      9.106  0.1074E+00  0.7032E+00
      9.165  0.1370E+00  0.7113E+00
      9.224  0.1675E+00  0.7212E+00
      9.283  0.1918E+00  0.7325E+00
      9.342  0.2055E+00  0.7446E+00
      9.401  0.2089E+00  0.7570E+00
      9.460  0.2051E+00  0.7691E+00
      9.520  0.1961E+00  0.7806E+00
      9.579  0.1828E+00  0.7914E+00
      9.638  0.1659E+00  0.8012E+00
      9.697  0.1454E+00  0.8098E+00
      9.756  0.1203E+00  0.8169E+00
      9.815  0.9246E-01  0.8224E+00
      9.874  0.6990E-01  0.8265E+00
      9.933  0.6223E-01  0.8302E+00
      9.992  0.6988E-01  0.8343E+00
     10.051  0.8155E-01  0.8391E+00
     10.110  0.8576E-01  0.8442E+00
     10.169  0.8227E-01  0.8490E+00
     10.228  0.7927E-01  0.8537E+00
     10.287  0.8192E-01  0.8586E+00
     10.346  0.8701E-01  0.8637E+00
     10.405  0.8728E-01  0.8689E+00
     10.464  0.7784E-01  0.8735E+00
     10.523  0.5904E-01  0.8769E+00
     10.582  0.3600E-01  0.8791E+00
     10.641  0.1562E-01  0.8800E+00
     10.700  0.2593E-02  0.8801E+00
     10.760 -0.2760E-02  0.8800E+00
     10.819 -0.3265E-02  0.8798E+00
     10.878 -0.2071E-02  0.8797E+00
     10.937 -0.9482E-03  0.8796E+00
     10.996 -0.3374E-03  0.8796E+00
     11.055 -0.9613E-04  0.8796E+00
     11.114 -0.2226E-04  0.8796E+00
     11.173 -0.4226E-05  0.8796E+00
     11.232 -0.6615E-06  0.8796E+00
     11.291 -0.8572E-07  0.8796E+00
     11.350 -0.9219E-08  0.8796E+00
     11.409 -0.8248E-09  0.8796E+00
     11.468 -0.6148E-10  0.8796E+00
     11.527 -0.3822E-11  0.8796E+00
     11.586 -0.1984E-12  0.8796E+00
     11.645 -0.8623E-14  0.8796E+00
     11.704 -0.3150E-15  0.8796E+00
     11.763  0.0000E+00  0.8796E+00
     11.822  0.0000E+00  0.8796E+00
     11.881  0.0000E+00  0.8796E+00
     11.940  0.0000E+00  0.8796E+00
     12.000  0.0000E+00  0.8796E+00
     12.059  0.0000E+00  0.8796E+00
     12.118  0.0000E+00  0.8796E+00
     12.177  0.0000E+00  0.8796E+00
     12.236  0.0000E+00  0.8796E+00
     12.295  0.0000E+00  0.8796E+00
     12.354  0.0000E+00  0.8796E+00
     12.413  0.0000E+00  0.8796E+00
     12.472  0.0000E+00  0.8796E+00
