   32   32  191    1
  0.1652794E+02  0.8087040E-09  0.8087040E-09  0.8087040E-09  0.5000000E-15
  1.000000000000000E-004
  CAR 
 unknown system                          
  119    1   84
 
  0.0000000E+00  0.0000000E+00  0.0000000E+00  0.1000000E+01
   1       -3.242559
   2       -1.114318
   3       -1.073618
   4       -1.018664
   5       -0.988094
   6       -0.978092
   7       -0.702778
   8        0.817431
   9        0.830395
  10        0.941668
  11        0.965224
  12        0.999232
  13        1.027347
  14        1.056246
  15        1.069465
  16        1.168131
  17        1.305671
  18        1.450237
  19        1.777627
  20        1.834913
  21        1.930524
  22        1.997854
  23        2.066022
  24        2.101952
  25        2.326582
  26        2.411089
  27        2.573984
  28        2.740208
  29        2.838466
  30        3.273279
  31        3.379453
  32        3.419930
  33        3.429594
  34        3.538675
  35        3.622129
  36        3.671812
  37        3.901576
  38        3.981520
  39        4.328662
  40        4.669797
  41        4.767003
  42        4.954656
  43        5.150747
  44        5.178441
  45        5.221096
  46        6.651180
  47        6.713984
  48        6.815626
  49        7.005721
  50        7.134351
  51        7.185115
  52        7.240828
  53        7.379806
  54        7.394329
  55        7.450494
  56        7.489609
  57        7.519106
  58        7.570194
  59        7.770746
  60        7.896421
  61        8.184256
  62        8.220758
  63        8.404609
  64        8.689178
  65        8.709169
  66        8.900943
  67        9.044717
  68        9.137212
  69        9.230430
  70        9.256517
  71        9.288399
  72        9.368126
  73        9.426971
  74        9.442217
  75        9.526322
  76        9.572638
  77        9.620333
  78        9.747103
  79        9.759206
  80       10.026386
  81       10.045871
  82       10.239852
  83       10.351319
  84       10.471934
