 vasp.5.2.2 15Apr09 complex 
 executed on             LinuxIFC date 2017.01.11  13:34:26
 running on   12 nodes
 distr:  one band on    1 nodes,   12 groups


--------------------------------------------------------------------------------------------------------


 INCAR:
 POTCAR:   PAW_PBE Al 04Jan2001                   
 POTCAR:   PAW_PBE Ag 06Sep2000                   
 POTCAR:   PAW_PBE Pt 05Jan2001                   
 POTCAR:   PAW_PBE Au 06Sep2000                   
 POTCAR:   PAW_PBE Al 04Jan2001                   
   VRHFIN =Al: s2p1                                                             
   LEXCH  = PE                                                                  
   EATOM  =    53.5387 eV,    3.9350 Ry                                         
                                                                                
   TITEL  = PAW_PBE Al 04Jan2001                                                
   LULTRA =        F    use ultrasoft PP ?                                      
   IUNSCR =        1    unscreen: 0-lin 1-nonlin 2-no                           
   RPACOR =    1.500    partial core radius                                     
   POMASS =   26.982; ZVAL   =    3.000    mass and valenz                      
   RCORE  =    1.900    outmost cutoff radius                                   
   RWIGS  =    2.650; RWIGS  =    1.402    wigner-seitz radius (au A)           
   ENMAX  =  240.300; ENMIN  =  180.225 eV                                      
   ICORE  =        2    local potential                                         
   LCOR   =        T    correct aug charges                                     
   LPAW   =        T    paw PP                                                  
   EAUG   =  291.052                                                            
   DEXC   =    -.041                                                            
   RMAX   =    2.974    core radius for proj-oper                               
   RAUG   =    1.300    factor for augmentation sphere                          
   RDEP   =    1.966    radius for radial grids                                 
   QCUT   =   -4.203; QGAM   =    8.405    optimization parameters              
                                                                                
   Description                                                                  
     l     E      TYP  RCUT    TYP  RCUT                                        
     0   .000     23  1.900                                                     
     0   .000     23  1.900                                                     
     1   .000     23  1.900                                                     
     1  1.000     23  1.900                                                     
     2   .000      7  1.900                                                     
  local pseudopotential read in
  partial core-charges read in
  atomic valenz-charges read in
  non local Contribution for L=           0  read in
    real space projection operators read in
  non local Contribution for L=           0  read in
    real space projection operators read in
  non local Contribution for L=           1  read in
    real space projection operators read in
  non local Contribution for L=           1  read in
    real space projection operators read in
    PAW grid and wavefunctions read in
 
   number of l-projection  operators is LMAX  =           4
   number of lm-projection operators is LMMAX =           8
 
 POTCAR:   PAW_PBE Ag 06Sep2000                   
   VRHFIN =Ag : s1 d10                                                          
   LEXCH  = PE                                                                  
   EATOM  =  1037.4134 eV,   76.2477 Ry                                         
                                                                                
   TITEL  = PAW_PBE Ag 06Sep2000                                                
   LULTRA =        F    use ultrasoft PP ?                                      
   IUNSCR =        1    unscreen: 0-lin 1-nonlin 2-no                           
   RPACOR =    2.000    partial core radius                                     
   POMASS =  107.868; ZVAL   =   11.000    mass and valenz                      
   RCORE  =    2.400    outmost cutoff radius                                   
   RWIGS  =    2.840; RWIGS  =    1.503    wigner-seitz radius (au A)           
   ENMAX  =  249.846; ENMIN  =  187.385 eV                                      
   RCLOC  =    1.962    cutoff for local pot                                    
   LCOR   =        T    correct aug charges                                     
   LPAW   =        T    paw PP                                                  
   EAUG   =  412.496                                                            
   DEXC   =    -.047                                                            
   RMAX   =    2.917    core radius for proj-oper                               
   RAUG   =    1.300    factor for augmentation sphere                          
   RDEP   =    2.416    radius for radial grids                                 
   QCUT   =   -4.285; QGAM   =    8.570    optimization parameters              
                                                                                
   Description                                                                  
     l     E      TYP  RCUT    TYP  RCUT                                        
     2   .000     23  2.400                                                     
     2   .000     23  2.400                                                     
     0   .000     23  2.400                                                     
     0   .000     23  2.400                                                     
     1  -.200     23  2.400                                                     
     1  1.500     23  2.400                                                     
     3   .000      7   .000                                                     
  local pseudopotential read in
  partial core-charges read in
  atomic valenz-charges read in
  non local Contribution for L=           2  read in
    real space projection operators read in
  non local Contribution for L=           2  read in
    real space projection operators read in
  non local Contribution for L=           0  read in
    real space projection operators read in
  non local Contribution for L=           0  read in
    real space projection operators read in
  non local Contribution for L=           1  read in
    real space projection operators read in
  non local Contribution for L=           1  read in
    real space projection operators read in
    PAW grid and wavefunctions read in
 
   number of l-projection  operators is LMAX  =           6
   number of lm-projection operators is LMMAX =          18
 
 POTCAR:   PAW_PBE Pt 05Jan2001                   
   VRHFIN =Pt: s1d9                                                             
   LEXCH  = PE                                                                  
   EATOM  =   729.1171 eV,   53.5886 Ry                                         
                                                                                
   TITEL  = PAW_PBE Pt 05Jan2001                                                
   LULTRA =        F    use ultrasoft PP ?                                      
   IUNSCR =        1    unscreen: 0-lin 1-nonlin 2-no                           
   RPACOR =    2.330    partial core radius                                     
   POMASS =  195.080; ZVAL   =   10.000    mass and valenz                      
   RCORE  =    2.500    outmost cutoff radius                                   
   RWIGS  =    2.750; RWIGS  =    1.455    wigner-seitz radius (au A)           
   ENMAX  =  230.283; ENMIN  =  172.712 eV                                      
   RCLOC  =    1.896    cutoff for local pot                                    
   LCOR   =        T    correct aug charges                                     
   LPAW   =        T    paw PP                                                  
   EAUG   =  358.966                                                            
   DEXC   =    -.039                                                            
   RMAX   =    3.038    core radius for proj-oper                               
   RAUG   =    1.300    factor for augmentation sphere                          
   RDEP   =    2.590    radius for radial grids                                 
   QCUT   =   -4.114; QGAM   =    8.228    optimization parameters              
                                                                                
   Description                                                                  
     l     E      TYP  RCUT    TYP  RCUT                                        
     2   .000     23  2.500                                                     
     2   .000     23  2.500                                                     
     0   .000     23  2.500                                                     
     0   .000     23  2.500                                                     
     1  -.200     23  2.500                                                     
     1  1.500     23  2.500                                                     
     3   .000      7   .000                                                     
  local pseudopotential read in
  partial core-charges read in
  atomic valenz-charges read in
  non local Contribution for L=           2  read in
    real space projection operators read in
  non local Contribution for L=           2  read in
    real space projection operators read in
  non local Contribution for L=           0  read in
    real space projection operators read in
  non local Contribution for L=           0  read in
    real space projection operators read in
  non local Contribution for L=           1  read in
    real space projection operators read in
  non local Contribution for L=           1  read in
    real space projection operators read in
    PAW grid and wavefunctions read in
 
   number of l-projection  operators is LMAX  =           6
   number of lm-projection operators is LMMAX =          18
 
 POTCAR:   PAW_PBE Au 06Sep2000                   
   VRHFIN =Au: s1d10                                                            
   LEXCH  = PE                                                                  
   EATOM  =   926.0567 eV,   68.0632 Ry                                         
                                                                                
   TITEL  = PAW_PBE Au 06Sep2000                                                
   LULTRA =        F    use ultrasoft PP ?                                      
   IUNSCR =        1    unscreen: 0-lin 1-nonlin 2-no                           
   RPACOR =    2.330    partial core radius                                     
   POMASS =  196.966; ZVAL   =   11.000    mass and valenz                      
   RCORE  =    2.500    outmost cutoff radius                                   
   RWIGS  =    2.840; RWIGS  =    1.503    wigner-seitz radius (au A)           
   ENMAX  =  229.948; ENMIN  =  172.461 eV                                      
   RCLOC  =    1.964    cutoff for local pot                                    
   LCOR   =        T    correct aug charges                                     
   LPAW   =        T    paw PP                                                  
   EAUG   =  356.670                                                            
   DEXC   =    -.025                                                            
   RMAX   =    3.041    core radius for proj-oper                               
   RAUG   =    1.300    factor for augmentation sphere                          
   RDEP   =    2.598    radius for radial grids                                 
   QCUT   =   -4.111; QGAM   =    8.222    optimization parameters              
                                                                                
   Description                                                                  
     l     E      TYP  RCUT    TYP  RCUT                                        
     2   .000     23  2.500                                                     
     2   .000     23  2.500                                                     
     0   .000     23  2.500                                                     
     0   .000     23  2.500                                                     
     1  -.200     23  2.500                                                     
     1   .000     23  2.500                                                     
     3   .000      7   .000                                                     
  local pseudopotential read in
  partial core-charges read in
  atomic valenz-charges read in
  non local Contribution for L=           2  read in
    real space projection operators read in
  non local Contribution for L=           2  read in
    real space projection operators read in
  non local Contribution for L=           0  read in
    real space projection operators read in
  non local Contribution for L=           0  read in
    real space projection operators read in
  non local Contribution for L=           1  read in
    real space projection operators read in
  non local Contribution for L=           1  read in
    real space projection operators read in
    PAW grid and wavefunctions read in
 
   number of l-projection  operators is LMAX  =           6
   number of lm-projection operators is LMMAX =          18
 

 ----------------------------------------------------------------------------- 
|                                                                             |
|  ADVICE TO THIS USER RUNNING 'VASP/VAMP'   (HEAR YOUR MASTER'S VOICE ...):  |
|                                                                             |
|      You have a (more or less) 'large supercell' and for larger cells       |
|      it might be more efficient to use real space projection operators      |
|      So try LREAL= Auto  in the INCAR   file.                               |
|      Mind: If you want to do a very accurate calculations keep the          |
|      reciprocal projection scheme          (i.e. LREAL=.FALSE.)             |
|                                                                             |
 ----------------------------------------------------------------------------- 

 PAW_PBE Al 04Jan2001                   :
 energy of atom  1       EATOM=  -53.5387
 kinetic energy error for atom=    0.0011 (will be added to EATOM!!)
 PAW_PBE Ag 06Sep2000                   :
 energy of atom  2       EATOM=-1037.4134
 kinetic energy error for atom=    0.0535 (will be added to EATOM!!)
 PAW_PBE Pt 05Jan2001                   :
 energy of atom  3       EATOM= -729.1171
 kinetic energy error for atom=    0.0416 (will be added to EATOM!!)
 PAW_PBE Au 06Sep2000                   :
 energy of atom  4       EATOM= -926.0567
 kinetic energy error for atom=    0.0455 (will be added to EATOM!!)
 
 
 POSCAR: Al29 Ag1 Pt1 Au1                        
  positions in direct lattice
  velocities in cartesian coordinates
 exchange correlation table for  LEXCH =        8
   RHO(1)=    0.500       N(1)  =     2000
   RHO(2)=  100.500       N(2)  =     4000

 VTST: version 2.03d, (02/18/09)

 CHAIN: initializing optimizer
 
 OPT: Using VASP Conjugate-Gradient optimizer
 CHAIN: Read ICHAIN            0
 


--------------------------------------------------------------------------------------------------------


 ion  position               nearest neighbor table
   1  0.000  0.000  0.000-   2 2.86   3 2.86   4 2.86   5 2.86   6 2.86  10 2.86  13 2.86  17 2.86
                            19 2.86  25 2.86  30 2.86  32 2.86
   2  0.250  0.000  0.250-   1 2.86   3 2.86   4 2.86   7 2.86  10 2.86  14 2.86  15 2.86  16 2.86
                            18 2.86  24 2.86  30 2.86  31 2.86
   3  0.250  0.250  0.000-   1 2.86   2 2.86   4 2.86   7 2.86   8 2.86   9 2.86  11 2.86  17 2.86
                            21 2.86  23 2.86  31 2.86  32 2.86
   4  0.000  0.250  0.250-   1 2.86   2 2.86   3 2.86   5 2.86   6 2.86   8 2.86   9 2.86  12 2.86
                            15 2.86  16 2.86  20 2.86  22 2.86
   5  0.750  0.000  0.250-   1 2.86   4 2.86   6 2.86   7 2.86  10 2.86  13 2.86  14 2.86  15 2.86
                            18 2.86  20 2.86  28 2.86  31 2.86
   6  0.750  0.250  0.000-   1 2.86   4 2.86   5 2.86   7 2.86   8 2.86  11 2.86  12 2.86  17 2.86
                            19 2.86  21 2.86  27 2.86  31 2.86
   7  0.500  0.250  0.250-   2 2.86   3 2.86   5 2.86   6 2.86   9 2.86  11 2.86  12 2.86  16 2.86
                            18 2.86  20 2.86  26 2.86  31 2.86
   8  0.000  0.500  0.000-   3 2.86   4 2.86   6 2.86   9 2.86  10 2.86  12 2.86  13 2.86  17 2.86
                            23 2.86  25 2.86  27 2.86  30 2.86
   9  0.250  0.500  0.250-   3 2.86   4 2.86   7 2.86   8 2.86  10 2.86  11 2.86  14 2.86  16 2.86
                            22 2.86  24 2.86  26 2.86  30 2.86
  10  0.000  0.750  0.250-   1 2.86   2 2.86   5 2.86   8 2.86   9 2.86  12 2.86  13 2.86  15 2.86
                            22 2.86  24 2.86  28 2.86  30 2.86
  11  0.500  0.500  0.000-   3 2.86   6 2.86   7 2.86   9 2.86  12 2.86  13 2.86  14 2.86  21 2.86
                            23 2.86  27 2.86  29 2.86  30 2.86
  12  0.750  0.500  0.250-   4 2.86   6 2.86   7 2.86   8 2.86  10 2.86  11 2.86  13 2.86  14 2.86
                            20 2.86  22 2.86  26 2.86  28 2.86
  13  0.750  0.750  0.000-   1 2.86   5 2.86   8 2.86  10 2.86  11 2.86  12 2.86  14 2.86  19 2.86
                            25 2.86  27 2.86  29 2.86  31 2.86
  14  0.500  0.750  0.250-   2 2.86   5 2.86   9 2.86  11 2.86  12 2.86  13 2.86  18 2.86  24 2.86
                            26 2.86  28 2.86  30 2.86  31 2.86
  15  0.000  0.000  0.500-   2 2.86   4 2.86   5 2.86  10 2.86  16 2.86  17 2.86  19 2.86  20 2.86
                            24 2.86  25 2.86  28 2.86  32 2.86
  16  0.250  0.250  0.500-   2 2.86   4 2.86   7 2.86   9 2.86  15 2.86  17 2.86  18 2.86  21 2.86
                            22 2.86  23 2.86  26 2.86  32 2.86
  17  0.000  0.250  0.750-   1 2.86   3 2.86   6 2.86   8 2.86  15 2.86  16 2.86  19 2.86  20 2.86
                            22 2.86  23 2.86  27 2.86  32 2.86
  18  0.500  0.000  0.500-   2 2.86   5 2.86   7 2.86  14 2.86  16 2.86  19 2.86  20 2.86  21 2.86
                            24 2.86  28 2.86  29 2.86  32 2.86
  19  0.750  0.000  0.750-   1 2.86   6 2.86  13 2.86  15 2.86  17 2.86  18 2.86  20 2.86  21 2.86
                            25 2.86  28 2.86  29 2.86  31 2.86
  20  0.750  0.250  0.500-   4 2.86   5 2.86   7 2.86  12 2.86  15 2.86  17 2.86  18 2.86  19 2.86
                            21 2.86  22 2.86  26 2.86  27 2.86
  21  0.500  0.250  0.750-   3 2.86   6 2.86  11 2.86  16 2.86  18 2.86  19 2.86  20 2.86  23 2.86
                            26 2.86  27 2.86  31 2.86  32 2.86
  22  0.000  0.500  0.500-   4 2.86   9 2.86  10 2.86  12 2.86  16 2.86  17 2.86  20 2.86  23 2.86
                            24 2.86  25 2.86  27 2.86  28 2.86
  23  0.250  0.500  0.750-   3 2.86   8 2.86  11 2.86  16 2.86  17 2.86  21 2.86  22 2.86  24 2.86
                            25 2.86  26 2.86  29 2.86  30 2.86
  24  0.250  0.750  0.500-   2 2.86   9 2.86  10 2.86  14 2.86  15 2.86  18 2.86  22 2.86  23 2.86
                            25 2.86  26 2.86  29 2.86  32 2.86
  25  0.000  0.750  0.750-   1 2.86   8 2.86  13 2.86  15 2.86  19 2.86  22 2.86  23 2.86  24 2.86
                            27 2.86  28 2.86  30 2.86  32 2.86
  26  0.500  0.500  0.500-   7 2.86   9 2.86  12 2.86  14 2.86  16 2.86  20 2.86  21 2.86  23 2.86
                            24 2.86  27 2.86  28 2.86  29 2.86
  27  0.750  0.500  0.750-   6 2.86   8 2.86  11 2.86  13 2.86  17 2.86  20 2.86  21 2.86  22 2.86
                            25 2.86  26 2.86  28 2.86  29 2.86
  28  0.750  0.750  0.500-   5 2.86  10 2.86  12 2.86  14 2.86  15 2.86  18 2.86  19 2.86  22 2.86
                            25 2.86  26 2.86  27 2.86  29 2.86
  29  0.500  0.750  0.750-  11 2.86  13 2.86  18 2.86  19 2.86  23 2.86  24 2.86  26 2.86  27 2.86
                            28 2.86  30 2.86  31 2.86  32 2.86
  30  0.250  0.750  0.000-   1 2.86   2 2.86   8 2.86   9 2.86  10 2.86  11 2.86  14 2.86  23 2.86
                            25 2.86  29 2.86  31 2.86  32 2.86
  31  0.500  0.000  0.000-   2 2.86   3 2.86   5 2.86   6 2.86   7 2.86  13 2.86  14 2.86  19 2.86
                            21 2.86  29 2.86  30 2.86  32 2.86
  32  0.250  0.000  0.750-   1 2.86   3 2.86  15 2.86  16 2.86  17 2.86  18 2.86  21 2.86  24 2.86
                            25 2.86  29 2.86  30 2.86  31 2.86
 
  LATTYP: Found a simple cubic cell.
 ALAT       =     8.0870400000
  
  Lattice vectors:
  
 A1 = (   8.0870400000,   0.0000000000,   0.0000000000)
 A2 = (   0.0000000000,   8.0870400000,   0.0000000000)
 A3 = (   0.0000000000,   0.0000000000,   8.0870400000)
 Subroutine PRICEL returns:
 Original cell was already a primitive cell.
 

Analysis of symmetry for initial positions (statically):

 Routine SETGRP: Setting up the symmetry group for a 
 simple cubic supercell.


 Subroutine GETGRP returns: Found  1 space group operations
 (whereof  1 operations were pure point group operations)
 out of a pool of 48 trial point group operations.


The static configuration has the point symmetry C_1 .

Analysis of symmetry for dynamics (positions and initial velocities):

 Subroutine DYNSYM returns: Found  1 space group operations
 (whereof  1 operations were pure point group operations)
 out of a pool of  1 trial space group operations
 (whereof  1 operations were pure point group operations)
 and found also     1 'primitive' translations


The dynamic configuration has the point symmetry C_1 .
 
 
 KPOINTS: Automatic kpoint scheme                 

Automatic generation of k-mesh.
 
 Subroutine IBZKPT returns following result:
 ===========================================
 
 Found      1 irreducible k-points:
 
 Following reciprocal coordinates:
            Coordinates               Weight
  0.000000  0.000000  0.000000      1.000000
 
 Following cartesian coordinates:
            Coordinates               Weight
  0.000000  0.000000  0.000000      1.000000
 


--------------------------------------------------------------------------------------------------------




 Dimension of arrays:
   k-points           NKPTS =      1   k-points in BZ     NKDIM =      1   number of bands    NBANDS=     84
   number of dos      NEDOS =    301   number of ions     NIONS =     32
   non local maximal  LDIM  =      6   non local SUM 2l+1 LMDIM =     18
   total plane-waves  NPLWV = 110592
   max r-space proj   IRMAX =      1   max aug-charges    IRDMAX=  12985
   dimension x,y,z NGX =    48 NGY =   48 NGZ =   48
   dimension x,y,z NGXF=    96 NGYF=   96 NGZF=   96
   support grid    NGXF=    96 NGYF=   96 NGZF=   96
   ions per type =              29   1   1   1
 NGX,Y,Z   is equivalent  to a cutoff of   9.87,  9.87,  9.87 a.u.
 NGXF,Y,Z  is equivalent  to a cutoff of  19.73, 19.73, 19.73 a.u.


 I would recommend the setting:
   dimension x,y,z NGX =    46 NGY =   46 NGZ =   46
 SYSTEM =  unknown system                          
 POSCAR =  Al29 Ag1 Pt1 Au1                        

 Startparameter for this run:
   NWRITE =      2    write-flag & timer
   PREC   = accura    medium, high low
   ISTART =      0    job   : 0-new  1-cont  2-samecut
   ICHARG =      2    charge: 1-file 2-atom 10-const
   ISPIN  =      1    spin polarized calculation?
   LNONCOLLINEAR =      F non collinear calculations
   LSORBIT =      F    spin-orbit coupling
   INIWAV =      1    electr: 0-lowe 1-rand  2-diag
   LASPH  =      F    aspherical Exc in radial PAW
   METAGGA=      F    non-selfconsistent MetaGGA calc.

 Electronic Relaxation 1
   ENCUT  =  300.0 eV  22.05 Ry    4.70 a.u.  11.42 11.42 11.42*2*pi/ulx,y,z
   ENINI  =  300.0     initial cutoff
   ENAUG  =  412.5 eV  augmentation charge cutoff
   NELM   =     60;   NELMIN=  2; NELMDL=-12     # of ELM steps 
   EDIFF  = 0.1E-03   stopping-criterion for ELM
   LREAL  =      F    real-space projection
   LCOMPAT=      F    compatible to vasp.4.4
   LREAL_COMPAT= F    compatible to vasp.4.5.1-3
   GGA_COMPAT  = T    GGA compatible to vasp.4.4-vasp.4.6
   LMAXPAW     = -100 max onsite density
   LMAXMIX     =    2 max onsite mixed and CHGCAR
   VOSKOWN=      0    Vosko Wilk Nusair interpolation
   ROPT   =    0.00000   0.00000   0.00000   0.00000
 Ionic relaxation
   EDIFFG = 0.5E-01   stopping-criterion for IOM
   NSW    =    191    number of steps for IOM
   NBLOCK =      1;   KBLOCK =    191    inner block; outer block 
   IBRION =      2    ionic relax: 0-MD 1-quasi-New 2-CG
   NFREE  =      1    steps in history (QN), initial steepest desc. (CG)
   ISIF   =      2    stress and relaxation
   IWAVPR =     11    prediction:  0-non 1-charg 2-wave 3-comb
   ISYM   =      2    0-nonsym 1-usesym 2-fastsym
   LCORR  =      T    Harris-Foulkes like correction to forces

   POTIM  = 0.5000    time-step for ionic-motion
   TEIN   =    0.0    initial temperature
   TEBEG  =    0.0;   TEEND  =   0.0 temperature during run
   SMASS  =  -3.00    Nose mass-parameter (am)
   estimated Nose-frequenzy (Omega)   =  0.10E-29 period in steps =****** mass=  -0.149E-26a.u.
   NPACO  =    256;   APACO  = 16.0  distance and # of slots for P.C.
   PSTRESS=    0.0 pullay stress

  Mass of Ions in am
   POMASS =  26.98107.87195.08196.97
  Ionic Valenz
   ZVAL   =   3.00 11.00 10.00 11.00
  Atomic Wigner-Seitz radii
   RWIGS  =  -1.00 -1.00 -1.00 -1.00
   NELECT =     119.0000    total number of electrons
   NUPDOWN=      -1.0000    fix difference up-down

 DOS related values:
   EMIN   =  10.00;   EMAX   =-10.00  energy-range for DOS
   EFERMI =   0.00
   ISMEAR =     1;   SIGMA  =   0.20  broadening in eV -4-tet -1-fermi 0-gaus

 Electronic relaxation 2 (details)
   IALGO  =     48    algorithm
   LDIAG  =      T    sub-space diagonalisation
   IMIX   =      4    mixing-type and parameters
     AMIX     =   0.40;   BMIX     =  1.00
     AMIX_MAG =   1.60;   BMIX_MAG =  1.00
     AMIN     =   0.10
     WC   =   100.;   INIMIX=   1;  MIXPRE=   1

 Intra band minimization:
   WEIMIN = 0.0010     energy-eigenvalue tresh-hold
   EBREAK =  0.33E-06  absolut break condition
   DEPER  =   0.30     relativ break condition  

   TIME   =   0.40     timestep for ELM

  volume/ion in A,a.u.               =      16.53       111.54
  Fermi-wavevector in a.u.,A,eV,Ry     =   0.995713  1.881625 13.489423  0.991445
  Thomas-Fermi vector in A             =   2.127752
 
 Write flags
   LWAVE  =      F    write WAVECAR
   LCHARG =      F    write CHGCAR
   LVTOT  =      F    write LOCPOT, local potential
   LELF   =      F    write electronic localiz. function (ELF)
   LORBIT =      0    0 simple, 1 ext, 2 COOP (PROOUT)


 Dipole corrections
   LMONO  =      F    monopole corrections only (constant potential shift)
   LDIPOL =      F    correct potential (dipole corrections)
   IDIPOL =      0    1-x, 2-y, 3-z, 4-all directions 
   EPSILON=  1.0000000 bulk dielectric constant

 Exchange correlation treatment:
   GGA     =    --    GGA type
   LEXCH   =     8    internal setting for exchange type
   VOSKOWN=      0    Vosko Wilk Nusair interpolation
   LHFCALC =     F    Hartree Fock is set to
   LHFONE  =     F    Hartree Fock one center treatment
   AEXX    =    0.0000 exact exchange contribution

 Linear response parameters
   LEPSILON=     F    determine dielectric tensor
   LRPA    =     F    only Hartree local field effects (RPA)
   LNABLA  =     F    use nabla operator in PAW spheres
   LVEL    =     F    velocity operator in full k-point grid
   LINTERFAST=   F  fast interpolation
   KINTER  =     0    interpolate to denser k-point grid
   CSHIFT  =0.1000    complex shift for real part using Kramers Kronig
   OMEGAMAX=  -1.0    maximum frequency

 Orbital magnetization related:
   ORBITALMAG=     F  switch on orbital magnetization
   LCHIMAG   =     F  perturbation theory with respect to B field



--------------------------------------------------------------------------------------------------------


 conjugate gradient relaxation of ions
 charge density and potential will be updated during run
 non-spin polarized calculation
 RMM-DIIS sequential band-by-band
 perform sub-space diagonalisation
    before iterative eigenvector-optimisation
 modified Broyden-mixing scheme, WC =      100.0
 initial mixing is a Kerker type mixing with AMIX =  0.4000 and BMIX =      1.0000
 Hartree-type preconditioning will be used
 using additional bands           24
 reciprocal scheme for non local part
 use partial core corrections
 calculate Harris-corrections to forces 
   (improved forces if not selfconsistent)
 use gradient corrections 
 use of overlap-Matrix (Vanderbilt PP)
 Methfessel and Paxton  Order N= 1 SIGMA  =   0.20


--------------------------------------------------------------------------------------------------------


  energy-cutoff  :      300.00
  volume of cell :      528.89
      direct lattice vectors                 reciprocal lattice vectors
     8.087040000  0.000000000  0.000000000     0.123654638  0.000000000  0.000000000
     0.000000000  8.087040000  0.000000000     0.000000000  0.123654638  0.000000000
     0.000000000  0.000000000  8.087040000     0.000000000  0.000000000  0.123654638

  length of vectors
     8.087040000  8.087040000  8.087040000     0.123654638  0.123654638  0.123654638


 
 k-points in units of 2pi/SCALE and weight: Automatic kpoint scheme                 
   0.00000000  0.00000000  0.00000000       1.000
 
 k-points in reciprocal lattice and weights: Automatic kpoint scheme                 
   0.00000000  0.00000000  0.00000000       1.000
 
 position of ions in fractional coordinates (direct lattice) 
   0.00000000  0.00000000  0.00000000
   0.25000000  0.00000000  0.25000000
   0.25000000  0.25000000  0.00000000
   0.00000000  0.25000000  0.25000000
   0.75000000  0.00000000  0.25000000
   0.75000000  0.25000000  0.00000000
   0.50000000  0.25000000  0.25000000
   0.00000000  0.50000000  0.00000000
   0.25000000  0.50000000  0.25000000
   0.00000000  0.75000000  0.25000000
   0.50000000  0.50000000  0.00000000
   0.75000000  0.50000000  0.25000000
   0.75000000  0.75000000  0.00000000
   0.50000000  0.75000000  0.25000000
   0.00000000  0.00000000  0.50000000
   0.25000000  0.25000000  0.50000000
   0.00000000  0.25000000  0.75000000
   0.50000000  0.00000000  0.50000000
   0.75000000  0.00000000  0.75000000
   0.75000000  0.25000000  0.50000000
   0.50000000  0.25000000  0.75000000
   0.00000000  0.50000000  0.50000000
   0.25000000  0.50000000  0.75000000
   0.25000000  0.75000000  0.50000000
   0.00000000  0.75000000  0.75000000
   0.50000000  0.50000000  0.50000000
   0.75000000  0.50000000  0.75000000
   0.75000000  0.75000000  0.50000000
   0.50000000  0.75000000  0.75000000
   0.25000000  0.75000000  0.00000000
   0.50000000  0.00000000  0.00000000
   0.25000000  0.00000000  0.75000000
 
 position of ions in cartesian coordinates  (Angst):
   0.00000000  0.00000000  0.00000000
   2.02176000  0.00000000  2.02176000
   2.02176000  2.02176000  0.00000000
   0.00000000  2.02176000  2.02176000
   6.06528000  0.00000000  2.02176000
   6.06528000  2.02176000  0.00000000
   4.04352000  2.02176000  2.02176000
   0.00000000  4.04352000  0.00000000
   2.02176000  4.04352000  2.02176000
   0.00000000  6.06528000  2.02176000
   4.04352000  4.04352000  0.00000000
   6.06528000  4.04352000  2.02176000
   6.06528000  6.06528000  0.00000000
   4.04352000  6.06528000  2.02176000
   0.00000000  0.00000000  4.04352000
   2.02176000  2.02176000  4.04352000
   0.00000000  2.02176000  6.06528000
   4.04352000  0.00000000  4.04352000
   6.06528000  0.00000000  6.06528000
   6.06528000  2.02176000  4.04352000
   4.04352000  2.02176000  6.06528000
   0.00000000  4.04352000  4.04352000
   2.02176000  4.04352000  6.06528000
   2.02176000  6.06528000  4.04352000
   0.00000000  6.06528000  6.06528000
   4.04352000  4.04352000  4.04352000
   6.06528000  4.04352000  6.06528000
   6.06528000  6.06528000  4.04352000
   4.04352000  6.06528000  6.06528000
   2.02176000  6.06528000  0.00000000
   4.04352000  0.00000000  0.00000000
   2.02176000  0.00000000  6.06528000
 


--------------------------------------------------------------------------------------------------------


 k-point  1 :  0.00000.00000.0000  plane waves:    6235

 maximum and minimum number of plane-waves per node :    6235   6235

 maximum number of plane-waves:    6235
 maximal index in each direction: 
   IXMAX= 11   IYMAX= 11   IZMAX= 11
   IXMIN=-11   IYMIN=-11   IZMIN=-11

 NGX is ok and might be reduce to  46
 NGY is ok and might be reduce to  46
 NGZ is ok and might be reduce to  46

 serial   3D FFT for wavefunctions
 parallel 3D FFT for charge:
    minimum data exchange during FFTs selected (reduces bandwidth)


 total amount of memory used by VASP on root node  63831. kBytes
========================================================================

   base      :    30000. kBytes
   nonl-proj :     6789. kBytes
   fftplans  :     2983. kBytes
   grid      :    22831. kBytes
   one-center:      497. kBytes
   wavefun   :      731. kBytes
 
 Broyden mixing: mesh for mixing (old mesh)
   NGX = 23   NGY = 23   NGZ = 23
  (NGX  = 96   NGY  = 96   NGZ  = 96)
  gives a total of  12167 points

 initial charge density was supplied:
 charge density of overlapping atoms calculated
 number of electron  119.0000000 magnetization 
 keeping initial charge density in first step


--------------------------------------------------------------------------------------------------------


 Maximum index for augmentation-charges         1043 (set IRDMAX)


--------------------------------------------------------------------------------------------------------


 First call to EWALD:  gamma=   0.219
 Maximum number of real-space cells 3x 3x 3
 Maximum number of reciprocal cells 3x 3x 3

    FEWALD:  cpu time    0.01: real time    0.01
   RESPFUN:  cpu time    0.00: real time    0.00


----------------------------------------- Iteration    1(   1)  ---------------------------------------


    POTLOK:  cpu time    0.16: real time    0.16
    SETDIJ:  cpu time    0.02: real time    0.02
    EDDIAG:  cpu time    0.18: real time    0.18
  RMM-DIIS:  cpu time    0.42: real time    0.43
    ORTHCH:  cpu time    0.01: real time    0.01
       DOS:  cpu time    0.00: real time    0.00
    --------------------------------------------
      LOOP:  cpu time    0.80: real time    0.80

 eigenvalue-minimisations  :    84
 total energy-change (2. order) : 0.4727253E+03  (-0.2255549E+04)
 number of electron  119.0000000 magnetization 
 augmentation part   119.0000000 magnetization 

 Free energy of the ion-electron system (eV)
  ---------------------------------------------------
  alpha Z        PSCENC =       100.06042719
  Ewald energy   TEWEN  =     -3849.86428143
  -1/2 Hartree   DENC   =     -1344.76041401
  -exchange  EXHF       =         0.00000000
  -V(xc)+E(xc)   XCENC  =      -752.21553222
  PAW double counting   =      3222.50049718    -2197.73173776
  entropy T*S    EENTRO =        -0.05641848
  eigenvalues    EBANDS =      1049.75504848
  atomic energy  EATOM  =      4245.03775698
  ---------------------------------------------------
  free energy    TOTEN  =       472.72534593 eV

  energy without entropy =      472.78176440  energy(sigma->0) =      472.74415208


--------------------------------------------------------------------------------------------------------




----------------------------------------- Iteration    1(   2)  ---------------------------------------


    EDDIAG:  cpu time    0.18: real time    0.18
  RMM-DIIS:  cpu time    0.42: real time    0.42
    ORTHCH:  cpu time    0.01: real time    0.01
       DOS:  cpu time    0.00: real time    0.00
    --------------------------------------------
      LOOP:  cpu time    0.61: real time    0.61

 eigenvalue-minimisations  :    84
 total energy-change (2. order) :-0.4249602E+03  (-0.4147504E+03)
 number of electron  119.0000000 magnetization 
 augmentation part   119.0000000 magnetization 

 Free energy of the ion-electron system (eV)
  ---------------------------------------------------
  alpha Z        PSCENC =       100.06042719
  Ewald energy   TEWEN  =     -3849.86428143
  -1/2 Hartree   DENC   =     -1344.76041401
  -exchange  EXHF       =         0.00000000
  -V(xc)+E(xc)   XCENC  =      -752.21553222
  PAW double counting   =      3222.50049718    -2197.73173776
  entropy T*S    EENTRO =        -0.01305430
  eigenvalues    EBANDS =       624.75149198
  atomic energy  EATOM  =      4245.03775698
  ---------------------------------------------------
  free energy    TOTEN  =        47.76515360 eV

  energy without entropy =       47.77820790  energy(sigma->0) =       47.76950503


--------------------------------------------------------------------------------------------------------




----------------------------------------- Iteration    1(   3)  ---------------------------------------


    EDDIAG:  cpu time    0.18: real time    0.18
  RMM-DIIS:  cpu time    0.42: real time    0.42
    ORTHCH:  cpu time    0.01: real time    0.01
       DOS:  cpu time    0.00: real time    0.00
    --------------------------------------------
      LOOP:  cpu time    0.61: real time    0.61

 eigenvalue-minimisations  :    84
 total energy-change (2. order) :-0.9967582E+02  (-0.8982424E+02)
 number of electron  119.0000000 magnetization 
 augmentation part   119.0000000 magnetization 

 Free energy of the ion-electron system (eV)
  ---------------------------------------------------
  alpha Z        PSCENC =       100.06042719
  Ewald energy   TEWEN  =     -3849.86428143
  -1/2 Hartree   DENC   =     -1344.76041401
  -exchange  EXHF       =         0.00000000
  -V(xc)+E(xc)   XCENC  =      -752.21553222
  PAW double counting   =      3222.50049718    -2197.73173776
  entropy T*S    EENTRO =         0.03012849
  eigenvalues    EBANDS =       525.03249338
  atomic energy  EATOM  =      4245.03775698
  ---------------------------------------------------
  free energy    TOTEN  =       -51.91066220 eV

  energy without entropy =      -51.94079069  energy(sigma->0) =      -51.92070503


--------------------------------------------------------------------------------------------------------




----------------------------------------- Iteration    1(   4)  ---------------------------------------


    EDDIAG:  cpu time    0.18: real time    0.18
  RMM-DIIS:  cpu time    0.42: real time    0.42
    ORTHCH:  cpu time    0.01: real time    0.01
       DOS:  cpu time    0.00: real time    0.00
    --------------------------------------------
      LOOP:  cpu time    0.61: real time    0.61

 eigenvalue-minimisations  :    84
 total energy-change (2. order) :-0.3492107E+02  (-0.2465809E+02)
 number of electron  119.0000000 magnetization 
 augmentation part   119.0000000 magnetization 

 Free energy of the ion-electron system (eV)
  ---------------------------------------------------
  alpha Z        PSCENC =       100.06042719
  Ewald energy   TEWEN  =     -3849.86428143
  -1/2 Hartree   DENC   =     -1344.76041401
  -exchange  EXHF       =         0.00000000
  -V(xc)+E(xc)   XCENC  =      -752.21553222
  PAW double counting   =      3222.50049718    -2197.73173776
  entropy T*S    EENTRO =         0.04587998
  eigenvalues    EBANDS =       490.09567109
  atomic energy  EATOM  =      4245.03775698
  ---------------------------------------------------
  free energy    TOTEN  =       -86.83173301 eV

  energy without entropy =      -86.87761299  energy(sigma->0) =      -86.84702634


--------------------------------------------------------------------------------------------------------




----------------------------------------- Iteration    1(   5)  ---------------------------------------


    EDDIAG:  cpu time    0.18: real time    0.18
  RMM-DIIS:  cpu time    0.42: real time    0.42
    ORTHCH:  cpu time    0.01: real time    0.01
       DOS:  cpu time    0.00: real time    0.00
    --------------------------------------------
      LOOP:  cpu time    0.61: real time    0.61

 eigenvalue-minimisations  :    84
 total energy-change (2. order) :-0.1360431E+02  (-0.1059369E+02)
 number of electron  119.0000000 magnetization 
 augmentation part   119.0000000 magnetization 

 Free energy of the ion-electron system (eV)
  ---------------------------------------------------
  alpha Z        PSCENC =       100.06042719
  Ewald energy   TEWEN  =     -3849.86428143
  -1/2 Hartree   DENC   =     -1344.76041401
  -exchange  EXHF       =         0.00000000
  -V(xc)+E(xc)   XCENC  =      -752.21553222
  PAW double counting   =      3222.50049718    -2197.73173776
  entropy T*S    EENTRO =        -0.04544218
  eigenvalues    EBANDS =       476.58268700
  atomic energy  EATOM  =      4245.03775698
  ---------------------------------------------------
  free energy    TOTEN  =      -100.43603926 eV

  energy without entropy =     -100.39059707  energy(sigma->0) =     -100.42089186


--------------------------------------------------------------------------------------------------------




----------------------------------------- Iteration    1(   6)  ---------------------------------------


    EDDIAG:  cpu time    0.18: real time    0.18
  RMM-DIIS:  cpu time    0.42: real time    0.42
    ORTHCH:  cpu time    0.01: real time    0.01
       DOS:  cpu time    0.00: real time    0.00
    --------------------------------------------
      LOOP:  cpu time    0.61: real time    0.61

 eigenvalue-minimisations  :    84
 total energy-change (2. order) :-0.6608464E+01  (-0.5732817E+01)
 number of electron  119.0000000 magnetization 
 augmentation part   119.0000000 magnetization 

 Free energy of the ion-electron system (eV)
  ---------------------------------------------------
  alpha Z        PSCENC =       100.06042719
  Ewald energy   TEWEN  =     -3849.86428143
  -1/2 Hartree   DENC   =     -1344.76041401
  -exchange  EXHF       =         0.00000000
  -V(xc)+E(xc)   XCENC  =      -752.21553222
  PAW double counting   =      3222.50049718    -2197.73173776
  entropy T*S    EENTRO =        -0.02964484
  eigenvalues    EBANDS =       469.95842546
  atomic energy  EATOM  =      4245.03775698
  ---------------------------------------------------
  free energy    TOTEN  =      -107.04450345 eV

  energy without entropy =     -107.01485861  energy(sigma->0) =     -107.03462184


--------------------------------------------------------------------------------------------------------




----------------------------------------- Iteration    1(   7)  ---------------------------------------


    EDDIAG:  cpu time    0.18: real time    0.18
  RMM-DIIS:  cpu time    0.42: real time    0.42
    ORTHCH:  cpu time    0.01: real time    0.01
       DOS:  cpu time    0.00: real time    0.00
    --------------------------------------------
      LOOP:  cpu time    0.61: real time    0.61

 eigenvalue-minimisations  :    84
 total energy-change (2. order) :-0.3854796E+01  (-0.3288004E+01)
 number of electron  119.0000000 magnetization 
 augmentation part   119.0000000 magnetization 

 Free energy of the ion-electron system (eV)
  ---------------------------------------------------
  alpha Z        PSCENC =       100.06042719
  Ewald energy   TEWEN  =     -3849.86428143
  -1/2 Hartree   DENC   =     -1344.76041401
  -exchange  EXHF       =         0.00000000
  -V(xc)+E(xc)   XCENC  =      -752.21553222
  PAW double counting   =      3222.50049718    -2197.73173776
  entropy T*S    EENTRO =         0.03141204
  eigenvalues    EBANDS =       466.04257231
  atomic energy  EATOM  =      4245.03775698
  ---------------------------------------------------
  free energy    TOTEN  =      -110.89929973 eV

  energy without entropy =     -110.93071177  energy(sigma->0) =     -110.90977041


--------------------------------------------------------------------------------------------------------




----------------------------------------- Iteration    1(   8)  ---------------------------------------


    EDDIAG:  cpu time    0.18: real time    0.18
  RMM-DIIS:  cpu time    0.42: real time    0.42
    ORTHCH:  cpu time    0.01: real time    0.01
       DOS:  cpu time    0.00: real time    0.00
    --------------------------------------------
      LOOP:  cpu time    0.61: real time    0.61

 eigenvalue-minimisations  :    84
 total energy-change (2. order) :-0.2132005E+01  (-0.1963384E+01)
 number of electron  119.0000000 magnetization 
 augmentation part   119.0000000 magnetization 

 Free energy of the ion-electron system (eV)
  ---------------------------------------------------
  alpha Z        PSCENC =       100.06042719
  Ewald energy   TEWEN  =     -3849.86428143
  -1/2 Hartree   DENC   =     -1344.76041401
  -exchange  EXHF       =         0.00000000
  -V(xc)+E(xc)   XCENC  =      -752.21553222
  PAW double counting   =      3222.50049718    -2197.73173776
  entropy T*S    EENTRO =         0.04578404
  eigenvalues    EBANDS =       463.89619524
  atomic energy  EATOM  =      4245.03775698
  ---------------------------------------------------
  free energy    TOTEN  =      -113.03130480 eV

  energy without entropy =     -113.07708884  energy(sigma->0) =     -113.04656614


--------------------------------------------------------------------------------------------------------




----------------------------------------- Iteration    1(   9)  ---------------------------------------


    EDDIAG:  cpu time    0.18: real time    0.18
  RMM-DIIS:  cpu time    0.94: real time    0.94
    ORTHCH:  cpu time    0.01: real time    0.01
       DOS:  cpu time    0.00: real time    0.00
    --------------------------------------------
      LOOP:  cpu time    1.13: real time    1.13

 eigenvalue-minimisations  :   207
 total energy-change (2. order) :-0.3111585E+01  (-0.2990301E+01)
 number of electron  119.0000000 magnetization 
 augmentation part   119.0000000 magnetization 

 Free energy of the ion-electron system (eV)
  ---------------------------------------------------
  alpha Z        PSCENC =       100.06042719
  Ewald energy   TEWEN  =     -3849.86428143
  -1/2 Hartree   DENC   =     -1344.76041401
  -exchange  EXHF       =         0.00000000
  -V(xc)+E(xc)   XCENC  =      -752.21553222
  PAW double counting   =      3222.50049718    -2197.73173776
  entropy T*S    EENTRO =         0.01199631
  eigenvalues    EBANDS =       460.81839794
  atomic energy  EATOM  =      4245.03775698
  ---------------------------------------------------
  free energy    TOTEN  =      -116.14288982 eV

  energy without entropy =     -116.15488613  energy(sigma->0) =     -116.14688859


--------------------------------------------------------------------------------------------------------




----------------------------------------- Iteration    1(  10)  ---------------------------------------


    EDDIAG:  cpu time    0.18: real time    0.18
  RMM-DIIS:  cpu time    0.89: real time    0.89
    ORTHCH:  cpu time    0.01: real time    0.01
       DOS:  cpu time    0.00: real time    0.00
    --------------------------------------------
      LOOP:  cpu time    1.08: real time    1.08

 eigenvalue-minimisations  :   203
 total energy-change (2. order) :-0.2043280E+00  (-0.1703891E+00)
 number of electron  119.0000000 magnetization 
 augmentation part   119.0000000 magnetization 

 Free energy of the ion-electron system (eV)
  ---------------------------------------------------
  alpha Z        PSCENC =       100.06042719
  Ewald energy   TEWEN  =     -3849.86428143
  -1/2 Hartree   DENC   =     -1344.76041401
  -exchange  EXHF       =         0.00000000
  -V(xc)+E(xc)   XCENC  =      -752.21553222
  PAW double counting   =      3222.50049718    -2197.73173776
  entropy T*S    EENTRO =         0.02093864
  eigenvalues    EBANDS =       460.60512765
  atomic energy  EATOM  =      4245.03775698
  ---------------------------------------------------
  free energy    TOTEN  =      -116.34721779 eV

  energy without entropy =     -116.36815643  energy(sigma->0) =     -116.35419733


--------------------------------------------------------------------------------------------------------




----------------------------------------- Iteration    1(  11)  ---------------------------------------


    EDDIAG:  cpu time    0.18: real time    0.18
  RMM-DIIS:  cpu time    0.84: real time    0.84
    ORTHCH:  cpu time    0.01: real time    0.01
       DOS:  cpu time    0.00: real time    0.00
    --------------------------------------------
      LOOP:  cpu time    1.03: real time    1.03

 eigenvalue-minimisations  :   184
 total energy-change (2. order) :-0.1746001E-01  (-0.9853296E-02)
 number of electron  119.0000000 magnetization 
 augmentation part   119.0000000 magnetization 

 Free energy of the ion-electron system (eV)
  ---------------------------------------------------
  alpha Z        PSCENC =       100.06042719
  Ewald energy   TEWEN  =     -3849.86428143
  -1/2 Hartree   DENC   =     -1344.76041401
  -exchange  EXHF       =         0.00000000
  -V(xc)+E(xc)   XCENC  =      -752.21553222
  PAW double counting   =      3222.50049718    -2197.73173776
  entropy T*S    EENTRO =         0.02118271
  eigenvalues    EBANDS =       460.58742357
  atomic energy  EATOM  =      4245.03775698
  ---------------------------------------------------
  free energy    TOTEN  =      -116.36467780 eV

  energy without entropy =     -116.38586050  energy(sigma->0) =     -116.37173870


--------------------------------------------------------------------------------------------------------




----------------------------------------- Iteration    1(  12)  ---------------------------------------


    EDDIAG:  cpu time    0.18: real time    0.18
  RMM-DIIS:  cpu time    0.73: real time    0.73
    ORTHCH:  cpu time    0.01: real time    0.01
       DOS:  cpu time    0.00: real time    0.00
    CHARGE:  cpu time    0.11: real time    0.11
    MIXING:  cpu time    0.00: real time    0.00
    --------------------------------------------
      LOOP:  cpu time    1.03: real time    1.03

 eigenvalue-minimisations  :   158
 total energy-change (2. order) :-0.8707590E-03  (-0.7097795E-03)
 number of electron  119.0000032 magnetization 
 augmentation part     9.4866087 magnetization 

 Broyden mixing:
  rms(total) = 0.15543E+01    rms(broyden)= 0.15540E+01
  rms(prec ) = 0.32589E+01
  weight for this iteration     100.00

 Free energy of the ion-electron system (eV)
  ---------------------------------------------------
  alpha Z        PSCENC =       100.06042719
  Ewald energy   TEWEN  =     -3849.86428143
  -1/2 Hartree   DENC   =     -1344.76041401
  -exchange  EXHF       =         0.00000000
  -V(xc)+E(xc)   XCENC  =      -752.21553222
  PAW double counting   =      3222.50049718    -2197.73173776
  entropy T*S    EENTRO =         0.02118271
  eigenvalues    EBANDS =       460.58655282
  atomic energy  EATOM  =      4245.03775698
  ---------------------------------------------------
  free energy    TOTEN  =      -116.36554855 eV

  energy without entropy =     -116.38673126  energy(sigma->0) =     -116.37260946


--------------------------------------------------------------------------------------------------------




----------------------------------------- Iteration    1(  13)  ---------------------------------------


    POTLOK:  cpu time    0.16: real time    0.16
    SETDIJ:  cpu time    0.02: real time    0.02
    EDDIAG:  cpu time    0.18: real time    0.18
  RMM-DIIS:  cpu time    0.81: real time    0.81
    ORTHCH:  cpu time    0.01: real time    0.01
       DOS:  cpu time    0.00: real time    0.00
    CHARGE:  cpu time    0.11: real time    0.11
    MIXING:  cpu time    0.00: real time    0.00
    --------------------------------------------
      LOOP:  cpu time    1.29: real time    1.29

 eigenvalue-minimisations  :   175
 total energy-change (2. order) : 0.3782560E+01  (-0.9120670E+01)
 number of electron  119.0000043 magnetization 
 augmentation part    12.0927358 magnetization 

 Broyden mixing:
  rms(total) = 0.73090E+00    rms(broyden)= 0.73069E+00
  rms(prec ) = 0.15522E+01
  weight for this iteration     100.00

 eigenvalues of (default mixing * dielectric matrix)
  average eigenvalue GAMMA=   0.7336
  0.7336

 Free energy of the ion-electron system (eV)
  ---------------------------------------------------
  alpha Z        PSCENC =       100.06042719
  Ewald energy   TEWEN  =     -3849.86428143
  -1/2 Hartree   DENC   =     -1219.00430559
  -exchange  EXHF       =         0.00000000
  -V(xc)+E(xc)   XCENC  =      -753.76776178
  PAW double counting   =      3032.32454448    -2011.79928180
  entropy T*S    EENTRO =         0.01273111
  eigenvalues    EBANDS =       344.41718264
  atomic energy  EATOM  =      4245.03775698
  ---------------------------------------------------
  free energy    TOTEN  =      -112.58298821 eV

  energy without entropy =     -112.59571932  energy(sigma->0) =     -112.58723191


--------------------------------------------------------------------------------------------------------




----------------------------------------- Iteration    1(  14)  ---------------------------------------


    POTLOK:  cpu time    0.16: real time    0.16
    SETDIJ:  cpu time    0.02: real time    0.02
    EDDIAG:  cpu time    0.18: real time    0.18
  RMM-DIIS:  cpu time    0.74: real time    0.74
    ORTHCH:  cpu time    0.01: real time    0.01
       DOS:  cpu time    0.00: real time    0.00
    CHARGE:  cpu time    0.11: real time    0.11
    MIXING:  cpu time    0.00: real time    0.00
    --------------------------------------------
      LOOP:  cpu time    1.22: real time    1.22

 eigenvalue-minimisations  :   168
 total energy-change (2. order) : 0.3081316E+01  (-0.4072136E+00)
 number of electron  119.0000041 magnetization 
 augmentation part    11.6686952 magnetization 

 Broyden mixing:
  rms(total) = 0.34950E+00    rms(broyden)= 0.34949E+00
  rms(prec ) = 0.60719E+00
  weight for this iteration     100.00

 eigenvalues of (default mixing * dielectric matrix)
  average eigenvalue GAMMA=   1.3670
  0.8222  1.9119

 Free energy of the ion-electron system (eV)
  ---------------------------------------------------
  alpha Z        PSCENC =       100.06042719
  Ewald energy   TEWEN  =     -3849.86428143
  -1/2 Hartree   DENC   =     -1255.21599441
  -exchange  EXHF       =         0.00000000
  -V(xc)+E(xc)   XCENC  =      -752.50335729
  PAW double counting   =      3143.50284567    -2125.18885297
  entropy T*S    EENTRO =        -0.00645639
  eigenvalues    EBANDS =       384.67624090
  atomic energy  EATOM  =      4245.03775698
  ---------------------------------------------------
  free energy    TOTEN  =      -109.50167176 eV

  energy without entropy =     -109.49521537  energy(sigma->0) =     -109.49951963


--------------------------------------------------------------------------------------------------------




----------------------------------------- Iteration    1(  15)  ---------------------------------------


    POTLOK:  cpu time    0.16: real time    0.16
    SETDIJ:  cpu time    0.02: real time    0.02
    EDDIAG:  cpu time    0.18: real time    0.18
  RMM-DIIS:  cpu time    0.74: real time    0.77
    ORTHCH:  cpu time    0.01: real time    0.01
       DOS:  cpu time    0.00: real time    0.00
    CHARGE:  cpu time    0.11: real time    0.11
    MIXING:  cpu time    0.00: real time    0.00
    --------------------------------------------
      LOOP:  cpu time    1.21: real time    1.24

 eigenvalue-minimisations  :   173
 total energy-change (2. order) : 0.2837662E+00  (-0.3189018E+00)
 number of electron  119.0000039 magnetization 
 augmentation part    11.2072281 magnetization 

 Broyden mixing:
  rms(total) = 0.21185E+00    rms(broyden)= 0.21181E+00
  rms(prec ) = 0.37193E+00
  weight for this iteration     100.00

 eigenvalues of (default mixing * dielectric matrix)
  average eigenvalue GAMMA=   1.2918
  2.3845  0.7454  0.7454

 Free energy of the ion-electron system (eV)
  ---------------------------------------------------
  alpha Z        PSCENC =       100.06042719
  Ewald energy   TEWEN  =     -3849.86428143
  -1/2 Hartree   DENC   =     -1275.75429523
  -exchange  EXHF       =         0.00000000
  -V(xc)+E(xc)   XCENC  =      -751.20158003
  PAW double counting   =      3234.44116889    -2218.21026729
  entropy T*S    EENTRO =         0.00923209
  eigenvalues    EBANDS =       406.26393329
  atomic energy  EATOM  =      4245.03775698
  ---------------------------------------------------
  free energy    TOTEN  =      -109.21790555 eV

  energy without entropy =     -109.22713764  energy(sigma->0) =     -109.22098291


--------------------------------------------------------------------------------------------------------




----------------------------------------- Iteration    1(  16)  ---------------------------------------


    POTLOK:  cpu time    0.15: real time    0.16
    SETDIJ:  cpu time    0.02: real time    0.02
    EDDIAG:  cpu time    0.18: real time    0.18
  RMM-DIIS:  cpu time    0.79: real time    0.79
    ORTHCH:  cpu time    0.01: real time    0.01
       DOS:  cpu time    0.00: real time    0.00
    CHARGE:  cpu time    0.11: real time    0.11
    MIXING:  cpu time    0.00: real time    0.00
    --------------------------------------------
      LOOP:  cpu time    1.26: real time    1.26

 eigenvalue-minimisations  :   172
 total energy-change (2. order) : 0.9779122E-01  (-0.1660194E-01)
 number of electron  119.0000039 magnetization 
 augmentation part    11.2252414 magnetization 

 Broyden mixing:
  rms(total) = 0.11659E+00    rms(broyden)= 0.11659E+00
  rms(prec ) = 0.22663E+00
  weight for this iteration     100.00

 eigenvalues of (default mixing * dielectric matrix)
  average eigenvalue GAMMA=   1.2104
  2.5724  0.8034  0.8034  0.6624

 Free energy of the ion-electron system (eV)
  ---------------------------------------------------
  alpha Z        PSCENC =       100.06042719
  Ewald energy   TEWEN  =     -3849.86428143
  -1/2 Hartree   DENC   =     -1272.60435357
  -exchange  EXHF       =         0.00000000
  -V(xc)+E(xc)   XCENC  =      -750.58223305
  PAW double counting   =      3259.37181275    -2244.53692345
  entropy T*S    EENTRO =         0.00121164
  eigenvalues    EBANDS =       403.99646862
  atomic energy  EATOM  =      4245.03775698
  ---------------------------------------------------
  free energy    TOTEN  =      -109.12011433 eV

  energy without entropy =     -109.12132597  energy(sigma->0) =     -109.12051821


--------------------------------------------------------------------------------------------------------




----------------------------------------- Iteration    1(  17)  ---------------------------------------


    POTLOK:  cpu time    0.15: real time    0.16
    SETDIJ:  cpu time    0.02: real time    0.02
    EDDIAG:  cpu time    0.18: real time    0.18
  RMM-DIIS:  cpu time    0.80: real time    0.80
    ORTHCH:  cpu time    0.01: real time    0.01
       DOS:  cpu time    0.00: real time    0.00
    CHARGE:  cpu time    0.11: real time    0.11
    MIXING:  cpu time    0.00: real time    0.00
    --------------------------------------------
      LOOP:  cpu time    1.28: real time    1.28

 eigenvalue-minimisations  :   171
 total energy-change (2. order) : 0.4527911E-01  (-0.8112792E-02)
 number of electron  119.0000040 magnetization 
 augmentation part    11.3012591 magnetization 

 Broyden mixing:
  rms(total) = 0.43831E-01    rms(broyden)= 0.43828E-01
  rms(prec ) = 0.89747E-01
  weight for this iteration     100.00

 eigenvalues of (default mixing * dielectric matrix)
  average eigenvalue GAMMA=   1.2219
  2.5936  1.1068  0.8193  0.8193  0.7709

 Free energy of the ion-electron system (eV)
  ---------------------------------------------------
  alpha Z        PSCENC =       100.06042719
  Ewald energy   TEWEN  =     -3849.86428143
  -1/2 Hartree   DENC   =     -1268.42164168
  -exchange  EXHF       =         0.00000000
  -V(xc)+E(xc)   XCENC  =      -750.41970168
  PAW double counting   =      3260.92699111    -2246.43169871
  entropy T*S    EENTRO =         0.00001517
  eigenvalues    EBANDS =       400.03729783
  atomic energy  EATOM  =      4245.03775698
  ---------------------------------------------------
  free energy    TOTEN  =      -109.07483522 eV

  energy without entropy =     -109.07485039  energy(sigma->0) =     -109.07484028


--------------------------------------------------------------------------------------------------------




----------------------------------------- Iteration    1(  18)  ---------------------------------------


    POTLOK:  cpu time    0.16: real time    0.16
    SETDIJ:  cpu time    0.02: real time    0.02
    EDDIAG:  cpu time    0.18: real time    0.18
  RMM-DIIS:  cpu time    0.82: real time    0.82
    ORTHCH:  cpu time    0.01: real time    0.01
       DOS:  cpu time    0.00: real time    0.00
    CHARGE:  cpu time    0.11: real time    0.11
    MIXING:  cpu time    0.00: real time    0.00
    --------------------------------------------
      LOOP:  cpu time    1.30: real time    1.30

 eigenvalue-minimisations  :   181
 total energy-change (2. order) : 0.6375421E-02  (-0.4967051E-02)
 number of electron  119.0000040 magnetization 
 augmentation part    11.3581730 magnetization 

 Broyden mixing:
  rms(total) = 0.67427E-02    rms(broyden)= 0.67195E-02
  rms(prec ) = 0.10033E-01
  weight for this iteration     100.00

 eigenvalues of (default mixing * dielectric matrix)
  average eigenvalue GAMMA=   1.2804
  2.5936  1.8069  0.8788  0.8788  0.7622  0.7622

 Free energy of the ion-electron system (eV)
  ---------------------------------------------------
  alpha Z        PSCENC =       100.06042719
  Ewald energy   TEWEN  =     -3849.86428143
  -1/2 Hartree   DENC   =     -1266.07626445
  -exchange  EXHF       =         0.00000000
  -V(xc)+E(xc)   XCENC  =      -750.44407535
  PAW double counting   =      3255.80940555    -2241.22306213
  entropy T*S    EENTRO =        -0.00121135
  eigenvalues    EBANDS =       397.63284518
  atomic energy  EATOM  =      4245.03775698
  ---------------------------------------------------
  free energy    TOTEN  =      -109.06845980 eV

  energy without entropy =     -109.06724846  energy(sigma->0) =     -109.06805602


--------------------------------------------------------------------------------------------------------




----------------------------------------- Iteration    1(  19)  ---------------------------------------


    POTLOK:  cpu time    0.16: real time    0.16
    SETDIJ:  cpu time    0.02: real time    0.02
    EDDIAG:  cpu time    0.18: real time    0.18
  RMM-DIIS:  cpu time    0.85: real time    0.85
    ORTHCH:  cpu time    0.01: real time    0.01
       DOS:  cpu time    0.00: real time    0.00
    CHARGE:  cpu time    0.11: real time    0.11
    MIXING:  cpu time    0.00: real time    0.00
    --------------------------------------------
      LOOP:  cpu time    1.33: real time    1.33

 eigenvalue-minimisations  :   185
 total energy-change (2. order) :-0.5057312E-03  (-0.5895659E-03)
 number of electron  119.0000040 magnetization 
 augmentation part    11.3714601 magnetization 

 Broyden mixing:
  rms(total) = 0.94980E-02    rms(broyden)= 0.94951E-02
  rms(prec ) = 0.18568E-01
  weight for this iteration     100.00

 eigenvalues of (default mixing * dielectric matrix)
  average eigenvalue GAMMA=   1.3017
  2.6213  2.2651  0.8985  0.8985  0.7944  0.8170  0.8170

 Free energy of the ion-electron system (eV)
  ---------------------------------------------------
  alpha Z        PSCENC =       100.06042719
  Ewald energy   TEWEN  =     -3849.86428143
  -1/2 Hartree   DENC   =     -1265.85169578
  -exchange  EXHF       =         0.00000000
  -V(xc)+E(xc)   XCENC  =      -750.43291079
  PAW double counting   =      3254.90416454    -2240.23117602
  entropy T*S    EENTRO =        -0.00131788
  eigenvalues    EBANDS =       397.31006765
  atomic energy  EATOM  =      4245.03775698
  ---------------------------------------------------
  free energy    TOTEN  =      -109.06896553 eV

  energy without entropy =     -109.06764765  energy(sigma->0) =     -109.06852624


--------------------------------------------------------------------------------------------------------




----------------------------------------- Iteration    1(  20)  ---------------------------------------


    POTLOK:  cpu time    0.15: real time    0.16
    SETDIJ:  cpu time    0.02: real time    0.02
    EDDIAG:  cpu time    0.18: real time    0.18
  RMM-DIIS:  cpu time    0.77: real time    0.77
    ORTHCH:  cpu time    0.01: real time    0.01
       DOS:  cpu time    0.00: real time    0.00
    CHARGE:  cpu time    0.11: real time    0.11
    MIXING:  cpu time    0.00: real time    0.00
    --------------------------------------------
      LOOP:  cpu time    1.25: real time    1.25

 eigenvalue-minimisations  :   163
 total energy-change (2. order) : 0.3041757E-03  (-0.1544762E-03)
 number of electron  119.0000040 magnetization 
 augmentation part    11.3600004 magnetization 

 Broyden mixing:
  rms(total) = 0.13357E-02    rms(broyden)= 0.13340E-02
  rms(prec ) = 0.28388E-02
  weight for this iteration     100.00

 eigenvalues of (default mixing * dielectric matrix)
  average eigenvalue GAMMA=   1.2888
  2.6563  2.3299  1.1591  0.8916  0.8916  0.7551  0.7551  0.8721

 Free energy of the ion-electron system (eV)
  ---------------------------------------------------
  alpha Z        PSCENC =       100.06042719
  Ewald energy   TEWEN  =     -3849.86428143
  -1/2 Hartree   DENC   =     -1266.52722429
  -exchange  EXHF       =         0.00000000
  -V(xc)+E(xc)   XCENC  =      -750.40689669
  PAW double counting   =      3256.15688712    -2241.44137115
  entropy T*S    EENTRO =        -0.00091765
  eigenvalues    EBANDS =       397.91695857
  atomic energy  EATOM  =      4245.03775698
  ---------------------------------------------------
  free energy    TOTEN  =      -109.06866136 eV

  energy without entropy =     -109.06774370  energy(sigma->0) =     -109.06835547


--------------------------------------------------------------------------------------------------------




----------------------------------------- Iteration    1(  21)  ---------------------------------------


    POTLOK:  cpu time    0.15: real time    0.16
    SETDIJ:  cpu time    0.02: real time    0.02
    EDDIAG:  cpu time    0.18: real time    0.18
  RMM-DIIS:  cpu time    0.51: real time    0.51
    ORTHCH:  cpu time    0.01: real time    0.01
       DOS:  cpu time    0.00: real time    0.00
    --------------------------------------------
      LOOP:  cpu time    0.87: real time    0.87

 eigenvalue-minimisations  :   106
 total energy-change (2. order) : 0.2923284E-05  (-0.4350335E-05)
 number of electron  119.0000040 magnetization 
 augmentation part    11.3600004 magnetization 

 Free energy of the ion-electron system (eV)
  ---------------------------------------------------
  alpha Z        PSCENC =       100.06042719
  Ewald energy   TEWEN  =     -3849.86428143
  -1/2 Hartree   DENC   =     -1266.49949266
  -exchange  EXHF       =         0.00000000
  -V(xc)+E(xc)   XCENC  =      -750.40406128
  PAW double counting   =      3255.95191863    -2241.22199642
  entropy T*S    EENTRO =        -0.00092703
  eigenvalues    EBANDS =       397.87199759
  atomic energy  EATOM  =      4245.03775698
  ---------------------------------------------------
  free energy    TOTEN  =      -109.06865844 eV

  energy without entropy =     -109.06773140  energy(sigma->0) =     -109.06834942


--------------------------------------------------------------------------------------------------------




 average (electrostatic) potential at core
  the test charge radii are     1.0406  1.1249  1.2059  1.2098
  (the norm of the test charge is              1.0000)
       1 -73.0960       2 -73.0830       3 -73.1236       4 -72.7801       5 -72.7830
       6 -72.7543       7 -72.8527       8 -72.6836       9 -72.7502      10 -72.8773
      11 -72.9310      12 -72.7162      13 -72.9531      14 -73.0357      15 -72.7174
      16 -72.7379      17 -72.8838      18 -72.9573      19 -72.9415      20 -72.7426
      21 -73.0585      22 -72.6742      23 -72.9227      24 -72.9647      25 -73.0376
      26 -72.6258      27 -72.6910      28 -72.6507      29 -73.1898      30 -38.3257
      31 -49.3881      32 -44.9216
 
 
 
 E-fermi :   7.9132     XC(G=0): -10.4264     alpha+bet :-14.4403
   add alpha+bet to get absolut eigen values

 k-point   1 :       0.0000    0.0000    0.0000
  band No.  band energies     occupation 
      1      -3.2072      2.00000
      2      -1.0647      2.00000
      3      -1.0550      2.00000
      4      -1.0451      2.00000
      5      -0.9537      2.00000
      6      -0.8626      2.00000
      7      -0.6855      2.00000
      8       0.6731      2.00000
      9       0.7941      2.00000
     10       0.8141      2.00000
     11       0.8546      2.00000
     12       0.9523      2.00000
     13       0.9751      2.00000
     14       1.0494      2.00000
     15       1.0713      2.00000
     16       1.1515      2.00000
     17       1.2460      2.00000
     18       1.3853      2.00000
     19       1.4631      2.00000
     20       1.7055      2.00000
     21       1.7671      2.00000
     22       1.8324      2.00000
     23       1.9507      2.00000
     24       1.9677      2.00000
     25       2.1703      2.00000
     26       2.1739      2.00000
     27       2.4849      2.00000
     28       2.6395      2.00000
     29       2.7395      2.00000
     30       3.3580      2.00000
     31       3.3965      2.00000
     32       3.4424      2.00000
     33       3.4511      2.00000
     34       3.5729      2.00000
     35       3.6470      2.00000
     36       3.8153      2.00000
     37       4.1626      2.00000
     38       4.2709      2.00000
     39       4.3824      2.00000
     40       4.6931      2.00000
     41       4.9072      2.00000
     42       4.9625      2.00000
     43       5.1595      2.00000
     44       5.1670      2.00000
     45       5.2277      2.00000
     46       6.7776      2.00000
     47       6.8423      2.00000
     48       6.9311      2.00000
     49       6.9670      2.00000
     50       7.1274      2.00000
     51       7.1735      2.00000
     52       7.3035      2.00014
     53       7.3818      2.00112
     54       7.4676      2.00715
     55       7.4802      2.00906
     56       7.6611      2.07055
     57       7.6871      2.06781
     58       7.7906      1.85159
     59       7.8268      1.66086
     60       7.8647      1.39738
     61       8.2353     -0.04517
     62       8.3002     -0.01961
     63       8.4537     -0.00089
     64       8.7227      0.00000
     65       8.8163      0.00000
     66       8.8968      0.00000
     67       9.0936      0.00000
     68       9.1266      0.00000
     69       9.2146      0.00000
     70       9.2883      0.00000
     71       9.3038      0.00000
     72       9.3488      0.00000
     73       9.3845      0.00000
     74       9.4459      0.00000
     75       9.4574      0.00000
     76       9.6070      0.00000
     77       9.6157      0.00000
     78       9.6478      0.00000
     79       9.7851      0.00000
     80       9.9560      0.00000
     81      10.0792      0.00000
     82      10.3783      0.00000
     83      10.4749      0.00000
     84      10.9761      0.00000


--------------------------------------------------------------------------------------------------------


 soft charge-density along one line, spin component           1
         0         1         2         3         4         5         6         7         8         9
 total charge-density along one line
 
 pseudopotential strength for first ion, spin component:           1
  8.458  -0.005  -0.001  -0.001   0.001   0.000   0.000   0.000
 -0.005   0.000   0.000   0.000   0.000   0.000   0.000   0.000
 -0.001   0.000   1.986   0.000   0.000  -0.025   0.000   0.000
 -0.001   0.000   0.000   1.986   0.000   0.000  -0.025   0.000
  0.001   0.000   0.000   0.000   1.987   0.000   0.000  -0.025
  0.000   0.000  -0.025   0.000   0.000  -0.012   0.000   0.000
  0.000   0.000   0.000  -0.025   0.000   0.000  -0.012   0.000
  0.000   0.000   0.000   0.000  -0.025   0.000   0.000  -0.012
 total augmentation occupancy for first ion, spin component:           1
  1.192  -0.542   0.007   0.019  -0.029  -0.004  -0.007   0.010
 -0.542   0.478   0.002   0.009  -0.016  -0.001  -0.003   0.005
  0.007   0.002   0.800  -0.007   0.010  -0.179   0.001   0.001
  0.019   0.009  -0.007   0.798   0.014   0.001  -0.181   0.002
 -0.029  -0.016   0.010   0.014   0.760   0.001   0.002  -0.179
 -0.004  -0.001  -0.179   0.001   0.001   0.049   0.000  -0.001
 -0.007  -0.003   0.001  -0.181   0.002   0.000   0.050  -0.001
  0.010   0.005   0.001   0.002  -0.179  -0.001  -0.001   0.050


------------------------ aborting loop because EDIFF is reached ----------------------------------------




--------------------------------------------------------------------------------------------------------



  FREE ENERGIE OF THE ION-ELECTRON SYSTEM (eV)
  ---------------------------------------------------
  free  energy   TOTEN  =      -109.068658 eV

  energy  without entropy=     -109.067731  energy(sigma->0) =     -109.068349
 
    CHARGE:  cpu time    0.10: real time    0.11
    FORLOC:  cpu time    0.04: real time    0.04
    FORNL :  cpu time    0.32: real time    0.32
    STRESS:  cpu time    0.73: real time    0.73
    FORCOR:  cpu time    0.19: real time    0.19
    FORHAR:  cpu time    0.08: real time    0.08
    MIXING:  cpu time    0.00: real time    0.01

  FORCE on cell =-STRESS in cart. coord.  units (eV):
  Direction    XX          YY          ZZ          XY          YZ          ZX
  --------------------------------------------------------------------------------------
  Alpha Z   100.06043   100.06043   100.06043
  Ewald   -1299.34946 -1275.26486 -1275.26486   104.62735  -119.57411   104.62735
  Hartree   407.37951   431.35323   427.54739    88.65344  -100.43726    85.47803
  E(xc)    -399.73082  -399.66023  -399.67275    -0.08769     0.07618    -0.09131
  Local    -171.50198  -217.51963  -214.31669  -196.09258   222.19092  -193.04944
  n-local   379.02878   378.17881   378.47646     1.27757    -1.00136     1.40149
  augment    99.85946    99.62905    99.63841     0.11047    -0.01508     0.12750
  Kinetic   880.60077   875.35779   877.60015     2.79005    -2.05951     3.05679
  Fock        0.00000     0.00000     0.00000     0.00000     0.00000     0.00000
  -------------------------------------------------------------------------------------
  Total      -3.65331    -7.86541    -5.93145     1.27861    -0.82022     1.55042
  in kB     -11.06696   -23.82665   -17.96813     3.87328    -2.48470     4.69667
  external pressure =      -17.62 kB  Pullay stress =        0.00 kB


 VOLUME and BASIS-vectors are now :
 -----------------------------------------------------------------------------
  energy-cutoff  :      300.00
  volume of cell :      528.89
      direct lattice vectors                 reciprocal lattice vectors
     8.087040000  0.000000000  0.000000000     0.123654638  0.000000000  0.000000000
     0.000000000  8.087040000  0.000000000     0.000000000  0.123654638  0.000000000
     0.000000000  0.000000000  8.087040000     0.000000000  0.000000000  0.123654638

  length of vectors
     8.087040000  8.087040000  8.087040000     0.123654638  0.123654638  0.123654638


 FORCES acting on ions
    electron-ion (+dipol)            ewald-force                    non-local-force                 convergence-correction
 -----------------------------------------------------------------------------------------------
   0.489E+02 -.245E+02 -.243E+02   -.499E+02 0.250E+02 0.250E+02   0.809E+00 -.304E+00 -.558E+00   0.530E-02 -.128E-02 -.131E-02
   0.213E+02 -.246E+02 -.460E+02   -.218E+02 0.250E+02 0.468E+02   0.668E+00 -.229E+00 -.872E+00   0.202E-02 -.110E-02 -.390E-02
   0.214E+02 -.458E+02 -.244E+02   -.218E+02 0.468E+02 0.250E+02   0.657E+00 -.108E+01 -.467E+00   0.203E-02 -.484E-02 -.132E-02
   0.104E+02 -.938E+01 -.956E+01   -.113E+02 0.106E+02 0.106E+02   0.524E+00 -.718E+00 -.579E+00   0.206E-02 -.120E-02 -.552E-03
   -.215E+02 -.546E+01 -.268E+02   0.218E+02 0.564E+01 0.275E+02   -.542E+00 -.539E-01 -.740E+00   -.191E-02 0.143E-03 -.220E-02
   -.214E+02 -.265E+02 -.535E+01   0.218E+02 0.275E+02 0.564E+01   -.592E+00 -.922E+00 -.129E+00   -.199E-02 -.266E-02 0.389E-03
   -.106E+02 -.266E+02 -.268E+02   0.113E+02 0.275E+02 0.275E+02   -.330E+00 -.776E+00 -.636E+00   -.222E-02 -.319E-02 -.271E-02
   0.298E+02 0.247E+02 -.528E+01   -.306E+02 -.250E+02 0.564E+01   0.512E+00 0.167E+00 -.203E+00   0.306E-02 0.102E-02 0.567E-03
   0.444E+01 0.246E+02 -.289E+02   -.493E+01 -.250E+02 0.299E+02   0.283E+00 0.175E+00 -.624E+00   0.198E-03 0.111E-02 -.233E-02
   0.298E+02 0.965E+01 -.290E+02   -.306E+02 -.106E+02 0.299E+02   0.414E+00 0.453E+00 -.481E+00   0.346E-02 0.148E-02 -.243E-02
   -.295E+02 0.245E+02 -.500E+01   0.306E+02 -.250E+02 0.564E+01   -.788E+00 0.311E+00 -.336E+00   -.338E-02 0.136E-02 0.590E-04
   -.417E+01 0.525E+01 -.956E+01   0.493E+01 -.564E+01 0.106E+02   -.498E+00 0.239E+00 -.659E+00   -.701E-04 -.270E-03 -.734E-03
   -.213E+02 0.264E+02 -.510E+01   0.218E+02 -.275E+02 0.564E+01   -.651E+00 0.106E+01 -.260E+00   -.223E-02 0.291E-02 -.975E-06
   -.298E+02 0.267E+02 -.462E+02   0.306E+02 -.275E+02 0.468E+02   -.411E+00 0.752E+00 -.664E+00   -.344E-02 0.311E-02 -.393E-02
   0.297E+02 -.545E+01 0.245E+02   -.306E+02 0.564E+01 -.250E+02   0.640E+00 -.620E-01 0.434E+00   0.341E-02 0.637E-03 0.990E-03
   0.450E+01 -.286E+02 0.243E+02   -.493E+01 0.299E+02 -.250E+02   0.222E+00 -.914E+00 0.456E+00   0.875E-04 -.323E-02 0.124E-02
   0.298E+02 -.288E+02 0.975E+01   -.306E+02 0.299E+02 -.106E+02   0.521E+00 -.741E+00 0.376E+00   0.378E-02 -.306E-02 0.793E-03
   -.294E+02 -.515E+01 0.243E+02   0.306E+02 0.564E+01 -.250E+02   -.927E+00 -.217E+00 0.571E+00   -.376E-02 -.909E-04 0.129E-02
   -.213E+02 -.523E+01 0.265E+02   0.218E+02 0.564E+01 -.275E+02   -.675E+00 -.159E+00 0.101E+01   -.207E-02 -.176E-03 0.242E-02
   -.425E+01 -.958E+01 0.507E+01   0.493E+01 0.106E+02 -.564E+01   -.444E+00 -.683E+00 0.356E+00   0.930E-04 -.117E-02 -.409E-03
   -.298E+02 -.460E+02 0.268E+02   0.306E+02 0.468E+02 -.275E+02   -.539E+00 -.906E+00 0.678E+00   -.386E-02 -.453E-02 0.266E-02
   0.103E+02 0.524E+01 0.503E+01   -.113E+02 -.564E+01 -.564E+01   0.676E+00 0.276E+00 0.429E+00   0.150E-02 -.751E-03 -.713E-03
   0.415E+01 0.245E+02 0.287E+02   -.493E+01 -.250E+02 -.299E+02   0.406E+00 0.262E+00 0.799E+00   0.783E-03 0.992E-03 0.248E-02
   0.421E+01 0.286E+02 0.243E+02   -.493E+01 -.299E+02 -.250E+02   0.378E+00 0.998E+00 0.502E+00   0.857E-03 0.326E-02 0.116E-02
   0.490E+02 0.288E+02 0.290E+02   -.499E+02 -.299E+02 -.299E+02   0.577E+00 0.729E+00 0.503E+00   0.472E-02 0.320E-02 0.258E-02
   -.106E+02 0.516E+01 0.490E+01   0.113E+02 -.564E+01 -.564E+01   -.313E+00 0.203E+00 0.387E+00   -.167E-02 0.473E-05 -.153E-03
[...]

 Broyden mixing:
  rms(total) = 0.70870E-02    rms(broyden)= 0.70828E-02
  rms(prec ) = 0.10235E-01
  weight for this iteration     100.00

 eigenvalues of (default mixing * dielectric matrix)
  average eigenvalue GAMMA=   1.1845
  2.2652  0.8823  0.8823  1.1011  0.7917

 Free energy of the ion-electron system (eV)
  ---------------------------------------------------
  alpha Z        PSCENC =       100.06042719
  Ewald energy   TEWEN  =     -3989.17827812
  -1/2 Hartree   DENC   =     -1128.43287252
  -exchange  EXHF       =         0.00000000
  -V(xc)+E(xc)   XCENC  =      -750.26369268
  PAW double counting   =      3246.15555020    -2230.91927211
  entropy T*S    EENTRO =         0.02135830
  eigenvalues    EBANDS =       397.72907174
  atomic energy  EATOM  =      4245.03775698
  ---------------------------------------------------
  free energy    TOTEN  =      -109.78995103 eV

  energy without entropy =     -109.81130933  energy(sigma->0) =     -109.79707046


--------------------------------------------------------------------------------------------------------




----------------------------------------- Iteration    7(   7)  ---------------------------------------


    POTLOK:  cpu time    0.16: real time    0.16
    SETDIJ:  cpu time    0.02: real time    0.02
    EDDIAG:  cpu time    0.18: real time    0.18
  RMM-DIIS:  cpu time    0.58: real time    0.58
    ORTHCH:  cpu time    0.01: real time    0.01
       DOS:  cpu time    0.00: real time    0.00
    --------------------------------------------
      LOOP:  cpu time    0.95: real time    0.95

 eigenvalue-minimisations  :   120
 total energy-change (2. order) : 0.3590345E-04  (-0.3801070E-04)
 number of electron  119.0000001 magnetization 
 augmentation part    11.3622309 magnetization 

 Free energy of the ion-electron system (eV)
  ---------------------------------------------------
  alpha Z        PSCENC =       100.06042719
  Ewald energy   TEWEN  =     -3989.17827812
  -1/2 Hartree   DENC   =     -1128.38992838
  -exchange  EXHF       =         0.00000000
  -V(xc)+E(xc)   XCENC  =      -750.26278720
  PAW double counting   =      3245.93950613    -2230.70337569
  entropy T*S    EENTRO =         0.02117374
  eigenvalues    EBANDS =       397.68559025
  atomic energy  EATOM  =      4245.03775698
  ---------------------------------------------------
  free energy    TOTEN  =      -109.78991512 eV

  energy without entropy =     -109.81108886  energy(sigma->0) =     -109.79697304


--------------------------------------------------------------------------------------------------------




 average (electrostatic) potential at core
  the test charge radii are     1.0406  1.1249  1.2059  1.2098
  (the norm of the test charge is              1.0000)
       1 -73.2389       2 -73.1411       3 -73.1731       4 -72.5344       5 -72.6827
       6 -72.6728       7 -72.7436       8 -72.7146       9 -72.7167      10 -72.8405
      11 -72.9976      12 -72.4841      13 -73.0084      14 -73.0392      15 -72.7249
      16 -72.6519      17 -72.8995      18 -73.0129      19 -73.0220      20 -72.4674
      21 -73.0851      22 -72.4873      23 -73.0774      24 -73.0769      25 -73.1143
      26 -72.6003      27 -72.6420      28 -72.5147      29 -73.3058      30 -38.1172
      31 -49.5777      32 -44.7710
 
 
 
 E-fermi :   7.9112     XC(G=0): -10.4179     alpha+bet :-14.4403
   add alpha+bet to get absolut eigen values

 k-point   1 :       0.0000    0.0000    0.0000
  band No.  band energies     occupation 
      1      -3.2426      2.00000
      2      -1.1143      2.00000
      3      -1.0736      2.00000
      4      -1.0187      2.00000
      5      -0.9881      2.00000
      6      -0.9781      2.00000
      7      -0.7028      2.00000
      8       0.8174      2.00000
      9       0.8304      2.00000
     10       0.9417      2.00000
     11       0.9652      2.00000
     12       0.9992      2.00000
     13       1.0273      2.00000
     14       1.0562      2.00000
     15       1.0695      2.00000
     16       1.1681      2.00000
     17       1.3057      2.00000
     18       1.4502      2.00000
     19       1.7776      2.00000
     20       1.8349      2.00000
     21       1.9305      2.00000
     22       1.9979      2.00000
     23       2.0660      2.00000
     24       2.1020      2.00000
     25       2.3266      2.00000
     26       2.4111      2.00000
     27       2.5740      2.00000
     28       2.7402      2.00000
     29       2.8385      2.00000
     30       3.2733      2.00000
     31       3.3795      2.00000
     32       3.4199      2.00000
     33       3.4296      2.00000
     34       3.5387      2.00000
     35       3.6221      2.00000
     36       3.6718      2.00000
     37       3.9016      2.00000
     38       3.9815      2.00000
     39       4.3287      2.00000
     40       4.6698      2.00000
     41       4.7670      2.00000
     42       4.9547      2.00000
     43       5.1507      2.00000
     44       5.1784      2.00000
     45       5.2211      2.00000
     46       6.6512      2.00000
     47       6.7140      2.00000
     48       6.8156      2.00000
     49       7.0057      2.00000
     50       7.1344      2.00000
     51       7.1851      2.00000
     52       7.2408      2.00002
     53       7.3798      2.00112
     54       7.3943      2.00158
     55       7.4505      2.00533
     56       7.4896      2.01112
     57       7.5191      2.01814
     58       7.5702      2.03667
     59       7.7707      1.92119
     60       7.8964      1.12436
     61       8.1843     -0.06591
     62       8.2208     -0.05094
     63       8.4046     -0.00268
     64       8.6892      0.00000
     65       8.7092      0.00000
     66       8.9009      0.00000
     67       9.0447      0.00000
     68       9.1372      0.00000
     69       9.2304      0.00000
     70       9.2565      0.00000
     71       9.2884      0.00000
     72       9.3681      0.00000
     73       9.4270      0.00000
     74       9.4422      0.00000
     75       9.5263      0.00000
     76       9.5726      0.00000
     77       9.6203      0.00000
     78       9.7471      0.00000
     79       9.7592      0.00000
     80      10.0264      0.00000
     81      10.0459      0.00000
     82      10.2399      0.00000
     83      10.3513      0.00000
     84      10.4719      0.00000


--------------------------------------------------------------------------------------------------------


 soft charge-density along one line, spin component           1
         0         1         2         3         4         5         6         7         8         9
 total charge-density along one line
 
 pseudopotential strength for first ion, spin component:           1
  8.461  -0.005  -0.001  -0.002   0.001   0.000   0.000   0.000
 -0.005   0.000   0.000   0.000   0.000   0.000   0.000   0.000
 -0.001   0.000   1.985   0.000   0.000  -0.025   0.000   0.000
 -0.002   0.000   0.000   1.985   0.000   0.000  -0.025   0.000
  0.001   0.000   0.000   0.000   1.985   0.000   0.000  -0.025
  0.000   0.000  -0.025   0.000   0.000  -0.012   0.000   0.000
  0.000   0.000   0.000  -0.025   0.000   0.000  -0.012   0.000
  0.000   0.000   0.000   0.000  -0.025   0.000   0.000  -0.012
 total augmentation occupancy for first ion, spin component:           1
  1.220  -0.497   0.034   0.050  -0.026  -0.016  -0.021   0.011
 -0.497   0.421  -0.004   0.004  -0.004   0.007   0.005  -0.001
  0.034  -0.004   0.777  -0.005  -0.013  -0.165   0.000   0.003
  0.050   0.004  -0.005   0.780   0.003   0.000  -0.168   0.003
 -0.026  -0.004  -0.013   0.003   0.696   0.003   0.003  -0.164
 -0.016   0.007  -0.165   0.000   0.003   0.043   0.000  -0.001
 -0.021   0.005   0.000  -0.168   0.003   0.000   0.045  -0.002
  0.011  -0.001   0.003   0.003  -0.164  -0.001  -0.002   0.046


------------------------ aborting loop because EDIFF is reached ----------------------------------------




--------------------------------------------------------------------------------------------------------



  FREE ENERGIE OF THE ION-ELECTRON SYSTEM (eV)
  ---------------------------------------------------
  free  energy   TOTEN  =      -109.789915 eV

  energy  without entropy=     -109.811089  energy(sigma->0) =     -109.796973
 
    CHARGE:  cpu time    0.10: real time    0.10
    FORLOC:  cpu time    0.04: real time    0.04
    FORNL :  cpu time    0.32: real time    0.32
    STRESS:  cpu time    0.73: real time    0.73
    FORCOR:  cpu time    0.19: real time    0.19
    FORHAR:  cpu time    0.08: real time    0.08
    MIXING:  cpu time    0.01: real time    0.01

  FORCE on cell =-STRESS in cart. coord.  units (eV):
  Direction    XX          YY          ZZ          XY          YZ          ZX
  --------------------------------------------------------------------------------------
  Alpha Z   100.06043   100.06043   100.06043
  Ewald   -1346.40114 -1324.75478 -1318.03608    75.77284   -89.13394    84.98359
  Hartree   364.95267   379.53294   384.33207    70.21715   -79.47157    75.25264
  E(xc)    -400.44489  -400.23425  -400.23069    -0.16597     0.00349    -0.21979
  Local     -84.08941  -117.66504  -128.25583  -148.26228   168.65286  -163.01731
  n-local   381.35611   379.63290   379.71032     1.34590     0.50997     1.90818
  augment    99.74403    99.54560    99.56594     0.20389    -0.33469     0.11331
  Kinetic   882.67391   878.68930   877.21115     1.98204    -0.90648     2.61340
  Fock        0.00000     0.00000     0.00000     0.00000     0.00000     0.00000
  -------------------------------------------------------------------------------------
  Total      -2.14829    -5.19290    -5.64269     1.09357    -0.68035     1.63403
  in kB      -6.50781   -15.73082   -17.09340     3.31275    -2.06098     4.94996
  external pressure =      -13.11 kB  Pullay stress =        0.00 kB


 VOLUME and BASIS-vectors are now :
 -----------------------------------------------------------------------------
  energy-cutoff  :      300.00
  volume of cell :      528.89
      direct lattice vectors                 reciprocal lattice vectors
     8.087040000  0.000000000  0.000000000     0.123654638  0.000000000  0.000000000
     0.000000000  8.087040000  0.000000000     0.000000000  0.123654638  0.000000000
     0.000000000  0.000000000  8.087040000     0.000000000  0.000000000  0.123654638

  length of vectors
     8.087040000  8.087040000  8.087040000     0.123654638  0.123654638  0.123654638


 FORCES acting on ions
    electron-ion (+dipol)            ewald-force                    non-local-force                 convergence-correction
 -----------------------------------------------------------------------------------------------
   0.336E+02 -.174E+02 -.184E+02   -.345E+02 0.186E+02 0.201E+02   0.931E+00 -.129E+01 -.173E+01   -.169E-03 0.194E-02 0.179E-02
   0.231E+02 -.194E+02 -.366E+02   -.229E+02 0.195E+02 0.377E+02   0.375E-01 -.940E-01 -.130E+01   -.469E-02 -.933E-03 0.156E-01
   0.224E+02 -.392E+02 -.210E+02   -.218E+02 0.405E+02 0.207E+02   -.508E+00 -.136E+01 0.333E+00   -.543E-02 0.160E-01 -.110E-02
   0.165E+01 -.350E+01 -.268E+01   -.347E+01 0.578E+01 0.470E+01   0.152E+01 -.209E+01 -.183E+01   0.159E-02 0.478E-02 0.410E-02
   -.270E+02 0.188E+01 -.281E+02   0.271E+02 -.985E+00 0.294E+02   -.141E+00 -.962E+00 -.144E+01   0.588E-02 0.227E-02 0.149E-01
   -.247E+02 -.284E+02 0.270E+01   0.252E+02 0.298E+02 -.190E+01   -.491E+00 -.152E+01 -.831E+00   0.658E-02 0.145E-01 0.129E-02
   -.222E+01 -.320E+02 -.304E+02   0.330E+01 0.327E+02 0.310E+02   -.107E+01 -.449E+00 -.324E+00   -.135E-02 0.137E-01 0.148E-01
   0.211E+02 0.171E+02 0.222E+01   -.225E+02 -.179E+02 -.422E+00   0.146E+01 0.957E+00 -.186E+01   0.245E-02 -.161E-02 0.294E-03
   -.843E+00 0.174E+02 -.231E+02   -.936E+00 -.184E+02 0.245E+02   0.184E+01 0.108E+01 -.136E+01   0.227E-02 -.117E-02 0.512E-02
   0.200E+02 0.341E+01 -.208E+02   -.216E+02 -.550E+01 0.224E+02   0.161E+01 0.207E+01 -.161E+01   0.344E-02 -.386E-02 0.420E-02
   -.214E+02 0.129E+02 -.252E+00   0.233E+02 -.133E+02 0.155E+01   -.180E+01 0.602E+00 -.113E+01   -.188E-02 -.403E-02 -.407E-03
   0.118E+01 0.132E+01 -.772E+01   0.530E+00 -.169E+01 0.833E+01   -.168E+01 0.880E-01 -.287E+00   -.307E-02 -.245E-02 0.371E-02
   -.180E+02 0.262E+02 0.576E+00   0.184E+02 -.272E+02 -.409E+00   -.450E+00 0.104E+01 -.123E+00   0.665E-02 -.137E-01 0.794E-04
   -.209E+02 0.271E+02 -.361E+02   0.216E+02 -.273E+02 0.376E+02   -.797E+00 0.302E+00 -.176E+01   -.335E-02 -.105E-01 0.153E-01
   0.227E+02 0.177E+01 0.197E+02   -.243E+02 -.396E+00 -.206E+02   0.177E+01 -.148E+01 0.101E+01   0.205E-02 0.973E-03 -.193E-02
   -.843E+00 -.253E+02 0.185E+02   -.502E+00 0.270E+02 -.198E+02   0.139E+01 -.172E+01 0.133E+01   0.282E-02 0.564E-02 -.168E-02
   0.245E+02 -.254E+02 0.339E+01   -.257E+02 0.270E+02 -.505E+01   0.109E+01 -.157E+01 0.155E+01   0.221E-02 0.613E-02 -.336E-02
   -.218E+02 -.718E+00 0.121E+02   0.237E+02 0.164E+01 -.125E+02   -.199E+01 -.824E+00 0.544E+00   -.224E-02 0.155E-03 -.572E-02
   -.162E+02 -.368E+00 0.243E+02   0.164E+02 0.620E+00 -.254E+02   -.336E+00 -.232E+00 0.129E+01   0.672E-02 0.703E-03 -.124E-01
   0.958E+00 -.104E+02 -.147E+01   0.618E+00 0.105E+02 0.246E+00   -.146E+01 0.380E+00 0.101E+01   -.329E-02 0.434E-02 -.236E-02
   -.238E+02 -.370E+02 0.259E+02   0.242E+02 0.385E+02 -.258E+02   -.343E+00 -.162E+01 -.691E-01   -.297E-02 0.156E-01 -.103E-01
   0.457E+01 0.313E+00 -.190E+01   -.577E+01 -.959E+00 0.586E+00   0.107E+01 0.474E+00 0.135E+01   0.344E-02 -.170E-02 -.336E-03
   0.201E+01 0.102E+02 0.241E+02   -.264E+01 -.117E+02 -.250E+02   0.435E+00 0.169E+01 0.645E+00   0.298E-02 -.327E-02 -.336E-02
   0.202E+01 0.262E+02 0.116E+02   -.225E+01 -.270E+02 -.133E+02   0.771E-01 0.621E+00 0.185E+01   0.372E-02 -.379E-02 -.358E-02
   0.306E+02 0.219E+02 0.193E+02   -.331E+02 -.234E+02 -.207E+02   0.258E+01 0.147E+01 0.138E+01   0.649E-03 -.527E-02 -.389E-02
   -.194E+01 0.105E+01 0.507E+00   0.407E+01 -.156E+01 -.113E+01   -.216E+01 0.308E+00 0.412E+00   -.315E-02 -.135E-02 -.115E-02
   -.141E+01 -.503E+00 0.386E+01   0.221E+01 -.413E+00 -.580E+01   -.594E+00 0.767E+00 0.184E+01   -.270E-02 -.136E-02 -.308E-02
   -.484E+00 0.479E+01 -.280E+01   0.157E+01 -.666E+01 0.136E+01   -.926E+00 0.181E+01 0.137E+01   -.363E-02 -.350E-02 -.925E-03
   -.384E+02 0.357E+02 0.369E+02   0.393E+02 -.363E+02 -.374E+02   -.105E+01 0.660E+00 0.548E+00   -.112E-02 -.125E-01 -.122E-01
   0.527E+02 0.126E+03 -.561E+02   -.530E+02 -.127E+03 0.564E+02   0.281E+00 0.420E+00 -.302E+00   -.291E-01 -.583E-01 0.112E-01
   -.905E+02 -.400E+02 -.341E+02   0.914E+02 0.405E+02 0.349E+02   -.827E+00 -.438E+00 -.738E+00   -.446E-02 0.169E-01 0.139E-01
   0.475E+02 -.547E+02 0.116E+03   -.479E+02 0.547E+02 -.116E+03   0.364E+00 -.514E-01 0.385E+00   -.125E-01 0.622E-02 -.450E-01
 -----------------------------------------------------------------------------------------------
   0.194E+00 0.978E+00 -.162E+00   0.355E-13 0.497E-13 -.711E-13   -.153E+00 -.955E+00 0.166E+00   -.316E-01 -.195E-01 -.629E-02
 
 
 POSITION                                       TOTAL-FORCE (eV/Angst)
 -----------------------------------------------------------------------------------
     -0.02699      0.06324      0.07536         0.103991     -0.073068     -0.052958
      2.06785     -0.00226      2.04387         0.151478     -0.067676     -0.130683
      2.10017      2.02599     -0.04343         0.098984     -0.119100      0.039354
     -0.06075      2.07957      2.08107        -0.290158      0.187969      0.190484
      6.08870      0.04272      2.09343        -0.012721     -0.068243     -0.082880
      6.10098      2.07992      0.03450         0.013883     -0.092739     -0.034516
      4.08460      2.05144      2.05507         0.012000      0.240789      0.274326
     -0.05431      3.98239      0.07013         0.090798      0.124818     -0.061643
      1.94860      3.97392      2.04960         0.064425      0.051224      0.005248
     -0.06999      5.97477      2.07515        -0.038924     -0.028656     -0.024069
      4.11455      4.01078      0.05494         0.063521      0.192389      0.172681
      6.11030      4.03566      2.00519         0.028291     -0.287451      0.324002
      6.06820      6.06790     -0.00076        -0.075336      0.046980      0.044742
      4.08018      6.06896      2.10101        -0.091254      0.053791     -0.230216
     -0.06856      0.05968      3.99304         0.108603     -0.107622      0.130866
      1.97035      2.05859      3.96543         0.050265      0.026810     -0.001406
     -0.05323      2.06923      5.98690        -0.163618      0.050270     -0.123495
      4.10381      0.04070      4.03186        -0.057727      0.097019      0.162073
      6.05670      0.01130      6.06187        -0.056532      0.019441      0.127600
      6.10352      1.97038      4.00959         0.114915      0.485555     -0.210037
      4.04896      2.05863      6.09053         0.016288     -0.190373     -0.017971
     -0.04400      4.01378      3.98212        -0.133574     -0.174131      0.036273
      1.98916      3.94938      6.03205        -0.192334      0.187761     -0.260888
      2.01139      6.05451      3.95488        -0.149621     -0.193422      0.124839
     -0.16550      5.98805      5.98590         0.124462     -0.004775     -0.039868
      4.14928      4.01441      4.02561        -0.034787     -0.198457     -0.212423
      6.05458      3.98488      5.96683         0.198215     -0.150636     -0.100154
      6.07503      5.98277      3.96738         0.150622     -0.067925     -0.079046
      4.05544      6.08158      6.07527        -0.145505      0.045165      0.008765
      2.00874      6.02583      0.02173         0.028232      0.012137     -0.065167
      4.26653      0.16501      0.21802         0.080915      0.076368      0.114219
      1.93019      0.06077      5.98032        -0.057797     -0.074212     -0.028055
 -----------------------------------------------------------------------------------
    total drift:                                0.009199      0.003127     -0.002716
 d Force = 0.2378380E-02[-0.851E-01, 0.898E-01]  d Energy = 0.1033724E-01-0.796E-02
 d Force = 0.1386782E+02[ 0.121E+02, 0.157E+02]  d Ewald  = 0.1386394E+02 0.389E-02


--------------------------------------------------------------------------------------------------------


    POTLOK:  cpu time    0.17: real time    0.17


--------------------------------------------------------------------------------------------------------


  FORCES: max atom, RMS     0.541373    0.236170
  FORCE total and by dimension    1.335981    0.485555


--------------------------------------------------------------------------------------------------------


  
 reached required accuracy - stopping structural energy minimisation
     LOOP+:  cpu time   10.20: real time   10.38
    4ORBIT:  cpu time    0.00: real time    0.00

 total amount of memory used by VASP on root node  63831. kBytes
========================================================================

   base      :    30000. kBytes
   nonl-proj :     6789. kBytes
   fftplans  :     2983. kBytes
   grid      :    22831. kBytes
   one-center:      497. kBytes
   wavefun   :      731. kBytes
 
  
  
 General timing and accounting informations for this job:
 ========================================================
  
                  Total CPU time used (sec):       80.351
                            User time (sec):       80.178
                          System time (sec):        0.173
                         Elapsed time (sec):       80.790
  
                   Maximum memory used (kb):           0.
                   Average memory used (kb):           0.
  
                          Minor page faults:        23974
                          Major page faults:            0
                 Voluntary context switches:         2365
