Processors received = 1
script running on host compute-0-2.local
PBS_NODEFILE
compute-0-2
 running on    1 nodes
 distr:  one band on    1 nodes,    1 groups
 vasp.5.2.2 15Apr09 complex 
 POSCAR found type information on POSCAR  Fe
 POSCAR found :  1 types and    4 ions
 LDA part: xc-table for Ceperly-Alder, standard interpolation
 POSCAR, INCAR and KPOINTS ok, starting setup
 FFT: planning ...(           2 )
 reading WAVECAR
 entering main loop
       N       E                     dE             d eps       ncg     rms          rms(c)
DAV:   1     0.197182930084E+03    0.19718E+03   -0.10077E+04    40   0.145E+03
DAV:   2    -0.111256244451E+02   -0.20831E+03   -0.20196E+03    40   0.344E+02
DAV:   3    -0.277284965532E+02   -0.16603E+02   -0.15582E+02    64   0.100E+02
DAV:   4    -0.281941773685E+02   -0.46568E+00   -0.42582E+00    56   0.201E+01
DAV:   5    -0.282963369247E+02   -0.10216E+00   -0.92048E-01    56   0.393E+00    0.249E+01
DAV:   6    -0.374063930291E+02   -0.91101E+01   -0.31272E+02    56   0.121E+02    0.210E+01
DAV:   7    -0.278594192672E+02    0.95470E+01   -0.21501E+01    40   0.628E+01    0.104E+01
DAV:   8    -0.259756125744E+02    0.18838E+01   -0.38341E+00    40   0.278E+01    0.661E+00
DAV:   9    -0.262363073837E+02   -0.26069E+00   -0.23073E-01    40   0.707E+00    0.700E+00
DAV:  10    -0.250248688723E+02    0.12114E+01   -0.20614E+00    40   0.204E+01    0.624E+00
DAV:  11    -0.225017772583E+02    0.25231E+01   -0.39497E+00    40   0.205E+01    0.742E+00
DAV:  12    -0.212001550441E+02    0.13016E+01   -0.33800E-01    40   0.488E+00    0.143E+01
DAV:  13    -0.197875971237E+02    0.14126E+01   -0.83557E-01    40   0.500E+00    0.132E+01
DAV:  14    -0.256661966134E+02   -0.58786E+01   -0.72387E+00    40   0.947E+00    0.116E+01
DAV:  15    -0.245508522636E+02    0.11153E+01   -0.74623E-01    40   0.110E+01    0.519E+00
DAV:  16    -0.244012161875E+02    0.14964E+00   -0.30957E+00    56   0.248E+00    0.111E+01
DAV:  17    -0.239642639109E+02    0.43695E+00   -0.64773E-01    40   0.979E+00    0.865E+00
DAV:  18    -0.248831875520E+02   -0.91892E+00   -0.92466E-02    40   0.327E+00    0.509E+00
DAV:  19    -0.252928625030E+02   -0.40967E+00   -0.96188E-02    40   0.344E+00    0.124E+00
DAV:  20    -0.252819904824E+02    0.10872E-01   -0.72187E-03    40   0.110E+00    0.761E-01
DAV:  21    -0.252891635713E+02   -0.71731E-02   -0.84896E-04    40   0.369E-01    0.320E-01
DAV:  22    -0.252891629318E+02    0.63951E-06   -0.21100E-03    40   0.536E-01    0.253E-01
DAV:  23    -0.252859077641E+02    0.32552E-02   -0.30225E-04    28   0.229E-01    0.556E-01
DAV:  24    -0.252899217250E+02   -0.40140E-02   -0.54650E-04    32   0.286E-01    0.303E-01
DAV:  25    -0.252907868292E+02   -0.86510E-03   -0.14582E-04    20   0.167E-01    0.119E-01
DAV:  26    -0.252907969831E+02   -0.10154E-04   -0.37306E-05    20   0.101E-01

 ----------------------------------------------------------------------------- 
|                                                                             |
|           W    W    AA    RRRRR   N    N  II  N    N   GGGG   !!!           |
|           W    W   A  A   R    R  NN   N  II  NN   N  G    G  !!!           |
|           W    W  A    A  R    R  N N  N  II  N N  N  G       !!!           |
|           W WW W  AAAAAA  RRRRR   N  N N  II  N  N N  G  GGG   !            |
|           WW  WW  A    A  R   R   N   NN  II  N   NN  G    G                |
|           W    W  A    A  R    R  N    N  II  N    N   GGGG   !!!           |
|                                                                             |
|      Your highest band is occupied at some k-points! Unless you are         |
|      performing a calculation for an insulator or semiconductor, without    |
|      unoccupied bands, you have included TOO FEW BANDS!! Please increase    |
|      the parameter NBANDS in file 'INCAR' to ensure that the highest band   |
|      is unoccupied at all k-points. It is always recommended to             |
|      include a few unoccupied bands to accelerate the convergence of        |
|      molecular dynamics runs (even for insulators or semiconductors).       |
|      Because the presence of unoccupied bands improves wavefunction         |
|      prediction, and helps to suppress 'band-crossings.'                    |
|                                                                             |
 ----------------------------------------------------------------------------- 

   1 F= -.25290797E+02 E0= -.25201613E+02  d E =-.252908E+02
 curvature:   0.00 expect dE= 0.000E+00 dE for cont linesearch  0.000E+00
 trial: gam= 0.00000 g(F)=  0.179E-60 g(S)=  0.750E-01 ort = 0.000E+00 (trialstep = 0.100E+01)
 search vector abs. value=  0.750E-01
 bond charge predicted
       N       E                     dE             d eps       ncg     rms          rms(c)
DAV:   1    -0.271934440028E+02   -0.19027E+01   -0.18931E+01    40   0.653E+01    0.110E+01
DAV:   2    -0.263557014059E+02    0.83774E+00   -0.17074E+01    40   0.549E+01    0.625E+00
DAV:   3    -0.253309439705E+02    0.10248E+01   -0.26858E+00    40   0.245E+01    0.285E+00
DAV:   4    -0.252601429244E+02    0.70801E-01   -0.23065E-01    40   0.595E+00    0.991E-01
DAV:   5    -0.252567503940E+02    0.33925E-02   -0.24398E-02    40   0.262E+00    0.758E-01
DAV:   6    -0.252719911972E+02   -0.15241E-01   -0.41457E-02    40   0.304E+00    0.177E+00
DAV:   7    -0.252606953245E+02    0.11296E-01   -0.38589E-03    40   0.945E-01    0.114E+00
DAV:   8    -0.252555394376E+02    0.51559E-02   -0.22381E-03    40   0.680E-01    0.603E-01
DAV:   9    -0.252539211940E+02    0.16182E-02   -0.10641E-03    40   0.490E-01    0.153E-01
DAV:  10    -0.252537927726E+02    0.12842E-03   -0.10063E-04    20   0.144E-01    0.363E-02
DAV:  11    -0.252537782419E+02    0.14531E-04   -0.14247E-05    20   0.447E-02

 ----------------------------------------------------------------------------- 
|                                                                             |
|           W    W    AA    RRRRR   N    N  II  N    N   GGGG   !!!           |
|           W    W   A  A   R    R  NN   N  II  NN   N  G    G  !!!           |
|           W    W  A    A  R    R  N N  N  II  N N  N  G       !!!           |
|           W WW W  AAAAAA  RRRRR   N  N N  II  N  N N  G  GGG   !            |
|           WW  WW  A    A  R   R   N   NN  II  N   NN  G    G                |
|           W    W  A    A  R    R  N    N  II  N    N   GGGG   !!!           |
|                                                                             |
|      Your highest band is occupied at some k-points! Unless you are         |
|      performing a calculation for an insulator or semiconductor, without    |
|      unoccupied bands, you have included TOO FEW BANDS!! Please increase    |
|      the parameter NBANDS in file 'INCAR' to ensure that the highest band   |
|      is unoccupied at all k-points. It is always recommended to             |
|      include a few unoccupied bands to accelerate the convergence of        |
|      molecular dynamics runs (even for insulators or semiconductors).       |
|      Because the presence of unoccupied bands improves wavefunction         |
|      prediction, and helps to suppress 'band-crossings.'                    |
|                                                                             |
 ----------------------------------------------------------------------------- 

   2 F= -.25253778E+02 E0= -.25171474E+02  d E =0.370187E-01
 trial-energy change:    0.037019  1 .order    0.014520   -0.075038    0.104079
 step:   0.2703(harm=  0.4189)  dis= 0.00000  next Energy=   -25.300494 (dE=-0.970E-02)
 bond charge predicted
       N       E                     dE             d eps       ncg     rms          rms(c)
DAV:   1    -0.259013828701E+02   -0.64759E+00   -0.98815E+00    40   0.503E+01    0.528E+00
DAV:   2    -0.254821816115E+02    0.41920E+00   -0.43824E+00    40   0.256E+01    0.585E+00
DAV:   3    -0.254753315852E+02    0.68500E-02   -0.10766E+00    40   0.153E+01    0.333E+00
DAV:   4    -0.253041309099E+02    0.17120E+00   -0.51392E-01    40   0.835E+00    0.111E+00
DAV:   5    -0.252967450961E+02    0.73858E-02   -0.52936E-03    40   0.109E+00    0.291E-01
DAV:   6    -0.252958927515E+02    0.85234E-03   -0.54493E-03    40   0.112E+00    0.435E-01
DAV:   7    -0.252946096874E+02    0.12831E-02   -0.12413E-03    36   0.459E-01    0.883E-02
DAV:   8    -0.252945485619E+02    0.61125E-04   -0.17648E-04    28   0.145E-01

 ----------------------------------------------------------------------------- 
|                                                                             |
|           W    W    AA    RRRRR   N    N  II  N    N   GGGG   !!!           |
|           W    W   A  A   R    R  NN   N  II  NN   N  G    G  !!!           |
|           W    W  A    A  R    R  N N  N  II  N N  N  G       !!!           |
|           W WW W  AAAAAA  RRRRR   N  N N  II  N  N N  G  GGG   !            |
|           WW  WW  A    A  R   R   N   NN  II  N   NN  G    G                |
|           W    W  A    A  R    R  N    N  II  N    N   GGGG   !!!           |
|                                                                             |
|      Your highest band is occupied at some k-points! Unless you are         |
|      performing a calculation for an insulator or semiconductor, without    |
|      unoccupied bands, you have included TOO FEW BANDS!! Please increase    |
|      the parameter NBANDS in file 'INCAR' to ensure that the highest band   |
|      is unoccupied at all k-points. It is always recommended to             |
|      include a few unoccupied bands to accelerate the convergence of        |
|      molecular dynamics runs (even for insulators or semiconductors).       |
|      Because the presence of unoccupied bands improves wavefunction         |
|      prediction, and helps to suppress 'band-crossings.'                    |
|                                                                             |
 ----------------------------------------------------------------------------- 

   3 F= -.25294549E+02 E0= -.25208994E+02  d E =-.375158E-02
 curvature:  -0.20 expect dE=-0.254E-02 dE for cont linesearch -0.254E-02
 ZBRENT: interpolating
 opt :   0.1909  next Energy=   -25.295787 (dE=-0.499E-02)
 bond charge predicted
       N       E                     dE             d eps       ncg     rms          rms(c)
DAV:   1    -0.253133092227E+02   -0.18700E-01   -0.11063E-01    40   0.523E+00    0.178E+00
DAV:   2    -0.255164374414E+02   -0.20313E+00   -0.16375E+00    40   0.935E+00    0.685E+00
DAV:   3    -0.252950586610E+02    0.22138E+00   -0.73618E-01    40   0.747E+00    0.413E-01
DAV:   4    -0.252946964049E+02    0.36226E-03   -0.74245E-04    36   0.327E-01    0.178E-01
DAV:   5    -0.252943725099E+02    0.32389E-03   -0.78990E-05    20   0.122E-01    0.618E-02
DAV:   6    -0.252943955627E+02   -0.23053E-04   -0.95051E-05    20   0.136E-01

 ----------------------------------------------------------------------------- 
|                                                                             |
|           W    W    AA    RRRRR   N    N  II  N    N   GGGG   !!!           |
|           W    W   A  A   R    R  NN   N  II  NN   N  G    G  !!!           |
|           W    W  A    A  R    R  N N  N  II  N N  N  G       !!!           |
|           W WW W  AAAAAA  RRRRR   N  N N  II  N  N N  G  GGG   !            |
|           WW  WW  A    A  R   R   N   NN  II  N   NN  G    G                |
|           W    W  A    A  R    R  N    N  II  N    N   GGGG   !!!           |
|                                                                             |
|      Your highest band is occupied at some k-points! Unless you are         |
|      performing a calculation for an insulator or semiconductor, without    |
|      unoccupied bands, you have included TOO FEW BANDS!! Please increase    |
|      the parameter NBANDS in file 'INCAR' to ensure that the highest band   |
|      is unoccupied at all k-points. It is always recommended to             |
|      include a few unoccupied bands to accelerate the convergence of        |
|      molecular dynamics runs (even for insulators or semiconductors).       |
|      Because the presence of unoccupied bands improves wavefunction         |
|      prediction, and helps to suppress 'band-crossings.'                    |
|                                                                             |
 ----------------------------------------------------------------------------- 

   4 F= -.25294396E+02 E0= -.25207126E+02  d E =-.359858E-02
 curvature:  -0.10 expect dE=-0.631E-03 dE for cont linesearch -0.631E-03
 trial: gam=-0.20873 g(F)=  0.241E-60 g(S)=  0.661E-02 ort = 0.223E-01 (trialstep = 0.838E+00)
 search vector abs. value=  0.583E-03
 bond charge predicted
       N       E                     dE             d eps       ncg     rms          rms(c)
DAV:   1    -0.253148985622E+02   -0.20526E-01   -0.16147E-01    40   0.491E+00    0.227E+00
DAV:   2    -0.255019709276E+02   -0.18707E+00   -0.66490E-01    40   0.119E+01    0.335E+00
DAV:   3    -0.253126342570E+02    0.18934E+00   -0.27579E-01    40   0.774E+00    0.175E+00
DAV:   4    -0.253012435633E+02    0.11391E-01   -0.44749E-03    40   0.938E-01    0.115E+00
DAV:   5    -0.252953157584E+02    0.59278E-02   -0.37211E-03    40   0.904E-01    0.455E-01
DAV:   6    -0.252947131719E+02    0.60259E-03   -0.40617E-04    28   0.313E-01    0.291E-01
DAV:   7    -0.252943302233E+02    0.38295E-03   -0.54261E-04    36   0.352E-01    0.579E-02
DAV:   8    -0.252943073501E+02    0.22873E-04   -0.10017E-05    20   0.379E-02

 ----------------------------------------------------------------------------- 
|                                                                             |
|           W    W    AA    RRRRR   N    N  II  N    N   GGGG   !!!           |
|           W    W   A  A   R    R  NN   N  II  NN   N  G    G  !!!           |
|           W    W  A    A  R    R  N N  N  II  N N  N  G       !!!           |
|           W WW W  AAAAAA  RRRRR   N  N N  II  N  N N  G  GGG   !            |
|           WW  WW  A    A  R   R   N   NN  II  N   NN  G    G                |
|           W    W  A    A  R    R  N    N  II  N    N   GGGG   !!!           |
|                                                                             |
|      Your highest band is occupied at some k-points! Unless you are         |
|      performing a calculation for an insulator or semiconductor, without    |
|      unoccupied bands, you have included TOO FEW BANDS!! Please increase    |
|      the parameter NBANDS in file 'INCAR' to ensure that the highest band   |
|      is unoccupied at all k-points. It is always recommended to             |
|      include a few unoccupied bands to accelerate the convergence of        |
|      molecular dynamics runs (even for insulators or semiconductors).       |
|      Because the presence of unoccupied bands improves wavefunction         |
|      prediction, and helps to suppress 'band-crossings.'                    |
|                                                                             |
 ----------------------------------------------------------------------------- 

   5 F= -.25294307E+02 E0= -.25205403E+02  d E =0.882126E-04
 trial-energy change:    0.000088  1 .order   -0.000921   -0.001645   -0.000196
 step:   0.9518(harm=  0.9518)  dis= 0.00000  next Energy=   -25.295330 (dE=-0.934E-03)
 bond charge predicted
       N       E                     dE             d eps       ncg     rms          rms(c)
DAV:   1    -0.252946080735E+02   -0.27785E-03   -0.16792E-03    40   0.638E-01    0.280E-01
DAV:   2    -0.252995336091E+02   -0.49255E-02   -0.98244E-03    40   0.145E+00    0.998E-01
DAV:   3    -0.252943133903E+02    0.52202E-02   -0.63706E-03    40   0.118E+00    0.545E-02
DAV:   4    -0.252942928219E+02    0.20568E-04   -0.18065E-05    20   0.452E-02

 ----------------------------------------------------------------------------- 
|                                                                             |
|           W    W    AA    RRRRR   N    N  II  N    N   GGGG   !!!           |
|           W    W   A  A   R    R  NN   N  II  NN   N  G    G  !!!           |
|           W    W  A    A  R    R  N N  N  II  N N  N  G       !!!           |
|           W WW W  AAAAAA  RRRRR   N  N N  II  N  N N  G  GGG   !            |
|           WW  WW  A    A  R   R   N   NN  II  N   NN  G    G                |
|           W    W  A    A  R    R  N    N  II  N    N   GGGG   !!!           |
|                                                                             |
|      Your highest band is occupied at some k-points! Unless you are         |
|      performing a calculation for an insulator or semiconductor, without    |
|      unoccupied bands, you have included TOO FEW BANDS!! Please increase    |
|      the parameter NBANDS in file 'INCAR' to ensure that the highest band   |
|      is unoccupied at all k-points. It is always recommended to             |
|      include a few unoccupied bands to accelerate the convergence of        |
|      molecular dynamics runs (even for insulators or semiconductors).       |
|      Because the presence of unoccupied bands improves wavefunction         |
|      prediction, and helps to suppress 'band-crossings.'                    |
|                                                                             |
 ----------------------------------------------------------------------------- 

   6 F= -.25294293E+02 E0= -.25205391E+02  d E =0.102741E-03
 curvature:  -0.14 expect dE=-0.290E-03 dE for cont linesearch -0.290E-03
 trial: gam= 0.00000 g(F)=  0.170E-60 g(S)=  0.205E-02 ort =-0.109E-02 (trialstep = 0.245E+00)
 search vector abs. value=  0.205E-02
 reached required accuracy - stopping structural energy minimisation
