    4    4  191    1
  0.1692400E+02  0.4075564E-09  0.4075564E-09  0.4075564E-09  0.5000000E-15
  1.000000000000000E-004
  CAR 
 unknown system                          
   12    1   10
 
  0.2500000E+00  0.2500000E+00  0.2500000E+00  0.1000000E+01
   1       -1.623527
   2        2.684376
   3        2.684376
   4        2.684376
   5        6.878951
   6        6.878951
   7        6.878951
   8       10.983817
   9       11.184378
  10       11.184378
