 vasp.5.2.2 15Apr09 complex 
 executed on             LinuxIFC date 2013.08.21  12:56:08
 running on    1 nodes
 distr:  one band on    1 nodes,    1 groups


--------------------------------------------------------------------------------------------------------


 INCAR:
 POTCAR:   PAW_GGA Al 05Jan2001                   
 POTCAR:   PAW_GGA Al 05Jan2001                   
   VRHFIN =Al: s2p1                                                             
   LEXCH  = 91                                                                  
   EATOM  =    53.6910 eV,    3.9462 Ry                                         
                                                                                
   TITEL  = PAW_GGA Al 05Jan2001                                                
   LULTRA =        F    use ultrasoft PP ?                                      
   IUNSCR =        1    unscreen: 0-lin 1-nonlin 2-no                           
   RPACOR =    1.500    partial core radius                                     
   POMASS =   26.982; ZVAL   =    3.000    mass and valenz                      
   RCORE  =    1.900    outmost cutoff radius                                   
   RWIGS  =    2.650; RWIGS  =    1.402    wigner-seitz radius (au A)           
   ENMAX  =  240.437; ENMIN  =  180.327 eV                                      
   ICORE  =        2    local potential                                         
   LCOR   =        T    correct aug charges                                     
   LPAW   =        T    paw PP                                                  
   EAUG   =  291.052                                                            
   DEXC   =    -.017                                                            
   RMAX   =    2.974    core radius for proj-oper                               
   RAUG   =    1.300    factor for augmentation sphere                          
   RDEP   =    1.966    core radius for depl-charge                             
   QCUT   =   -4.204; QGAM   =    8.408    optimization parameters              
                                                                                
   Description                                                                  
     l     E      TYP  RCUT    TYP  RCUT                                        
     0   .000     23  1.900                                                     
     0   .000     23  1.900                                                     
     1   .000     23  1.900                                                     
     1  1.000     23  1.900                                                     
     2   .000      7  1.900                                                     
  local pseudopotential read in
  partial core-charges read in
  atomic valenz-charges read in
  non local Contribution for L=           0  read in
    real space projection operators read in
  non local Contribution for L=           0  read in
    real space projection operators read in
  non local Contribution for L=           1  read in
    real space projection operators read in
  non local Contribution for L=           1  read in
    real space projection operators read in
    PAW grid and wavefunctions read in
 
   number of l-projection  operators is LMAX  =           4
   number of lm-projection operators is LMMAX =           8
 
 PAW_GGA Al 05Jan2001                   :
 energy of atom  1       EATOM=  -53.6910
 kinetic energy error for atom=    0.0006 (will be added to EATOM!!)
 
 
 POSCAR: Al4                                     
  positions in direct lattice
  velocities in cartesian coordinates
 exchange correlation table for  LEXCH =        7
   RHO(1)=    0.500       N(1)  =     2000
   RHO(2)=  100.500       N(2)  =     4000

 VTST: version 2.03d, (02/18/09)

 CHAIN: initializing optimizer
 
 OPT: Using VASP Conjugate-Gradient optimizer
 CHAIN: Read ICHAIN            0
 


--------------------------------------------------------------------------------------------------------


 ion  position               nearest neighbor table
   1  0.000  0.000  0.000-   2 2.88   3 2.88   4 2.88   3 2.88   4 2.88   2 2.88   3 2.88   3 2.88
                             2 2.88   4 2.88   4 2.88   2 2.88
   2  0.500  0.500  0.000-   1 2.88   3 2.88   4 2.88   3 2.88   4 2.88   1 2.88   4 2.88   4 2.88
                             1 2.88   3 2.88   3 2.88   1 2.88
   3  0.000  0.500  0.500-   1 2.88   2 2.88   4 2.88   1 2.88   2 2.88   1 2.88   4 2.88   1 2.88
                             2 2.88   4 2.88   2 2.88   4 2.88
   4  0.500  0.000  0.500-   1 2.88   2 2.88   3 2.88   1 2.88   2 2.88   2 2.88   3 2.88   2 2.88
                             1 2.88   3 2.88   1 2.88   3 2.88
 
  LATTYP: Found a simple cubic cell.
 ALAT       =     4.0755636659
  
  Lattice vectors:
  
 A1 = (   4.0755636659,   0.0000000000,   0.0000000000)
 A2 = (   0.0000000000,   4.0755636659,   0.0000000000)
 A3 = (   0.0000000000,   0.0000000000,   4.0755636659)
 Subroutine PRICEL returns following result:
 
  LATTYP: Found a face centered cubic cell.
 ALAT       =     4.0755636659
  
  Lattice vectors:
  
 A1 = (   2.0377818329,   2.0377818329,   0.0000000000)
 A2 = (   2.0377818329,   0.0000000000,  -2.0377818329)
 A3 = (   0.0000000000,   2.0377818329,  -2.0377818329)
 
   4 primitive cells build up your supercell.
 

Analysis of symmetry for initial positions (statically):

 Routine SETGRP: Setting up the symmetry group for a 
 simple cubic supercell.


 Subroutine GETGRP returns: Found 48 space group operations
 (whereof 48 operations were pure point group operations)
 out of a pool of 48 trial point group operations.


The static configuration has the point symmetry O_h .

Analysis of symmetry for dynamics (positions and initial velocities):

 Subroutine DYNSYM returns: Found 48 space group operations
 (whereof 48 operations were pure point group operations)
 out of a pool of 48 trial space group operations
 (whereof 48 operations were pure point group operations)
 and found also     4 'primitive' translations


The dynamic configuration has the point symmetry O_h .
 
 
 KPOINTS: Automatic kpoint scheme                 

Automatic generation of k-mesh.
 
 Subroutine IBZKPT returns following result:
 ===========================================
 
 Found      1 irreducible k-points:
 
 Following reciprocal coordinates:
            Coordinates               Weight
  0.250000  0.250000  0.250000      8.000000
 
 Following cartesian coordinates:
            Coordinates               Weight
  0.061341  0.061341  0.061341      8.000000
 


--------------------------------------------------------------------------------------------------------




 Dimension of arrays:
   k-points           NKPTS =      1   k-points in BZ     NKDIM =      1   number of bands    NBANDS=     10
   number of dos      NEDOS =    301   number of ions     NIONS =      4
   non local maximal  LDIM  =      4   non local SUM 2l+1 LMDIM =      8
   total plane-waves  NPLWV =  21952
   max r-space proj   IRMAX =      1   max aug-charges    IRDMAX=  12819
   dimension x,y,z NGX =    28 NGY =   28 NGZ =   28
   dimension x,y,z NGXF=    56 NGYF=   56 NGZF=   56
   support grid    NGXF=    56 NGYF=   56 NGZF=   56
   ions per type =               4
 NGX,Y,Z   is equivalent  to a cutoff of  11.42, 11.42, 11.42 a.u.
 NGXF,Y,Z  is equivalent  to a cutoff of  22.84, 22.84, 22.84 a.u.


 I would recommend the setting:
   dimension x,y,z NGX =    25 NGY =   25 NGZ =   25
 SYSTEM =  unknown system                          
 POSCAR =  Al4                                     

 Startparameter for this run:
   NWRITE =      2    write-flag & timer
   PREC   = accura    medium, high low
   ISTART =      0    job   : 0-new  1-cont  2-samecut
   ICHARG =      2    charge: 1-file 2-atom 10-const
   ISPIN  =      1    spin polarized calculation?
   LNONCOLLINEAR =      F non collinear calculations
   LSORBIT =      F    spin-orbit coupling
   INIWAV =      1    electr: 0-lowe 1-rand  2-diag
   LASPH  =      F    aspherical Exc in radial PAW
   METAGGA=      F    non-selfconsistent MetaGGA calc.

 Electronic Relaxation 1
   ENCUT  =  360.7 eV  26.51 Ry    5.15 a.u.   6.31  6.31  6.31*2*pi/ulx,y,z
   ENINI  =  360.7     initial cutoff
   ENAUG  =  291.1 eV  augmentation charge cutoff
   NELM   =     60;   NELMIN=  2; NELMDL=  0     # of ELM steps 
   EDIFF  = 0.1E-03   stopping-criterion for ELM
   LREAL  =      F    real-space projection
   LCOMPAT=      F    compatible to vasp.4.4
   LREAL_COMPAT= F    compatible to vasp.4.5.1-3
   GGA_COMPAT  = T    GGA compatible to vasp.4.4-vasp.4.6
   LMAXPAW     = -100 max onsite density
   LMAXMIX     =    2 max onsite mixed and CHGCAR
   VOSKOWN=      0    Vosko Wilk Nusair interpolation
   ROPT   =    0.00000
 Ionic relaxation
   EDIFFG = 0.1E-02   stopping-criterion for IOM
   NSW    =    191    number of steps for IOM
   NBLOCK =      1;   KBLOCK =    191    inner block; outer block 
   IBRION =      2    ionic relax: 0-MD 1-quasi-New 2-CG
   NFREE  =      1    steps in history (QN), initial steepest desc. (CG)
   ISIF   =      3    stress and relaxation
   IWAVPR =     11    prediction:  0-non 1-charg 2-wave 3-comb
   ISYM   =      2    0-nonsym 1-usesym 2-fastsym
   LCORR  =      T    Harris-Foulkes like correction to forces

   POTIM  = 0.5000    time-step for ionic-motion
   TEIN   =    0.0    initial temperature
   TEBEG  =    0.0;   TEEND  =   0.0 temperature during run
   SMASS  =  -3.00    Nose mass-parameter (am)
   estimated Nose-frequenzy (Omega)   =  0.10E-29 period in steps =****** mass=  -0.380E-27a.u.
   NPACO  =    256;   APACO  = 16.0  distance and # of slots for P.C.
   PSTRESS=    0.0 pullay stress

  Mass of Ions in am
   POMASS =  26.98
  Ionic Valenz
   ZVAL   =   3.00
  Atomic Wigner-Seitz radii
   RWIGS  =  -1.00
   NELECT =      12.0000    total number of electrons
   NUPDOWN=      -1.0000    fix difference up-down

 DOS related values:
   EMIN   =  10.00;   EMAX   =-10.00  energy-range for DOS
   EFERMI =   0.00
   ISMEAR =     1;   SIGMA  =   0.20  broadening in eV -4-tet -1-fermi 0-gaus

 Electronic relaxation 2 (details)
   IALGO  =     38    algorithm
   LDIAG  =      T    sub-space diagonalisation
   IMIX   =      4    mixing-type and parameters
     AMIX     =   0.40;   BMIX     =  1.00
     AMIX_MAG =   1.60;   BMIX_MAG =  1.00
     AMIN     =   0.10
     WC   =   100.;   INIMIX=   1;  MIXPRE=   1

 Intra band minimization:
   WEIMIN = 0.0010     energy-eigenvalue tresh-hold
   EBREAK =  0.25E-05  absolut break condition
   DEPER  =   0.30     relativ break condition  

   TIME   =   0.40     timestep for ELM

  volume/ion in A,a.u.               =      16.92       114.21
  Fermi-wavevector in a.u.,A,eV,Ry     =   0.919632  1.737853 11.506768  0.845724
  Thomas-Fermi vector in A             =   2.044848
 
 Write flags
   LWAVE  =      F    write WAVECAR
   LCHARG =      F    write CHGCAR
   LVTOT  =      F    write LOCPOT, local potential
   LELF   =      F    write electronic localiz. function (ELF)
   LORBIT =      0    0 simple, 1 ext, 2 COOP (PROOUT)


 Dipole corrections
   LMONO  =      F    monopole corrections only (constant potential shift)
   LDIPOL =      F    correct potential (dipole corrections)
   IDIPOL =      0    1-x, 2-y, 3-z, 4-all directions 
   EPSILON=  1.0000000 bulk dielectric constant

 Exchange correlation treatment:
   GGA     =    --    GGA type
   LEXCH   =     7    internal setting for exchange type
   VOSKOWN=      0    Vosko Wilk Nusair interpolation
   LHFCALC =     F    Hartree Fock is set to
   LHFONE  =     F    Hartree Fock one center treatment
   AEXX    =    0.0000 exact exchange contribution

 Linear response parameters
   LEPSILON=     F    determine dielectric tensor
   LRPA    =     F    only Hartree local field effects (RPA)
   LNABLA  =     F    use nabla operator in PAW spheres
   LVEL    =     F    velocity operator in full k-point grid
   LINTERFAST=   F  fast interpolation
   KINTER  =     0    interpolate to denser k-point grid
   CSHIFT  =0.1000    complex shift for real part using Kramers Kronig
   OMEGAMAX=  -1.0    maximum frequency

 Orbital magnetization related:
   ORBITALMAG=     F  switch on orbital magnetization
   LCHIMAG   =     F  perturbation theory with respect to B field



--------------------------------------------------------------------------------------------------------


 conjugate gradient relaxation of ions
 charge density and potential will be updated during run
 non-spin polarized calculation
 Variant of blocked Davidson
 Davidson routine will perform the subspace rotation
 perform sub-space diagonalisation
    after iterative eigenvector-optimisation
 modified Broyden-mixing scheme, WC =      100.0
 initial mixing is a Kerker type mixing with AMIX =  0.4000 and BMIX =      1.0000
 Hartree-type preconditioning will be used
 using additional bands            4
 reciprocal scheme for non local part
 use partial core corrections
 calculate Harris-corrections to forces 
   (improved forces if not selfconsistent)
 use gradient corrections 
 use of overlap-Matrix (Vanderbilt PP)
 Methfessel and Paxton  Order N= 1 SIGMA  =   0.20


--------------------------------------------------------------------------------------------------------


  energy-cutoff  :      360.66
  volume of cell :       67.70
      direct lattice vectors                 reciprocal lattice vectors
     4.075563666  0.000000000  0.000000000     0.245364833  0.000000000  0.000000000
     0.000000000  4.075563666  0.000000000     0.000000000  0.245364833  0.000000000
     0.000000000  0.000000000  4.075563666     0.000000000  0.000000000  0.245364833

  length of vectors
     4.075563666  4.075563666  4.075563666     0.245364833  0.245364833  0.245364833


 
 k-points in units of 2pi/SCALE and weight: Automatic kpoint scheme                 
   0.06134121  0.06134121  0.06134121       1.000
 
 k-points in reciprocal lattice and weights: Automatic kpoint scheme                 
   0.25000000  0.25000000  0.25000000       1.000
 
 position of ions in fractional coordinates (direct lattice) 
   0.00000000  0.00000000  0.00000000
   0.50000000  0.50000000  0.00000000
   0.00000000  0.50000000  0.50000000
   0.50000000  0.00000000  0.50000000
 
 position of ions in cartesian coordinates  (Angst):
   0.00000000  0.00000000  0.00000000
   2.03778183  2.03778183  0.00000000
   0.00000000  2.03778183  2.03778183
   2.03778183  0.00000000  2.03778183
 


--------------------------------------------------------------------------------------------------------


 k-point  1 :  0.25000.25000.2500  plane waves:    1060

 maximum and minimum number of plane-waves per node :    1060   1060

 maximum number of plane-waves:    1060
 maximal index in each direction: 
   IXMAX=  6   IYMAX=  6   IZMAX=  6
   IXMIN= -6   IYMIN= -6   IZMIN= -6

 NGX is ok and might be reduce to  26
 NGY is ok and might be reduce to  26
 NGZ is ok and might be reduce to  26

 serial   3D FFT for wavefunctions
 parallel 3D FFT for charge:
    minimum data exchange during FFTs selected (reduces bandwidth)


 total amount of memory used by VASP on root node  46033. kBytes
========================================================================

   base      :    30000. kBytes
   nonl-proj :      135. kBytes
   fftplans  :     6192. kBytes
   grid      :     9520. kBytes
   one-center:       12. kBytes
   wavefun   :      174. kBytes
 
 Broyden mixing: mesh for mixing (old mesh)
   NGX = 13   NGY = 13   NGZ = 13
  (NGX  = 56   NGY  = 56   NGZ  = 56)
  gives a total of   2197 points

 initial charge density was supplied:
 charge density of overlapping atoms calculated
 number of electron   12.0000000 magnetization 
 keeping initial charge density in first step


--------------------------------------------------------------------------------------------------------


 Maximum index for augmentation-charges        12197 (set IRDMAX)


--------------------------------------------------------------------------------------------------------


 First call to EWALD:  gamma=   0.435
 Maximum number of real-space cells 3x 3x 3
 Maximum number of reciprocal cells 3x 3x 3

    FEWALD:  cpu time    0.03: real time    0.01
   RESPFUN:  cpu time    0.00: real time    0.00


----------------------------------------- Iteration    1(   1)  ---------------------------------------


    POTLOK:  cpu time    1.01: real time    0.84
    SETDIJ:  cpu time    0.05: real time    0.05
     EDDAV:  cpu time    1.05: real time    0.29
       DOS:  cpu time    0.00: real time    0.00
    --------------------------------------------
      LOOP:  cpu time    2.11: real time    1.18

 eigenvalue-minimisations  :    28
 total energy-change (2. order) : 0.3463580E+01  (-0.4108802E+03)
 number of electron   12.0000000 magnetization 
 augmentation part    12.0000000 magnetization 

 Free energy of the ion-electron system (eV)
  ---------------------------------------------------
  alpha Z        PSCENC =        -0.60183796
  Ewald energy   TEWEN  =      -291.58634119
  -1/2 Hartree   DENC   =        -0.45328308
  -exchange  EXHF       =         0.00000000
  -V(xc)+E(xc)   XCENC  =      -105.75342766
  PAW double counting   =       142.63640024      -14.42330091
  entropy T*S    EENTRO =         0.01159581
  eigenvalues    EBANDS =        58.87223567
  atomic energy  EATOM  =       214.76153871
  ---------------------------------------------------
  free energy    TOTEN  =         3.46357963 eV

  energy without entropy =        3.45198381  energy(sigma->0) =        3.45971435


--------------------------------------------------------------------------------------------------------




----------------------------------------- Iteration    1(   2)  ---------------------------------------


     EDDAV:  cpu time    0.78: real time    0.20
       DOS:  cpu time    0.00: real time    0.00
    --------------------------------------------
      LOOP:  cpu time    0.79: real time    0.20

 eigenvalue-minimisations  :    30
 total energy-change (2. order) :-0.1728773E+02  (-0.1700694E+02)
 number of electron   12.0000000 magnetization 
 augmentation part    12.0000000 magnetization 

 Free energy of the ion-electron system (eV)
  ---------------------------------------------------
  alpha Z        PSCENC =        -0.60183796
  Ewald energy   TEWEN  =      -291.58634119
  -1/2 Hartree   DENC   =        -0.45328308
  -exchange  EXHF       =         0.00000000
  -V(xc)+E(xc)   XCENC  =      -105.75342766
  PAW double counting   =       142.63640024      -14.42330091
  entropy T*S    EENTRO =        -0.13574390
  eigenvalues    EBANDS =        41.73184052
  atomic energy  EATOM  =       214.76153871
  ---------------------------------------------------
  free energy    TOTEN  =       -13.82415524 eV

  energy without entropy =      -13.68841134  energy(sigma->0) =      -13.77890727


--------------------------------------------------------------------------------------------------------




----------------------------------------- Iteration    1(   3)  ---------------------------------------


     EDDAV:  cpu time    0.62: real time    0.16
       DOS:  cpu time    0.00: real time    0.00
    --------------------------------------------
      LOOP:  cpu time    0.63: real time    0.16

 eigenvalue-minimisations  :    22
 total energy-change (2. order) :-0.2817008E+00  (-0.2681877E+00)
 number of electron   12.0000000 magnetization 
 augmentation part    12.0000000 magnetization 

 Free energy of the ion-electron system (eV)
  ---------------------------------------------------
  alpha Z        PSCENC =        -0.60183796
  Ewald energy   TEWEN  =      -291.58634119
  -1/2 Hartree   DENC   =        -0.45328308
  -exchange  EXHF       =         0.00000000
  -V(xc)+E(xc)   XCENC  =      -105.75342766
  PAW double counting   =       142.63640024      -14.42330091
  entropy T*S    EENTRO =        -0.14934330
  eigenvalues    EBANDS =        41.46373909
  atomic energy  EATOM  =       214.76153871
  ---------------------------------------------------
  free energy    TOTEN  =       -14.10585607 eV

  energy without entropy =      -13.95651277  energy(sigma->0) =      -14.05607497


--------------------------------------------------------------------------------------------------------




----------------------------------------- Iteration    1(   4)  ---------------------------------------


     EDDAV:  cpu time    0.92: real time    0.23
       DOS:  cpu time    0.00: real time    0.00
    --------------------------------------------
      LOOP:  cpu time    0.92: real time    0.23

 eigenvalue-minimisations  :    36
 total energy-change (2. order) :-0.1562871E-02  (-0.1562573E-02)
 number of electron   12.0000000 magnetization 
 augmentation part    12.0000000 magnetization 

 Free energy of the ion-electron system (eV)
  ---------------------------------------------------
  alpha Z        PSCENC =        -0.60183796
  Ewald energy   TEWEN  =      -291.58634119
  -1/2 Hartree   DENC   =        -0.45328308
  -exchange  EXHF       =         0.00000000
  -V(xc)+E(xc)   XCENC  =      -105.75342766
  PAW double counting   =       142.63640024      -14.42330091
  entropy T*S    EENTRO =        -0.14934360
  eigenvalues    EBANDS =        41.46217651
  atomic energy  EATOM  =       214.76153871
  ---------------------------------------------------
  free energy    TOTEN  =       -14.10741894 eV

  energy without entropy =      -13.95807534  energy(sigma->0) =      -14.05763774


--------------------------------------------------------------------------------------------------------




----------------------------------------- Iteration    1(   5)  ---------------------------------------


     EDDAV:  cpu time    0.78: real time    0.20
       DOS:  cpu time    0.00: real time    0.00
    CHARGE:  cpu time    0.19: real time    0.07
    MIXING:  cpu time    0.01: real time    0.01
    --------------------------------------------
      LOOP:  cpu time    1.00: real time    0.28

 eigenvalue-minimisations  :    30
 total energy-change (2. order) :-0.6289787E-07  (-0.6258026E-07)
 number of electron   11.9999999 magnetization 
 augmentation part    -0.1637700 magnetization 

 Broyden mixing:
  rms(total) = 0.17399E+00    rms(broyden)= 0.17399E+00
  rms(prec ) = 0.40264E+00
  weight for this iteration     100.00

 Free energy of the ion-electron system (eV)
  ---------------------------------------------------
  alpha Z        PSCENC =        -0.60183796
  Ewald energy   TEWEN  =      -291.58634119
  -1/2 Hartree   DENC   =        -0.45328308
  -exchange  EXHF       =         0.00000000
  -V(xc)+E(xc)   XCENC  =      -105.75342766
  PAW double counting   =       142.63640024      -14.42330091
  entropy T*S    EENTRO =        -0.14934360
  eigenvalues    EBANDS =        41.46217645
  atomic energy  EATOM  =       214.76153871
  ---------------------------------------------------
  free energy    TOTEN  =       -14.10741900 eV

  energy without entropy =      -13.95807540  energy(sigma->0) =      -14.05763780


--------------------------------------------------------------------------------------------------------




----------------------------------------- Iteration    1(   6)  ---------------------------------------


    POTLOK:  cpu time    0.42: real time    0.42
    SETDIJ:  cpu time    0.02: real time    0.02
     EDDAV:  cpu time    0.86: real time    0.24
       DOS:  cpu time    0.00: real time    0.00
    CHARGE:  cpu time    0.16: real time    0.06
    MIXING:  cpu time    0.01: real time    0.01
    --------------------------------------------
      LOOP:  cpu time    1.48: real time    0.76

 eigenvalue-minimisations  :    36
 total energy-change (2. order) : 0.4353936E-01  (-0.5948180E-03)
 number of electron   11.9999999 magnetization 
 augmentation part    -0.1659750 magnetization 

 Broyden mixing:
  rms(total) = 0.10840E+00    rms(broyden)= 0.10840E+00
  rms(prec ) = 0.25231E+00
  weight for this iteration     100.00

 eigenvalues of (default mixing * dielectric matrix)
  average eigenvalue GAMMA=   2.6419
  2.6419

 Free energy of the ion-electron system (eV)
  ---------------------------------------------------
  alpha Z        PSCENC =        -0.60183796
  Ewald energy   TEWEN  =      -291.58634119
  -1/2 Hartree   DENC   =        -0.37402570
  -exchange  EXHF       =         0.00000000
  -V(xc)+E(xc)   XCENC  =      -105.62053883
  PAW double counting   =       142.72749910      -14.53365777
  entropy T*S    EENTRO =        -0.14934360
  eigenvalues    EBANDS =        41.31282759
  atomic energy  EATOM  =       214.76153871
  ---------------------------------------------------
  free energy    TOTEN  =       -14.06387964 eV

  energy without entropy =      -13.91453605  energy(sigma->0) =      -14.01409844


--------------------------------------------------------------------------------------------------------




----------------------------------------- Iteration    1(   7)  ---------------------------------------


    POTLOK:  cpu time    0.43: real time    0.43
    SETDIJ:  cpu time    0.02: real time    0.02
     EDDAV:  cpu time    0.57: real time    0.16
       DOS:  cpu time    0.00: real time    0.00
    CHARGE:  cpu time    0.17: real time    0.07
    MIXING:  cpu time    0.01: real time    0.01
    --------------------------------------------
      LOOP:  cpu time    1.20: real time    0.69

 eigenvalue-minimisations  :    20
 total energy-change (2. order) : 0.3000230E-01  (-0.1688170E-02)
 number of electron   11.9999999 magnetization 
 augmentation part    -0.1696995 magnetization 

 Broyden mixing:
  rms(total) = 0.49948E-02    rms(broyden)= 0.49945E-02
  rms(prec ) = 0.87125E-02
  weight for this iteration     100.00

 eigenvalues of (default mixing * dielectric matrix)
  average eigenvalue GAMMA=   2.5776
  2.7129  2.4422

 Free energy of the ion-electron system (eV)
  ---------------------------------------------------
  alpha Z        PSCENC =        -0.60183796
  Ewald energy   TEWEN  =      -291.58634119
  -1/2 Hartree   DENC   =        -0.39935019
  -exchange  EXHF       =         0.00000000
  -V(xc)+E(xc)   XCENC  =      -105.35104878
  PAW double counting   =       142.87882602      -14.72109140
  entropy T*S    EENTRO =        -0.14934360
  eigenvalues    EBANDS =        41.13477104
  atomic energy  EATOM  =       214.76153871
  ---------------------------------------------------
  free energy    TOTEN  =       -14.03387735 eV

  energy without entropy =      -13.88453375  energy(sigma->0) =      -13.98409615


--------------------------------------------------------------------------------------------------------




----------------------------------------- Iteration    1(   8)  ---------------------------------------


    POTLOK:  cpu time    0.46: real time    0.43
    SETDIJ:  cpu time    0.02: real time    0.02
     EDDAV:  cpu time    1.52: real time    0.40
       DOS:  cpu time    0.00: real time    0.00
    --------------------------------------------
      LOOP:  cpu time    2.01: real time    0.86

 eigenvalue-minimisations  :    36
 total energy-change (2. order) :-0.4041231E-04  (-0.1690422E-04)
 number of electron   11.9999999 magnetization 
 augmentation part    -0.1696995 magnetization 

 Free energy of the ion-electron system (eV)
  ---------------------------------------------------
  alpha Z        PSCENC =        -0.60183796
  Ewald energy   TEWEN  =      -291.58634119
  -1/2 Hartree   DENC   =        -0.40788942
  -exchange  EXHF       =         0.00000000
  -V(xc)+E(xc)   XCENC  =      -105.34381702
  PAW double counting   =       142.97287659      -14.82022118
  entropy T*S    EENTRO =        -0.14934360
  eigenvalues    EBANDS =        41.14111731
  atomic energy  EATOM  =       214.76153871
  ---------------------------------------------------
  free energy    TOTEN  =       -14.03391776 eV

  energy without entropy =      -13.88457416  energy(sigma->0) =      -13.98413656


--------------------------------------------------------------------------------------------------------




 average (electrostatic) potential at core
  the test charge radii are     1.0406
  (the norm of the test charge is              1.0000)
       1 -72.4949       2 -72.4949       3 -72.4949       4 -72.4949
 
 
 
 E-fermi :   7.0013     XC(G=0): -10.1156     alpha+bet :-14.4997
   add alpha+bet to get absolut eigen values

 k-point   1 :       0.2500    0.2500    0.2500
  band No.  band energies     occupation 
      1      -1.5857      2.00000
      2       2.7447      2.00000
      3       2.7447      2.00000
      4       2.7447      2.00000
      5       6.9610      1.33333
      6       6.9610      1.33333
      7       6.9610      1.33333
      8      11.0871      0.00000
      9      11.2930      0.00000
     10      11.2930      0.00000


--------------------------------------------------------------------------------------------------------


 soft charge-density along one line, spin component           1
         0         1         2         3         4         5         6         7         8         9
 total charge-density along one line
 
 pseudopotential strength for first ion, spin component:           1
  8.551  -0.006   0.000   0.000   0.000   0.000   0.000   0.000
 -0.006   0.000   0.000   0.000   0.000   0.000   0.000   0.000
  0.000   0.000   2.014   0.000   0.000  -0.026   0.000   0.000
  0.000   0.000   0.000   2.014   0.000   0.000  -0.026   0.000
  0.000   0.000   0.000   0.000   2.014   0.000   0.000  -0.026
  0.000   0.000  -0.026   0.000   0.000  -0.012   0.000   0.000
  0.000   0.000   0.000  -0.026   0.000   0.000  -0.012   0.000
  0.000   0.000   0.000   0.000  -0.026   0.000   0.000  -0.012
 total augmentation occupancy for first ion, spin component:           1
  1.371  -0.444   0.000   0.000   0.000   0.000   0.000   0.000
 -0.444   0.468   0.000   0.000   0.000   0.000   0.000   0.000
  0.000   0.000   0.702   0.000   0.000  -0.148   0.000   0.000
  0.000   0.000   0.000   0.702   0.000   0.000  -0.148   0.000
  0.000   0.000   0.000   0.000   0.702   0.000   0.000  -0.148
  0.000   0.000  -0.148   0.000   0.000   0.037   0.000   0.000
  0.000   0.000   0.000  -0.148   0.000   0.000   0.037   0.000
  0.000   0.000   0.000   0.000  -0.148   0.000   0.000   0.037


------------------------ aborting loop because EDIFF is reached ----------------------------------------




--------------------------------------------------------------------------------------------------------



  FREE ENERGIE OF THE ION-ELECTRON SYSTEM (eV)
  ---------------------------------------------------
  free  energy   TOTEN  =       -14.033918 eV

  energy  without entropy=      -13.884574  energy(sigma->0) =      -13.984137
 
    CHARGE:  cpu time    0.15: real time    0.12
    FORLOC:  cpu time    0.05: real time    0.05
    FORNL :  cpu time    0.18: real time    0.18
    STRESS:  cpu time    0.59: real time    0.35
    FORCOR:  cpu time    0.65: real time    0.65
    FORHAR:  cpu time    0.12: real time    0.12
    MIXING:  cpu time    0.02: real time    0.01

  FORCE on cell =-STRESS in cart. coord.  units (eV):
  Direction    XX          YY          ZZ          XY          YZ          ZX
  --------------------------------------------------------------------------------------
  Alpha Z    -0.60184    -0.60184    -0.60184
  Ewald     -97.19549   -97.19549   -97.19549     0.00000     0.00000     0.00000
  Hartree     0.13688     0.13688     0.13688     0.00000     0.00000     0.00000
  E(xc)     -34.39571   -34.39571   -34.39571     0.00000     0.00000     0.00000
  Local       0.28782     0.28782     0.28782     0.00000     0.00000     0.00000
  n-local    76.64024    76.64024    76.64023     0.70061     0.70061     0.70060
  augment    -4.45038    -4.45038    -4.45037     0.00000     0.00000     0.00000
  Kinetic    59.81954    59.81955    59.81954    -4.62305    -4.62305    -4.62305
  Fock        0.00000     0.00000     0.00000     0.00000     0.00000     0.00000
  -------------------------------------------------------------------------------------
  Total       0.24106     0.24106     0.24106     0.00000     0.00000     0.00000
  in kB       5.70533     5.70533     5.70533     0.00000     0.00000     0.00000
  external pressure =        5.71 kB  Pullay stress =        0.00 kB


 VOLUME and BASIS-vectors are now :
 -----------------------------------------------------------------------------
  energy-cutoff  :      360.66
  volume of cell :       67.70
      direct lattice vectors                 reciprocal lattice vectors
     4.075563666  0.000000000  0.000000000     0.245364833  0.000000000  0.000000000
     0.000000000  4.075563666  0.000000000     0.000000000  0.245364833  0.000000000
     0.000000000  0.000000000  4.075563666     0.000000000  0.000000000  0.245364833

  length of vectors
     4.075563666  4.075563666  4.075563666     0.245364833  0.245364833  0.245364833


 FORCES acting on ions
    electron-ion (+dipol)            ewald-force                    non-local-force                 convergence-correction
 -----------------------------------------------------------------------------------------------
   -.148E-14 -.157E-14 -.617E-15   0.709E-16 -.452E-15 -.486E-15   0.165E-22 -.165E-22 0.000E+00   0.271E-15 0.979E-15 0.257E-14
   -.523E-14 -.773E-14 0.202E-13   0.872E-15 -.304E-16 -.492E-15   0.827E-23 -.662E-23 -.165E-23   -.395E-15 -.106E-14 0.256E-14
   -.206E-14 -.486E-14 -.522E-14   -.959E-15 0.606E-15 0.520E-15   -.662E-23 -.331E-23 0.000E+00   0.347E-15 -.929E-15 -.241E-14
   -.567E-14 -.127E-14 -.323E-13   -.158E-15 -.290E-15 0.515E-15   0.207E-23 -.993E-23 0.331E-23   -.323E-15 0.102E-14 -.272E-14
 -----------------------------------------------------------------------------------------------
   -.144E-13 -.154E-13 -.179E-13   -.174E-15 -.167E-15 0.577E-16   0.203E-22 -.364E-22 0.165E-23   -.101E-15 0.617E-17 -.541E-17
 
 
 POSITION                                       TOTAL-FORCE (eV/Angst)
 -----------------------------------------------------------------------------------
      0.00000      0.00000      0.00000         0.000000      0.000000      0.000000
      2.03778      2.03778      0.00000         0.000000      0.000000      0.000000
      0.00000      2.03778      2.03778         0.000000      0.000000      0.000000
      2.03778      0.00000      2.03778         0.000000      0.000000      0.000000
 -----------------------------------------------------------------------------------
    total drift:                                0.000000      0.000000      0.000000


--------------------------------------------------------------------------------------------------------


    POTLOK:  cpu time    0.60: real time    0.50


--------------------------------------------------------------------------------------------------------


  FORCES: max atom, RMS     0.000000    0.000000
  FORCE total and by dimension    0.000000    0.000000


--------------------------------------------------------------------------------------------------------


    WAVPRE:  cpu time    0.13: real time    0.13
    FEWALD:  cpu time    0.00: real time    0.00
    GENKIN:  cpu time    0.00: real time    0.00
    ORTHCH:  cpu time    0.03: real time    0.01
     LOOP+:  cpu time   12.84: real time    6.55
   RESPFUN:  cpu time    0.01: real time    0.00


----------------------------------------- Iteration    2(   1)  ---------------------------------------


    POTLOK:  cpu time    0.63: real time    0.48
    SETDIJ:  cpu time    0.03: real time    0.03
     EDDAV:  cpu time    0.52: real time    0.15
       DOS:  cpu time    0.00: real time    0.00
    CHARGE:  cpu time    0.23: real time    0.07
    MIXING:  cpu time    0.01: real time    0.01
    --------------------------------------------
      LOOP:  cpu time    1.43: real time    0.73

 eigenvalue-minimisations  :    20
 total energy-change (2. order) :-0.1076276E-02  (-0.1385368E-02)
 number of electron   11.9999999 magnetization 
 augmentation part    -0.1711609 magnetization 

 Broyden mixing:
  rms(total) = 0.57233E-02    rms(broyden)= 0.57233E-02
  rms(prec ) = 0.14302E-01
  weight for this iteration     100.00

 Free energy of the ion-electron system (eV)
  ---------------------------------------------------
  alpha Z        PSCENC =        -0.59661899
  Ewald energy   TEWEN  =      -290.74104112
  -1/2 Hartree   DENC   =        -0.40936822
  -exchange  EXHF       =         0.00000000
  -V(xc)+E(xc)   XCENC  =      -105.39573290
  PAW double counting   =       142.99033687      -14.83890365
  entropy T*S    EENTRO =        -0.14934360
  eigenvalues    EBANDS =        40.34417927
  atomic energy  EATOM  =       214.76153871
  ---------------------------------------------------
  free energy    TOTEN  =       -14.03495362 eV

  energy without entropy =      -13.88561002  energy(sigma->0) =      -13.98517242


--------------------------------------------------------------------------------------------------------




----------------------------------------- Iteration    2(   2)  ---------------------------------------


    POTLOK:  cpu time    0.81: real time    0.81
    SETDIJ:  cpu time    0.04: real time    0.04
     EDDAV:  cpu time    0.77: real time    0.23
       DOS:  cpu time    0.00: real time    0.00
    --------------------------------------------
      LOOP:  cpu time    1.63: real time    1.08

 eigenvalue-minimisations  :    12
 total energy-change (2. order) : 0.5910888E-04  (-0.1059616E-04)
 number of electron   11.9999999 magnetization 
 augmentation part    -0.1711609 magnetization 

 Free energy of the ion-electron system (eV)
  ---------------------------------------------------
  alpha Z        PSCENC =        -0.59661899
  Ewald energy   TEWEN  =      -290.74104112
  -1/2 Hartree   DENC   =        -0.40894960
  -exchange  EXHF       =         0.00000000
  -V(xc)+E(xc)   XCENC  =      -105.40130065
  PAW double counting   =       142.94154152      -14.78805192
  entropy T*S    EENTRO =        -0.14934360
  eigenvalues    EBANDS =        40.34733113
  atomic energy  EATOM  =       214.76153871
  ---------------------------------------------------
  free energy    TOTEN  =       -14.03489451 eV

  energy without entropy =      -13.88555092  energy(sigma->0) =      -13.98511331


--------------------------------------------------------------------------------------------------------




 average (electrostatic) potential at core
  the test charge radii are     1.0406
  (the norm of the test charge is              1.0000)
       1 -72.6111       2 -72.6111       3 -72.6111       4 -72.6111
 
 
 
 E-fermi :   6.9163     XC(G=0): -10.0853     alpha+bet :-14.3739
   add alpha+bet to get absolut eigen values

 k-point   1 :       0.2500    0.2500    0.2500
  band No.  band energies     occupation 
      1      -1.6250      2.00000
      2       2.6822      2.00000
      3       2.6822      2.00000
      4       2.6822      2.00000
      5       6.8760      1.33333
      6       6.8760      1.33333
      7       6.8760      1.33333
      8      10.9802      0.00000
      9      11.1807      0.00000
     10      11.1807      0.00000


--------------------------------------------------------------------------------------------------------


 soft charge-density along one line, spin component           1
         0         1         2         3         4         5         6         7         8         9
 total charge-density along one line
 
 pseudopotential strength for first ion, spin component:           1
  8.555  -0.005   0.000   0.000   0.000   0.000   0.000   0.000
 -0.005   0.000   0.000   0.000   0.000   0.000   0.000   0.000
  0.000   0.000   2.014   0.000   0.000  -0.026   0.000   0.000
  0.000   0.000   0.000   2.014   0.000   0.000  -0.026   0.000
  0.000   0.000   0.000   0.000   2.014   0.000   0.000  -0.026
  0.000   0.000  -0.026   0.000   0.000  -0.012   0.000   0.000
  0.000   0.000   0.000  -0.026   0.000   0.000  -0.012   0.000
  0.000   0.000   0.000   0.000  -0.026   0.000   0.000  -0.012
 total augmentation occupancy for first ion, spin component:           1
  1.376  -0.400   0.000   0.000   0.000   0.000   0.000   0.000
 -0.400   0.441   0.000   0.000   0.000   0.000   0.000   0.000
  0.000   0.000   0.697   0.000   0.000  -0.145   0.000   0.000
  0.000   0.000   0.000   0.697   0.000   0.000  -0.145   0.000
  0.000   0.000   0.000   0.000   0.697   0.000   0.000  -0.145
  0.000   0.000  -0.145   0.000   0.000   0.036   0.000   0.000
  0.000   0.000   0.000  -0.145   0.000   0.000   0.036   0.000
  0.000   0.000   0.000   0.000  -0.145   0.000   0.000   0.036


------------------------ aborting loop because EDIFF is reached ----------------------------------------




--------------------------------------------------------------------------------------------------------



  FREE ENERGIE OF THE ION-ELECTRON SYSTEM (eV)
  ---------------------------------------------------
  free  energy   TOTEN  =       -14.034895 eV

  energy  without entropy=      -13.885551  energy(sigma->0) =      -13.985113
 
    CHARGE:  cpu time    0.15: real time    0.12
    FORLOC:  cpu time    0.05: real time    0.05
    FORNL :  cpu time    0.18: real time    0.18
    STRESS:  cpu time    0.55: real time    0.32
    FORCOR:  cpu time    0.49: real time    0.49
    FORHAR:  cpu time    0.12: real time    0.12
    MIXING:  cpu time    0.01: real time    0.01

  FORCE on cell =-STRESS in cart. coord.  units (eV):
  Direction    XX          YY          ZZ          XY          YZ          ZX
  --------------------------------------------------------------------------------------
  Alpha Z    -0.59662    -0.59662    -0.59662
  Ewald     -96.91372   -96.91372   -96.91372     0.00000     0.00000     0.00000
  Hartree     0.13616     0.13616     0.13616     0.00000     0.00000     0.00000
  E(xc)     -34.29246   -34.29246   -34.29246     0.00000     0.00000     0.00000
  Local       0.13285     0.13285     0.13285     0.00000     0.00000     0.00000
  n-local    76.51264    76.51224    76.51290     0.66992     0.66971     0.66940
  augment    -4.47604    -4.47604    -4.47604     0.00000     0.00000     0.00000
  Kinetic    59.49026    59.48987    59.49051    -4.59645    -4.59640    -4.59634
  Fock        0.00000     0.00000     0.00000     0.00000     0.00000     0.00000
  -------------------------------------------------------------------------------------
  Total      -0.00702    -0.00702    -0.00702     0.00000     0.00000     0.00000
  in kB      -0.16474    -0.16474    -0.16474     0.00000     0.00000     0.00000
  external pressure =       -0.16 kB  Pullay stress =        0.00 kB


 VOLUME and BASIS-vectors are now :
 -----------------------------------------------------------------------------
  energy-cutoff  :      360.66
  volume of cell :       68.29
      direct lattice vectors                 reciprocal lattice vectors
     4.087412954  0.000000000  0.000000000     0.244653528  0.000000000  0.000000000
     0.000000000  4.087412954  0.000000000     0.000000000  0.244653528  0.000000000
     0.000000000  0.000000000  4.087412954     0.000000000  0.000000000  0.244653528

  length of vectors
     4.087412954  4.087412954  4.087412954     0.244653528  0.244653528  0.244653528


 FORCES acting on ions
    electron-ion (+dipol)            ewald-force                    non-local-force                 convergence-correction
 -----------------------------------------------------------------------------------------------
   -.201E-14 -.327E-15 -.728E-15   0.321E-15 -.111E-15 -.490E-15   0.308E-24 0.000E+00 0.000E+00   0.117E-14 0.380E-15 0.735E-15
   -.198E-14 -.490E-14 0.204E-13   0.117E-14 0.415E-15 -.480E-15   -.577E-24 -.132E-22 0.000E+00   -.131E-14 -.427E-15 0.737E-15
   -.773E-15 -.418E-14 -.542E-14   -.123E-14 0.198E-15 0.400E-15   -.785E-24 -.437E-21 0.000E+00   0.127E-14 -.396E-15 -.715E-15
   -.274E-14 0.515E-15 -.299E-13   -.381E-15 -.587E-15 0.410E-15   0.109E-23 -.424E-21 0.000E+00   -.122E-14 0.421E-15 -.787E-15
 -----------------------------------------------------------------------------------------------
   -.750E-14 -.889E-14 -.157E-13   -.120E-15 -.848E-16 -.161E-15   0.386E-25 -.874E-21 0.000E+00   -.724E-16 -.215E-16 -.311E-16
 
 
 POSITION                                       TOTAL-FORCE (eV/Angst)
 -----------------------------------------------------------------------------------
      0.00000      0.00000      0.00000         0.000000      0.000000      0.000000
      2.04371      2.04371      0.00000         0.000000      0.000000      0.000000
      0.00000      2.04371      2.04371         0.000000      0.000000      0.000000
      2.04371      0.00000      2.04371         0.000000      0.000000      0.000000
 -----------------------------------------------------------------------------------
    total drift:                                0.000000      0.000000      0.000000
 d Force = 0.0000000E+00[ 0.000E+00, 0.000E+00]  d Energy = 0.9767548E-03-0.977E-03
 d Force = 0.0000000E+00[ 0.000E+00, 0.000E+00]  d Ewald  =-0.8453001E+00 0.845E+00


--------------------------------------------------------------------------------------------------------


    POTLOK:  cpu time    0.50: real time    0.50


--------------------------------------------------------------------------------------------------------


  FORCES: max atom, RMS     0.000000    0.000000
  FORCE total and by dimension    0.000000    0.000000
 Steepest descent step on ions:
 trial-energy change:   -0.000977  1 .order   -0.001021   -0.002103    0.000061
  (g-gl).g = 0.210E-02      g.g   = 0.210E-02  gl.gl    = 0.000E+00
 g(Force)  = 0.389E-63   g(Stress)= 0.210E-02 ortho     = 0.000E+00
 gamma     =   0.00000
 trial     =   1.00000
 opt step  =   0.97170  (harmonic =   0.97170) maximal distance =0.00000000
 next E    =   -14.034939   (d E  =  -0.00102)


--------------------------------------------------------------------------------------------------------


    WAVPRE:  cpu time    0.13: real time    0.13
    FEWALD:  cpu time    0.00: real time    0.00
    GENKIN:  cpu time    0.00: real time    0.00
    ORTHCH:  cpu time    0.08: real time    0.03
     LOOP+:  cpu time    5.51: real time    3.83
   RESPFUN:  cpu time    0.00: real time    0.00


----------------------------------------- Iteration    3(   1)  ---------------------------------------


    POTLOK:  cpu time    0.64: real time    0.48
    SETDIJ:  cpu time    0.03: real time    0.03
     EDDAV:  cpu time    0.33: real time    0.10
       DOS:  cpu time    0.00: real time    0.00
    CHARGE:  cpu time    0.23: real time    0.07
    MIXING:  cpu time    0.01: real time    0.01
    --------------------------------------------
      LOOP:  cpu time    1.24: real time    0.68

 eigenvalue-minimisations  :    10
 total energy-change (2. order) : 0.1003447E-03  (-0.5119946E-05)
 number of electron   11.9999999 magnetization 
 augmentation part    -0.1707249 magnetization 

 Broyden mixing:
  rms(total) = 0.19027E-03    rms(broyden)= 0.19027E-03
  rms(prec ) = 0.36333E-03
  weight for this iteration     100.00

 Free energy of the ion-electron system (eV)
  ---------------------------------------------------
  alpha Z        PSCENC =        -0.59676587
  Ewald energy   TEWEN  =      -290.76489886
  -1/2 Hartree   DENC   =        -0.40855157
  -exchange  EXHF       =         0.00000000
  -V(xc)+E(xc)   XCENC  =      -105.40882417
  PAW double counting   =       142.86648766      -14.70951939
  entropy T*S    EENTRO =        -0.14934360
  eigenvalues    EBANDS =        40.37502381
  atomic energy  EATOM  =       214.76153871
  ---------------------------------------------------
  free energy    TOTEN  =       -14.03485328 eV

  energy without entropy =      -13.88550968  energy(sigma->0) =      -13.98507208


--------------------------------------------------------------------------------------------------------




----------------------------------------- Iteration    3(   2)  ---------------------------------------


    POTLOK:  cpu time    0.72: real time    0.72
    SETDIJ:  cpu time    0.02: real time    0.02
     EDDAV:  cpu time    0.61: real time    0.17
       DOS:  cpu time    0.00: real time    0.00
    --------------------------------------------
      LOOP:  cpu time    1.35: real time    0.91

 eigenvalue-minimisations  :    10
 total energy-change (2. order) :-0.5972086E-06  (-0.5791680E-06)
 number of electron   11.9999999 magnetization 
 augmentation part    -0.1707249 magnetization 

 Free energy of the ion-electron system (eV)
  ---------------------------------------------------
  alpha Z        PSCENC =        -0.59676587
  Ewald energy   TEWEN  =      -290.76489886
  -1/2 Hartree   DENC   =        -0.40844245
  -exchange  EXHF       =         0.00000000
  -V(xc)+E(xc)   XCENC  =      -105.40884111
  PAW double counting   =       142.86966989      -14.71277917
  entropy T*S    EENTRO =        -0.14934360
  eigenvalues    EBANDS =        40.37500859
  atomic energy  EATOM  =       214.76153871
  ---------------------------------------------------
  free energy    TOTEN  =       -14.03485387 eV

  energy without entropy =      -13.88551028  energy(sigma->0) =      -13.98507267


--------------------------------------------------------------------------------------------------------




 average (electrostatic) potential at core
  the test charge radii are     1.0406
  (the norm of the test charge is              1.0000)
       1 -72.5928       2 -72.5928       3 -72.5928       4 -72.5928
 
 
 
 E-fermi :   6.9192     XC(G=0): -10.0850     alpha+bet :-14.3775
   add alpha+bet to get absolut eigen values

 k-point   1 :       0.2500    0.2500    0.2500
  band No.  band energies     occupation 
      1      -1.6235      2.00000
      2       2.6844      2.00000
      3       2.6844      2.00000
      4       2.6844      2.00000
      5       6.8790      1.33333
      6       6.8790      1.33333
      7       6.8790      1.33333
      8      10.9838      0.00000
      9      11.1844      0.00000
     10      11.1844      0.00000


--------------------------------------------------------------------------------------------------------


 soft charge-density along one line, spin component           1
         0         1         2         3         4         5         6         7         8         9
 total charge-density along one line
 
 pseudopotential strength for first ion, spin component:           1
  8.554  -0.005   0.000   0.000   0.000   0.000   0.000   0.000
 -0.005   0.000   0.000   0.000   0.000   0.000   0.000   0.000
  0.000   0.000   2.014   0.000   0.000  -0.026   0.000   0.000
  0.000   0.000   0.000   2.014   0.000   0.000  -0.026   0.000
  0.000   0.000   0.000   0.000   2.014   0.000   0.000  -0.026
  0.000   0.000  -0.026   0.000   0.000  -0.012   0.000   0.000
  0.000   0.000   0.000  -0.026   0.000   0.000  -0.012   0.000
  0.000   0.000   0.000   0.000  -0.026   0.000   0.000  -0.012
 total augmentation occupancy for first ion, spin component:           1
  1.374  -0.418   0.000   0.000   0.000   0.000   0.000   0.000
 -0.418   0.449   0.000   0.000   0.000   0.000   0.000   0.000
  0.000   0.000   0.697   0.000   0.000  -0.145   0.000   0.000
  0.000   0.000   0.000   0.697   0.000   0.000  -0.145   0.000
  0.000   0.000   0.000   0.000   0.697   0.000   0.000  -0.145
  0.000   0.000  -0.145   0.000   0.000   0.036   0.000   0.000
  0.000   0.000   0.000  -0.145   0.000   0.000   0.036   0.000
  0.000   0.000   0.000   0.000  -0.145   0.000   0.000   0.036


------------------------ aborting loop because EDIFF is reached ----------------------------------------




--------------------------------------------------------------------------------------------------------



  FREE ENERGIE OF THE ION-ELECTRON SYSTEM (eV)
  ---------------------------------------------------
  free  energy   TOTEN  =       -14.034854 eV

  energy  without entropy=      -13.885510  energy(sigma->0) =      -13.985073
 
    CHARGE:  cpu time    0.15: real time    0.12
    FORLOC:  cpu time    0.05: real time    0.05
    FORNL :  cpu time    0.18: real time    0.18
    STRESS:  cpu time    0.50: real time    0.27
    FORCOR:  cpu time    0.46: real time    0.46
    FORHAR:  cpu time    0.11: real time    0.11
    MIXING:  cpu time    0.01: real time    0.01

  FORCE on cell =-STRESS in cart. coord.  units (eV):
  Direction    XX          YY          ZZ          XY          YZ          ZX
  --------------------------------------------------------------------------------------
  Alpha Z    -0.59677    -0.59677    -0.59677
  Ewald     -96.92168   -96.92168   -96.92168     0.00000     0.00000     0.00000
  Hartree     0.13612     0.13612     0.13612     0.00000     0.00000     0.00000
  E(xc)     -34.30615   -34.30615   -34.30615     0.00000     0.00000     0.00000
  Local       0.13997     0.13997     0.13997     0.00000     0.00000     0.00000
  n-local    76.49975    76.49974    76.49976     0.67008     0.67004     0.66998
  augment    -4.46896    -4.46895    -4.46895     0.00000     0.00000     0.00000
  Kinetic    59.49922    59.49919    59.49924    -4.59684    -4.59683    -4.59680
  Fock        0.00000     0.00000     0.00000     0.00000     0.00000     0.00000
  -------------------------------------------------------------------------------------
  Total      -0.01849    -0.01849    -0.01849     0.00000     0.00000     0.00000
  in kB      -0.43384    -0.43384    -0.43384     0.00000     0.00000     0.00000
  external pressure =       -0.43 kB  Pullay stress =        0.00 kB


 VOLUME and BASIS-vectors are now :
 -----------------------------------------------------------------------------
  energy-cutoff  :      360.66
  volume of cell :       68.27
      direct lattice vectors                 reciprocal lattice vectors
     4.087077575  0.000000000  0.000000000     0.244673604  0.000000000  0.000000000
     0.000000000  4.087077575  0.000000000     0.000000000  0.244673604  0.000000000
     0.000000000  0.000000000  4.087077575     0.000000000  0.000000000  0.244673604

  length of vectors
     4.087077575  4.087077575  4.087077575     0.244673604  0.244673604  0.244673604


 FORCES acting on ions
    electron-ion (+dipol)            ewald-force                    non-local-force                 convergence-correction
 -----------------------------------------------------------------------------------------------
   0.159E-14 0.121E-15 -.111E-14   -.270E-16 -.197E-15 -.488E-15   0.530E-22 0.397E-22 0.529E-22   -.726E-15 0.126E-15 0.609E-16
   -.304E-14 -.560E-14 0.209E-13   0.680E-15 0.596E-15 -.486E-15   -.530E-22 0.397E-22 0.000E+00   0.771E-15 -.169E-15 0.542E-16
   0.303E-14 -.410E-14 -.604E-14   -.808E-15 0.180E-15 0.384E-15   -.629E-22 0.397E-22 -.529E-22   -.703E-15 -.131E-15 -.522E-16
   -.361E-14 -.665E-15 -.295E-13   -.101E-15 -.338E-15 0.386E-15   0.430E-22 0.447E-22 0.000E+00   0.790E-15 0.181E-15 -.540E-16
 -----------------------------------------------------------------------------------------------
   -.202E-14 -.102E-13 -.158E-13   -.256E-15 0.241E-15 -.204E-15   -.200E-22 0.164E-21 0.000E+00   0.132E-15 0.600E-17 0.885E-17
 
 
 POSITION                                       TOTAL-FORCE (eV/Angst)
 -----------------------------------------------------------------------------------
      0.00000      0.00000      0.00000         0.000000      0.000000      0.000000
      2.04354      2.04354      0.00000         0.000000      0.000000      0.000000
      0.00000      2.04354      2.04354         0.000000      0.000000      0.000000
      2.04354      0.00000      2.04354         0.000000      0.000000      0.000000
 -----------------------------------------------------------------------------------
    total drift:                                0.000000      0.000000      0.000000
 d Force = 0.0000000E+00[ 0.000E+00, 0.000E+00]  d Energy =-0.4063863E-04 0.406E-04
 d Force = 0.0000000E+00[ 0.000E+00, 0.000E+00]  d Ewald  = 0.2385773E-01-0.239E-01


--------------------------------------------------------------------------------------------------------


    POTLOK:  cpu time    0.49: real time    0.49


--------------------------------------------------------------------------------------------------------


  FORCES: max atom, RMS     0.000000    0.000000
  FORCE total and by dimension    0.000000    0.000000


--------------------------------------------------------------------------------------------------------


  
 reached required accuracy - stopping structural energy minimisation
     LOOP+:  cpu time    4.73: real time    3.36
    4ORBIT:  cpu time    0.00: real time    0.00

 total amount of memory used by VASP on root node  46033. kBytes
========================================================================

   base      :    30000. kBytes
   nonl-proj :      135. kBytes
   fftplans  :     6192. kBytes
   grid      :     9520. kBytes
   one-center:       12. kBytes
   wavefun   :      174. kBytes
 
  
  
 General timing and accounting informations for this job:
 ========================================================
  
                  Total CPU time used (sec):       24.147
                            User time (sec):       23.929
                          System time (sec):        0.218
                         Elapsed time (sec):       14.552
  
                   Maximum memory used (kb):           0.
                   Average memory used (kb):           0.
  
                          Minor page faults:        36079
                          Major page faults:            0
                 Voluntary context switches:          304
