<?xml version="1.0" encoding="ISO-8859-1"?>
<modeling>
 <generator>
  <i name="program" type="string">vasp </i>
  <i name="version" type="string">5.2.2  </i>
  <i name="subversion" type="string">15Apr09 complex  parallel </i>
  <i name="platform" type="string">LinuxIFC </i>
  <i name="date" type="string">2013 08 21 </i>
  <i name="time" type="string">12:56:08 </i>
 </generator>
 <incar>
  <i type="string" name="PREC">accurate</i>
  <i type="int" name="IBRION">     2</i>
  <i type="int" name="NSW">   191</i>
  <i type="int" name="ISIF">     3</i>
  <i name="ENCUT">    360.65550000</i>
  <i type="int" name="ISMEAR">     1</i>
  <i name="SIGMA">      0.20000000</i>
  <i type="logical" name="LWAVE"> F  </i>
  <i type="logical" name="LCHARG"> F  </i>
  <i type="logical" name="LPEAD"> F  </i>
  <i type="logical" name="LCALCPOL"> F  </i>
  <i type="logical" name="LCALCEPS"> F  </i>
  <v name="EFIELD_PEAD">      0.00000000      0.00000000      0.00000000</v>
  <i type="logical" name="LEFG"> F  </i>
 </incar>
 <kpoints>
  <generation param="Monkhorst-Pack">
   <v type="int" name="divisions">       2        2        2 </v>
   <v name="usershift">      0.00000000       0.00000000       0.00000000 </v>
   <v name="genvec1">      0.50000000       0.00000000       0.00000000 </v>
   <v name="genvec2">      0.00000000       0.50000000       0.00000000 </v>
   <v name="genvec3">      0.00000000       0.00000000       0.50000000 </v>
   <v name="shift">      0.50000000       0.50000000       0.50000000 </v>
  </generation>
  <varray name="kpointlist" >
   <v>       0.25000000       0.25000000       0.25000000 </v>
  </varray>
  <varray name="weights" >
   <v>       1.00000000 </v>
  </varray>
 </kpoints>
 <parameters>
  <separator name="general" >
   <i type="string" name="SYSTEM">unknown system</i>
   <i type="logical" name="LCOMPAT"> F  </i>
  </separator>
  <separator name="electronic" >
   <i type="string" name="PREC">accura</i>
   <i name="ENMAX">    360.65550000</i>
   <i name="ENAUG">    291.05200000</i>
   <i name="EDIFF">      0.00010000</i>
   <i type="int" name="IALGO">    38</i>
   <i type="int" name="IWAVPR">    11</i>
   <i type="int" name="NBANDS">    10</i>
   <i name="NELECT">     12.00000000</i>
   <separator name="electronic smearing" >
    <i type="int" name="ISMEAR">     1</i>
    <i name="SIGMA">      0.20000000</i>
   </separator>
   <separator name="electronic projectors" >
    <i type="logical" name="LREAL"> F  </i>
    <v name="ROPT">      0.00000000</v>
    <i type="int" name="LMAXPAW">  -100</i>
    <i type="int" name="LMAXMIX">     2</i>
   </separator>
   <separator name="electronic startup" >
    <i type="int" name="ISTART">     0</i>
    <i type="int" name="ICHARG">     2</i>
    <i type="int" name="INIWAV">     1</i>
   </separator>
   <separator name="electronic spin" >
    <i type="int" name="ISPIN">     1</i>
    <i type="logical" name="LNONCOLLINEAR"> F  </i>
    <v name="MAGMOM">      1.00000000      1.00000000      1.00000000      1.00000000</v>
    <i name="NUPDOWN">     -1.00000000</i>
    <i type="logical" name="LSORBIT"> F  </i>
    <v name="SAXIS">      0.00000000      0.00000000      1.00000000</v>
    <i type="logical" name="LSPIRAL"> F  </i>
    <v name="QSPIRAL">      0.00000000      0.00000000      0.00000000</v>
    <i type="logical" name="LZEROZ"> F  </i>
   </separator>
   <separator name="electronic exchange-correlation" >
    <i type="logical" name="LASPH"> F  </i>
    <i type="logical" name="LMETAGGA"> F  </i>
   </separator>
   <separator name="electronic convergence" >
    <i type="int" name="NELM">    60</i>
    <i type="int" name="NELMDL">     0</i>
    <i type="int" name="NELMIN">     2</i>
    <i name="ENINI">    360.65550000</i>
    <separator name="electronic convergence detail" >
     <i type="logical" name="LDIAG"> T  </i>
     <i name="WEIMIN">      0.00100000</i>
     <i name="EBREAK">      0.00000250</i>
     <i name="DEPER">      0.30000000</i>
     <i type="int" name="NRMM">     4</i>
     <i name="TIME">      0.40000000</i>
    </separator>
   </separator>
   <separator name="electronic mixer" >
    <i name="AMIX">      0.40000000</i>
    <i name="BMIX">      1.00000000</i>
    <i name="AMIN">      0.10000000</i>
    <i name="AMIX_MAG">      1.60000000</i>
    <i name="BMIX_MAG">      1.00000000</i>
    <separator name="electronic mixer details" >
     <i type="int" name="IMIX">     4</i>
     <i type="int" name="MAXMIX">   -45</i>
     <i name="WC">    100.00000000</i>
     <i type="int" name="INIMIX">     1</i>
     <i type="int" name="MIXPRE">     1</i>
     <i type="int" name="MREMOVE">     5</i>
    </separator>
   </separator>
   <separator name="electronic dipolcorrection" >
    <i type="logical" name="LDIPOL"> F  </i>
    <i type="logical" name="LMONO"> F  </i>
    <i type="int" name="IDIPOL">     0</i>
    <i name="EPSILON">      1.00000000</i>
    <v name="DIPOL">   -100.00000000   -100.00000000   -100.00000000</v>
    <i name="EFIELD">      0.00000000</i>
   </separator>
  </separator>
  <separator name="grids" >
   <i type="int" name="NGX">    28</i>
   <i type="int" name="NGY">    28</i>
   <i type="int" name="NGZ">    28</i>
   <i type="int" name="NGXF">    56</i>
   <i type="int" name="NGYF">    56</i>
   <i type="int" name="NGZF">    56</i>
   <i type="logical" name="ADDGRID"> F  </i>
  </separator>
  <separator name="ionic" >
   <i type="int" name="NSW">   191</i>
   <i type="int" name="IBRION">     2</i>
   <i type="int" name="ISIF">     3</i>
   <i name="PSTRESS">      0.00000000</i>
   <i name="EDIFFG">      0.00100000</i>
   <i type="int" name="NFREE">     1</i>
   <i name="POTIM">      0.50000000</i>
   <i name="SMASS">     -3.00000000</i>
  </separator>
  <separator name="ionic md" >
   <i name="TEBEG">      0.00010000</i>
   <i name="TEEND">      0.00010000</i>
   <i type="int" name="NBLOCK">     1</i>
   <i type="int" name="KBLOCK">   191</i>
   <i type="int" name="NPACO">   256</i>
   <i name="APACO">     16.00000000</i>
  </separator>
  <separator name="symmetry" >
   <i type="int" name="ISYM">     2</i>
   <i name="SYMPREC">      0.00001000</i>
  </separator>
  <separator name="dos" >
   <i type="logical" name="LORBIT"> F  </i>
   <v name="RWIGS">     -1.00000000</v>
   <i type="int" name="NEDOS">   301</i>
   <i name="EMIN">     10.00000000</i>
   <i name="EMAX">    -10.00000000</i>
   <i name="EFERMI">      0.00000000</i>
  </separator>
  <separator name="writing" >
   <i type="int" name="NWRITE">     2</i>
   <i type="logical" name="LWAVE"> F  </i>
   <i type="logical" name="LCHARG"> F  </i>
   <i type="logical" name="LPARD"> F  </i>
   <i type="logical" name="LVTOT"> F  </i>
   <i type="logical" name="LELF"> F  </i>
   <i type="logical" name="LOPTICS"> F  </i>
   <v name="STM">      0.00000000      0.00000000      0.00000000      0.00000000      0.00000000</v>
  </separator>
  <separator name="performance" >
   <i type="int" name="NPAR">     1</i>
   <i type="int" name="NSIM">     4</i>
   <i type="int" name="NBLK">    32</i>
   <i type="logical" name="LPLANE"> T  </i>
   <i type="logical" name="LSCALAPACK"> F  </i>
   <i type="logical" name="LSCAAWARE"> F  </i>
   <i type="logical" name="LSCALU"> F  </i>
   <i type="logical" name="LASYNC"> F  </i>
  </separator>
  <separator name="miscellaneous" >
   <i type="int" name="IDIOT">     3</i>
   <i type="logical" name="LMUSIC"> F  </i>
   <v name="POMASS">     26.98200000</v>
   <i type="logical" name="LCORR"> T  </i>
  </separator>
  <i type="logical" name="LREAL_COMPAT"> F  </i>
  <i type="logical" name="GGA_COMPAT"> T  </i>
  <i type="logical" name="LBERRY"> F  </i>
  <i type="int" name="ICORELEVEL">     0</i>
  <i type="logical" name="LDAU"> F  </i>
  <i type="int" name="I_CONSTRAINED_M">     0</i>
  <separator name="electronic exchange-correlation" >
   <i type="string" name="GGA">--</i>
   <i type="int" name="VOSKOWN">     0</i>
   <i type="logical" name="LHFCALC"> F  </i>
   <i type="logical" name="LHFONE"> F  </i>
   <i type="logical" name="LRHFCALC"> F  </i>
   <i type="logical" name="LTHOMAS"> F  </i>
   <i type="logical" name="LMODELHF"> F  </i>
   <i name="ENCUTFOCK">      0.00000000</i>
   <i name="ENCUT4O">     -1.00000000</i>
   <i type="int" name="EXXOEP">     0</i>
   <i type="int" name="FOURORBIT">     0</i>
   <i name="AEXX">      0.00000000</i>
   <i name="HFALPHA">      0.00000000</i>
   <i name="ALDAX">      1.00000000</i>
   <i name="AGGAX">      1.00000000</i>
   <i name="ALDAC">      1.00000000</i>
   <i name="AGGAC">      1.00000000</i>
   <i type="int" name="NKREDX">     1</i>
   <i type="int" name="NKREDY">     1</i>
   <i type="int" name="NKREDZ">     1</i>
   <i type="logical" name="SHIFTRED"> F  </i>
   <i type="logical" name="ODDONLY"> F  </i>
   <i type="logical" name="EVENONLY"> F  </i>
   <i type="int" name="LMAXFOCK">     0</i>
   <i type="int" name="NMAXFOCKAE">     0</i>
   <i name="HFSCREEN">      0.00000000</i>
   <i name="HFSCREENC">      0.00000000</i>
  </separator>
  <separator name="model GW" >
   <i type="int" name="MODEL_GW">     0</i>
   <i name="MODEL_EPS0">     10.15440087</i>
   <i name="MODEL_ALPHA">      1.00000000</i>
  </separator>
  <separator name="linear response parameters" >
   <i type="logical" name="LEPSILON"> F  </i>
   <i type="logical" name="LRPA"> F  </i>
   <i type="logical" name="LNABLA"> F  </i>
   <i type="logical" name="LVEL"> F  </i>
   <i type="int" name="KINTER">     0</i>
   <i name="CSHIFT">      0.10000000</i>
   <i name="OMEGAMAX">     -1.00000000</i>
  </separator>
  <separator name="orbital magnetization" >
   <i type="logical" name="ORBITALMAG"> F  </i>
   <i type="logical" name="LMAGBLOCH"> F  </i>
   <i type="logical" name="LCHIMAG"> F  </i>
   <i type="logical" name="LGAUGE"> T  </i>
   <i type="int" name="MAGATOM">     0</i>
   <v name="MAGDIPOL">      0.00000000      0.00000000      0.00000000</v>
   <v name="AVECCONST">      0.00000000      0.00000000      0.00000000</v>
  </separator>
  <separator name="response functions" >
   <i type="logical" name="LRPA"> T  </i>
   <i type="logical" name="LTCTE"> F  </i>
   <i type="logical" name="LTETE"> F  </i>
   <i type="logical" name="L2ORDER"> F  </i>
   <i type="logical" name="LGWLF"> F  </i>
   <i name="ENCUTGW">    240.43700000</i>
   <i name="ENCUTGWSOFT">     -2.00000000</i>
   <i name="ENCUTLF">     -1.00000000</i>
   <i type="int" name="LMAXMP2">    -1</i>
   <i name="SCISSOR">      0.00000000</i>
   <i type="int" name="NOMEGA">     0</i>
   <i type="int" name="NOMEGAR">     0</i>
   <i type="int" name="NBANDSGW">    -1</i>
   <i type="int" name="NBANDSLF">    -1</i>
   <i type="int" name="NELM">     1</i>
   <i type="int" name="DIM">     3</i>
   <i type="int" name="ANTIRES">     0</i>
   <i type="logical" name="LUSEW"> F  </i>
   <i name="OMEGAMAX">    -30.00000000</i>
   <i name="OMEGATL">   -200.00000000</i>
   <i type="int" name="OMEGAGRID">     0</i>
   <i name="CSHIFT">     -0.10000000</i>
   <i type="logical" name="SELFENERGY"> F  </i>
   <i type="logical" name="LSPECTRAL"> F  </i>
   <i type="logical" name="ODDONLYGW"> F  </i>
   <i type="logical" name="EVENONLYGW"> F  </i>
   <i type="int" name="NKREDLFX">     1</i>
   <i type="int" name="NKREDLFY">     1</i>
   <i type="int" name="NKREDLFZ">     1</i>
   <i type="int" name="MAXMEM">  1024</i>
   <i type="int" name="TELESCOPE">     0</i>
  </separator>
 </parameters>
 <atominfo>
  <atoms>       4 </atoms>
  <types>       1 </types>
  <array name="atoms" >
   <dimension dim="1">ion</dimension>
   <field type="string">element</field>
   <field type="int">atomtype</field>
   <set>
    <rc><c>Al</c><c>   1</c></rc>
    <rc><c>Al</c><c>   1</c></rc>
    <rc><c>Al</c><c>   1</c></rc>
    <rc><c>Al</c><c>   1</c></rc>
   </set>
  </array>
  <array name="atomtypes" >
   <dimension dim="1">type</dimension>
   <field type="int">atomspertype</field>
   <field type="string">element</field>
   <field>mass</field>
   <field>valence</field>
   <field type="string">pseudopotential</field>
   <set>
    <rc><c>   4</c><c>Al</c><c>     26.98200000</c><c>      3.00000000</c><c> PAW_GGA Al 05Jan2001                   </c></rc>
   </set>
  </array>
 </atominfo>
 <structure name="initialpos" >
  <crystal>
   <varray name="basis" >
    <v>       4.07556367       0.00000000       0.00000000 </v>
    <v>       0.00000000       4.07556367       0.00000000 </v>
    <v>       0.00000000       0.00000000       4.07556367 </v>
   </varray>
   <i name="volume">     67.69600583 </i>
   <varray name="rec_basis" >
    <v>       0.24536483       0.00000000       0.00000000 </v>
    <v>       0.00000000       0.24536483       0.00000000 </v>
    <v>       0.00000000       0.00000000       0.24536483 </v>
   </varray>
  </crystal>
  <varray name="positions" >
   <v>       0.00000000       0.00000000       0.00000000 </v>
   <v>       0.50000000       0.50000000       0.00000000 </v>
   <v>       0.00000000       0.50000000       0.50000000 </v>
   <v>       0.50000000       0.00000000       0.50000000 </v>
  </varray>
 </structure>
 <calculation>
  <scstep>
   <time name="dav">    1.05    0.29</time>
   <time name="total">    2.11    1.18</time>
   <energy>
    <i name="alphaZ">     -0.60183796 </i>
    <i name="ewald">   -291.58634119 </i>
    <i name="hartreedc">     -0.45328308 </i>
    <i name="XCdc">   -105.75342766 </i>
    <i name="pawpsdc">    142.63640024 </i>
    <i name="pawaedc">    -14.42330091 </i>
    <i name="eentropy">      0.01159581 </i>
    <i name="bandstr">     58.87223567 </i>
    <i name="atom">    214.76153871 </i>
    <i name="e_fr_energy">      3.46357963 </i>
    <i name="e_wo_entrp">      3.45198381 </i>
    <i name="e_0_energy">      3.45971435 </i>
   </energy>
  </scstep>
  <scstep>
   <time name="dav">    0.78    0.20</time>
   <time name="total">    0.79    0.20</time>
   <energy>
    <i name="e_fr_energy">    -13.82415524 </i>
    <i name="e_wo_entrp">    -13.68841134 </i>
    <i name="e_0_energy">    -13.77890727 </i>
   </energy>
  </scstep>
  <scstep>
   <time name="dav">    0.62    0.16</time>
   <time name="total">    0.63    0.16</time>
   <energy>
    <i name="e_fr_energy">    -14.10585607 </i>
    <i name="e_wo_entrp">    -13.95651277 </i>
    <i name="e_0_energy">    -14.05607497 </i>
   </energy>
  </scstep>
  <scstep>
   <time name="dav">    0.92    0.23</time>
   <time name="total">    0.92    0.23</time>
   <energy>
    <i name="e_fr_energy">    -14.10741894 </i>
    <i name="e_wo_entrp">    -13.95807534 </i>
    <i name="e_0_energy">    -14.05763774 </i>
   </energy>
  </scstep>
  <scstep>
   <time name="dav">    0.78    0.20</time>
   <time name="total">    1.00    0.28</time>
   <energy>
    <i name="e_fr_energy">    -14.10741900 </i>
    <i name="e_wo_entrp">    -13.95807540 </i>
    <i name="e_0_energy">    -14.05763780 </i>
   </energy>
  </scstep>
  <scstep>
   <time name="dav">    0.86    0.24</time>
   <time name="total">    1.48    0.76</time>
   <energy>
    <i name="e_fr_energy">    -14.06387964 </i>
    <i name="e_wo_entrp">    -13.91453605 </i>
    <i name="e_0_energy">    -14.01409844 </i>
   </energy>
  </scstep>
  <scstep>
   <time name="dav">    0.57    0.16</time>
   <time name="total">    1.20    0.69</time>
   <energy>
    <i name="e_fr_energy">    -14.03387735 </i>
    <i name="e_wo_entrp">    -13.88453375 </i>
    <i name="e_0_energy">    -13.98409615 </i>
   </energy>
  </scstep>
  <scstep>
   <time name="dav">    1.52    0.40</time>
   <time name="total">    2.01    0.86</time>
   <energy>
    <i name="alphaZ">     -0.60183796 </i>
    <i name="ewald">   -291.58634119 </i>
    <i name="hartreedc">     -0.40788942 </i>
    <i name="XCdc">   -105.34381702 </i>
    <i name="pawpsdc">    142.97287659 </i>
    <i name="pawaedc">    -14.82022118 </i>
    <i name="eentropy">     -0.14934360 </i>
    <i name="bandstr">     41.14111731 </i>
    <i name="atom">    214.76153871 </i>
    <i name="e_fr_energy">    -14.03391776 </i>
    <i name="e_wo_entrp">    -13.88457416 </i>
    <i name="e_0_energy">    -13.98413656 </i>
   </energy>
  </scstep>
  <structure>
   <crystal>
    <varray name="basis" >
     <v>       4.07556367       0.00000000       0.00000000 </v>
     <v>       0.00000000       4.07556367       0.00000000 </v>
     <v>       0.00000000       0.00000000       4.07556367 </v>
    </varray>
    <i name="volume">     67.69600583 </i>
    <varray name="rec_basis" >
     <v>       0.24536483       0.00000000       0.00000000 </v>
     <v>       0.00000000       0.24536483       0.00000000 </v>
     <v>       0.00000000       0.00000000       0.24536483 </v>
    </varray>
   </crystal>
   <varray name="positions" >
    <v>       0.00000000       0.00000000       0.00000000 </v>
    <v>       0.50000000       0.50000000       0.00000000 </v>
    <v>       0.00000000       0.50000000       0.50000000 </v>
    <v>       0.50000000       0.00000000       0.50000000 </v>
   </varray>
  </structure>
  <varray name="forces" >
   <v>       0.00000000       0.00000000       0.00000000 </v>
   <v>       0.00000000       0.00000000       0.00000000 </v>
   <v>       0.00000000       0.00000000       0.00000000 </v>
   <v>       0.00000000       0.00000000       0.00000000 </v>
  </varray>
  <varray name="stress" >
   <v>       5.70533170       0.00000000       0.00000000 </v>
   <v>       0.00000000       5.70533170       0.00000000 </v>
   <v>       0.00000000       0.00000000       5.70533170 </v>
  </varray>
  <energy>
   <i name="e_fr_energy">    -14.03391776 </i>
   <i name="e_wo_entrp">    -13.98413656 </i>
   <i name="e_0_energy">     -0.14934360 </i>
  </energy>
  <time name="totalsc">   12.84    6.55</time>
 </calculation>
 <calculation>
  <scstep>
   <time name="dav">    0.52    0.15</time>
   <time name="total">    1.43    0.73</time>
   <energy>
    <i name="alphaZ">     -0.59661899 </i>
    <i name="ewald">   -290.74104112 </i>
    <i name="hartreedc">     -0.40936822 </i>
    <i name="XCdc">   -105.39573290 </i>
    <i name="pawpsdc">    142.99033687 </i>
    <i name="pawaedc">    -14.83890365 </i>
    <i name="eentropy">     -0.14934360 </i>
    <i name="bandstr">     40.34417927 </i>
    <i name="atom">    214.76153871 </i>
    <i name="e_fr_energy">    -14.03495362 </i>
    <i name="e_wo_entrp">    -13.88561002 </i>
    <i name="e_0_energy">    -13.98517242 </i>
   </energy>
  </scstep>
  <scstep>
   <time name="dav">    0.77    0.23</time>
   <time name="total">    1.63    1.08</time>
   <energy>
    <i name="alphaZ">     -0.59661899 </i>
    <i name="ewald">   -290.74104112 </i>
    <i name="hartreedc">     -0.40894960 </i>
    <i name="XCdc">   -105.40130065 </i>
    <i name="pawpsdc">    142.94154152 </i>
    <i name="pawaedc">    -14.78805192 </i>
    <i name="eentropy">     -0.14934360 </i>
    <i name="bandstr">     40.34733113 </i>
    <i name="atom">    214.76153871 </i>
    <i name="e_fr_energy">    -14.03489451 </i>
    <i name="e_wo_entrp">    -13.88555092 </i>
    <i name="e_0_energy">    -13.98511331 </i>
   </energy>
  </scstep>
  <structure>
   <crystal>
    <varray name="basis" >
     <v>       4.08741295       0.00000000       0.00000000 </v>
     <v>       0.00000000       4.08741295       0.00000000 </v>
     <v>       0.00000000       0.00000000       4.08741295 </v>
    </varray>
    <i name="volume">     68.28818199 </i>
    <varray name="rec_basis" >
     <v>       0.24465353       0.00000000       0.00000000 </v>
     <v>       0.00000000       0.24465353       0.00000000 </v>
     <v>       0.00000000       0.00000000       0.24465353 </v>
    </varray>
   </crystal>
   <varray name="positions" >
    <v>       0.00000000       0.00000000       0.00000000 </v>
    <v>       0.50000000       0.50000000       0.00000000 </v>
    <v>       0.00000000       0.50000000       0.50000000 </v>
    <v>       0.50000000       0.00000000       0.50000000 </v>
   </varray>
  </structure>
  <varray name="forces" >
   <v>       0.00000000       0.00000000       0.00000000 </v>
   <v>       0.00000000       0.00000000       0.00000000 </v>
   <v>       0.00000000       0.00000000       0.00000000 </v>
   <v>       0.00000000       0.00000000       0.00000000 </v>
  </varray>
  <varray name="stress" >
   <v>      -0.16474465       0.00000000       0.00000000 </v>
   <v>       0.00000000      -0.16474465       0.00000000 </v>
   <v>       0.00000000       0.00000000      -0.16474465 </v>
  </varray>
  <energy>
   <i name="e_fr_energy">    -14.03489451 </i>
   <i name="e_wo_entrp">    -13.98511331 </i>
   <i name="e_0_energy">     -0.14934360 </i>
  </energy>
  <time name="totalsc">    5.51    3.83</time>
 </calculation>
 <calculation>
  <scstep>
   <time name="dav">    0.33    0.10</time>
   <time name="total">    1.24    0.68</time>
   <energy>
    <i name="alphaZ">     -0.59676587 </i>
    <i name="ewald">   -290.76489886 </i>
    <i name="hartreedc">     -0.40855157 </i>
    <i name="XCdc">   -105.40882417 </i>
    <i name="pawpsdc">    142.86648766 </i>
    <i name="pawaedc">    -14.70951939 </i>
    <i name="eentropy">     -0.14934360 </i>
    <i name="bandstr">     40.37502381 </i>
    <i name="atom">    214.76153871 </i>
    <i name="e_fr_energy">    -14.03485328 </i>
    <i name="e_wo_entrp">    -13.88550968 </i>
    <i name="e_0_energy">    -13.98507208 </i>
   </energy>
  </scstep>
  <scstep>
   <time name="dav">    0.61    0.17</time>
   <time name="total">    1.35    0.91</time>
   <energy>
    <i name="alphaZ">     -0.59676587 </i>
    <i name="ewald">   -290.76489886 </i>
    <i name="hartreedc">     -0.40844245 </i>
    <i name="XCdc">   -105.40884111 </i>
    <i name="pawpsdc">    142.86966989 </i>
    <i name="pawaedc">    -14.71277917 </i>
    <i name="eentropy">     -0.14934360 </i>
    <i name="bandstr">     40.37500859 </i>
    <i name="atom">    214.76153871 </i>
    <i name="e_fr_energy">    -14.03485387 </i>
    <i name="e_wo_entrp">    -13.88551028 </i>
    <i name="e_0_energy">    -13.98507267 </i>
   </energy>
  </scstep>
  <structure>
   <crystal>
    <varray name="basis" >
     <v>       4.08707757       0.00000000       0.00000000 </v>
     <v>       0.00000000       4.08707757       0.00000000 </v>
     <v>       0.00000000       0.00000000       4.08707757 </v>
    </varray>
    <i name="volume">     68.27137390 </i>
    <varray name="rec_basis" >
     <v>       0.24467360       0.00000000       0.00000000 </v>
     <v>       0.00000000       0.24467360       0.00000000 </v>
     <v>       0.00000000       0.00000000       0.24467360 </v>
    </varray>
   </crystal>
   <varray name="positions" >
    <v>       0.00000000       0.00000000       0.00000000 </v>
    <v>       0.50000000       0.50000000       0.00000000 </v>
    <v>       0.00000000       0.50000000       0.50000000 </v>
    <v>       0.50000000       0.00000000       0.50000000 </v>
   </varray>
  </structure>
  <varray name="forces" >
   <v>       0.00000000       0.00000000       0.00000000 </v>
   <v>       0.00000000       0.00000000       0.00000000 </v>
   <v>       0.00000000       0.00000000       0.00000000 </v>
   <v>       0.00000000       0.00000000       0.00000000 </v>
  </varray>
  <varray name="stress" >
   <v>      -0.43383601       0.00000000       0.00000000 </v>
   <v>       0.00000000      -0.43383601       0.00000000 </v>
   <v>       0.00000000       0.00000000      -0.43383601 </v>
  </varray>
  <energy>
   <i name="e_fr_energy">    -14.03485387 </i>
   <i name="e_wo_entrp">    -13.98507267 </i>
   <i name="e_0_energy">     -0.14934360 </i>
  </energy>
  <time name="totalsc">    4.73    3.36</time>
  <eigenvalues>
   <array>
    <dimension dim="1">band</dimension>
    <dimension dim="2">kpoint</dimension>
    <dimension dim="3">spin</dimension>
    <field>eigene</field>
    <field>occ</field>
    <set>
     <set comment="spin 1">
      <set comment="kpoint 1">
       <r>   -1.6235    1.0000 </r>
       <r>    2.6844    1.0000 </r>
       <r>    2.6844    1.0000 </r>
       <r>    2.6844    1.0000 </r>
       <r>    6.8790    0.6667 </r>
       <r>    6.8790    0.6667 </r>
       <r>    6.8790    0.6667 </r>
       <r>   10.9838    0.0000 </r>
       <r>   11.1844    0.0000 </r>
       <r>   11.1844    0.0000 </r>
      </set>
     </set>
    </set>
   </array>
  </eigenvalues>
  <separator name="orbital magnetization" >
   <v name="MAGDIPOLOUT">      0.00000000      0.00000000      0.00000000</v>
  </separator>
  <dos>
   <i name="efermi">      6.91923151 </i>
   <total>
    <array>
     <dimension dim="1">gridpoints</dimension>
     <dimension dim="2">spin</dimension>
     <field>energy</field>
     <field>total</field>
     <field>integrated</field>
     <set>
      <set comment="spin 1">
       <r>  -3.6235   0.0000   0.0000 </r>
       <r>  -3.5675   0.0000   0.0000 </r>
       <r>  -3.5115   0.0000   0.0000 </r>
       <r>  -3.4554   0.0000   0.0000 </r>
       <r>  -3.3994   0.0000   0.0000 </r>
       <r>  -3.3434   0.0000   0.0000 </r>
       <r>  -3.2874   0.0000   0.0000 </r>
       <r>  -3.2313   0.0000   0.0000 </r>
       <r>  -3.1753   0.0000   0.0000 </r>
       <r>  -3.1193   0.0000   0.0000 </r>
       <r>  -3.0633   0.0000   0.0000 </r>
       <r>  -3.0072   0.0000   0.0000 </r>
       <r>  -2.9512   0.0000   0.0000 </r>
       <r>  -2.8952   0.0000   0.0000 </r>
       <r>  -2.8392   0.0000   0.0000 </r>
       <r>  -2.7831   0.0000   0.0000 </r>
       <r>  -2.7271   0.0000   0.0000 </r>
       <r>  -2.6711   0.0000   0.0000 </r>
       <r>  -2.6151   0.0000   0.0000 </r>
       <r>  -2.5590   0.0000   0.0000 </r>
       <r>  -2.5030   0.0000   0.0000 </r>
       <r>  -2.4470   0.0000   0.0000 </r>
       <r>  -2.3909   0.0000   0.0000 </r>
       <r>  -2.3349  -0.0001   0.0000 </r>
       <r>  -2.2789  -0.0005   0.0000 </r>
       <r>  -2.2229  -0.0027  -0.0002 </r>
       <r>  -2.1668  -0.0115  -0.0008 </r>
       <r>  -2.1108  -0.0398  -0.0031 </r>
       <r>  -2.0548  -0.1121  -0.0093 </r>
       <r>  -1.9988  -0.2502  -0.0234 </r>
       <r>  -1.9427  -0.4130  -0.0465 </r>
       <r>  -1.8867  -0.3956  -0.0687 </r>
       <r>  -1.8307   0.2098  -0.0569 </r>
       <r>  -1.7747   1.8076   0.0444 </r>
       <r>  -1.7186   4.3357   0.2873 </r>
       <r>  -1.6626   6.9416   0.6762 </r>
       <r>  -1.6066   8.3295   1.1429 </r>
       <r>  -1.5506   7.7015   1.5744 </r>
       <r>  -1.4945   5.4265   1.8784 </r>
       <r>  -1.4385   2.7246   2.0310 </r>
       <r>  -1.3825   0.7098   2.0708 </r>
       <r>  -1.3264  -0.2535   2.0566 </r>
       <r>  -1.2704  -0.4465   2.0316 </r>
       <r>  -1.2144  -0.3181   2.0138 </r>
       <r>  -1.1584  -0.1587   2.0049 </r>
       <r>  -1.1023  -0.0614   2.0014 </r>
       <r>  -1.0463  -0.0192   2.0003 </r>
       <r>  -0.9903  -0.0049   2.0001 </r>
       <r>  -0.9343  -0.0011   2.0000 </r>
       <r>  -0.8782  -0.0002   2.0000 </r>
       <r>  -0.8222   0.0000   2.0000 </r>
       <r>  -0.7662   0.0000   2.0000 </r>
       <r>  -0.7102   0.0000   2.0000 </r>
       <r>  -0.6541   0.0000   2.0000 </r>
       <r>  -0.5981   0.0000   2.0000 </r>
       <r>  -0.5421   0.0000   2.0000 </r>
       <r>  -0.4861   0.0000   2.0000 </r>
       <r>  -0.4300   0.0000   2.0000 </r>
       <r>  -0.3740   0.0000   2.0000 </r>
       <r>  -0.3180   0.0000   2.0000 </r>
       <r>  -0.2619   0.0000   2.0000 </r>
       <r>  -0.2059   0.0000   2.0000 </r>
       <r>  -0.1499   0.0000   2.0000 </r>
       <r>  -0.0939   0.0000   2.0000 </r>
       <r>  -0.0378   0.0000   2.0000 </r>
       <r>   0.0182   0.0000   2.0000 </r>
       <r>   0.0742   0.0000   2.0000 </r>
       <r>   0.1302   0.0000   2.0000 </r>
       <r>   0.1863   0.0000   2.0000 </r>
       <r>   0.2423   0.0000   2.0000 </r>
       <r>   0.2983   0.0000   2.0000 </r>
       <r>   0.3543   0.0000   2.0000 </r>
       <r>   0.4104   0.0000   2.0000 </r>
       <r>   0.4664   0.0000   2.0000 </r>
       <r>   0.5224   0.0000   2.0000 </r>
       <r>   0.5784   0.0000   2.0000 </r>
       <r>   0.6345   0.0000   2.0000 </r>
       <r>   0.6905   0.0000   2.0000 </r>
       <r>   0.7465   0.0000   2.0000 </r>
       <r>   0.8026   0.0000   2.0000 </r>
       <r>   0.8586   0.0000   2.0000 </r>
       <r>   0.9146   0.0000   2.0000 </r>
       <r>   0.9706   0.0000   2.0000 </r>
       <r>   1.0267   0.0000   2.0000 </r>
       <r>   1.0827   0.0000   2.0000 </r>
       <r>   1.1387   0.0000   2.0000 </r>
       <r>   1.1947   0.0000   2.0000 </r>
       <r>   1.2508   0.0000   2.0000 </r>
       <r>   1.3068   0.0000   2.0000 </r>
       <r>   1.3628   0.0000   2.0000 </r>
       <r>   1.4188   0.0000   2.0000 </r>
       <r>   1.4749   0.0000   2.0000 </r>
       <r>   1.5309   0.0000   2.0000 </r>
       <r>   1.5869   0.0000   2.0000 </r>
       <r>   1.6430   0.0000   2.0000 </r>
       <r>   1.6990   0.0000   2.0000 </r>
       <r>   1.7550   0.0000   2.0000 </r>
       <r>   1.8110   0.0000   2.0000 </r>
       <r>   1.8671   0.0000   2.0000 </r>
       <r>   1.9231   0.0000   2.0000 </r>
       <r>   1.9791  -0.0003   2.0000 </r>
       <r>   2.0351  -0.0020   1.9999 </r>
       <r>   2.0912  -0.0097   1.9993 </r>
       <r>   2.1472  -0.0398   1.9971 </r>
       <r>   2.2032  -0.1350   1.9895 </r>
       <r>   2.2592  -0.3717   1.9687 </r>
       <r>   2.3153  -0.8060   1.9235 </r>
       <r>   2.3713  -1.2769   1.8520 </r>
       <r>   2.4273  -1.1000   1.7904 </r>
       <r>   2.4833   0.9943   1.8461 </r>
       <r>   2.5394   6.1415   2.1902 </r>
       <r>   2.5954  13.9177   2.9699 </r>
       <r>   2.6514  21.5247   4.1759 </r>
       <r>   2.7075  25.0890   5.5815 </r>
       <r>   2.7635  22.5456   6.8447 </r>
       <r>   2.8195  15.3820   7.7065 </r>
       <r>   2.8755   7.3711   8.1194 </r>
       <r>   2.9316   1.6634   8.2126 </r>
       <r>   2.9876  -0.9111   8.1616 </r>
       <r>   3.0436  -1.3228   8.0875 </r>
       <r>   3.0996  -0.8974   8.0372 </r>
       <r>   3.1557  -0.4340   8.0129 </r>
       <r>   3.2117  -0.1640   8.0037 </r>
       <r>   3.2677  -0.0501   8.0009 </r>
       <r>   3.3237  -0.0126   8.0002 </r>
       <r>   3.3798  -0.0026   8.0000 </r>
       <r>   3.4358  -0.0005   8.0000 </r>
       <r>   3.4918  -0.0001   8.0000 </r>
       <r>   3.5478   0.0000   8.0000 </r>
       <r>   3.6039   0.0000   8.0000 </r>
       <r>   3.6599   0.0000   8.0000 </r>
       <r>   3.7159   0.0000   8.0000 </r>
       <r>   3.7720   0.0000   8.0000 </r>
       <r>   3.8280   0.0000   8.0000 </r>
       <r>   3.8840   0.0000   8.0000 </r>
       <r>   3.9400   0.0000   8.0000 </r>
       <r>   3.9961   0.0000   8.0000 </r>
       <r>   4.0521   0.0000   8.0000 </r>
       <r>   4.1081   0.0000   8.0000 </r>
       <r>   4.1641   0.0000   8.0000 </r>
       <r>   4.2202   0.0000   8.0000 </r>
       <r>   4.2762   0.0000   8.0000 </r>
       <r>   4.3322   0.0000   8.0000 </r>
       <r>   4.3882   0.0000   8.0000 </r>
       <r>   4.4443   0.0000   8.0000 </r>
       <r>   4.5003   0.0000   8.0000 </r>
       <r>   4.5563   0.0000   8.0000 </r>
       <r>   4.6123   0.0000   8.0000 </r>
       <r>   4.6684   0.0000   8.0000 </r>
       <r>   4.7244   0.0000   8.0000 </r>
       <r>   4.7804   0.0000   8.0000 </r>
       <r>   4.8365   0.0000   8.0000 </r>
       <r>   4.8925   0.0000   8.0000 </r>
       <r>   4.9485   0.0000   8.0000 </r>
       <r>   5.0045   0.0000   8.0000 </r>
       <r>   5.0606   0.0000   8.0000 </r>
       <r>   5.1166   0.0000   8.0000 </r>
       <r>   5.1726   0.0000   8.0000 </r>
       <r>   5.2286   0.0000   8.0000 </r>
       <r>   5.2847   0.0000   8.0000 </r>
       <r>   5.3407   0.0000   8.0000 </r>
       <r>   5.3967   0.0000   8.0000 </r>
       <r>   5.4527   0.0000   8.0000 </r>
       <r>   5.5088   0.0000   8.0000 </r>
       <r>   5.5648   0.0000   8.0000 </r>
       <r>   5.6208   0.0000   8.0000 </r>
       <r>   5.6768   0.0000   8.0000 </r>
       <r>   5.7329   0.0000   8.0000 </r>
       <r>   5.7889   0.0000   8.0000 </r>
       <r>   5.8449   0.0000   8.0000 </r>
       <r>   5.9010   0.0000   8.0000 </r>
       <r>   5.9570   0.0000   8.0000 </r>
       <r>   6.0130   0.0000   8.0000 </r>
       <r>   6.0690   0.0000   8.0000 </r>
       <r>   6.1251  -0.0001   8.0000 </r>
       <r>   6.1811  -0.0004   8.0000 </r>
       <r>   6.2371  -0.0025   7.9998 </r>
       <r>   6.2931  -0.0118   7.9992 </r>
       <r>   6.3492  -0.0473   7.9965 </r>
       <r>   6.4052  -0.1563   7.9878 </r>
       <r>   6.4612  -0.4178   7.9644 </r>
       <r>   6.5172  -0.8744   7.9154 </r>
       <r>   6.5733  -1.3133   7.8418 </r>
       <r>   6.6293  -0.9645   7.7877 </r>
       <r>   6.6853   1.4861   7.8710 </r>
       <r>   6.7413   7.0550   8.2663 </r>
       <r>   6.7974  15.0164   9.1076 </r>
       <r>   6.8534  22.3031  10.3572 </r>
       <r>   6.9094  25.1078  11.7639 </r>
       <r>   6.9655  21.7937  12.9849 </r>
       <r>   7.0215  14.2858  13.7853 </r>
       <r>   7.0775   6.4418  14.1462 </r>
       <r>   7.1335   1.1525  14.2107 </r>
       <r>   7.1896  -1.0586  14.1514 </r>
       <r>   7.2456  -1.2904  14.0791 </r>
       <r>   7.3016  -0.8288  14.0327 </r>
       <r>   7.3576  -0.3867  14.0110 </r>
       <r>   7.4137  -0.1418  14.0031 </r>
       <r>   7.4697  -0.0422  14.0007 </r>
       <r>   7.5257  -0.0104  14.0001 </r>
       <r>   7.5817  -0.0021  14.0000 </r>
       <r>   7.6378  -0.0004  14.0000 </r>
       <r>   7.6938  -0.0001  14.0000 </r>
       <r>   7.7498   0.0000  14.0000 </r>
       <r>   7.8058   0.0000  14.0000 </r>
       <r>   7.8619   0.0000  14.0000 </r>
       <r>   7.9179   0.0000  14.0000 </r>
       <r>   7.9739   0.0000  14.0000 </r>
       <r>   8.0300   0.0000  14.0000 </r>
       <r>   8.0860   0.0000  14.0000 </r>
       <r>   8.1420   0.0000  14.0000 </r>
       <r>   8.1980   0.0000  14.0000 </r>
       <r>   8.2541   0.0000  14.0000 </r>
       <r>   8.3101   0.0000  14.0000 </r>
       <r>   8.3661   0.0000  14.0000 </r>
       <r>   8.4221   0.0000  14.0000 </r>
       <r>   8.4782   0.0000  14.0000 </r>
       <r>   8.5342   0.0000  14.0000 </r>
       <r>   8.5902   0.0000  14.0000 </r>
       <r>   8.6462   0.0000  14.0000 </r>
       <r>   8.7023   0.0000  14.0000 </r>
       <r>   8.7583   0.0000  14.0000 </r>
       <r>   8.8143   0.0000  14.0000 </r>
       <r>   8.8703   0.0000  14.0000 </r>
       <r>   8.9264   0.0000  14.0000 </r>
       <r>   8.9824   0.0000  14.0000 </r>
       <r>   9.0384   0.0000  14.0000 </r>
       <r>   9.0945   0.0000  14.0000 </r>
       <r>   9.1505   0.0000  14.0000 </r>
       <r>   9.2065   0.0000  14.0000 </r>
       <r>   9.2625   0.0000  14.0000 </r>
       <r>   9.3186   0.0000  14.0000 </r>
       <r>   9.3746   0.0000  14.0000 </r>
       <r>   9.4306   0.0000  14.0000 </r>
       <r>   9.4866   0.0000  14.0000 </r>
       <r>   9.5427   0.0000  14.0000 </r>
       <r>   9.5987   0.0000  14.0000 </r>
       <r>   9.6547   0.0000  14.0000 </r>
       <r>   9.7107   0.0000  14.0000 </r>
       <r>   9.7668   0.0000  14.0000 </r>
       <r>   9.8228   0.0000  14.0000 </r>
       <r>   9.8788   0.0000  14.0000 </r>
       <r>   9.9349   0.0000  14.0000 </r>
       <r>   9.9909   0.0000  14.0000 </r>
       <r>  10.0469   0.0000  14.0000 </r>
       <r>  10.1029   0.0000  14.0000 </r>
       <r>  10.1590   0.0000  14.0000 </r>
       <r>  10.2150   0.0000  14.0000 </r>
       <r>  10.2710  -0.0001  14.0000 </r>
       <r>  10.3270  -0.0005  14.0000 </r>
       <r>  10.3831  -0.0026  13.9998 </r>
       <r>  10.4391  -0.0112  13.9992 </r>
       <r>  10.4951  -0.0390  13.9970 </r>
       <r>  10.5511  -0.1116  13.9908 </r>
       <r>  10.6072  -0.2558  13.9764 </r>
       <r>  10.6632  -0.4482  13.9513 </r>
       <r>  10.7192  -0.5241  13.9219 </r>
       <r>  10.7752  -0.1339  13.9144 </r>
       <r>  10.8313   1.1177  13.9771 </r>
       <r>  10.8873   3.3729  14.1660 </r>
       <r>  10.9433   6.3785  14.5234 </r>
       <r>  10.9994   9.7378  15.0690 </r>
       <r>  11.0554  13.1908  15.8080 </r>
       <r>  11.1114  16.3480  16.7239 </r>
       <r>  11.1674  18.1907  17.7431 </r>
       <r>  11.2235  17.4065  18.7183 </r>
       <r>  11.2795  13.6425  19.4826 </r>
       <r>  11.3355   8.2243  19.9434 </r>
       <r>  11.3915   3.2927  20.1279 </r>
       <r>  11.4476   0.2575  20.1423 </r>
       <r>  11.5036  -0.8542  20.0945 </r>
       <r>  11.5596  -0.8458  20.0471 </r>
       <r>  11.6156  -0.5055  20.0188 </r>
       <r>  11.6717  -0.2253  20.0061 </r>
       <r>  11.7277  -0.0797  20.0017 </r>
       <r>  11.7837  -0.0230  20.0004 </r>
       <r>  11.8397  -0.0055  20.0001 </r>
       <r>  11.8958  -0.0011  20.0000 </r>
       <r>  11.9518  -0.0002  20.0000 </r>
       <r>  12.0078   0.0000  20.0000 </r>
       <r>  12.0639   0.0000  20.0000 </r>
       <r>  12.1199   0.0000  20.0000 </r>
       <r>  12.1759   0.0000  20.0000 </r>
       <r>  12.2319   0.0000  20.0000 </r>
       <r>  12.2880   0.0000  20.0000 </r>
       <r>  12.3440   0.0000  20.0000 </r>
       <r>  12.4000   0.0000  20.0000 </r>
       <r>  12.4560   0.0000  20.0000 </r>
       <r>  12.5121   0.0000  20.0000 </r>
       <r>  12.5681   0.0000  20.0000 </r>
       <r>  12.6241   0.0000  20.0000 </r>
       <r>  12.6801   0.0000  20.0000 </r>
       <r>  12.7362   0.0000  20.0000 </r>
       <r>  12.7922   0.0000  20.0000 </r>
       <r>  12.8482   0.0000  20.0000 </r>
       <r>  12.9042   0.0000  20.0000 </r>
       <r>  12.9603   0.0000  20.0000 </r>
       <r>  13.0163   0.0000  20.0000 </r>
       <r>  13.0723   0.0000  20.0000 </r>
       <r>  13.1284   0.0000  20.0000 </r>
       <r>  13.1844   0.0000  20.0000 </r>
      </set>
     </set>
    </array>
   </total>
  </dos>
 </calculation>
 <structure name="finalpos" >
  <crystal>
   <varray name="basis" >
    <v>       4.08707757       0.00000000       0.00000000 </v>
    <v>       0.00000000       4.08707757       0.00000000 </v>
    <v>       0.00000000       0.00000000       4.08707757 </v>
   </varray>
   <i name="volume">     68.27137390 </i>
   <varray name="rec_basis" >
    <v>       0.24467360       0.00000000       0.00000000 </v>
    <v>       0.00000000       0.24467360       0.00000000 </v>
    <v>       0.00000000       0.00000000       0.24467360 </v>
   </varray>
  </crystal>
  <varray name="positions" >
   <v>       0.00000000       0.00000000       0.00000000 </v>
   <v>       0.50000000       0.50000000       0.00000000 </v>
   <v>       0.00000000       0.50000000       0.50000000 </v>
   <v>       0.50000000       0.00000000       0.50000000 </v>
  </varray>
 </structure>
</modeling>
