  31  31   0   0
  0.1706119E+02  0.8087054E-09  0.8087054E-09  0.8087054E-09  0.5000000E-15
  1.000000000000000E-004
  CAR 
 unknown system                          
     11.98726193     -4.93725412  301      7.87417284      1.00000000
     -4.937  0.0000E+00  0.0000E+00
     -4.881  0.0000E+00  0.0000E+00
     -4.824  0.0000E+00  0.0000E+00
     -4.768  0.0000E+00  0.0000E+00
     -4.712  0.0000E+00  0.0000E+00
     -4.655  0.0000E+00  0.0000E+00
     -4.599  0.0000E+00  0.0000E+00
     -4.542 -0.4418E-28 -0.2493E-29
     -4.486 -0.3601E-26 -0.2056E-27
     -4.430 -0.2525E-24 -0.1445E-25
     -4.373 -0.1507E-22 -0.8646E-24
     -4.317 -0.7657E-21 -0.4406E-22
     -4.260 -0.3311E-19 -0.1912E-20
     -4.204 -0.1218E-17 -0.7062E-19
     -4.147 -0.3811E-16 -0.2220E-17
     -4.091 -0.9829E-15 -0.5767E-16
     -4.035 -0.2217E-13 -0.1308E-14
     -3.978 -0.4243E-12 -0.2525E-13
     -3.922 -0.6890E-11 -0.4140E-12
     -3.865 -0.9486E-10 -0.5766E-11
     -3.809 -0.1106E-08 -0.6816E-10
     -3.753 -0.1091E-07 -0.6835E-09
     -3.696 -0.9082E-07 -0.5807E-08
     -3.640 -0.6371E-06 -0.4175E-07
     -3.583 -0.3754E-05 -0.2535E-06
     -3.527 -0.1850E-04 -0.1297E-05
     -3.470 -0.7574E-04 -0.5570E-05
     -3.414 -0.2552E-03 -0.1997E-04
     -3.358 -0.6958E-03 -0.5922E-04
     -3.301 -0.1484E-02 -0.1429E-03
     -3.245 -0.2274E-02 -0.2712E-03
     -3.188 -0.1746E-02 -0.3697E-03
     -3.132  0.2420E-02 -0.2332E-03
     -3.076  0.1208E-01  0.4483E-03
     -3.019  0.2603E-01  0.1917E-02
     -2.963  0.3887E-01  0.4109E-02
     -2.906  0.4381E-01  0.6581E-02
     -2.850  0.3794E-01  0.8721E-02
     -2.793  0.2471E-01  0.1012E-01
     -2.737  0.1098E-01  0.1073E-01
     -2.681  0.1829E-02  0.1084E-01
     -2.624 -0.1906E-02  0.1073E-01
     -2.568 -0.2231E-02  0.1060E-01
     -2.511 -0.1416E-02  0.1052E-01
     -2.455 -0.7026E-03  0.1048E-01
     -2.399 -0.4495E-03  0.1046E-01
     -2.342 -0.7105E-03  0.1042E-01
     -2.286 -0.1540E-02  0.1033E-01
     -2.229 -0.2795E-02  0.1017E-01
     -2.173 -0.3530E-02  0.9976E-02
     -2.117 -0.1479E-02  0.9892E-02
     -2.060  0.6416E-02  0.1025E-01
     -2.004  0.2205E-01  0.1150E-01
     -1.947  0.4402E-01  0.1398E-01
     -1.891  0.6743E-01  0.1779E-01
     -1.834  0.8604E-01  0.2264E-01
     -1.778  0.9473E-01  0.2798E-01
     -1.722  0.9088E-01  0.3311E-01
     -1.665  0.7514E-01  0.3735E-01
     -1.609  0.5192E-01  0.4028E-01
     -1.552  0.2813E-01  0.4187E-01
     -1.496  0.9982E-02  0.4243E-01
     -1.440 -0.4754E-04  0.4243E-01
     -1.383 -0.3378E-02  0.4224E-01
     -1.327 -0.3167E-02  0.4206E-01
     -1.270 -0.2088E-02  0.4194E-01
     -1.214 -0.1536E-02  0.4185E-01
     -1.157 -0.1928E-02  0.4174E-01
     -1.101 -0.2998E-02  0.4157E-01
     -1.045 -0.3506E-02  0.4138E-01
     -0.988 -0.8505E-03  0.4133E-01
     -0.932  0.8180E-02  0.4179E-01
     -0.875  0.2496E-01  0.4320E-01
     -0.819  0.4660E-01  0.4583E-01
     -0.763  0.6654E-01  0.4958E-01
     -0.706  0.7864E-01  0.5402E-01
     -0.650  0.8105E-01  0.5859E-01
     -0.593  0.7598E-01  0.6288E-01
     -0.537  0.6630E-01  0.6662E-01
     -0.480  0.5340E-01  0.6963E-01
     -0.424  0.3815E-01  0.7178E-01
     -0.368  0.2258E-01  0.7306E-01
     -0.311  0.9681E-02  0.7360E-01
     -0.255  0.1520E-02  0.7369E-01
     -0.198 -0.2036E-02  0.7357E-01
     -0.142 -0.2813E-02  0.7341E-01
     -0.086 -0.2923E-02  0.7325E-01
     -0.029 -0.3658E-02  0.7304E-01
      0.027 -0.4844E-02  0.7277E-01
      0.084 -0.4320E-02  0.7253E-01
      0.140  0.2004E-02  0.7264E-01
      0.197  0.1834E-01  0.7367E-01
      0.253  0.4542E-01  0.7624E-01
      0.309  0.7780E-01  0.8063E-01
      0.366  0.1053E+00  0.8657E-01
      0.422  0.1189E+00  0.9328E-01
      0.479  0.1157E+00  0.9981E-01
      0.535  0.9960E-01  0.1054E+00
      0.591  0.7713E-01  0.1098E+00
      0.648  0.5356E-01  0.1128E+00
      0.704  0.3214E-01  0.1146E+00
      0.761  0.1507E-01  0.1155E+00
      0.817  0.3813E-02  0.1157E+00
      0.873 -0.1732E-02  0.1156E+00
      0.930 -0.3373E-02  0.1154E+00
      0.986 -0.3656E-02  0.1152E+00
      1.043 -0.4630E-02  0.1149E+00
      1.099 -0.6853E-02  0.1145E+00
      1.156 -0.8222E-02  0.1141E+00
      1.212 -0.3014E-02  0.1139E+00
      1.268  0.1668E-01  0.1148E+00
      1.325  0.5525E-01  0.1180E+00
      1.381  0.1064E+00  0.1240E+00
      1.438  0.1521E+00  0.1325E+00
      1.494  0.1725E+00  0.1423E+00
      1.550  0.1592E+00  0.1513E+00
      1.607  0.1223E+00  0.1582E+00
      1.663  0.8181E-01  0.1628E+00
      1.720  0.5459E-01  0.1659E+00
      1.776  0.4499E-01  0.1684E+00
      1.833  0.4594E-01  0.1710E+00
      1.889  0.4664E-01  0.1736E+00
      1.945  0.4038E-01  0.1759E+00
      2.002  0.2762E-01  0.1774E+00
      2.058  0.1352E-01  0.1782E+00
      2.115  0.2943E-02  0.1784E+00
      2.171 -0.2692E-02  0.1782E+00
      2.227 -0.4840E-02  0.1780E+00
      2.284 -0.5171E-02  0.1777E+00
      2.340 -0.3400E-02  0.1775E+00
      2.397  0.2876E-02  0.1776E+00
      2.453  0.1630E-01  0.1785E+00
      2.510  0.3700E-01  0.1806E+00
      2.566  0.6107E-01  0.1841E+00
      2.622  0.8177E-01  0.1887E+00
      2.679  0.9273E-01  0.1939E+00
      2.735  0.9093E-01  0.1991E+00
      2.792  0.7759E-01  0.2034E+00
      2.848  0.5716E-01  0.2067E+00
      2.904  0.3533E-01  0.2087E+00
      2.961  0.1700E-01  0.2096E+00
      3.017  0.4769E-02  0.2099E+00
      3.074 -0.1454E-02  0.2098E+00
      3.130 -0.3755E-02  0.2096E+00
      3.187 -0.4792E-02  0.2093E+00
      3.243 -0.6279E-02  0.2090E+00
      3.299 -0.7648E-02  0.2085E+00
      3.356 -0.5101E-02  0.2082E+00
      3.412  0.7833E-02  0.2087E+00
      3.469  0.3684E-01  0.2108E+00
      3.525  0.8131E-01  0.2153E+00
      3.581  0.1310E+00  0.2227E+00
      3.638  0.1692E+00  0.2323E+00
      3.694  0.1815E+00  0.2425E+00
      3.751  0.1644E+00  0.2518E+00
      3.807  0.1267E+00  0.2590E+00
      3.863  0.8408E-01  0.2637E+00
      3.920  0.4996E-01  0.2665E+00
      3.976  0.3005E-01  0.2682E+00
      4.033  0.2196E-01  0.2694E+00
      4.089  0.1908E-01  0.2705E+00
      4.146  0.1545E-01  0.2714E+00
      4.202  0.8806E-02  0.2719E+00
      4.258  0.4190E-03  0.2719E+00
      4.315 -0.6543E-02  0.2715E+00
      4.371 -0.7728E-02  0.2711E+00
      4.428  0.2668E-02  0.2713E+00
      4.484  0.3040E-01  0.2730E+00
      4.540  0.7654E-01  0.2773E+00
      4.597  0.1330E+00  0.2848E+00
      4.653  0.1833E+00  0.2951E+00
      4.710  0.2101E+00  0.3070E+00
      4.766  0.2052E+00  0.3186E+00
      4.823  0.1751E+00  0.3284E+00
      4.879  0.1376E+00  0.3362E+00
      4.935  0.1098E+00  0.3424E+00
      4.992  0.9801E-01  0.3479E+00
      5.048  0.9540E-01  0.3533E+00
      5.105  0.8984E-01  0.3584E+00
      5.161  0.7396E-01  0.3626E+00
      5.217  0.4962E-01  0.3654E+00
      5.274  0.2465E-01  0.3667E+00
      5.330  0.6118E-02  0.3671E+00
      5.387 -0.3829E-02  0.3669E+00
      5.443 -0.7013E-02  0.3665E+00
      5.500 -0.5569E-02  0.3662E+00
      5.556  0.5265E-03  0.3662E+00
      5.612  0.1265E-01  0.3669E+00
      5.669  0.3050E-01  0.3686E+00
      5.725  0.5002E-01  0.3715E+00
      5.782  0.6450E-01  0.3751E+00
      5.838  0.6850E-01  0.3790E+00
      5.894  0.6146E-01  0.3824E+00
      5.951  0.4862E-01  0.3852E+00
      6.007  0.3808E-01  0.3873E+00
      6.064  0.3528E-01  0.3893E+00
      6.120  0.3878E-01  0.3915E+00
      6.177  0.4150E-01  0.3938E+00
      6.233  0.3714E-01  0.3959E+00
      6.289  0.2539E-01  0.3974E+00
      6.346  0.1118E-01  0.3980E+00
      6.402 -0.4288E-03  0.3980E+00
      6.459 -0.7333E-02  0.3976E+00
      6.515 -0.8912E-02  0.3970E+00
      6.571 -0.2831E-02  0.3969E+00
      6.628  0.1536E-01  0.3978E+00
      6.684  0.4857E-01  0.4005E+00
      6.741  0.9357E-01  0.4058E+00
      6.797  0.1404E+00  0.4137E+00
      6.853  0.1769E+00  0.4237E+00
      6.910  0.1944E+00  0.4346E+00
      6.966  0.1904E+00  0.4454E+00
      7.023  0.1675E+00  0.4548E+00
      7.079  0.1315E+00  0.4622E+00
      7.136  0.9057E-01  0.4674E+00
      7.192  0.5268E-01  0.4703E+00
      7.248  0.2364E-01  0.4717E+00
      7.305  0.5529E-02  0.4720E+00
      7.361 -0.3191E-02  0.4718E+00
      7.418 -0.6125E-02  0.4714E+00
      7.474 -0.6871E-02  0.4711E+00
      7.530 -0.7131E-02  0.4707E+00
      7.587 -0.5612E-02  0.4703E+00
      7.643  0.1702E-02  0.4704E+00
      7.700  0.1941E-01  0.4715E+00
      7.756  0.4916E-01  0.4743E+00
      7.813  0.8691E-01  0.4792E+00
      7.869  0.1236E+00  0.4862E+00
      7.925  0.1499E+00  0.4946E+00
      7.982  0.1622E+00  0.5038E+00
      8.038  0.1647E+00  0.5131E+00
      8.095  0.1650E+00  0.5224E+00
      8.151  0.1660E+00  0.5317E+00
      8.207  0.1629E+00  0.5409E+00
      8.264  0.1480E+00  0.5493E+00
      8.320  0.1195E+00  0.5560E+00
      8.377  0.8394E-01  0.5608E+00
      8.433  0.5095E-01  0.5636E+00
      8.490  0.2646E-01  0.5651E+00
      8.546  0.1100E-01  0.5658E+00
      8.602  0.2337E-02  0.5659E+00
      8.659 -0.1966E-02  0.5658E+00
      8.715 -0.3935E-02  0.5656E+00
      8.772 -0.5235E-02  0.5653E+00
      8.828 -0.6494E-02  0.5649E+00
      8.884 -0.6095E-02  0.5645E+00
      8.941  0.2706E-03  0.5646E+00
      8.997  0.1780E-01  0.5656E+00
      9.054  0.4846E-01  0.5683E+00
      9.110  0.8757E-01  0.5732E+00
      9.167  0.1249E+00  0.5803E+00
      9.223  0.1502E+00  0.5888E+00
      9.279  0.1586E+00  0.5977E+00
      9.336  0.1509E+00  0.6062E+00
      9.392  0.1311E+00  0.6136E+00
      9.449  0.1040E+00  0.6195E+00
      9.505  0.7454E-01  0.6237E+00
      9.561  0.4672E-01  0.6263E+00
      9.618  0.2333E-01  0.6276E+00
      9.674  0.6899E-02  0.6280E+00
      9.731  0.9962E-03  0.6281E+00
      9.787  0.9242E-02  0.6286E+00
      9.843  0.3156E-01  0.6304E+00
      9.900  0.6035E-01  0.6338E+00
      9.956  0.8180E-01  0.6384E+00
     10.013  0.8409E-01  0.6431E+00
     10.069  0.6625E-01  0.6469E+00
     10.126  0.3861E-01  0.6491E+00
     10.182  0.1426E-01  0.6499E+00
     10.238  0.2198E-03  0.6499E+00
     10.295 -0.4331E-02  0.6496E+00
     10.351 -0.3870E-02  0.6494E+00
     10.408 -0.2184E-02  0.6493E+00
     10.464 -0.9298E-03  0.6492E+00
     10.520 -0.3158E-03  0.6492E+00
     10.577 -0.8768E-04  0.6492E+00
     10.633 -0.2018E-04  0.6492E+00
     10.690 -0.3881E-05  0.6492E+00
     10.746 -0.6268E-06  0.6492E+00
     10.803 -0.8535E-07  0.6492E+00
     10.859 -0.9823E-08  0.6492E+00
     10.915 -0.9573E-09  0.6492E+00
     10.972 -0.7912E-10  0.6492E+00
     11.028 -0.5552E-11  0.6492E+00
     11.085 -0.3311E-12  0.6492E+00
     11.141 -0.1679E-13  0.6492E+00
     11.197 -0.7212E-15  0.6492E+00
     11.254 -0.2061E-16  0.6492E+00
     11.310  0.0000E+00  0.6492E+00
     11.367  0.0000E+00  0.6492E+00
     11.423  0.0000E+00  0.6492E+00
     11.480  0.0000E+00  0.6492E+00
     11.536  0.0000E+00  0.6492E+00
     11.592  0.0000E+00  0.6492E+00
     11.649  0.0000E+00  0.6492E+00
     11.705  0.0000E+00  0.6492E+00
     11.762  0.0000E+00  0.6492E+00
     11.818  0.0000E+00  0.6492E+00
     11.874  0.0000E+00  0.6492E+00
     11.931  0.0000E+00  0.6492E+00
     11.987  0.0000E+00  0.6492E+00
