   31   31  191    1
  0.1706119E+02  0.8087054E-09  0.8087054E-09  0.8087054E-09  0.5000000E-15
  1.000000000000000E-004
  CAR 
 unknown system                          
   93    2   62
 
  0.2500000E+00  0.2500000E+00  0.2500000E+00  0.5000000E+00
   1       -2.936901
   2       -1.905362
   3       -1.820790
   4       -1.662851
   5       -0.774706
   6       -0.714786
   7       -0.468863
   8        0.314933
   9        0.366337
  10        0.416884
  11        0.628352
  12        1.405973
  13        1.427786
  14        1.463637
  15        1.526553
  16        1.731895
  17        1.855025
  18        2.588315
  19        2.658088
  20        2.745635
  21        3.547104
  22        3.596034
  23        3.647627
  24        3.695366
  25        3.731126
  26        4.072586
  27        4.594009
  28        4.614191
  29        4.663575
  30        4.744895
  31        4.750916
  32        4.774245
  33        4.904062
  34        5.071513
  35        5.097283
  36        5.754619
  37        5.845401
  38        6.162429
  39        6.755306
  40        6.823267
  41        6.839525
  42        6.913146
  43        6.978391
  44        7.000309
  45        7.139414
  46        7.791595
  47        7.913392
  48        7.918727
  49        7.949007
  50        8.027015
  51        8.119643
  52        8.208777
  53        8.245756
  54        8.431419
  55        9.096483
  56        9.192192
  57        9.240015
  58        9.340489
  59        9.347985
  60        9.459298
  61        9.962279
  62        9.987262
 
 -0.2500000E+00  0.2500000E+00  0.2500000E+00  0.5000000E+00
   1       -2.937254
   2       -1.914925
   3       -1.741200
   4       -1.739375
   5       -0.791976
   6       -0.627817
   7       -0.553469
   8        0.305489
   9        0.427103
  10        0.477029
  11        0.563936
  12        1.413030
  13        1.452816
  14        1.456129
  15        1.550529
  16        1.562965
  17        1.899022
  18        2.543945
  19        2.698812
  20        2.838617
  21        3.569829
  22        3.603288
  23        3.689027
  24        3.695369
  25        3.776253
  26        3.873580
  27        4.566527
  28        4.649768
  29        4.659699
  30        4.707924
  31        4.771010
  32        4.788723
  33        4.968185
  34        5.011271
  35        5.144371
  36        5.722247
  37        5.907074
  38        6.152587
  39        6.732454
  40        6.804122
  41        6.836854
  42        6.909759
  43        6.974730
  44        6.996359
  45        7.084953
  46        7.811103
  47        7.866207
  48        7.963554
  49        8.023693
  50        8.123876
  51        8.152704
  52        8.227846
  53        8.233430
  54        8.302386
  55        9.131246
  56        9.176130
  57        9.187249
  58        9.323593
  59        9.356722
  60        9.539216
  61        9.937683
  62        9.955638
