Processors received = 1
script running on host compute-0-1.local
PBS_NODEFILE
compute-0-1
 running on    1 nodes
 distr:  one band on    1 nodes,    1 groups
 vasp.5.2.2 15Apr09 complex 
 POSCAR found type information on POSCAR  Al
 POSCAR found :  1 types and   31 ions

 ----------------------------------------------------------------------------- 
|                                                                             |
|  ADVICE TO THIS USER RUNNING 'VASP/VAMP'   (HEAR YOUR MASTER'S VOICE ...):  |
|                                                                             |
|      You have a (more or less) 'large supercell' and for larger cells       |
|      it might be more efficient to use real space projection operators      |
|      So try LREAL= Auto  in the INCAR   file.                               |
|      Mind: If you want to do a very accurate calculations keep the          |
|      reciprocal projection scheme          (i.e. LREAL=.FALSE.)             |
|                                                                             |
 ----------------------------------------------------------------------------- 

 LDA part: xc-table for Pade appr. of Perdew
 POSCAR, INCAR and KPOINTS ok, starting setup
 FFT: planning ...(           4 )
 reading WAVECAR
 WARNING: random wavefunctions but no delay for mixing, default for NELMDL
 entering main loop
       N       E                     dE             d eps       ncg     rms          rms(c)
RMM:   1     0.305992608836E+03    0.30599E+03   -0.16902E+04   124   0.644E+02
RMM:   2    -0.938629619569E+01   -0.31538E+03   -0.30971E+03   124   0.137E+02
RMM:   3    -0.837036040870E+02   -0.74317E+02   -0.76289E+02   124   0.465E+01
RMM:   4    -0.103148961049E+03   -0.19445E+02   -0.19077E+02   124   0.270E+01
RMM:   5    -0.110018782967E+03   -0.68698E+01   -0.60356E+01   124   0.145E+01
RMM:   6    -0.112691819312E+03   -0.26730E+01   -0.22397E+01   124   0.824E+00
RMM:   7    -0.113827703245E+03   -0.11359E+01   -0.96467E+00   124   0.488E+00
RMM:   8    -0.114361228781E+03   -0.53353E+00   -0.45091E+00   124   0.305E+00
RMM:   9    -0.114821411730E+03   -0.46018E+00   -0.42583E+00   294   0.192E+00
RMM:  10    -0.114903179341E+03   -0.81768E-01   -0.49951E-01   292   0.415E-01
RMM:  11    -0.114915191865E+03   -0.12013E-01   -0.33664E-02   257   0.913E-02
RMM:  12    -0.114915574930E+03   -0.38307E-03   -0.80486E-04   240   0.178E-02    0.545E+00
RMM:  13    -0.114315418894E+03    0.60016E+00   -0.68373E-01   249   0.132E+00    0.333E+00
RMM:  14    -0.114049157406E+03    0.26626E+00   -0.22921E-01   253   0.103E+00    0.106E+00
RMM:  15    -0.114017131312E+03    0.32026E-01   -0.30802E-02   259   0.418E-01    0.148E-01
RMM:  16    -0.114015896417E+03    0.12349E-02   -0.37978E-03   256   0.129E-01    0.442E-02
RMM:  17    -0.114015868868E+03    0.27549E-04   -0.47117E-04   265   0.468E-02    0.116E-02
RMM:  18    -0.114015878481E+03   -0.96127E-05   -0.55508E-05   267   0.159E-02    0.510E-03
RMM:  19    -0.114015883473E+03   -0.49923E-05   -0.57354E-06   210   0.568E-03    0.128E-03
RMM:  20    -0.114015884288E+03   -0.81481E-06   -0.61483E-07   141   0.260E-03
   1 F= -.11401588E+03 E0= -.11399077E+03  d E =-.753304E-01

 ----------------------------------------------------------------------------- 
|                                                                             |
|           W    W    AA    RRRRR   N    N  II  N    N   GGGG   !!!           |
|           W    W   A  A   R    R  NN   N  II  NN   N  G    G  !!!           |
|           W    W  A    A  R    R  N N  N  II  N N  N  G       !!!           |
|           W WW W  AAAAAA  RRRRR   N  N N  II  N  N N  G  GGG   !            |
|           WW  WW  A    A  R   R   N   NN  II  N   NN  G    G                |
|           W    W  A    A  R    R  N    N  II  N    N   GGGG   !!!           |
|                                                                             |
|      Your timestep is larger than 0.1 Angst.                                |
|      For finite differences this really does not make sense. I will         |
|      reset POTIM to 0.015. I recommend to use 0.01 to 0.02 for finite       |
|      differences.                                                           |
|                                                                             |
 ----------------------------------------------------------------------------- 

 Finite differences POTIM= 0.01500 DOF=   3
 bond charge predicted
       N       E                     dE             d eps       ncg     rms          rms(c)
RMM:   1    -0.114015769425E+03    0.11405E-03   -0.23731E-02   248   0.447E-01    0.332E-02
RMM:   2    -0.114015738590E+03    0.30835E-04   -0.36925E-04   258   0.537E-02    0.184E-02
RMM:   3    -0.114015731291E+03    0.72993E-05   -0.54718E-05   254   0.170E-02    0.715E-03
RMM:   4    -0.114015731754E+03   -0.46272E-06   -0.40225E-06   195   0.499E-03
   2 F= -.11401573E+03 E0= -.11399063E+03  d E =-.753013E-01
 Finite differences progress:
  Degree of freedom:   1/  3
  Displacement:        1/  2
  Total:               1/  6
 bond charge predicted
       N       E                     dE             d eps       ncg     rms          rms(c)
RMM:   1    -0.114015893577E+03   -0.16229E-03   -0.95080E-02   248   0.895E-01    0.666E-02
RMM:   2    -0.114015760785E+03    0.13279E-03   -0.14713E-03   258   0.107E-01    0.368E-02
RMM:   3    -0.114015729753E+03    0.31033E-04   -0.21964E-04   253   0.340E-02    0.143E-02
RMM:   4    -0.114015731637E+03   -0.18844E-05   -0.17364E-05   261   0.991E-03    0.673E-03
RMM:   5    -0.114015732587E+03   -0.94956E-06   -0.23123E-06   162   0.424E-03
   3 F= -.11401573E+03 E0= -.11399063E+03  d E =-.752983E-01
 Finite differences progress:
  Degree of freedom:   1/  3
  Displacement:        2/  2
  Total:               2/  6
 bond charge predicted
       N       E                     dE             d eps       ncg     rms          rms(c)
RMM:   1    -0.114015019913E+03    0.71172E-03   -0.51453E-02   372   0.646E-01    0.556E-02
RMM:   2    -0.114014883454E+03    0.13646E-03   -0.89640E-04   384   0.811E-02    0.298E-02
RMM:   3    -0.114014840514E+03    0.42941E-04   -0.14025E-04   384   0.256E-02    0.120E-02
RMM:   4    -0.114014829529E+03    0.10984E-04   -0.22774E-05   382   0.925E-03    0.487E-03
RMM:   5    -0.114014824830E+03    0.46993E-05   -0.96448E-06   336   0.518E-03    0.152E-03
RMM:   6    -0.114014823391E+03    0.14390E-05   -0.23285E-06   259   0.248E-03    0.568E-04
RMM:   7    -0.114014822651E+03    0.73945E-06   -0.11781E-06   207   0.178E-03
   4 F= -.11401482E+03 E0= -.11398972E+03  d E =-.753008E-01
 Finite differences progress:
  Degree of freedom:   2/  3
  Displacement:        1/  2
  Total:               3/  6
 bond charge predicted
       N       E                     dE             d eps       ncg     rms          rms(c)
RMM:   1    -0.114015514262E+03   -0.69087E-03   -0.87047E-02   372   0.721E-01    0.993E-02
RMM:   2    -0.114014896059E+03    0.61820E-03   -0.19912E-03   380   0.108E-01    0.475E-02
RMM:   3    -0.114014825909E+03    0.70150E-04   -0.29848E-04   379   0.345E-02    0.193E-02
RMM:   4    -0.114014822391E+03    0.35185E-05   -0.28310E-05   385   0.112E-02    0.707E-03
RMM:   5    -0.114014822453E+03   -0.62085E-07   -0.36712E-06   284   0.399E-03
   5 F= -.11401482E+03 E0= -.11398972E+03  d E =-.752990E-01
 Finite differences progress:
  Degree of freedom:   2/  3
  Displacement:        2/  2
  Total:               4/  6
 bond charge predicted
       N       E                     dE             d eps       ncg     rms          rms(c)
RMM:   1    -0.114015888945E+03   -0.10666E-02   -0.51893E-02   248   0.647E-01    0.475E-02
RMM:   2    -0.114015832189E+03    0.56756E-04   -0.84319E-04   254   0.790E-02    0.289E-02
RMM:   3    -0.114015759050E+03    0.73139E-04   -0.14268E-04   252   0.255E-02    0.112E-02
RMM:   4    -0.114015739060E+03    0.19990E-04   -0.36940E-05   250   0.108E-02    0.435E-03
RMM:   5    -0.114015732766E+03    0.62942E-05   -0.19102E-05   234   0.685E-03    0.151E-03
RMM:   6    -0.114015731771E+03    0.99524E-06   -0.58869E-06   209   0.358E-03
   6 F= -.11401573E+03 E0= -.11399063E+03  d E =-.753008E-01
 Finite differences progress:
  Degree of freedom:   3/  3
  Displacement:        1/  2
  Total:               5/  6
 bond charge predicted
       N       E                     dE             d eps       ncg     rms          rms(c)
RMM:   1    -0.114015884140E+03   -0.15137E-03   -0.95015E-02   248   0.894E-01    0.664E-02
RMM:   2    -0.114015759205E+03    0.12493E-03   -0.14605E-03   256   0.107E-01    0.368E-02
RMM:   3    -0.114015730040E+03    0.29165E-04   -0.22021E-04   255   0.340E-02    0.143E-02
RMM:   4    -0.114015731970E+03   -0.19299E-05   -0.18224E-05   262   0.996E-03    0.673E-03
RMM:   5    -0.114015732815E+03   -0.84487E-06   -0.25949E-06   169   0.433E-03
   7 F= -.11401573E+03 E0= -.11399063E+03  d E =-.752981E-01
 Finite differences progress:
  Degree of freedom:   3/  3
  Displacement:        2/  2
  Total:               6/  6
 Finite differences POTIM=  1.500000000000000E-002
