<?xml version="1.0" encoding="ISO-8859-1"?>
<modeling>
 <generator>
  <i name="program" type="string">vasp </i>
  <i name="version" type="string">5.2.2  </i>
  <i name="subversion" type="string">15Apr09 complex  parallel </i>
  <i name="platform" type="string">LinuxIFC </i>
  <i name="date" type="string">2014 04 24 </i>
  <i name="time" type="string">12:42:24 </i>
 </generator>
 <incar>
  <i type="string" name="PREC">accurate</i>
  <i type="int" name="IALGO">    48</i>
  <i type="int" name="IBRION">     5</i>
  <i name="EDIFFG">      0.05000000</i>
  <i type="int" name="NSW">   191</i>
  <i type="int" name="ISIF">     2</i>
  <i name="ENCUT">    300.00000000</i>
  <i name="NELECT">     93.00000000</i>
  <i type="int" name="ISMEAR">     1</i>
  <i name="SIGMA">      0.20000000</i>
  <i type="logical" name="LWAVE"> F  </i>
  <i type="logical" name="LCHARG"> F  </i>
  <i type="logical" name="LPEAD"> F  </i>
  <i type="logical" name="LCALCPOL"> F  </i>
  <i type="logical" name="LCALCEPS"> F  </i>
  <v name="EFIELD_PEAD">      0.00000000      0.00000000      0.00000000</v>
  <i type="logical" name="LEFG"> F  </i>
 </incar>
 <kpoints>
  <generation param="Monkhorst-Pack">
   <v type="int" name="divisions">       2        2        2 </v>
   <v name="usershift">      0.00000000       0.00000000       0.00000000 </v>
   <v name="genvec1">      0.50000000       0.00000000       0.00000000 </v>
   <v name="genvec2">      0.00000000       0.50000000       0.00000000 </v>
   <v name="genvec3">      0.00000000       0.00000000       0.50000000 </v>
   <v name="shift">      0.50000000       0.50000000       0.50000000 </v>
  </generation>
  <varray name="kpointlist" >
   <v>       0.25000000       0.25000000       0.25000000 </v>
   <v>      -0.25000000       0.25000000       0.25000000 </v>
  </varray>
  <varray name="weights" >
   <v>       0.50000000 </v>
   <v>       0.50000000 </v>
  </varray>
 </kpoints>
 <parameters>
  <separator name="general" >
   <i type="string" name="SYSTEM">unknown system</i>
   <i type="logical" name="LCOMPAT"> F  </i>
  </separator>
  <separator name="electronic" >
   <i type="string" name="PREC">accura</i>
   <i name="ENMAX">    300.00000000</i>
   <i name="ENAUG">    291.05200000</i>
   <i name="EDIFF">      0.00000100</i>
   <i type="int" name="IALGO">    48</i>
   <i type="int" name="IWAVPR">    11</i>
   <i type="int" name="NBANDS">    62</i>
   <i name="NELECT">     93.00000000</i>
   <separator name="electronic smearing" >
    <i type="int" name="ISMEAR">     1</i>
    <i name="SIGMA">      0.20000000</i>
   </separator>
   <separator name="electronic projectors" >
    <i type="logical" name="LREAL"> F  </i>
    <v name="ROPT">      0.00000000</v>
    <i type="int" name="LMAXPAW">  -100</i>
    <i type="int" name="LMAXMIX">     2</i>
   </separator>
   <separator name="electronic startup" >
    <i type="int" name="ISTART">     0</i>
    <i type="int" name="ICHARG">     2</i>
    <i type="int" name="INIWAV">     1</i>
   </separator>
   <separator name="electronic spin" >
    <i type="int" name="ISPIN">     1</i>
    <i type="logical" name="LNONCOLLINEAR"> F  </i>
    <v name="MAGMOM">      1.00000000      1.00000000      1.00000000      1.00000000      1.00000000      1.00000000      1.00000000      1.00000000      1.00000000      1.00000000      1.00000000      1.00000000      1.00000000      1.00000000      1.00000000      1.00000000      1.00000000      1.00000000      1.00000000      1.00000000
      1.00000000      1.00000000      1.00000000      1.00000000      1.00000000      1.00000000      1.00000000      1.00000000      1.00000000      1.00000000      1.00000000</v>
    <i name="NUPDOWN">     -1.00000000</i>
    <i type="logical" name="LSORBIT"> F  </i>
    <v name="SAXIS">      0.00000000      0.00000000      1.00000000</v>
    <i type="logical" name="LSPIRAL"> F  </i>
    <v name="QSPIRAL">      0.00000000      0.00000000      0.00000000</v>
    <i type="logical" name="LZEROZ"> F  </i>
   </separator>
   <separator name="electronic exchange-correlation" >
    <i type="logical" name="LASPH"> F  </i>
    <i type="logical" name="LMETAGGA"> F  </i>
   </separator>
   <separator name="electronic convergence" >
    <i type="int" name="NELM">    60</i>
    <i type="int" name="NELMDL">     0</i>
    <i type="int" name="NELMIN">     2</i>
    <i name="ENINI">    300.00000000</i>
    <separator name="electronic convergence detail" >
     <i type="logical" name="LDIAG"> T  </i>
     <i name="WEIMIN">      0.00100000</i>
     <i name="EBREAK">      0.00000000</i>
     <i name="DEPER">      0.30000000</i>
     <i type="int" name="NRMM">     4</i>
     <i name="TIME">      0.40000000</i>
    </separator>
   </separator>
   <separator name="electronic mixer" >
    <i name="AMIX">      0.40000000</i>
    <i name="BMIX">      1.00000000</i>
    <i name="AMIN">      0.10000000</i>
    <i name="AMIX_MAG">      1.60000000</i>
    <i name="BMIX_MAG">      1.00000000</i>
    <separator name="electronic mixer details" >
     <i type="int" name="IMIX">     4</i>
     <i type="int" name="MAXMIX">   -45</i>
     <i name="WC">    100.00000000</i>
     <i type="int" name="INIMIX">     1</i>
     <i type="int" name="MIXPRE">     1</i>
     <i type="int" name="MREMOVE">     5</i>
    </separator>
   </separator>
   <separator name="electronic dipolcorrection" >
    <i type="logical" name="LDIPOL"> F  </i>
    <i type="logical" name="LMONO"> F  </i>
    <i type="int" name="IDIPOL">     0</i>
    <i name="EPSILON">      1.00000000</i>
    <v name="DIPOL">   -100.00000000   -100.00000000   -100.00000000</v>
    <i name="EFIELD">      0.00000000</i>
   </separator>
  </separator>
  <separator name="grids" >
   <i type="int" name="NGX">    48</i>
   <i type="int" name="NGY">    48</i>
   <i type="int" name="NGZ">    48</i>
   <i type="int" name="NGXF">    96</i>
   <i type="int" name="NGYF">    96</i>
   <i type="int" name="NGZF">    96</i>
   <i type="logical" name="ADDGRID"> F  </i>
  </separator>
  <separator name="ionic" >
   <i type="int" name="NSW">   382</i>
   <i type="int" name="IBRION">     5</i>
   <i type="int" name="ISIF">     2</i>
   <i name="PSTRESS">      0.00000000</i>
   <i name="EDIFFG">      0.05000000</i>
   <i type="int" name="NFREE">     2</i>
   <i name="POTIM">      0.50000000</i>
   <i name="SMASS">     -3.00000000</i>
  </separator>
  <separator name="ionic md" >
   <i name="TEBEG">      0.00010000</i>
   <i name="TEEND">      0.00010000</i>
   <i type="int" name="NBLOCK">     1</i>
   <i type="int" name="KBLOCK">   191</i>
   <i type="int" name="NPACO">   256</i>
   <i name="APACO">     16.00000000</i>
  </separator>
  <separator name="symmetry" >
   <i type="int" name="ISYM">     2</i>
   <i name="SYMPREC">      0.00001000</i>
  </separator>
  <separator name="dos" >
   <i type="logical" name="LORBIT"> F  </i>
   <v name="RWIGS">     -1.00000000</v>
   <i type="int" name="NEDOS">   301</i>
   <i name="EMIN">     10.00000000</i>
   <i name="EMAX">    -10.00000000</i>
   <i name="EFERMI">      0.00000000</i>
  </separator>
  <separator name="writing" >
   <i type="int" name="NWRITE">     2</i>
   <i type="logical" name="LWAVE"> F  </i>
   <i type="logical" name="LCHARG"> F  </i>
   <i type="logical" name="LPARD"> F  </i>
   <i type="logical" name="LVTOT"> F  </i>
   <i type="logical" name="LELF"> F  </i>
   <i type="logical" name="LOPTICS"> F  </i>
   <v name="STM">      0.00000000      0.00000000      0.00000000      0.00000000      0.00000000</v>
  </separator>
  <separator name="performance" >
   <i type="int" name="NPAR">     1</i>
   <i type="int" name="NSIM">     4</i>
   <i type="int" name="NBLK">    32</i>
   <i type="logical" name="LPLANE"> T  </i>
   <i type="logical" name="LSCALAPACK"> F  </i>
   <i type="logical" name="LSCAAWARE"> F  </i>
   <i type="logical" name="LSCALU"> F  </i>
   <i type="logical" name="LASYNC"> F  </i>
  </separator>
  <separator name="miscellaneous" >
   <i type="int" name="IDIOT">     3</i>
   <i type="logical" name="LMUSIC"> F  </i>
   <v name="POMASS">     26.98200000</v>
   <i type="logical" name="LCORR"> T  </i>
  </separator>
  <i type="logical" name="LREAL_COMPAT"> F  </i>
  <i type="logical" name="GGA_COMPAT"> T  </i>
  <i type="logical" name="LBERRY"> F  </i>
  <i type="int" name="ICORELEVEL">     0</i>
  <i type="logical" name="LDAU"> F  </i>
  <i type="int" name="I_CONSTRAINED_M">     0</i>
  <separator name="electronic exchange-correlation" >
   <i type="string" name="GGA">--</i>
   <i type="int" name="VOSKOWN">     0</i>
   <i type="logical" name="LHFCALC"> F  </i>
   <i type="logical" name="LHFONE"> F  </i>
   <i type="logical" name="LRHFCALC"> F  </i>
   <i type="logical" name="LTHOMAS"> F  </i>
   <i type="logical" name="LMODELHF"> F  </i>
   <i name="ENCUTFOCK">      0.00000000</i>
   <i name="ENCUT4O">     -1.00000000</i>
   <i type="int" name="EXXOEP">     0</i>
   <i type="int" name="FOURORBIT">     0</i>
   <i name="AEXX">      0.00000000</i>
   <i name="HFALPHA">      0.00000000</i>
   <i name="ALDAX">      1.00000000</i>
   <i name="AGGAX">      1.00000000</i>
   <i name="ALDAC">      1.00000000</i>
   <i name="AGGAC">      1.00000000</i>
   <i type="int" name="NKREDX">     1</i>
   <i type="int" name="NKREDY">     1</i>
   <i type="int" name="NKREDZ">     1</i>
   <i type="logical" name="SHIFTRED"> F  </i>
   <i type="logical" name="ODDONLY"> F  </i>
   <i type="logical" name="EVENONLY"> F  </i>
   <i type="int" name="LMAXFOCK">     0</i>
   <i type="int" name="NMAXFOCKAE">     0</i>
   <i name="HFSCREEN">      0.00000000</i>
   <i name="HFSCREENC">      0.00000000</i>
  </separator>
  <separator name="model GW" >
   <i type="int" name="MODEL_GW">     0</i>
   <i name="MODEL_EPS0">     10.23671437</i>
   <i name="MODEL_ALPHA">      1.00000000</i>
  </separator>
  <separator name="linear response parameters" >
   <i type="logical" name="LEPSILON"> F  </i>
   <i type="logical" name="LRPA"> F  </i>
   <i type="logical" name="LNABLA"> F  </i>
   <i type="logical" name="LVEL"> F  </i>
   <i type="int" name="KINTER">     0</i>
   <i name="CSHIFT">      0.10000000</i>
   <i name="OMEGAMAX">     -1.00000000</i>
  </separator>
  <separator name="orbital magnetization" >
   <i type="logical" name="ORBITALMAG"> F  </i>
   <i type="logical" name="LMAGBLOCH"> F  </i>
   <i type="logical" name="LCHIMAG"> F  </i>
   <i type="logical" name="LGAUGE"> T  </i>
   <i type="int" name="MAGATOM">     0</i>
   <v name="MAGDIPOL">      0.00000000      0.00000000      0.00000000</v>
   <v name="AVECCONST">      0.00000000      0.00000000      0.00000000</v>
  </separator>
  <separator name="response functions" >
   <i type="logical" name="LRPA"> T  </i>
   <i type="logical" name="LTCTE"> F  </i>
   <i type="logical" name="LTETE"> F  </i>
   <i type="logical" name="L2ORDER"> F  </i>
   <i type="logical" name="LGWLF"> F  </i>
   <i name="ENCUTGW">    200.00000000</i>
   <i name="ENCUTGWSOFT">     -2.00000000</i>
   <i name="ENCUTLF">     -1.00000000</i>
   <i type="int" name="LMAXMP2">    -1</i>
   <i name="SCISSOR">      0.00000000</i>
   <i type="int" name="NOMEGA">     0</i>
   <i type="int" name="NOMEGAR">     0</i>
   <i type="int" name="NBANDSGW">    -1</i>
   <i type="int" name="NBANDSLF">    -1</i>
   <i type="int" name="NELM">     1</i>
   <i type="int" name="DIM">     3</i>
   <i type="int" name="ANTIRES">     0</i>
   <i type="logical" name="LUSEW"> F  </i>
   <i name="OMEGAMAX">    -30.00000000</i>
   <i name="OMEGATL">   -200.00000000</i>
   <i type="int" name="OMEGAGRID">     0</i>
   <i name="CSHIFT">     -0.10000000</i>
   <i type="logical" name="SELFENERGY"> F  </i>
   <i type="logical" name="LSPECTRAL"> F  </i>
   <i type="logical" name="ODDONLYGW"> F  </i>
   <i type="logical" name="EVENONLYGW"> F  </i>
   <i type="int" name="NKREDLFX">     1</i>
   <i type="int" name="NKREDLFY">     1</i>
   <i type="int" name="NKREDLFZ">     1</i>
   <i type="int" name="MAXMEM">  1024</i>
   <i type="int" name="TELESCOPE">     0</i>
  </separator>
 </parameters>
 <atominfo>
  <atoms>      31 </atoms>
  <types>       1 </types>
  <array name="atoms" >
   <dimension dim="1">ion</dimension>
   <field type="string">element</field>
   <field type="int">atomtype</field>
   <set>
    <rc><c>Al</c><c>   1</c></rc>
    <rc><c>Al</c><c>   1</c></rc>
    <rc><c>Al</c><c>   1</c></rc>
    <rc><c>Al</c><c>   1</c></rc>
    <rc><c>Al</c><c>   1</c></rc>
    <rc><c>Al</c><c>   1</c></rc>
    <rc><c>Al</c><c>   1</c></rc>
    <rc><c>Al</c><c>   1</c></rc>
    <rc><c>Al</c><c>   1</c></rc>
    <rc><c>Al</c><c>   1</c></rc>
    <rc><c>Al</c><c>   1</c></rc>
    <rc><c>Al</c><c>   1</c></rc>
    <rc><c>Al</c><c>   1</c></rc>
    <rc><c>Al</c><c>   1</c></rc>
    <rc><c>Al</c><c>   1</c></rc>
    <rc><c>Al</c><c>   1</c></rc>
    <rc><c>Al</c><c>   1</c></rc>
    <rc><c>Al</c><c>   1</c></rc>
    <rc><c>Al</c><c>   1</c></rc>
    <rc><c>Al</c><c>   1</c></rc>
    <rc><c>Al</c><c>   1</c></rc>
    <rc><c>Al</c><c>   1</c></rc>
    <rc><c>Al</c><c>   1</c></rc>
    <rc><c>Al</c><c>   1</c></rc>
    <rc><c>Al</c><c>   1</c></rc>
    <rc><c>Al</c><c>   1</c></rc>
    <rc><c>Al</c><c>   1</c></rc>
    <rc><c>Al</c><c>   1</c></rc>
    <rc><c>Al</c><c>   1</c></rc>
    <rc><c>Al</c><c>   1</c></rc>
    <rc><c>Al</c><c>   1</c></rc>
   </set>
  </array>
  <array name="atomtypes" >
   <dimension dim="1">type</dimension>
   <field type="int">atomspertype</field>
   <field type="string">element</field>
   <field>mass</field>
   <field>valence</field>
   <field type="string">pseudopotential</field>
   <set>
    <rc><c>  31</c><c>Al</c><c>     26.98200000</c><c>      3.00000000</c><c> PAW_PBE Al 04Jan2001                   </c></rc>
   </set>
  </array>
 </atominfo>
 <structure name="initialpos" >
  <crystal>
   <varray name="basis" >
    <v>       8.08705400       0.00000000       0.00000000 </v>
    <v>       0.00000000       8.08705400       0.00000000 </v>
    <v>       0.00000000       0.00000000       8.08705400 </v>
   </varray>
   <i name="volume">    528.89690930 </i>
   <varray name="rec_basis" >
    <v>       0.12365442       0.00000000       0.00000000 </v>
    <v>       0.00000000       0.12365442       0.00000000 </v>
    <v>       0.00000000       0.00000000       0.12365442 </v>
   </varray>
  </crystal>
  <varray name="positions" >
   <v>       0.37500000       0.50000000       0.37500000 </v>
   <v>       0.99970200       0.00000000       0.99970200 </v>
   <v>       0.24846500       0.00000000       0.24846500 </v>
   <v>       0.24812200       0.25335500       0.00238100 </v>
   <v>       0.00238100       0.25335500       0.24812200 </v>
   <v>       0.50052700       0.00000000       0.99307700 </v>
   <v>       0.75692300       0.00000000       0.24947300 </v>
   <v>       0.75133900       0.25081000       0.99866100 </v>
   <v>       0.50655600       0.23697100       0.24344400 </v>
   <v>       0.00091800       0.50000000       0.00091800 </v>
   <v>       0.24812200       0.74664500       0.00238100 </v>
   <v>       0.00238100       0.74664500       0.24812200 </v>
   <v>       0.49482700       0.50000000       0.00541200 </v>
   <v>       0.74460000       0.50000000       0.25516700 </v>
   <v>       0.75133900       0.74919000       0.99866100 </v>
   <v>       0.50655600       0.76302900       0.24344400 </v>
   <v>       0.99307700       0.00000000       0.50052700 </v>
   <v>       0.24947300       0.00000000       0.75692300 </v>
   <v>       0.24344400       0.23697100       0.50655600 </v>
   <v>       0.99866100       0.25081000       0.75133900 </v>
   <v>       0.50153400       0.00000000       0.50153400 </v>
   <v>       0.75030200       0.00000000       0.75030200 </v>
   <v>       0.74762400       0.25335400       0.50187700 </v>
   <v>       0.50187700       0.25335400       0.74762400 </v>
   <v>       0.00541200       0.50000000       0.49482700 </v>
   <v>       0.25516700       0.50000000       0.74460000 </v>
   <v>       0.24344400       0.76302900       0.50655600 </v>
   <v>       0.99866100       0.74919000       0.75133900 </v>
   <v>       0.74908800       0.50000000       0.74908800 </v>
   <v>       0.74762400       0.74664600       0.50187700 </v>
   <v>       0.50187700       0.74664600       0.74762400 </v>
  </varray>
  <varray name="selective"  type="logical" >
   <v type="logical" >  T  T  T </v>
   <v type="logical" >  F  F  F </v>
   <v type="logical" >  F  F  F </v>
   <v type="logical" >  F  F  F </v>
   <v type="logical" >  F  F  F </v>
   <v type="logical" >  F  F  F </v>
   <v type="logical" >  F  F  F </v>
   <v type="logical" >  F  F  F </v>
   <v type="logical" >  F  F  F </v>
   <v type="logical" >  F  F  F </v>
   <v type="logical" >  F  F  F </v>
   <v type="logical" >  F  F  F </v>
   <v type="logical" >  F  F  F </v>
   <v type="logical" >  F  F  F </v>
   <v type="logical" >  F  F  F </v>
   <v type="logical" >  F  F  F </v>
   <v type="logical" >  F  F  F </v>
   <v type="logical" >  F  F  F </v>
   <v type="logical" >  F  F  F </v>
   <v type="logical" >  F  F  F </v>
   <v type="logical" >  F  F  F </v>
   <v type="logical" >  F  F  F </v>
   <v type="logical" >  F  F  F </v>
   <v type="logical" >  F  F  F </v>
   <v type="logical" >  F  F  F </v>
   <v type="logical" >  F  F  F </v>
   <v type="logical" >  F  F  F </v>
   <v type="logical" >  F  F  F </v>
   <v type="logical" >  F  F  F </v>
   <v type="logical" >  F  F  F </v>
   <v type="logical" >  F  F  F </v>
  </varray>
  <nose>
   <v>      -3.00000000       0.00000000       0.00010000       0.00010000 </v>
  </nose>
 </structure>
 <calculation>
  <scstep>
   <time name="diag">    4.65    2.95</time>
   <time name="diis">   21.37    6.78</time>
   <time name="orth">    0.33    0.08</time>
   <time name="total">   28.27   11.68</time>
   <energy>
    <i name="alphaZ">     -6.10292531 </i>
    <i name="ewald">  -2233.44441945 </i>
    <i name="hartreedc">    -14.87570434 </i>
    <i name="XCdc">   -814.89410781 </i>
    <i name="pawpsdc">   1102.18190231 </i>
    <i name="pawaedc">   -111.56847430 </i>
    <i name="eentropy">      0.00749343 </i>
    <i name="bandstr">    725.02250024 </i>
    <i name="atom">   1659.66634407 </i>
    <i name="e_fr_energy">    305.99260884 </i>
    <i name="e_wo_entrp">    305.98511541 </i>
    <i name="e_0_energy">    305.99011103 </i>
   </energy>
  </scstep>
  <scstep>
   <time name="diag">    4.52    2.93</time>
   <time name="diis">   21.28    6.77</time>
   <time name="orth">    0.33    0.08</time>
   <time name="total">   26.15    9.79</time>
   <energy>
    <i name="e_fr_energy">     -9.38629620 </i>
    <i name="e_wo_entrp">     -9.36561864 </i>
    <i name="e_0_energy">     -9.37940368 </i>
   </energy>
  </scstep>
  <scstep>
   <time name="diag">    4.56    2.93</time>
   <time name="diis">   21.21    6.76</time>
   <time name="orth">    0.33    0.08</time>
   <time name="total">   26.12    9.78</time>
   <energy>
    <i name="e_fr_energy">    -83.70360409 </i>
    <i name="e_wo_entrp">    -83.65040818 </i>
    <i name="e_0_energy">    -83.68587212 </i>
   </energy>
  </scstep>
  <scstep>
   <time name="diag">    4.57    2.94</time>
   <time name="diis">   21.73    6.81</time>
   <time name="orth">    0.33    0.08</time>
   <time name="total">   26.65    9.83</time>
   <energy>
    <i name="e_fr_energy">   -103.14896105 </i>
    <i name="e_wo_entrp">   -103.18209355 </i>
    <i name="e_0_energy">   -103.16000521 </i>
   </energy>
  </scstep>
  <scstep>
   <time name="diag">    4.58    2.94</time>
   <time name="diis">   21.66    6.81</time>
   <time name="orth">    0.33    0.08</time>
   <time name="total">   26.58    9.83</time>
   <energy>
    <i name="e_fr_energy">   -110.01878297 </i>
    <i name="e_wo_entrp">   -109.98908894 </i>
    <i name="e_0_energy">   -110.00888496 </i>
   </energy>
  </scstep>
  <scstep>
   <time name="diag">    4.66    2.94</time>
   <time name="diis">   21.52    6.79</time>
   <time name="orth">    0.33    0.08</time>
   <time name="total">   26.53    9.82</time>
   <energy>
    <i name="e_fr_energy">   -112.69181931 </i>
    <i name="e_wo_entrp">   -112.66403110 </i>
    <i name="e_0_energy">   -112.68255658 </i>
   </energy>
  </scstep>
  <scstep>
   <time name="diag">    4.45    2.91</time>
   <time name="diis">   21.45    6.79</time>
   <time name="orth">    0.33    0.08</time>
   <time name="total">   26.25    9.79</time>
   <energy>
    <i name="e_fr_energy">   -113.82770324 </i>
    <i name="e_wo_entrp">   -113.77916757 </i>
    <i name="e_0_energy">   -113.81152469 </i>
   </energy>
  </scstep>
  <scstep>
   <time name="diag">    4.50    2.93</time>
   <time name="diis">   21.38    6.80</time>
   <time name="orth">    0.33    0.08</time>
   <time name="total">   26.24    9.82</time>
   <energy>
    <i name="e_fr_energy">   -114.36122878 </i>
    <i name="e_wo_entrp">   -114.30967446 </i>
    <i name="e_0_energy">   -114.34404401 </i>
   </energy>
  </scstep>
  <scstep>
   <time name="diag">    4.52    2.93</time>
   <time name="diis">   49.27   13.96</time>
   <time name="orth">    0.33    0.08</time>
   <time name="total">   54.13   16.98</time>
   <energy>
    <i name="e_fr_energy">   -114.82141173 </i>
    <i name="e_wo_entrp">   -114.76241042 </i>
    <i name="e_0_energy">   -114.80174463 </i>
   </energy>
  </scstep>
  <scstep>
   <time name="diag">    4.57    2.94</time>
   <time name="diis">   49.68   13.93</time>
   <time name="orth">    0.33    0.08</time>
   <time name="total">   54.59   16.95</time>
   <energy>
    <i name="e_fr_energy">   -114.90317934 </i>
    <i name="e_wo_entrp">   -114.84909183 </i>
    <i name="e_0_energy">   -114.88515017 </i>
   </energy>
  </scstep>
  <scstep>
   <time name="diag">    4.65    2.94</time>
   <time name="diis">   43.85   12.37</time>
   <time name="orth">    0.33    0.08</time>
   <time name="total">   48.85   15.40</time>
   <energy>
    <i name="e_fr_energy">   -114.91519186 </i>
    <i name="e_wo_entrp">   -114.86257033 </i>
    <i name="e_0_energy">   -114.89765135 </i>
   </energy>
  </scstep>
  <scstep>
   <time name="diag">    4.48    2.93</time>
   <time name="diis">   40.86   11.68</time>
   <time name="orth">    0.33    0.08</time>
   <time name="total">   47.48   16.39</time>
   <energy>
    <i name="e_fr_energy">   -114.91557493 </i>
    <i name="e_wo_entrp">   -114.86347956 </i>
    <i name="e_0_energy">   -114.89820981 </i>
   </energy>
  </scstep>
  <scstep>
   <time name="diag">    4.64    2.94</time>
   <time name="diis">   41.29   12.06</time>
   <time name="orth">    0.33    0.08</time>
   <time name="total">   49.90   18.63</time>
   <energy>
    <i name="e_fr_energy">   -114.31541889 </i>
    <i name="e_wo_entrp">   -114.24059021 </i>
    <i name="e_0_energy">   -114.29047600 </i>
   </energy>
  </scstep>
  <scstep>
   <time name="diag">    4.64    2.94</time>
   <time name="diis">   42.10   12.27</time>
   <time name="orth">    0.33    0.08</time>
   <time name="total">   50.72   18.84</time>
   <energy>
    <i name="e_fr_energy">   -114.04915741 </i>
    <i name="e_wo_entrp">   -113.97138739 </i>
    <i name="e_0_energy">   -114.02323407 </i>
   </energy>
  </scstep>
  <scstep>
   <time name="diag">    4.64    2.94</time>
   <time name="diis">   43.62   12.57</time>
   <time name="orth">    0.33    0.08</time>
   <time name="total">   52.32   19.15</time>
   <energy>
    <i name="e_fr_energy">   -114.01713131 </i>
    <i name="e_wo_entrp">   -113.94129058 </i>
    <i name="e_0_energy">   -113.99185107 </i>
   </energy>
  </scstep>
  <scstep>
   <time name="diag">    4.64    2.94</time>
   <time name="diis">   42.51   12.39</time>
   <time name="orth">    0.33    0.08</time>
   <time name="total">   51.24   18.95</time>
   <energy>
    <i name="e_fr_energy">   -114.01589642 </i>
    <i name="e_wo_entrp">   -113.94039701 </i>
    <i name="e_0_energy">   -113.99072995 </i>
   </energy>
  </scstep>
  <scstep>
   <time name="diag">    4.64    2.94</time>
   <time name="diis">   44.43   12.78</time>
   <time name="orth">    0.33    0.08</time>
   <time name="total">   53.22   19.36</time>
   <energy>
    <i name="e_fr_energy">   -114.01586887 </i>
    <i name="e_wo_entrp">   -113.94060818 </i>
    <i name="e_0_energy">   -113.99078197 </i>
   </energy>
  </scstep>
  <scstep>
   <time name="diag">    4.64    2.94</time>
   <time name="diis">   44.95   12.78</time>
   <time name="orth">    0.33    0.08</time>
   <time name="total">   53.73   19.35</time>
   <energy>
    <i name="e_fr_energy">   -114.01587848 </i>
    <i name="e_wo_entrp">   -113.94049711 </i>
    <i name="e_0_energy">   -113.99075136 </i>
   </energy>
  </scstep>
  <scstep>
   <time name="diag">    4.64    2.94</time>
   <time name="diis">   35.68   10.33</time>
   <time name="orth">    0.33    0.08</time>
   <time name="total">   44.46   16.90</time>
   <energy>
    <i name="e_fr_energy">   -114.01588347 </i>
    <i name="e_wo_entrp">   -113.94056268 </i>
    <i name="e_0_energy">   -113.99077654 </i>
   </energy>
  </scstep>
  <scstep>
   <time name="diag">    4.64    2.94</time>
   <time name="diis">   24.00    7.36</time>
   <time name="orth">    0.33    0.08</time>
   <time name="total">   30.97   12.26</time>
   <energy>
    <i name="alphaZ">     -6.10292531 </i>
    <i name="ewald">  -2233.44441945 </i>
    <i name="hartreedc">    -17.31281483 </i>
    <i name="XCdc">   -811.44887096 </i>
    <i name="pawpsdc">   1107.92058308 </i>
    <i name="pawaedc">   -117.77603191 </i>
    <i name="eentropy">     -0.07533037 </i>
    <i name="bandstr">    304.55758139 </i>
    <i name="atom">   1659.66634407 </i>
    <i name="e_fr_energy">   -114.01588429 </i>
    <i name="e_wo_entrp">   -113.94055392 </i>
    <i name="e_0_energy">   -113.99077417 </i>
   </energy>
  </scstep>
  <structure>
   <crystal>
    <varray name="basis" >
     <v>       8.08705400       0.00000000       0.00000000 </v>
     <v>       0.00000000       8.08705400       0.00000000 </v>
     <v>       0.00000000       0.00000000       8.08705400 </v>
    </varray>
    <i name="volume">    528.89690930 </i>
    <varray name="rec_basis" >
     <v>       0.12365442       0.00000000       0.00000000 </v>
     <v>       0.00000000       0.12365442       0.00000000 </v>
     <v>       0.00000000       0.00000000       0.12365442 </v>
    </varray>
   </crystal>
   <varray name="positions" >
    <v>       0.37500000       0.50000000       0.37500000 </v>
    <v>       0.99970200       0.00000000       0.99970200 </v>
    <v>       0.24846500       0.00000000       0.24846500 </v>
    <v>       0.24812200       0.25335500       0.00238100 </v>
    <v>       0.00238100       0.25335500       0.24812200 </v>
    <v>       0.50052700       0.00000000       0.99307700 </v>
    <v>       0.75692300       0.00000000       0.24947300 </v>
    <v>       0.75133900       0.25081000       0.99866100 </v>
    <v>       0.50655600       0.23697100       0.24344400 </v>
    <v>       0.00091800       0.50000000       0.00091800 </v>
    <v>       0.24812200       0.74664500       0.00238100 </v>
    <v>       0.00238100       0.74664500       0.24812200 </v>
    <v>       0.49482700       0.50000000       0.00541200 </v>
    <v>       0.74460000       0.50000000       0.25516700 </v>
    <v>       0.75133900       0.74919000       0.99866100 </v>
    <v>       0.50655600       0.76302900       0.24344400 </v>
    <v>       0.99307700       0.00000000       0.50052700 </v>
    <v>       0.24947300       0.00000000       0.75692300 </v>
    <v>       0.24344400       0.23697100       0.50655600 </v>
    <v>       0.99866100       0.25081000       0.75133900 </v>
    <v>       0.50153400       0.00000000       0.50153400 </v>
    <v>       0.75030200       0.00000000       0.75030200 </v>
    <v>       0.74762400       0.25335400       0.50187700 </v>
    <v>       0.50187700       0.25335400       0.74762400 </v>
    <v>       0.00541200       0.50000000       0.49482700 </v>
    <v>       0.25516700       0.50000000       0.74460000 </v>
    <v>       0.24344400       0.76302900       0.50655600 </v>
    <v>       0.99866100       0.74919000       0.75133900 </v>
    <v>       0.74908800       0.50000000       0.74908800 </v>
    <v>       0.74762400       0.74664600       0.50187700 </v>
    <v>       0.50187700       0.74664600       0.74762400 </v>
   </varray>
  </structure>
  <varray name="forces" >
   <v>      -0.00001690       0.00000000      -0.00001690 </v>
   <v>       0.00545920       0.00000000       0.00545920 </v>
   <v>      -0.00900874       0.00000000      -0.00900874 </v>
   <v>      -0.00302338       0.05126760       0.03982507 </v>
   <v>       0.03982507       0.05126760      -0.00302338 </v>
   <v>       0.02775007       0.00000000      -0.03913128 </v>
   <v>       0.03913279       0.00000000      -0.02772578 </v>
   <v>      -0.02061008       0.03895115       0.02063001 </v>
   <v>       0.02011636      -0.05432500      -0.02003408 </v>
   <v>      -0.00109825       0.00000000      -0.00109825 </v>
   <v>      -0.00302338      -0.05126760       0.03982507 </v>
   <v>       0.03982507      -0.05126760      -0.00302338 </v>
   <v>       0.00318495       0.00000000       0.02235153 </v>
   <v>      -0.02247229       0.00000000      -0.00302685 </v>
   <v>      -0.02061008      -0.03895115       0.02063001 </v>
   <v>       0.02011636       0.05432500      -0.02003408 </v>
   <v>      -0.03913128       0.00000000       0.02775007 </v>
   <v>      -0.02772578       0.00000000       0.03913279 </v>
   <v>      -0.02003408      -0.05432500       0.02011636 </v>
   <v>       0.02063001       0.03895115      -0.02061008 </v>
   <v>       0.00910551       0.00000000       0.00910551 </v>
   <v>      -0.00557129       0.00000000      -0.00557129 </v>
   <v>      -0.03994546       0.05135368       0.00310161 </v>
   <v>       0.00310161       0.05135368      -0.03994546 </v>
   <v>       0.02235153       0.00000000       0.00318495 </v>
   <v>      -0.00302685       0.00000000      -0.02247229 </v>
   <v>      -0.02003408       0.05432500       0.02011636 </v>
   <v>       0.02063001      -0.03895115      -0.02061008 </v>
   <v>       0.00094724       0.00000000       0.00094724 </v>
   <v>      -0.03994546      -0.05135368       0.00310161 </v>
   <v>       0.00310161      -0.05135368      -0.03994546 </v>
  </varray>
  <varray name="stress" >
   <v>      -4.49707911       0.00000000      -3.74666054 </v>
   <v>       0.00000000       5.37059417       0.00000000 </v>
   <v>      -3.74666054       0.00000000      -4.49707911 </v>
  </varray>
  <energy>
   <i name="e_fr_energy">   -114.01588429 </i>
   <i name="e_wo_entrp">   -113.99077417 </i>
   <i name="e_0_energy">     -0.07533037 </i>
  </energy>
  <kpoints>
   <generation param="Monkhorst-Pack">
    <v type="int" name="divisions">       2        2        2 </v>
    <v name="usershift">      0.00000000       0.00000000       0.00000000 </v>
    <v name="genvec1">      0.50000000       0.00000000       0.00000000 </v>
    <v name="genvec2">      0.00000000       0.50000000       0.00000000 </v>
    <v name="genvec3">      0.00000000       0.00000000       0.50000000 </v>
    <v name="shift">      0.50000000       0.50000000       0.50000000 </v>
   </generation>
   <varray name="kpointlist" >
    <v>       0.25000000       0.25000000       0.25000000 </v>
    <v>      -0.25000000       0.25000000       0.25000000 </v>
   </varray>
   <varray name="weights" >
    <v>       0.50000000 </v>
    <v>       0.50000000 </v>
   </varray>
  </kpoints>
  <time name="totalsc">  861.84  315.27</time>
 </calculation>
 <calculation>
  <scstep>
   <time name="diag">    4.64    2.94</time>
   <time name="diis">   41.26   12.12</time>
   <time name="orth">    0.33    0.08</time>
   <time name="total">   50.03   18.70</time>
   <energy>
    <i name="alphaZ">     -6.10292531 </i>
    <i name="ewald">  -2233.44181318 </i>
    <i name="hartreedc">    -17.31468278 </i>
    <i name="XCdc">   -811.44878807 </i>
    <i name="pawpsdc">   1107.91675320 </i>
    <i name="pawaedc">   -117.77220585 </i>
    <i name="eentropy">     -0.07528322 </i>
    <i name="bandstr">    304.55683171 </i>
    <i name="atom">   1659.66634407 </i>
    <i name="e_fr_energy">   -114.01576943 </i>
    <i name="e_wo_entrp">   -113.94048621 </i>
    <i name="e_0_energy">   -113.99067502 </i>
   </energy>
  </scstep>
  <scstep>
   <time name="diag">    4.64    2.95</time>
   <time name="diis">   42.97   12.44</time>
   <time name="orth">    0.33    0.08</time>
   <time name="total">   51.60   19.03</time>
   <energy>
    <i name="e_fr_energy">   -114.01573859 </i>
    <i name="e_wo_entrp">   -113.94043687 </i>
    <i name="e_0_energy">   -113.99063802 </i>
   </energy>
  </scstep>
  <scstep>
   <time name="diag">    4.64    2.95</time>
   <time name="diis">   42.04   12.24</time>
   <time name="orth">    0.33    0.08</time>
   <time name="total">   50.68   18.84</time>
   <energy>
    <i name="e_fr_energy">   -114.01573129 </i>
    <i name="e_wo_entrp">   -113.94043327 </i>
    <i name="e_0_energy">   -113.99063195 </i>
   </energy>
  </scstep>
  <scstep>
   <time name="diag">    4.65    2.95</time>
   <time name="diis">   33.46    9.74</time>
   <time name="orth">    0.33    0.08</time>
   <time name="total">   40.37   14.65</time>
   <energy>
    <i name="alphaZ">     -6.10292531 </i>
    <i name="ewald">  -2233.44181318 </i>
    <i name="hartreedc">    -17.31505765 </i>
    <i name="XCdc">   -811.44882463 </i>
    <i name="pawpsdc">   1107.91330541 </i>
    <i name="pawaedc">   -117.76871165 </i>
    <i name="eentropy">     -0.07530134 </i>
    <i name="bandstr">    304.55725251 </i>
    <i name="atom">   1659.66634407 </i>
    <i name="e_fr_energy">   -114.01573175 </i>
    <i name="e_wo_entrp">   -113.94043042 </i>
    <i name="e_0_energy">   -113.99063131 </i>
   </energy>
  </scstep>
  <structure>
   <crystal>
    <varray name="basis" >
     <v>       8.08705400       0.00000000       0.00000000 </v>
     <v>       0.00000000       8.08705400       0.00000000 </v>
     <v>       0.00000000       0.00000000       8.08705400 </v>
    </varray>
    <i name="volume">    528.89690930 </i>
    <varray name="rec_basis" >
     <v>       0.12365442       0.00000000       0.00000000 </v>
     <v>       0.00000000       0.12365442       0.00000000 </v>
     <v>       0.00000000       0.00000000       0.12365442 </v>
    </varray>
   </crystal>
   <varray name="positions" >
    <v>       0.37685482       0.50000000       0.37500000 </v>
    <v>       0.99970200       0.00000000       0.99970200 </v>
    <v>       0.24846500       0.00000000       0.24846500 </v>
    <v>       0.24812200       0.25335500       0.00238100 </v>
    <v>       0.00238100       0.25335500       0.24812200 </v>
    <v>       0.50052700       0.00000000       0.99307700 </v>
    <v>       0.75692300       0.00000000       0.24947300 </v>
    <v>       0.75133900       0.25081000       0.99866100 </v>
    <v>       0.50655600       0.23697100       0.24344400 </v>
    <v>       0.00091800       0.50000000       0.00091800 </v>
    <v>       0.24812200       0.74664500       0.00238100 </v>
    <v>       0.00238100       0.74664500       0.24812200 </v>
    <v>       0.49482700       0.50000000       0.00541200 </v>
    <v>       0.74460000       0.50000000       0.25516700 </v>
    <v>       0.75133900       0.74919000       0.99866100 </v>
    <v>       0.50655600       0.76302900       0.24344400 </v>
    <v>       0.99307700       0.00000000       0.50052700 </v>
    <v>       0.24947300       0.00000000       0.75692300 </v>
    <v>       0.24344400       0.23697100       0.50655600 </v>
    <v>       0.99866100       0.25081000       0.75133900 </v>
    <v>       0.50153400       0.00000000       0.50153400 </v>
    <v>       0.75030200       0.00000000       0.75030200 </v>
    <v>       0.74762400       0.25335400       0.50187700 </v>
    <v>       0.50187700       0.25335400       0.74762400 </v>
    <v>       0.00541200       0.50000000       0.49482700 </v>
    <v>       0.25516700       0.50000000       0.74460000 </v>
    <v>       0.24344400       0.76302900       0.50655600 </v>
    <v>       0.99866100       0.74919000       0.75133900 </v>
    <v>       0.74908800       0.50000000       0.74908800 </v>
    <v>       0.74762400       0.74664600       0.50187700 </v>
    <v>       0.50187700       0.74664600       0.74762400 </v>
   </varray>
  </structure>
  <varray name="forces" >
   <v>      -0.02023332       0.00000000       0.03824747 </v>
   <v>       0.00609017       0.00000000       0.00451229 </v>
   <v>      -0.00685391       0.00000000      -0.01038928 </v>
   <v>      -0.00373592       0.05032332       0.03971320 </v>
   <v>       0.03848468       0.05187724      -0.00181145 </v>
   <v>       0.02585469       0.00000000      -0.04132609 </v>
   <v>       0.04049807       0.00000000      -0.02671163 </v>
   <v>      -0.02034572       0.03998876       0.02110482 </v>
   <v>       0.02505351      -0.07224433      -0.02752878 </v>
   <v>       0.00016694       0.00000000      -0.00221593 </v>
   <v>      -0.00373592      -0.05032332       0.03971320 </v>
   <v>       0.03848468      -0.05187724      -0.00181145 </v>
   <v>       0.00430051       0.00000000       0.02142343 </v>
   <v>      -0.02325465       0.00000000      -0.00486084 </v>
   <v>      -0.02034572      -0.03998876       0.02110482 </v>
   <v>       0.02505351       0.07224433      -0.02752878 </v>
   <v>      -0.03780419       0.00000000       0.02875106 </v>
   <v>      -0.02955874       0.00000000       0.03693092 </v>
   <v>      -0.01488374      -0.03660072       0.01274321 </v>
   <v>       0.02085632       0.03797357      -0.02012448 </v>
   <v>       0.01118625       0.00000000       0.00776964 </v>
   <v>      -0.00499443       0.00000000      -0.00658729 </v>
   <v>      -0.04126921       0.05083067       0.00430209 </v>
   <v>       0.00232196       0.05230882      -0.04009996 </v>
   <v>       0.02129170       0.00000000       0.00145355 </v>
   <v>      -0.00190635       0.00000000      -0.02345750 </v>
   <v>      -0.01488374       0.03660072       0.01274321 </v>
   <v>       0.02085632      -0.03797357      -0.02012448 </v>
   <v>       0.00225353       0.00000000      -0.00013706 </v>
   <v>      -0.04126921      -0.05083067       0.00430209 </v>
   <v>       0.00232196      -0.05230882      -0.04009996 </v>
  </varray>
  <varray name="stress" >
   <v>      -4.49931857       0.00000000      -3.74444231 </v>
   <v>       0.00000000       5.37315046       0.00000000 </v>
   <v>      -3.74441349       0.00000000      -4.49763622 </v>
  </varray>
  <energy>
   <i name="e_fr_energy">   -114.01573175 </i>
   <i name="e_wo_entrp">   -113.99063131 </i>
   <i name="e_0_energy">     -0.07530134 </i>
  </energy>
  <kpoints>
   <generation param="Monkhorst-Pack">
    <v type="int" name="divisions">       2        2        2 </v>
    <v name="usershift">      0.00000000       0.00000000       0.00000000 </v>
    <v name="genvec1">      0.50000000       0.00000000       0.00000000 </v>
    <v name="genvec2">      0.00000000       0.50000000       0.00000000 </v>
    <v name="genvec3">      0.00000000       0.00000000       0.50000000 </v>
    <v name="shift">      0.50000000       0.50000000       0.50000000 </v>
   </generation>
   <varray name="kpointlist" >
    <v>       0.25000000       0.25000000       0.25000000 </v>
    <v>      -0.25000000       0.25000000       0.25000000 </v>
   </varray>
   <varray name="weights" >
    <v>       0.50000000 </v>
    <v>       0.50000000 </v>
   </varray>
  </kpoints>
  <time name="totalsc">  250.38   97.08</time>
 </calculation>
 <calculation>
  <scstep>
   <time name="diag">    4.64    2.94</time>
   <time name="diis">   41.65   12.18</time>
   <time name="orth">    0.33    0.08</time>
   <time name="total">   50.35   18.74</time>
   <energy>
    <i name="alphaZ">     -6.10292531 </i>
    <i name="ewald">  -2233.44176556 </i>
    <i name="hartreedc">    -17.31433537 </i>
    <i name="XCdc">   -811.44879491 </i>
    <i name="pawpsdc">   1107.91282423 </i>
    <i name="pawaedc">   -117.76822367 </i>
    <i name="eentropy">     -0.07525008 </i>
    <i name="bandstr">    304.55623300 </i>
    <i name="atom">   1659.66634407 </i>
    <i name="e_fr_energy">   -114.01589358 </i>
    <i name="e_wo_entrp">   -113.94064350 </i>
    <i name="e_0_energy">   -113.99081022 </i>
   </energy>
  </scstep>
  <scstep>
   <time name="diag">    4.65    2.95</time>
   <time name="diis">   42.95   12.49</time>
   <time name="orth">    0.33    0.08</time>
   <time name="total">   51.58   19.09</time>
   <energy>
    <i name="e_fr_energy">   -114.01576079 </i>
    <i name="e_wo_entrp">   -113.94044308 </i>
    <i name="e_0_energy">   -113.99065488 </i>
   </energy>
  </scstep>
  <scstep>
   <time name="diag">    4.73    3.02</time>
   <time name="diis">   42.30   12.30</time>
   <time name="orth">    0.33    0.08</time>
   <time name="total">   51.03   18.96</time>
   <energy>
    <i name="e_fr_energy">   -114.01572975 </i>
    <i name="e_wo_entrp">   -113.94044234 </i>
    <i name="e_0_energy">   -113.99063395 </i>
   </energy>
  </scstep>
  <scstep>
   <time name="diag">    4.65    2.95</time>
   <time name="diis">   44.08   12.66</time>
   <time name="orth">    0.33    0.08</time>
   <time name="total">   52.86   19.32</time>
   <energy>
    <i name="e_fr_energy">   -114.01573164 </i>
    <i name="e_wo_entrp">   -113.94042960 </i>
    <i name="e_0_energy">   -113.99063096 </i>
   </energy>
  </scstep>
  <scstep>
   <time name="diag">    4.64    2.95</time>
   <time name="diis">   27.52    8.31</time>
   <time name="orth">    0.33    0.08</time>
   <time name="total">   34.57   13.30</time>
   <energy>
    <i name="alphaZ">     -6.10292531 </i>
    <i name="ewald">  -2233.44176556 </i>
    <i name="hartreedc">    -17.31506323 </i>
    <i name="XCdc">   -811.44883203 </i>
    <i name="pawpsdc">   1107.91258644 </i>
    <i name="pawaedc">   -117.76798463 </i>
    <i name="eentropy">     -0.07529834 </i>
    <i name="bandstr">    304.55720599 </i>
    <i name="atom">   1659.66634407 </i>
    <i name="e_fr_energy">   -114.01573259 </i>
    <i name="e_wo_entrp">   -113.94043425 </i>
    <i name="e_0_energy">   -113.99063314 </i>
   </energy>
  </scstep>
  <structure>
   <crystal>
    <varray name="basis" >
     <v>       8.08705400       0.00000000       0.00000000 </v>
     <v>       0.00000000       8.08705400       0.00000000 </v>
     <v>       0.00000000       0.00000000       8.08705400 </v>
    </varray>
    <i name="volume">    528.89690930 </i>
    <varray name="rec_basis" >
     <v>       0.12365442       0.00000000       0.00000000 </v>
     <v>       0.00000000       0.12365442       0.00000000 </v>
     <v>       0.00000000       0.00000000       0.12365442 </v>
    </varray>
   </crystal>
   <varray name="positions" >
    <v>       0.37314518       0.50000000       0.37500000 </v>
    <v>       0.99970200       0.00000000       0.99970200 </v>
    <v>       0.24846500       0.00000000       0.24846500 </v>
    <v>       0.24812200       0.25335500       0.00238100 </v>
    <v>       0.00238100       0.25335500       0.24812200 </v>
    <v>       0.50052700       0.00000000       0.99307700 </v>
    <v>       0.75692300       0.00000000       0.24947300 </v>
    <v>       0.75133900       0.25081000       0.99866100 </v>
    <v>       0.50655600       0.23697100       0.24344400 </v>
    <v>       0.00091800       0.50000000       0.00091800 </v>
    <v>       0.24812200       0.74664500       0.00238100 </v>
    <v>       0.00238100       0.74664500       0.24812200 </v>
    <v>       0.49482700       0.50000000       0.00541200 </v>
    <v>       0.74460000       0.50000000       0.25516700 </v>
    <v>       0.75133900       0.74919000       0.99866100 </v>
    <v>       0.50655600       0.76302900       0.24344400 </v>
    <v>       0.99307700       0.00000000       0.50052700 </v>
    <v>       0.24947300       0.00000000       0.75692300 </v>
    <v>       0.24344400       0.23697100       0.50655600 </v>
    <v>       0.99866100       0.25081000       0.75133900 </v>
    <v>       0.50153400       0.00000000       0.50153400 </v>
    <v>       0.75030200       0.00000000       0.75030200 </v>
    <v>       0.74762400       0.25335400       0.50187700 </v>
    <v>       0.50187700       0.25335400       0.74762400 </v>
    <v>       0.00541200       0.50000000       0.49482700 </v>
    <v>       0.25516700       0.50000000       0.74460000 </v>
    <v>       0.24344400       0.76302900       0.50655600 </v>
    <v>       0.99866100       0.74919000       0.75133900 </v>
    <v>       0.74908800       0.50000000       0.74908800 </v>
    <v>       0.74762400       0.74664600       0.50187700 </v>
    <v>       0.50187700       0.74664600       0.74762400 </v>
   </varray>
  </structure>
  <varray name="forces" >
   <v>       0.02059739       0.00000000      -0.03849376 </v>
   <v>       0.00491119       0.00000000       0.00642713 </v>
   <v>      -0.01107318       0.00000000      -0.00768759 </v>
   <v>      -0.00224284       0.05218799       0.03998117 </v>
   <v>       0.04110716       0.05074729      -0.00422777 </v>
   <v>       0.02952850       0.00000000      -0.03697313 </v>
   <v>       0.03783874       0.00000000      -0.02870074 </v>
   <v>      -0.02083519       0.03803666       0.02012381 </v>
   <v>       0.01496075      -0.03642109      -0.01257392 </v>
   <v>      -0.00246519       0.00000000       0.00003356 </v>
   <v>      -0.00224284      -0.05218799       0.03998117 </v>
   <v>       0.04110716      -0.05074729      -0.00422777 </v>
   <v>       0.00213267       0.00000000       0.02338001 </v>
   <v>      -0.02154464       0.00000000      -0.00132884 </v>
   <v>      -0.02083519      -0.03803666       0.02012381 </v>
   <v>       0.01496075       0.03642109      -0.01257392 </v>
   <v>      -0.04044611       0.00000000       0.02675045 </v>
   <v>      -0.02587156       0.00000000       0.04128246 </v>
   <v>      -0.02498991      -0.07246327       0.02770466 </v>
   <v>       0.02036810       0.03993380      -0.02110172 </v>
   <v>       0.00696206       0.00000000       0.01045769 </v>
   <v>      -0.00618111       0.00000000      -0.00468499 </v>
   <v>      -0.03863917       0.05195588       0.00187917 </v>
   <v>       0.00381143       0.05043689      -0.03982566 </v>
   <v>       0.02297318       0.00000000       0.00498354 </v>
   <v>      -0.00407394       0.00000000      -0.02148055 </v>
   <v>      -0.02498991       0.07246327       0.02770466 </v>
   <v>       0.02036810      -0.03993380      -0.02110172 </v>
   <v>      -0.00036869       0.00000000       0.00211531 </v>
   <v>      -0.03863917      -0.05195588       0.00187917 </v>
   <v>       0.00381143      -0.05043689      -0.03982566 </v>
  </varray>
  <varray name="stress" >
   <v>      -4.49972879       0.00000000      -3.74433623 </v>
   <v>       0.00000000       5.37364209       0.00000000 </v>
   <v>      -3.74433332       0.00000000      -4.49800456 </v>
  </varray>
  <energy>
   <i name="e_fr_energy">   -114.01573259 </i>
   <i name="e_wo_entrp">   -113.99063314 </i>
   <i name="e_0_energy">     -0.07529834 </i>
  </energy>
  <kpoints>
   <generation param="Monkhorst-Pack">
    <v type="int" name="divisions">       2        2        2 </v>
    <v name="usershift">      0.00000000       0.00000000       0.00000000 </v>
    <v name="genvec1">      0.50000000       0.00000000       0.00000000 </v>
    <v name="genvec2">      0.00000000       0.50000000       0.00000000 </v>
    <v name="genvec3">      0.00000000       0.00000000       0.50000000 </v>
    <v name="shift">      0.50000000       0.50000000       0.50000000 </v>
   </generation>
   <varray name="kpointlist" >
    <v>       0.25000000       0.25000000       0.25000000 </v>
    <v>      -0.25000000       0.25000000       0.25000000 </v>
    <v>       0.25000000      -0.25000000       0.25000000 </v>
   </varray>
   <varray name="weights" >
    <v>       0.25000000 </v>
    <v>       0.50000000 </v>
    <v>       0.25000000 </v>
   </varray>
  </kpoints>
  <time name="totalsc">  300.21  115.88</time>
 </calculation>
 <calculation>
  <scstep>
   <time name="diag">    7.04    4.42</time>
   <time name="diis">   61.63   18.13</time>
   <time name="orth">    0.49    0.12</time>
   <time name="total">   73.61   26.93</time>
   <energy>
    <i name="alphaZ">     -6.10292531 </i>
    <i name="ewald">  -2233.43928606 </i>
    <i name="hartreedc">    -17.31547943 </i>
    <i name="XCdc">   -811.44888361 </i>
    <i name="pawpsdc">   1107.91265674 </i>
    <i name="pawaedc">   -117.76805430 </i>
    <i name="eentropy">     -0.07525887 </i>
    <i name="bandstr">    304.55586685 </i>
    <i name="atom">   1659.66634407 </i>
    <i name="e_fr_energy">   -114.01501991 </i>
    <i name="e_wo_entrp">   -113.93976105 </i>
    <i name="e_0_energy">   -113.98993362 </i>
   </energy>
  </scstep>
  <scstep>
   <time name="diag">    7.05    4.42</time>
   <time name="diis">   63.86   18.62</time>
   <time name="orth">    0.49    0.12</time>
   <time name="total">   75.87   27.54</time>
   <energy>
    <i name="e_fr_energy">   -114.01488345 </i>
    <i name="e_wo_entrp">   -113.93957703 </i>
    <i name="e_0_energy">   -113.98978131 </i>
   </energy>
  </scstep>
  <scstep>
   <time name="diag">    7.05    4.42</time>
   <time name="diis">   63.54   18.57</time>
   <time name="orth">    0.49    0.12</time>
   <time name="total">   75.47   27.41</time>
   <energy>
    <i name="e_fr_energy">   -114.01484051 </i>
    <i name="e_wo_entrp">   -113.93954377 </i>
    <i name="e_0_energy">   -113.98974160 </i>
   </energy>
  </scstep>
  <scstep>
   <time name="diag">    7.14    4.50</time>
   <time name="diis">   63.79   18.46</time>
   <time name="orth">    0.49    0.12</time>
   <time name="total">   75.90   27.39</time>
   <energy>
    <i name="e_fr_energy">   -114.01482953 </i>
    <i name="e_wo_entrp">   -113.93952592 </i>
    <i name="e_0_energy">   -113.98972833 </i>
   </energy>
  </scstep>
  <scstep>
   <time name="diag">    7.13    4.50</time>
   <time name="diis">   57.19   16.56</time>
   <time name="orth">    0.49    0.12</time>
   <time name="total">   69.35   25.47</time>
   <energy>
    <i name="e_fr_energy">   -114.01482483 </i>
    <i name="e_wo_entrp">   -113.93952512 </i>
    <i name="e_0_energy">   -113.98972493 </i>
   </energy>
  </scstep>
  <scstep>
   <time name="diag">    7.04    4.42</time>
   <time name="diis">   43.50   13.16</time>
   <time name="orth">    0.49    0.12</time>
   <time name="total">   55.60   22.00</time>
   <energy>
    <i name="e_fr_energy">   -114.01482339 </i>
    <i name="e_wo_entrp">   -113.93952266 </i>
    <i name="e_0_energy">   -113.98972315 </i>
   </energy>
  </scstep>
  <scstep>
   <time name="diag">    7.05    4.42</time>
   <time name="diis">   36.78   11.25</time>
   <time name="orth">    0.49    0.12</time>
   <time name="total">   46.33   17.67</time>
   <energy>
    <i name="alphaZ">     -6.10292531 </i>
    <i name="ewald">  -2233.43928606 </i>
    <i name="hartreedc">    -17.31629712 </i>
    <i name="XCdc">   -811.44878206 </i>
    <i name="pawpsdc">   1107.91387304 </i>
    <i name="pawaedc">   -117.76932660 </i>
    <i name="eentropy">     -0.07530081 </i>
    <i name="bandstr">    304.55687820 </i>
    <i name="atom">   1659.66634407 </i>
    <i name="e_fr_energy">   -114.01482265 </i>
    <i name="e_wo_entrp">   -113.93952184 </i>
    <i name="e_0_energy">   -113.98972238 </i>
   </energy>
  </scstep>
  <structure>
   <crystal>
    <varray name="basis" >
     <v>       8.08705400       0.00000000       0.00000000 </v>
     <v>       0.00000000       8.08705400       0.00000000 </v>
     <v>       0.00000000       0.00000000       8.08705400 </v>
    </varray>
    <i name="volume">    528.89690930 </i>
    <varray name="rec_basis" >
     <v>       0.12365442       0.00000000       0.00000000 </v>
     <v>       0.00000000       0.12365442       0.00000000 </v>
     <v>       0.00000000       0.00000000       0.12365442 </v>
    </varray>
   </crystal>
   <varray name="positions" >
    <v>       0.37500000       0.50185482       0.37500000 </v>
    <v>       0.99970200       0.00000000       0.99970200 </v>
    <v>       0.24846500       0.00000000       0.24846500 </v>
    <v>       0.24812200       0.25335500       0.00238100 </v>
    <v>       0.00238100       0.25335500       0.24812200 </v>
    <v>       0.50052700       0.00000000       0.99307700 </v>
    <v>       0.75692300       0.00000000       0.24947300 </v>
    <v>       0.75133900       0.25081000       0.99866100 </v>
    <v>       0.50655600       0.23697100       0.24344400 </v>
    <v>       0.00091800       0.50000000       0.00091800 </v>
    <v>       0.24812200       0.74664500       0.00238100 </v>
    <v>       0.00238100       0.74664500       0.24812200 </v>
    <v>       0.49482700       0.50000000       0.00541200 </v>
    <v>       0.74460000       0.50000000       0.25516700 </v>
    <v>       0.75133900       0.74919000       0.99866100 </v>
    <v>       0.50655600       0.76302900       0.24344400 </v>
    <v>       0.99307700       0.00000000       0.50052700 </v>
    <v>       0.24947300       0.00000000       0.75692300 </v>
    <v>       0.24344400       0.23697100       0.50655600 </v>
    <v>       0.99866100       0.25081000       0.75133900 </v>
    <v>       0.50153400       0.00000000       0.50153400 </v>
    <v>       0.75030200       0.00000000       0.75030200 </v>
    <v>       0.74762400       0.25335400       0.50187700 </v>
    <v>       0.50187700       0.25335400       0.74762400 </v>
    <v>       0.00541200       0.50000000       0.49482700 </v>
    <v>       0.25516700       0.50000000       0.74460000 </v>
    <v>       0.24344400       0.76302900       0.50655600 </v>
    <v>       0.99866100       0.74919000       0.75133900 </v>
    <v>       0.74908800       0.50000000       0.74908800 </v>
    <v>       0.74762400       0.74664600       0.50187700 </v>
    <v>       0.50187700       0.74664600       0.74762400 </v>
   </varray>
  </structure>
  <varray name="forces" >
   <v>      -0.00003808      -0.14156812      -0.00003808 </v>
   <v>       0.00549419      -0.00019168       0.00549419 </v>
   <v>      -0.00903504       0.00239665      -0.00903504 </v>
   <v>      -0.00456316       0.05310594       0.03943521 </v>
   <v>       0.03943521       0.05310594      -0.00456316 </v>
   <v>       0.02772721      -0.00190252      -0.03912756 </v>
   <v>       0.03913218      -0.00190599      -0.02770282 </v>
   <v>      -0.02102577       0.04028563       0.02104172 </v>
   <v>       0.00225954      -0.01903877      -0.00217828 </v>
   <v>      -0.00108345      -0.00494451      -0.00108345 </v>
   <v>      -0.00149155      -0.04946335       0.04025383 </v>
   <v>       0.04025383      -0.04946335      -0.00149155 </v>
   <v>       0.00323490      -0.00225658       0.02239323 </v>
   <v>      -0.02251366      -0.00225800      -0.00307632 </v>
   <v>      -0.02019992      -0.03770921       0.02021848 </v>
   <v>       0.03890659       0.09101963      -0.03882543 </v>
   <v>      -0.03912756      -0.00190252       0.02772721 </v>
   <v>      -0.02770282      -0.00190599       0.03913218 </v>
   <v>      -0.00217828      -0.01903877       0.00225954 </v>
   <v>       0.02104172       0.04028563      -0.02102577 </v>
   <v>       0.00913557       0.00239717       0.00913557 </v>
   <v>      -0.00560951      -0.00018700      -0.00560951 </v>
   <v>      -0.03955008       0.05319191       0.00464535 </v>
   <v>       0.00464535       0.05319191      -0.03955008 </v>
   <v>       0.02239323      -0.00225658       0.00323490 </v>
   <v>      -0.00307632      -0.00225800      -0.02251366 </v>
   <v>      -0.03882543       0.09101963       0.03890659 </v>
   <v>       0.02021848      -0.03770921      -0.02019992 </v>
   <v>       0.00093757      -0.00494710       0.00093757 </v>
   <v>      -0.04036577      -0.04954639       0.00157082 </v>
   <v>       0.00157082      -0.04954639      -0.04036577 </v>
  </varray>
  <varray name="stress" >
   <v>      -4.49297889       0.00007119      -3.75668261 </v>
   <v>       0.00008925       5.38231941       0.00008925 </v>
   <v>      -3.75668261       0.00007119      -4.49297889 </v>
  </varray>
  <energy>
   <i name="e_fr_energy">   -114.01482265 </i>
   <i name="e_wo_entrp">   -113.98972238 </i>
   <i name="e_0_energy">     -0.07530081 </i>
  </energy>
  <kpoints>
   <generation param="Monkhorst-Pack">
    <v type="int" name="divisions">       2        2        2 </v>
    <v name="usershift">      0.00000000       0.00000000       0.00000000 </v>
    <v name="genvec1">      0.50000000       0.00000000       0.00000000 </v>
    <v name="genvec2">      0.00000000       0.50000000       0.00000000 </v>
    <v name="genvec3">      0.00000000       0.00000000       0.50000000 </v>
    <v name="shift">      0.50000000       0.50000000       0.50000000 </v>
   </generation>
   <varray name="kpointlist" >
    <v>       0.25000000       0.25000000       0.25000000 </v>
    <v>      -0.25000000       0.25000000       0.25000000 </v>
    <v>       0.25000000      -0.25000000       0.25000000 </v>
   </varray>
   <varray name="weights" >
    <v>       0.25000000 </v>
    <v>       0.50000000 </v>
    <v>       0.25000000 </v>
   </varray>
  </kpoints>
  <time name="totalsc">  552.99  208.74</time>
 </calculation>
 <calculation>
  <scstep>
   <time name="diag">    7.05    4.43</time>
   <time name="diis">   61.25   18.06</time>
   <time name="orth">    0.49    0.12</time>
   <time name="total">   73.24   26.87</time>
   <energy>
    <i name="alphaZ">     -6.10292531 </i>
    <i name="ewald">  -2233.43928606 </i>
    <i name="hartreedc">    -17.31495051 </i>
    <i name="XCdc">   -811.44897006 </i>
    <i name="pawpsdc">   1107.91387818 </i>
    <i name="pawaedc">   -117.76933174 </i>
    <i name="eentropy">     -0.07519568 </i>
    <i name="bandstr">    304.55492284 </i>
    <i name="atom">   1659.66634407 </i>
    <i name="e_fr_energy">   -114.01551426 </i>
    <i name="e_wo_entrp">   -113.94031858 </i>
    <i name="e_0_energy">   -113.99044904 </i>
   </energy>
  </scstep>
  <scstep>
   <time name="diag">    7.04    4.42</time>
   <time name="diis">   63.04   18.41</time>
   <time name="orth">    0.49    0.12</time>
   <time name="total">   75.04   27.32</time>
   <energy>
    <i name="e_fr_energy">   -114.01489606 </i>
    <i name="e_wo_entrp">   -113.93959717 </i>
    <i name="e_0_energy">   -113.98979643 </i>
   </energy>
  </scstep>
  <scstep>
   <time name="diag">    7.04    4.42</time>
   <time name="diis">   62.67   18.35</time>
   <time name="orth">    0.49    0.12</time>
   <time name="total">   74.68   27.26</time>
   <energy>
    <i name="e_fr_energy">   -114.01482591 </i>
    <i name="e_wo_entrp">   -113.93953202 </i>
    <i name="e_0_energy">   -113.98972794 </i>
   </energy>
  </scstep>
  <scstep>
   <time name="diag">    7.05    4.43</time>
   <time name="diis">   64.20   18.61</time>
   <time name="orth">    0.49    0.12</time>
   <time name="total">   76.36   27.61</time>
   <energy>
    <i name="e_fr_energy">   -114.01482239 </i>
    <i name="e_wo_entrp">   -113.93952062 </i>
    <i name="e_0_energy">   -113.98972180 </i>
   </energy>
  </scstep>
  <scstep>
   <time name="diag">    7.03    4.42</time>
   <time name="diis">   47.56   14.18</time>
   <time name="orth">    0.49    0.12</time>
   <time name="total">   57.07   20.59</time>
   <energy>
    <i name="alphaZ">     -6.10292531 </i>
    <i name="ewald">  -2233.43928606 </i>
    <i name="hartreedc">    -17.31626737 </i>
    <i name="XCdc">   -811.44878479 </i>
    <i name="pawpsdc">   1107.91378393 </i>
    <i name="pawaedc">   -117.76923776 </i>
    <i name="eentropy">     -0.07529898 </i>
    <i name="bandstr">    304.55684982 </i>
    <i name="atom">   1659.66634407 </i>
    <i name="e_fr_energy">   -114.01482245 </i>
    <i name="e_wo_entrp">   -113.93952347 </i>
    <i name="e_0_energy">   -113.98972279 </i>
   </energy>
  </scstep>
  <structure>
   <crystal>
    <varray name="basis" >
     <v>       8.08705400       0.00000000       0.00000000 </v>
     <v>       0.00000000       8.08705400       0.00000000 </v>
     <v>       0.00000000       0.00000000       8.08705400 </v>
    </varray>
    <i name="volume">    528.89690930 </i>
    <varray name="rec_basis" >
     <v>       0.12365442       0.00000000       0.00000000 </v>
     <v>       0.00000000       0.12365442       0.00000000 </v>
     <v>       0.00000000       0.00000000       0.12365442 </v>
    </varray>
   </crystal>
   <varray name="positions" >
    <v>       0.37500000       0.49814518       0.37500000 </v>
    <v>       0.99970200       0.00000000       0.99970200 </v>
    <v>       0.24846500       0.00000000       0.24846500 </v>
    <v>       0.24812200       0.25335500       0.00238100 </v>
    <v>       0.00238100       0.25335500       0.24812200 </v>
    <v>       0.50052700       0.00000000       0.99307700 </v>
    <v>       0.75692300       0.00000000       0.24947300 </v>
    <v>       0.75133900       0.25081000       0.99866100 </v>
    <v>       0.50655600       0.23697100       0.24344400 </v>
    <v>       0.00091800       0.50000000       0.00091800 </v>
    <v>       0.24812200       0.74664500       0.00238100 </v>
    <v>       0.00238100       0.74664500       0.24812200 </v>
    <v>       0.49482700       0.50000000       0.00541200 </v>
    <v>       0.74460000       0.50000000       0.25516700 </v>
    <v>       0.75133900       0.74919000       0.99866100 </v>
    <v>       0.50655600       0.76302900       0.24344400 </v>
    <v>       0.99307700       0.00000000       0.50052700 </v>
    <v>       0.24947300       0.00000000       0.75692300 </v>
    <v>       0.24344400       0.23697100       0.50655600 </v>
    <v>       0.99866100       0.25081000       0.75133900 </v>
    <v>       0.50153400       0.00000000       0.50153400 </v>
    <v>       0.75030200       0.00000000       0.75030200 </v>
    <v>       0.74762400       0.25335400       0.50187700 </v>
    <v>       0.50187700       0.25335400       0.74762400 </v>
    <v>       0.00541200       0.50000000       0.49482700 </v>
    <v>       0.25516700       0.50000000       0.74460000 </v>
    <v>       0.24344400       0.76302900       0.50655600 </v>
    <v>       0.99866100       0.74919000       0.75133900 </v>
    <v>       0.74908800       0.50000000       0.74908800 </v>
    <v>       0.74762400       0.74664600       0.50187700 </v>
    <v>       0.50187700       0.74664600       0.74762400 </v>
   </varray>
  </structure>
  <varray name="forces" >
   <v>      -0.00002200       0.14221404      -0.00002200 </v>
   <v>       0.00548864       0.00014566       0.00548864 </v>
   <v>      -0.00903533      -0.00243885      -0.00903533 </v>
   <v>      -0.00153286       0.04950257       0.04022120 </v>
   <v>       0.04022120       0.04950257      -0.00153286 </v>
   <v>       0.02772798       0.00189415      -0.03913088 </v>
   <v>       0.03913238       0.00189266      -0.02769693 </v>
   <v>      -0.02019434       0.03775118       0.02021152 </v>
   <v>       0.03906326      -0.09126263      -0.03898503 </v>
   <v>      -0.00109455       0.00487082      -0.00109455 </v>
   <v>      -0.00451724      -0.05306881       0.03945523 </v>
   <v>       0.03945523      -0.05306881      -0.00451724 </v>
   <v>       0.00323331       0.00229594       0.02238856 </v>
   <v>      -0.02250372       0.00229838      -0.00307797 </v>
   <v>      -0.02102323      -0.04024466       0.02104396 </v>
   <v>       0.00211800       0.01882665      -0.00204048 </v>
   <v>      -0.03913088       0.00189415       0.02772798 </v>
   <v>      -0.02769693       0.00189266       0.03913238 </v>
   <v>      -0.03898503      -0.09126263       0.03906326 </v>
   <v>       0.02021152       0.03775118      -0.02019434 </v>
   <v>       0.00913204      -0.00243715       0.00913204 </v>
   <v>      -0.00560703       0.00014956      -0.00560703 </v>
   <v>      -0.04033770       0.04958140       0.00161692 </v>
   <v>       0.00161692       0.04958140      -0.04033770 </v>
   <v>       0.02238856       0.00229594       0.00323331 </v>
   <v>      -0.00307797       0.00229838      -0.02250372 </v>
   <v>      -0.00204048       0.01882665       0.00211800 </v>
   <v>       0.02104396      -0.04024466      -0.02102323 </v>
   <v>       0.00093717       0.00486573       0.00093717 </v>
   <v>      -0.03956910      -0.05315171       0.00459820 </v>
   <v>       0.00459820      -0.05315171      -0.03956910 </v>
  </varray>
  <varray name="stress" >
   <v>      -4.49321202      -0.00002450      -3.75654022 </v>
   <v>      -0.00002880       5.38270460      -0.00002880 </v>
   <v>      -3.75654022      -0.00002450      -4.49321202 </v>
  </varray>
  <energy>
   <i name="e_fr_energy">   -114.01482245 </i>
   <i name="e_wo_entrp">   -113.98972279 </i>
   <i name="e_0_energy">     -0.07529898 </i>
  </energy>
  <kpoints>
   <generation param="Monkhorst-Pack">
    <v type="int" name="divisions">       2        2        2 </v>
    <v name="usershift">      0.00000000       0.00000000       0.00000000 </v>
    <v name="genvec1">      0.50000000       0.00000000       0.00000000 </v>
    <v name="genvec2">      0.00000000       0.50000000       0.00000000 </v>
    <v name="genvec3">      0.00000000       0.00000000       0.50000000 </v>
    <v name="shift">      0.50000000       0.50000000       0.50000000 </v>
   </generation>
   <varray name="kpointlist" >
    <v>       0.25000000       0.25000000       0.25000000 </v>
    <v>      -0.25000000       0.25000000       0.25000000 </v>
   </varray>
   <varray name="weights" >
    <v>       0.50000000 </v>
    <v>       0.50000000 </v>
   </varray>
  </kpoints>
  <time name="totalsc">  435.41  163.51</time>
 </calculation>
 <calculation>
  <scstep>
   <time name="diag">    4.64    2.95</time>
   <time name="diis">   41.65   12.18</time>
   <time name="orth">    0.32    0.08</time>
   <time name="total">   50.43   18.76</time>
   <energy>
    <i name="alphaZ">     -6.10292531 </i>
    <i name="ewald">  -2233.44181318 </i>
    <i name="hartreedc">    -17.31483998 </i>
    <i name="XCdc">   -811.44880829 </i>
    <i name="pawpsdc">   1107.91382178 </i>
    <i name="pawaedc">   -117.76927493 </i>
    <i name="eentropy">     -0.07528501 </i>
    <i name="bandstr">    304.55689190 </i>
    <i name="atom">   1659.66634407 </i>
    <i name="e_fr_energy">   -114.01588894 </i>
    <i name="e_wo_entrp">   -113.94060394 </i>
    <i name="e_0_energy">   -113.99079394 </i>
   </energy>
  </scstep>
  <scstep>
   <time name="diag">    4.65    2.95</time>
   <time name="diis">   42.23   12.33</time>
   <time name="orth">    0.33    0.08</time>
   <time name="total">   50.84   18.90</time>
   <energy>
    <i name="e_fr_energy">   -114.01583219 </i>
    <i name="e_wo_entrp">   -113.94051511 </i>
    <i name="e_0_energy">   -113.99072650 </i>
   </energy>
  </scstep>
  <scstep>
   <time name="diag">    4.65    2.95</time>
   <time name="diis">   41.70   12.22</time>
   <time name="orth">    0.33    0.08</time>
   <time name="total">   50.33   18.79</time>
   <energy>
    <i name="e_fr_energy">   -114.01575905 </i>
    <i name="e_wo_entrp">   -113.94046599 </i>
    <i name="e_0_energy">   -113.99066136 </i>
   </energy>
  </scstep>
  <scstep>
   <time name="diag">    4.62    2.94</time>
   <time name="diis">   41.94   12.21</time>
   <time name="orth">    0.32    0.08</time>
   <time name="total">   50.57   18.77</time>
   <energy>
    <i name="e_fr_energy">   -114.01573906 </i>
    <i name="e_wo_entrp">   -113.94043525 </i>
    <i name="e_0_energy">   -113.99063779 </i>
   </energy>
  </scstep>
  <scstep>
   <time name="diag">    4.62    2.94</time>
   <time name="diis">   39.67   11.43</time>
   <time name="orth">    0.33    0.08</time>
   <time name="total">   48.38   18.01</time>
   <energy>
    <i name="e_fr_energy">   -114.01573277 </i>
    <i name="e_wo_entrp">   -113.94043240 </i>
    <i name="e_0_energy">   -113.99063264 </i>
   </energy>
  </scstep>
  <scstep>
   <time name="diag">    4.62    2.93</time>
   <time name="diis">   35.89   10.39</time>
   <time name="orth">    0.32    0.08</time>
   <time name="total">   42.84   15.28</time>
   <energy>
    <i name="alphaZ">     -6.10292531 </i>
    <i name="ewald">  -2233.44181318 </i>
    <i name="hartreedc">    -17.31504177 </i>
    <i name="XCdc">   -811.44883215 </i>
    <i name="pawpsdc">   1107.91268470 </i>
    <i name="pawaedc">   -117.76808163 </i>
    <i name="eentropy">     -0.07530077 </i>
    <i name="bandstr">    304.55723426 </i>
    <i name="atom">   1659.66634407 </i>
    <i name="e_fr_energy">   -114.01573177 </i>
    <i name="e_wo_entrp">   -113.94043100 </i>
    <i name="e_0_energy">   -113.99063151 </i>
   </energy>
  </scstep>
  <structure>
   <crystal>
    <varray name="basis" >
     <v>       8.08705400       0.00000000       0.00000000 </v>
     <v>       0.00000000       8.08705400       0.00000000 </v>
     <v>       0.00000000       0.00000000       8.08705400 </v>
    </varray>
    <i name="volume">    528.89690930 </i>
    <varray name="rec_basis" >
     <v>       0.12365442       0.00000000       0.00000000 </v>
     <v>       0.00000000       0.12365442       0.00000000 </v>
     <v>       0.00000000       0.00000000       0.12365442 </v>
    </varray>
   </crystal>
   <varray name="positions" >
    <v>       0.37500000       0.50000000       0.37685482 </v>
    <v>       0.99970200       0.00000000       0.99970200 </v>
    <v>       0.24846500       0.00000000       0.24846500 </v>
    <v>       0.24812200       0.25335500       0.00238100 </v>
    <v>       0.00238100       0.25335500       0.24812200 </v>
    <v>       0.50052700       0.00000000       0.99307700 </v>
    <v>       0.75692300       0.00000000       0.24947300 </v>
    <v>       0.75133900       0.25081000       0.99866100 </v>
    <v>       0.50655600       0.23697100       0.24344400 </v>
    <v>       0.00091800       0.50000000       0.00091800 </v>
    <v>       0.24812200       0.74664500       0.00238100 </v>
    <v>       0.00238100       0.74664500       0.24812200 </v>
    <v>       0.49482700       0.50000000       0.00541200 </v>
    <v>       0.74460000       0.50000000       0.25516700 </v>
    <v>       0.75133900       0.74919000       0.99866100 </v>
    <v>       0.50655600       0.76302900       0.24344400 </v>
    <v>       0.99307700       0.00000000       0.50052700 </v>
    <v>       0.24947300       0.00000000       0.75692300 </v>
    <v>       0.24344400       0.23697100       0.50655600 </v>
    <v>       0.99866100       0.25081000       0.75133900 </v>
    <v>       0.50153400       0.00000000       0.50153400 </v>
    <v>       0.75030200       0.00000000       0.75030200 </v>
    <v>       0.74762400       0.25335400       0.50187700 </v>
    <v>       0.50187700       0.25335400       0.74762400 </v>
    <v>       0.00541200       0.50000000       0.49482700 </v>
    <v>       0.25516700       0.50000000       0.74460000 </v>
    <v>       0.24344400       0.76302900       0.50655600 </v>
    <v>       0.99866100       0.74919000       0.75133900 </v>
    <v>       0.74908800       0.50000000       0.74908800 </v>
    <v>       0.74762400       0.74664600       0.50187700 </v>
    <v>       0.50187700       0.74664600       0.74762400 </v>
   </varray>
  </structure>
  <varray name="forces" >
   <v>       0.03817709       0.00000000      -0.02038036 </v>
   <v>       0.00458427       0.00000000       0.00604649 </v>
   <v>      -0.01036300       0.00000000      -0.00687564 </v>
   <v>      -0.00181895       0.05191519       0.03851896 </v>
   <v>       0.03972149       0.05039029      -0.00374142 </v>
   <v>       0.02871308       0.00000000      -0.03781611 </v>
   <v>       0.03690474       0.00000000      -0.02945597 </v>
   <v>      -0.02011248       0.03804057       0.02084424 </v>
   <v>       0.01271275      -0.03654644      -0.01490094 </v>
   <v>      -0.00222077       0.00000000       0.00025661 </v>
   <v>      -0.00181895      -0.05191519       0.03851896 </v>
   <v>       0.03972149      -0.05039029      -0.00374142 </v>
   <v>       0.00148782       0.00000000       0.02137057 </v>
   <v>      -0.02344778       0.00000000      -0.00202338 </v>
   <v>      -0.02011248      -0.03804057       0.02084424 </v>
   <v>       0.01271275       0.03654644      -0.01490094 </v>
   <v>      -0.04134731       0.00000000       0.02595164 </v>
   <v>      -0.02674718       0.00000000       0.04047457 </v>
   <v>      -0.02756138      -0.07230717       0.02503242 </v>
   <v>       0.02111177       0.03992445      -0.02035352 </v>
   <v>       0.00780184       0.00000000       0.01116449 </v>
   <v>      -0.00651986       0.00000000      -0.00504375 </v>
   <v>      -0.04009481       0.05223292       0.00231306 </v>
   <v>       0.00429556       0.05079477      -0.04123208 </v>
   <v>       0.02142879       0.00000000       0.00418458 </v>
   <v>      -0.00481855       0.00000000      -0.02316728 </v>
   <v>      -0.02756138       0.07230717       0.02503242 </v>
   <v>       0.02111177      -0.03992445      -0.02035352 </v>
   <v>      -0.00014110       0.00000000       0.00235209 </v>
   <v>      -0.04009481      -0.05223292       0.00231306 </v>
   <v>       0.00429556      -0.05079477      -0.04123208 </v>
  </varray>
  <varray name="stress" >
   <v>      -4.49784818       0.00000000      -3.74436389 </v>
   <v>       0.00000000       5.37327374       0.00000000 </v>
   <v>      -3.74439094       0.00000000      -4.49955323 </v>
  </varray>
  <energy>
   <i name="e_fr_energy">   -114.01573177 </i>
   <i name="e_wo_entrp">   -113.99063151 </i>
   <i name="e_0_energy">     -0.07530077 </i>
  </energy>
  <kpoints>
   <generation param="Monkhorst-Pack">
    <v type="int" name="divisions">       2        2        2 </v>
    <v name="usershift">      0.00000000       0.00000000       0.00000000 </v>
    <v name="genvec1">      0.50000000       0.00000000       0.00000000 </v>
    <v name="genvec2">      0.00000000       0.50000000       0.00000000 </v>
    <v name="genvec3">      0.00000000       0.00000000       0.50000000 </v>
    <v name="shift">      0.50000000       0.50000000       0.50000000 </v>
   </generation>
   <varray name="kpointlist" >
    <v>       0.25000000       0.25000000       0.25000000 </v>
    <v>      -0.25000000       0.25000000       0.25000000 </v>
   </varray>
   <varray name="weights" >
    <v>       0.50000000 </v>
    <v>       0.50000000 </v>
   </varray>
  </kpoints>
  <time name="totalsc">  350.54  134.21</time>
 </calculation>
 <calculation>
  <scstep>
   <time name="diag">    4.62    2.94</time>
   <time name="diis">   41.39   12.10</time>
   <time name="orth">    0.33    0.08</time>
   <time name="total">   50.06   18.66</time>
   <energy>
    <i name="alphaZ">     -6.10292531 </i>
    <i name="ewald">  -2233.44176556 </i>
    <i name="hartreedc">    -17.31437097 </i>
    <i name="XCdc">   -811.44879713 </i>
    <i name="pawpsdc">   1107.91271869 </i>
    <i name="pawaedc">   -117.76811630 </i>
    <i name="eentropy">     -0.07525178 </i>
    <i name="bandstr">    304.55628014 </i>
    <i name="atom">   1659.66634407 </i>
    <i name="e_fr_energy">   -114.01588414 </i>
    <i name="e_wo_entrp">   -113.94063236 </i>
    <i name="e_0_energy">   -113.99080021 </i>
   </energy>
  </scstep>
  <scstep>
   <time name="diag">    4.62    2.94</time>
   <time name="diis">   42.54   12.36</time>
   <time name="orth">    0.33    0.08</time>
   <time name="total">   51.15   18.93</time>
   <energy>
    <i name="e_fr_energy">   -114.01575920 </i>
    <i name="e_wo_entrp">   -113.94044381 </i>
    <i name="e_0_energy">   -113.99065407 </i>
   </energy>
  </scstep>
  <scstep>
   <time name="diag">    4.61    2.94</time>
   <time name="diis">   42.57   12.32</time>
   <time name="orth">    0.33    0.08</time>
   <time name="total">   51.18   18.89</time>
   <energy>
    <i name="e_fr_energy">   -114.01573004 </i>
    <i name="e_wo_entrp">   -113.94044151 </i>
    <i name="e_0_energy">   -113.99063386 </i>
   </energy>
  </scstep>
  <scstep>
   <time name="diag">    4.62    2.94</time>
   <time name="diis">   43.90   12.65</time>
   <time name="orth">    0.33    0.08</time>
   <time name="total">   52.55   19.23</time>
   <energy>
    <i name="e_fr_energy">   -114.01573197 </i>
    <i name="e_wo_entrp">   -113.94042952 </i>
    <i name="e_0_energy">   -113.99063115 </i>
   </energy>
  </scstep>
  <scstep>
   <time name="diag">    4.63    2.95</time>
   <time name="diis">   28.51    8.60</time>
   <time name="orth">    0.33    0.08</time>
   <time name="total">   35.44   13.51</time>
   <energy>
    <i name="alphaZ">     -6.10292531 </i>
    <i name="ewald">  -2233.44176556 </i>
    <i name="hartreedc">    -17.31505666 </i>
    <i name="XCdc">   -811.44883226 </i>
    <i name="pawpsdc">   1107.91257690 </i>
    <i name="pawaedc">   -117.76797476 </i>
    <i name="eentropy">     -0.07529806 </i>
    <i name="bandstr">    304.55719881 </i>
    <i name="atom">   1659.66634407 </i>
    <i name="e_fr_energy">   -114.01573281 </i>
    <i name="e_wo_entrp">   -113.94043475 </i>
    <i name="e_0_energy">   -113.99063346 </i>
   </energy>
  </scstep>
  <structure>
   <crystal>
    <varray name="basis" >
     <v>       8.08705400       0.00000000       0.00000000 </v>
     <v>       0.00000000       8.08705400       0.00000000 </v>
     <v>       0.00000000       0.00000000       8.08705400 </v>
    </varray>
    <i name="volume">    528.89690930 </i>
    <varray name="rec_basis" >
     <v>       0.12365442       0.00000000       0.00000000 </v>
     <v>       0.00000000       0.12365442       0.00000000 </v>
     <v>       0.00000000       0.00000000       0.12365442 </v>
    </varray>
   </crystal>
   <varray name="positions" >
    <v>       0.37500000       0.50000000       0.37314518 </v>
    <v>       0.99970200       0.00000000       0.99970200 </v>
    <v>       0.24846500       0.00000000       0.24846500 </v>
    <v>       0.24812200       0.25335500       0.00238100 </v>
    <v>       0.00238100       0.25335500       0.24812200 </v>
    <v>       0.50052700       0.00000000       0.99307700 </v>
    <v>       0.75692300       0.00000000       0.24947300 </v>
    <v>       0.75133900       0.25081000       0.99866100 </v>
    <v>       0.50655600       0.23697100       0.24344400 </v>
    <v>       0.00091800       0.50000000       0.00091800 </v>
    <v>       0.24812200       0.74664500       0.00238100 </v>
    <v>       0.00238100       0.74664500       0.24812200 </v>
    <v>       0.49482700       0.50000000       0.00541200 </v>
    <v>       0.74460000       0.50000000       0.25516700 </v>
    <v>       0.75133900       0.74919000       0.99866100 </v>
    <v>       0.50655600       0.76302900       0.24344400 </v>
    <v>       0.99307700       0.00000000       0.50052700 </v>
    <v>       0.24947300       0.00000000       0.75692300 </v>
    <v>       0.24344400       0.23697100       0.50655600 </v>
    <v>       0.99866100       0.25081000       0.75133900 </v>
    <v>       0.50153400       0.00000000       0.50153400 </v>
    <v>       0.75030200       0.00000000       0.75030200 </v>
    <v>       0.74762400       0.25335400       0.50187700 </v>
    <v>       0.50187700       0.25335400       0.74762400 </v>
[...]
       <r>    8.4314   -0.0003 </r>
       <r>    9.0965    0.0000 </r>
       <r>    9.1922    0.0000 </r>
       <r>    9.2400    0.0000 </r>
       <r>    9.3405    0.0000 </r>
       <r>    9.3480    0.0000 </r>
       <r>    9.4593    0.0000 </r>
       <r>    9.9623    0.0000 </r>
       <r>    9.9873    0.0000 </r>
      </set>
      <set comment="kpoint 2">
       <r>   -2.9373    1.0000 </r>
       <r>   -1.9149    1.0000 </r>
       <r>   -1.7412    1.0000 </r>
       <r>   -1.7394    1.0000 </r>
       <r>   -0.7920    1.0000 </r>
       <r>   -0.6278    1.0000 </r>
       <r>   -0.5535    1.0000 </r>
       <r>    0.3055    1.0000 </r>
       <r>    0.4271    1.0000 </r>
       <r>    0.4770    1.0000 </r>
       <r>    0.5639    1.0000 </r>
       <r>    1.4130    1.0000 </r>
       <r>    1.4528    1.0000 </r>
       <r>    1.4561    1.0000 </r>
       <r>    1.5505    1.0000 </r>
       <r>    1.5630    1.0000 </r>
       <r>    1.8990    1.0000 </r>
       <r>    2.5439    1.0000 </r>
       <r>    2.6988    1.0000 </r>
       <r>    2.8386    1.0000 </r>
       <r>    3.5698    1.0000 </r>
       <r>    3.6033    1.0000 </r>
       <r>    3.6890    1.0000 </r>
       <r>    3.6954    1.0000 </r>
       <r>    3.7763    1.0000 </r>
       <r>    3.8736    1.0000 </r>
       <r>    4.5665    1.0000 </r>
       <r>    4.6498    1.0000 </r>
       <r>    4.6597    1.0000 </r>
       <r>    4.7079    1.0000 </r>
       <r>    4.7710    1.0000 </r>
       <r>    4.7887    1.0000 </r>
       <r>    4.9682    1.0000 </r>
       <r>    5.0113    1.0000 </r>
       <r>    5.1444    1.0000 </r>
       <r>    5.7222    1.0000 </r>
       <r>    5.9071    1.0000 </r>
       <r>    6.1526    1.0000 </r>
       <r>    6.7325    1.0000 </r>
       <r>    6.8041    1.0000 </r>
       <r>    6.8369    1.0000 </r>
       <r>    6.9098    1.0000 </r>
       <r>    6.9747    1.0000 </r>
       <r>    6.9964    1.0000 </r>
       <r>    7.0850    1.0000 </r>
       <r>    7.8111    0.7527 </r>
       <r>    7.8662    0.5337 </r>
       <r>    7.9636    0.1604 </r>
       <r>    8.0237    0.0246 </r>
       <r>    8.1239   -0.0354 </r>
       <r>    8.1527   -0.0320 </r>
       <r>    8.2278   -0.0157 </r>
       <r>    8.2334   -0.0146 </r>
       <r>    8.3024   -0.0049 </r>
       <r>    9.1312    0.0000 </r>
       <r>    9.1761    0.0000 </r>
       <r>    9.1872    0.0000 </r>
       <r>    9.3236    0.0000 </r>
       <r>    9.3567    0.0000 </r>
       <r>    9.5392    0.0000 </r>
       <r>    9.9377    0.0000 </r>
       <r>    9.9556    0.0000 </r>
      </set>
     </set>
    </set>
   </array>
  </eigenvalues>
  <separator name="orbital magnetization" >
   <v name="MAGDIPOLOUT">      0.00000000      0.00000000      0.00000000</v>
  </separator>
  <dos>
   <i name="efermi">      7.87417284 </i>
   <total>
    <array>
     <dimension dim="1">gridpoints</dimension>
     <dimension dim="2">spin</dimension>
     <field>energy</field>
     <field>total</field>
     <field>integrated</field>
     <set>
      <set comment="spin 1">
       <r>  -4.9373   0.0000   0.0000 </r>
       <r>  -4.8808   0.0000   0.0000 </r>
       <r>  -4.8244   0.0000   0.0000 </r>
       <r>  -4.7680   0.0000   0.0000 </r>
       <r>  -4.7116   0.0000   0.0000 </r>
       <r>  -4.6552   0.0000   0.0000 </r>
       <r>  -4.5988   0.0000   0.0000 </r>
       <r>  -4.5423   0.0000   0.0000 </r>
       <r>  -4.4859   0.0000   0.0000 </r>
       <r>  -4.4295   0.0000   0.0000 </r>
       <r>  -4.3731   0.0000   0.0000 </r>
       <r>  -4.3167   0.0000   0.0000 </r>
       <r>  -4.2603   0.0000   0.0000 </r>
       <r>  -4.2039   0.0000   0.0000 </r>
       <r>  -4.1474   0.0000   0.0000 </r>
       <r>  -4.0910   0.0000   0.0000 </r>
       <r>  -4.0346   0.0000   0.0000 </r>
       <r>  -3.9782   0.0000   0.0000 </r>
       <r>  -3.9218   0.0000   0.0000 </r>
       <r>  -3.8654   0.0000   0.0000 </r>
       <r>  -3.8090   0.0000   0.0000 </r>
       <r>  -3.7525   0.0000   0.0000 </r>
       <r>  -3.6961   0.0000   0.0000 </r>
       <r>  -3.6397  -0.0001   0.0000 </r>
       <r>  -3.5833  -0.0007   0.0000 </r>
       <r>  -3.5269  -0.0035  -0.0002 </r>
       <r>  -3.4705  -0.0145  -0.0011 </r>
       <r>  -3.4140  -0.0488  -0.0038 </r>
       <r>  -3.3576  -0.1329  -0.0113 </r>
       <r>  -3.3012  -0.2834  -0.0273 </r>
       <r>  -3.2448  -0.4344  -0.0518 </r>
       <r>  -3.1884  -0.3335  -0.0706 </r>
       <r>  -3.1320   0.4622  -0.0445 </r>
       <r>  -3.0756   2.3072   0.0856 </r>
       <r>  -3.0191   4.9717   0.3661 </r>
       <r>  -2.9627   7.4237   0.7849 </r>
       <r>  -2.9063   8.3678   1.2570 </r>
       <r>  -2.8499   7.2464   1.6658 </r>
       <r>  -2.7935   4.7187   1.9320 </r>
       <r>  -2.7371   2.0966   2.0503 </r>
       <r>  -2.6807   0.3494   2.0700 </r>
       <r>  -2.6242  -0.3640   2.0494 </r>
       <r>  -2.5678  -0.4262   2.0254 </r>
       <r>  -2.5114  -0.2704   2.0101 </r>
       <r>  -2.4550  -0.1342   2.0026 </r>
       <r>  -2.3986  -0.0859   1.9977 </r>
       <r>  -2.3422  -0.1357   1.9901 </r>
       <r>  -2.2857  -0.2941   1.9735 </r>
       <r>  -2.2293  -0.5338   1.9434 </r>
       <r>  -2.1729  -0.6741   1.9053 </r>
       <r>  -2.1165  -0.2825   1.8894 </r>
       <r>  -2.0601   1.2255   1.9585 </r>
       <r>  -2.0037   4.2117   2.1961 </r>
       <r>  -1.9473   8.4075   2.6705 </r>
       <r>  -1.8908  12.8790   3.3970 </r>
       <r>  -1.8344  16.4332   4.3241 </r>
       <r>  -1.7780  18.0929   5.3448 </r>
       <r>  -1.7216  17.3575   6.3240 </r>
       <r>  -1.6652  14.3522   7.1337 </r>
       <r>  -1.6088   9.9165   7.6932 </r>
       <r>  -1.5524   5.3737   7.9963 </r>
       <r>  -1.4959   1.9066   8.1039 </r>
       <r>  -1.4395  -0.0091   8.1034 </r>
       <r>  -1.3831  -0.6451   8.0670 </r>
       <r>  -1.3267  -0.6049   8.0328 </r>
       <r>  -1.2703  -0.3988   8.0103 </r>
       <r>  -1.2139  -0.2933   7.9938 </r>
       <r>  -1.1574  -0.3682   7.9730 </r>
       <r>  -1.1010  -0.5726   7.9407 </r>
       <r>  -1.0446  -0.6697   7.9029 </r>
       <r>  -0.9882  -0.1624   7.8938 </r>
       <r>  -0.9318   1.5625   7.9819 </r>
       <r>  -0.8754   4.7677   8.2509 </r>
       <r>  -0.8190   8.9011   8.7531 </r>
       <r>  -0.7625  12.7093   9.4700 </r>
       <r>  -0.7061  15.0203  10.3174 </r>
       <r>  -0.6497  15.4811  11.1908 </r>
       <r>  -0.5933  14.5117  12.0095 </r>
       <r>  -0.5369  12.6626  12.7238 </r>
       <r>  -0.4805  10.2000  13.2993 </r>
       <r>  -0.4240   7.2868  13.7103 </r>
       <r>  -0.3676   4.3126  13.9536 </r>
       <r>  -0.3112   1.8491  14.0580 </r>
       <r>  -0.2548   0.2903  14.0743 </r>
       <r>  -0.1984  -0.3889  14.0524 </r>
       <r>  -0.1420  -0.5373  14.0221 </r>
       <r>  -0.0856  -0.5583  13.9906 </r>
       <r>  -0.0291  -0.6987  13.9512 </r>
       <r>   0.0273  -0.9252  13.8990 </r>
       <r>   0.0837  -0.8251  13.8524 </r>
       <r>   0.1401   0.3828  13.8740 </r>
       <r>   0.1965   3.5025  14.0716 </r>
       <r>   0.2529   8.6753  14.5610 </r>
       <r>   0.3093  14.8603  15.3994 </r>
       <r>   0.3658  20.1218  16.5346 </r>
       <r>   0.4222  22.7152  17.8160 </r>
       <r>   0.4786  22.1019  19.0629 </r>
       <r>   0.5350  19.0243  20.1362 </r>
       <r>   0.5914  14.7319  20.9673 </r>
       <r>   0.6478  10.2309  21.5445 </r>
       <r>   0.7043   6.1378  21.8907 </r>
       <r>   0.7607   2.8781  22.0531 </r>
       <r>   0.8171   0.7283  22.0942 </r>
       <r>   0.8735  -0.3309  22.0755 </r>
       <r>   0.9299  -0.6443  22.0392 </r>
       <r>   0.9863  -0.6982  21.9998 </r>
       <r>   1.0427  -0.8844  21.9499 </r>
       <r>   1.0992  -1.3088  21.8760 </r>
       <r>   1.1556  -1.5704  21.7874 </r>
       <r>   1.2120  -0.5756  21.7550 </r>
       <r>   1.2684   3.1862  21.9347 </r>
       <r>   1.3248  10.5524  22.5300 </r>
       <r>   1.3812  20.3204  23.6764 </r>
       <r>   1.4376  29.0582  25.3157 </r>
       <r>   1.4941  32.9397  27.1740 </r>
       <r>   1.5505  30.4162  28.8900 </r>
       <r>   1.6069  23.3575  30.2077 </r>
       <r>   1.6633  15.6266  31.0892 </r>
       <r>   1.7197  10.4275  31.6775 </r>
       <r>   1.7761   8.5932  32.1623 </r>
       <r>   1.8326   8.7745  32.6573 </r>
       <r>   1.8890   8.9083  33.1599 </r>
       <r>   1.9454   7.7119  33.5949 </r>
       <r>   2.0018   5.2749  33.8925 </r>
       <r>   2.0582   2.5824  34.0382 </r>
       <r>   2.1146   0.5620  34.0699 </r>
       <r>   2.1710  -0.5143  34.0409 </r>
       <r>   2.2275  -0.9245  33.9887 </r>
       <r>   2.2839  -0.9876  33.9330 </r>
       <r>   2.3403  -0.6495  33.8964 </r>
       <r>   2.3967   0.5494  33.9274 </r>
       <r>   2.4531   3.1137  34.1030 </r>
       <r>   2.5095   7.0675  34.5018 </r>
       <r>   2.5659  11.6645  35.1598 </r>
       <r>   2.6224  15.6173  36.0409 </r>
       <r>   2.6788  17.7119  37.0401 </r>
       <r>   2.7352  17.3679  38.0199 </r>
       <r>   2.7916  14.8190  38.8559 </r>
       <r>   2.8480  10.9168  39.4718 </r>
       <r>   2.9044   6.7486  39.8525 </r>
       <r>   2.9609   3.2469  40.0357 </r>
       <r>   3.0173   0.9108  40.0871 </r>
       <r>   3.0737  -0.2776  40.0714 </r>
       <r>   3.1301  -0.7172  40.0309 </r>
       <r>   3.1865  -0.9154  39.9793 </r>
       <r>   3.2429  -1.1994  39.9116 </r>
       <r>   3.2993  -1.4608  39.8292 </r>
       <r>   3.3558  -0.9742  39.7743 </r>
       <r>   3.4122   1.4961  39.8587 </r>
       <r>   3.4686   7.0362  40.2556 </r>
       <r>   3.5250  15.5300  41.1317 </r>
       <r>   3.5814  25.0239  42.5435 </r>
       <r>   3.6378  32.3214  44.3669 </r>
       <r>   3.6942  34.6748  46.3230 </r>
       <r>   3.7507  31.3991  48.0944 </r>
       <r>   3.8071  24.2022  49.4598 </r>
       <r>   3.8635  16.0583  50.3657 </r>
       <r>   3.9199   9.5422  50.9041 </r>
       <r>   3.9763   5.7392  51.2278 </r>
       <r>   4.0327   4.1944  51.4645 </r>
       <r>   4.0892   3.6442  51.6700 </r>
       <r>   4.1456   2.9517  51.8366 </r>
       <r>   4.2020   1.6820  51.9315 </r>
       <r>   4.2584   0.0800  51.9360 </r>
       <r>   4.3148  -1.2497  51.8655 </r>
       <r>   4.3712  -1.4761  51.7822 </r>
       <r>   4.4276   0.5096  51.8109 </r>
       <r>   4.4841   5.8058  52.1385 </r>
       <r>   4.5405  14.6198  52.9633 </r>
       <r>   4.5969  25.4076  54.3966 </r>
       <r>   4.6533  35.0171  56.3721 </r>
       <r>   4.7097  40.1298  58.6360 </r>
       <r>   4.7661  39.1870  60.8468 </r>
       <r>   4.8226  33.4484  62.7338 </r>
       <r>   4.8790  26.2761  64.2161 </r>
       <r>   4.9354  20.9713  65.3992 </r>
       <r>   4.9918  18.7190  66.4553 </r>
       <r>   5.0482  18.2206  67.4832 </r>
       <r>   5.1046  17.1589  68.4512 </r>
       <r>   5.1610  14.1255  69.2481 </r>
       <r>   5.2175   9.4771  69.7828 </r>
       <r>   5.2739   4.7087  70.0484 </r>
       <r>   5.3303   1.1685  70.1143 </r>
       <r>   5.3867  -0.7313  70.0731 </r>
       <r>   5.4431  -1.3395  69.9975 </r>
       <r>   5.4995  -1.0637  69.9375 </r>
       <r>   5.5559   0.1006  69.9432 </r>
       <r>   5.6124   2.4153  70.0794 </r>
       <r>   5.6688   5.8251  70.4080 </r>
       <r>   5.7252   9.5529  70.9470 </r>
       <r>   5.7816  12.3203  71.6420 </r>
       <r>   5.8380  13.0838  72.3801 </r>
       <r>   5.8944  11.7391  73.0424 </r>
       <r>   5.9509   9.2870  73.5663 </r>
       <r>   6.0073   7.2734  73.9767 </r>
       <r>   6.0637   6.7386  74.3568 </r>
       <r>   6.1201   7.4063  74.7746 </r>
       <r>   6.1765   7.9274  75.2219 </r>
       <r>   6.2329   7.0931  75.6220 </r>
       <r>   6.2893   4.8497  75.8956 </r>
       <r>   6.3458   2.1353  76.0161 </r>
       <r>   6.4022  -0.0819  76.0115 </r>
       <r>   6.4586  -1.4006  75.9325 </r>
       <r>   6.5150  -1.7022  75.8364 </r>
       <r>   6.5714  -0.5408  75.8059 </r>
       <r>   6.6278   2.9347  75.9715 </r>
       <r>   6.6842   9.2775  76.4949 </r>
       <r>   6.7407  17.8725  77.5031 </r>
       <r>   6.7971  26.8150  79.0159 </r>
       <r>   6.8535  33.7803  80.9216 </r>
       <r>   6.9099  37.1263  83.0161 </r>
       <r>   6.9663  36.3652  85.0677 </r>
       <r>   7.0227  31.9831  86.8720 </r>
       <r>   7.0792  25.1193  88.2891 </r>
       <r>   7.1356  17.2983  89.2650 </r>
       <r>   7.1920  10.0609  89.8326 </r>
       <r>   7.2484   4.5156  90.0873 </r>
       <r>   7.3048   1.0560  90.1469 </r>
       <r>   7.3612  -0.6096  90.1125 </r>
       <r>   7.4176  -1.1698  90.0465 </r>
       <r>   7.4741  -1.3123  89.9725 </r>
       <r>   7.5305  -1.3620  89.8956 </r>
       <r>   7.5869  -1.0718  89.8352 </r>
       <r>   7.6433   0.3252  89.8535 </r>
       <r>   7.6997   3.7071  90.0626 </r>
       <r>   7.7561   9.3896  90.5924 </r>
       <r>   7.8125  16.5992  91.5288 </r>
       <r>   7.8690  23.6045  92.8604 </r>
       <r>   7.9254  28.6261  94.4754 </r>
       <r>   7.9818  30.9732  96.2227 </r>
       <r>   8.0382  31.4532  97.9972 </r>
       <r>   8.0946  31.5073  99.7747 </r>
       <r>   8.1510  31.7081 101.5635 </r>
       <r>   8.2075  31.1153 103.3189 </r>
       <r>   8.2639  28.2712 104.9138 </r>
       <r>   8.3203  22.8244 106.2014 </r>
       <r>   8.3767  16.0321 107.1059 </r>
       <r>   8.4331   9.7318 107.6549 </r>
       <r>   8.4895   5.0547 107.9401 </r>
       <r>   8.5459   2.1015 108.0586 </r>
       <r>   8.6024   0.4463 108.0838 </r>
       <r>   8.6588  -0.3755 108.0626 </r>
       <r>   8.7152  -0.7516 108.0202 </r>
       <r>   8.7716  -0.9999 107.9638 </r>
       <r>   8.8280  -1.2403 107.8938 </r>
       <r>   8.8844  -1.1642 107.8281 </r>
       <r>   8.9408   0.0517 107.8311 </r>
       <r>   8.9973   3.3992 108.0228 </r>
       <r>   9.0537   9.2561 108.5450 </r>
       <r>   9.1101  16.7254 109.4886 </r>
       <r>   9.1665  23.8476 110.8339 </r>
       <r>   9.2229  28.6814 112.4520 </r>
       <r>   9.2793  30.2879 114.1607 </r>
       <r>   9.3358  28.8245 115.7868 </r>
       <r>   9.3922  25.0388 117.1994 </r>
       <r>   9.4486  19.8645 118.3200 </r>
       <r>   9.5050  14.2373 119.1232 </r>
       <r>   9.5614   8.9244 119.6267 </r>
       <r>   9.6178   4.4551 119.8780 </r>
       <r>   9.6742   1.3177 119.9524 </r>
       <r>   9.7307   0.1903 119.9631 </r>
       <r>   9.7871   1.7653 120.0627 </r>
       <r>   9.8435   6.0282 120.4028 </r>
       <r>   9.8999  11.5271 121.0531 </r>
       <r>   9.9563  15.6232 121.9345 </r>
       <r>  10.0127  16.0611 122.8406 </r>
       <r>  10.0692  12.6541 123.5544 </r>
       <r>  10.1256   7.3746 123.9705 </r>
       <r>  10.1820   2.7241 124.1242 </r>
       <r>  10.2384   0.0420 124.1265 </r>
       <r>  10.2948  -0.8272 124.0799 </r>
       <r>  10.3512  -0.7391 124.0382 </r>
       <r>  10.4076  -0.4171 124.0146 </r>
       <r>  10.4641  -0.1776 124.0046 </r>
       <r>  10.5205  -0.0603 124.0012 </r>
       <r>  10.5769  -0.0167 124.0003 </r>
       <r>  10.6333  -0.0039 124.0000 </r>
       <r>  10.6897  -0.0007 124.0000 </r>
       <r>  10.7461  -0.0001 124.0000 </r>
       <r>  10.8025   0.0000 124.0000 </r>
       <r>  10.8590   0.0000 124.0000 </r>
       <r>  10.9154   0.0000 124.0000 </r>
       <r>  10.9718   0.0000 124.0000 </r>
       <r>  11.0282   0.0000 124.0000 </r>
       <r>  11.0846   0.0000 124.0000 </r>
       <r>  11.1410   0.0000 124.0000 </r>
       <r>  11.1975   0.0000 124.0000 </r>
       <r>  11.2539   0.0000 124.0000 </r>
       <r>  11.3103   0.0000 124.0000 </r>
       <r>  11.3667   0.0000 124.0000 </r>
       <r>  11.4231   0.0000 124.0000 </r>
       <r>  11.4795   0.0000 124.0000 </r>
       <r>  11.5359   0.0000 124.0000 </r>
       <r>  11.5924   0.0000 124.0000 </r>
       <r>  11.6488   0.0000 124.0000 </r>
       <r>  11.7052   0.0000 124.0000 </r>
       <r>  11.7616   0.0000 124.0000 </r>
       <r>  11.8180   0.0000 124.0000 </r>
       <r>  11.8744   0.0000 124.0000 </r>
       <r>  11.9308   0.0000 124.0000 </r>
       <r>  11.9873   0.0000 124.0000 </r>
      </set>
     </set>
    </array>
   </total>
  </dos>
 </calculation>
 <structure name="finalpos" >
  <crystal>
   <varray name="basis" >
    <v>       8.08705400       0.00000000       0.00000000 </v>
    <v>       0.00000000       8.08705400       0.00000000 </v>
    <v>       0.00000000       0.00000000       8.08705400 </v>
   </varray>
   <i name="volume">    528.89690930 </i>
   <varray name="rec_basis" >
    <v>       0.12365442       0.00000000       0.00000000 </v>
    <v>       0.00000000       0.12365442       0.00000000 </v>
    <v>       0.00000000       0.00000000       0.12365442 </v>
   </varray>
  </crystal>
  <varray name="positions" >
   <v>       0.37500000       0.50000000       0.37314518 </v>
   <v>       0.99970200       0.00000000       0.99970200 </v>
   <v>       0.24846500       0.00000000       0.24846500 </v>
   <v>       0.24812200       0.25335500       0.00238100 </v>
   <v>       0.00238100       0.25335500       0.24812200 </v>
   <v>       0.50052700       0.00000000       0.99307700 </v>
   <v>       0.75692300       0.00000000       0.24947300 </v>
   <v>       0.75133900       0.25081000       0.99866100 </v>
   <v>       0.50655600       0.23697100       0.24344400 </v>
   <v>       0.00091800       0.50000000       0.00091800 </v>
   <v>       0.24812200       0.74664500       0.00238100 </v>
   <v>       0.00238100       0.74664500       0.24812200 </v>
   <v>       0.49482700       0.50000000       0.00541200 </v>
   <v>       0.74460000       0.50000000       0.25516700 </v>
   <v>       0.75133900       0.74919000       0.99866100 </v>
   <v>       0.50655600       0.76302900       0.24344400 </v>
   <v>       0.99307700       0.00000000       0.50052700 </v>
   <v>       0.24947300       0.00000000       0.75692300 </v>
   <v>       0.24344400       0.23697100       0.50655600 </v>
   <v>       0.99866100       0.25081000       0.75133900 </v>
   <v>       0.50153400       0.00000000       0.50153400 </v>
   <v>       0.75030200       0.00000000       0.75030200 </v>
   <v>       0.74762400       0.25335400       0.50187700 </v>
   <v>       0.50187700       0.25335400       0.74762400 </v>
   <v>       0.00541200       0.50000000       0.49482700 </v>
   <v>       0.25516700       0.50000000       0.74460000 </v>
   <v>       0.24344400       0.76302900       0.50655600 </v>
   <v>       0.99866100       0.74919000       0.75133900 </v>
   <v>       0.74908800       0.50000000       0.74908800 </v>
   <v>       0.74762400       0.74664600       0.50187700 </v>
   <v>       0.50187700       0.74664600       0.74762400 </v>
  </varray>
  <varray name="selective"  type="logical" >
   <v type="logical" >  T  T  T </v>
   <v type="logical" >  F  F  F </v>
   <v type="logical" >  F  F  F </v>
   <v type="logical" >  F  F  F </v>
   <v type="logical" >  F  F  F </v>
   <v type="logical" >  F  F  F </v>
   <v type="logical" >  F  F  F </v>
   <v type="logical" >  F  F  F </v>
   <v type="logical" >  F  F  F </v>
   <v type="logical" >  F  F  F </v>
   <v type="logical" >  F  F  F </v>
   <v type="logical" >  F  F  F </v>
   <v type="logical" >  F  F  F </v>
   <v type="logical" >  F  F  F </v>
   <v type="logical" >  F  F  F </v>
   <v type="logical" >  F  F  F </v>
   <v type="logical" >  F  F  F </v>
   <v type="logical" >  F  F  F </v>
   <v type="logical" >  F  F  F </v>
   <v type="logical" >  F  F  F </v>
   <v type="logical" >  F  F  F </v>
   <v type="logical" >  F  F  F </v>
   <v type="logical" >  F  F  F </v>
   <v type="logical" >  F  F  F </v>
   <v type="logical" >  F  F  F </v>
   <v type="logical" >  F  F  F </v>
   <v type="logical" >  F  F  F </v>
   <v type="logical" >  F  F  F </v>
   <v type="logical" >  F  F  F </v>
   <v type="logical" >  F  F  F </v>
   <v type="logical" >  F  F  F </v>
  </varray>
  <nose>
   <v>      -3.00000000       0.00000000       0.00010000       0.00010000 </v>
  </nose>
 </structure>
</modeling>
