 vasp.5.2.2 15Apr09 complex 
 executed on             LinuxIFC date 2013.11.25  22:06:50
 running on    1 nodes
 distr:  one band on    1 nodes,    1 groups


--------------------------------------------------------------------------------------------------------


 INCAR:
 POTCAR:   PAW_PBE Ga_d 06Sep2000                 
 POTCAR:   PAW_PBE As 06Sep2000                   
 POTCAR:   PAW_PBE Ga_d 06Sep2000                 
   VRHFIN =Ga: s2p1                                                             
   LEXCH  = PE                                                                  
   EATOM  =  2149.0616 eV,  157.9516 Ry                                         
                                                                                
   TITEL  = PAW_PBE Ga_d 06Sep2000                                              
   LULTRA =        F    use ultrasoft PP ?                                      
   IUNSCR =        1    unscreen: 0-lin 1-nonlin 2-no                           
   RPACOR =    2.000    partial core radius                                     
   POMASS =   69.723; ZVAL   =   13.000    mass and valenz                      
   RCORE  =    2.300    outmost cutoff radius                                   
   RWIGS  =    2.300; RWIGS  =    1.217    wigner-seitz radius (au A)           
   ENMAX  =  282.697; ENMIN  =  212.022 eV                                      
   ICORE  =        3    local potential                                         
   LCOR   =        T    correct aug charges                                     
   LPAW   =        T    paw PP                                                  
   EAUG   =  490.690                                                            
   DEXC   =    -.001                                                            
   RMAX   =    2.742    core radius for proj-oper                               
   RAUG   =    1.300    factor for augmentation sphere                          
   RDEP   =    2.413    radius for radial grids                                 
   QCUT   =   -4.558; QGAM   =    9.117    optimization parameters              
                                                                                
   Description                                                                  
     l     E      TYP  RCUT    TYP  RCUT                                        
     2   .000     23  2.300                                                     
     2  -.400     23  2.300                                                     
     0   .000     23  2.300                                                     
     0   .000     23  2.300                                                     
     1   .000     23  2.300                                                     
     1   .000     23  2.300                                                     
     3  -.100      7  2.300                                                     
  local pseudopotential read in
  partial core-charges read in
  atomic valenz-charges read in
  non local Contribution for L=           2  read in
    real space projection operators read in
  non local Contribution for L=           2  read in
    real space projection operators read in
  non local Contribution for L=           0  read in
    real space projection operators read in
  non local Contribution for L=           0  read in
    real space projection operators read in
  non local Contribution for L=           1  read in
    real space projection operators read in
  non local Contribution for L=           1  read in
    real space projection operators read in
    PAW grid and wavefunctions read in
 
   number of l-projection  operators is LMAX  =           6
   number of lm-projection operators is LMMAX =          18
 
 POTCAR:   PAW_PBE As 06Sep2000                   
   VRHFIN =As: s2p3                                                             
   LEXCH  = PE                                                                  
   EATOM  =   170.0753 eV,   12.5002 Ry                                         
                                                                                
   TITEL  = PAW_PBE As 06Sep2000                                                
   LULTRA =        F    use ultrasoft PP ?                                      
   IUNSCR =        1    unscreen: 0-lin 1-nonlin 2-no                           
   RPACOR =    1.900    partial core radius                                     
   POMASS =   74.922; ZVAL   =    5.000    mass and valenz                      
   RCORE  =    2.100    outmost cutoff radius                                   
   RWIGS  =    2.300; RWIGS  =    1.217    wigner-seitz radius (au A)           
   ENMAX  =  208.680; ENMIN  =  156.510 eV                                      
   ICORE  =        3    local potential                                         
   LCOR   =        T    correct aug charges                                     
   LPAW   =        T    paw PP                                                  
   EAUG   =  462.758                                                            
   DEXC   =    -.108                                                            
   RMAX   =    3.192    core radius for proj-oper                               
   RAUG   =    1.300    factor for augmentation sphere                          
   RDEP   =    2.140    radius for radial grids                                 
   QCUT   =   -3.916; QGAM   =    7.833    optimization parameters              
                                                                                
   Description                                                                  
     l     E      TYP  RCUT    TYP  RCUT                                        
     0   .000     23  2.100                                                     
     0   .000     23  2.100                                                     
     1   .000     23  2.100                                                     
     1   .000     23  2.100                                                     
     2   .000     23  2.100                                                     
     3  -.100      7  2.100                                                     
  local pseudopotential read in
  partial core-charges read in
  atomic valenz-charges read in
  non local Contribution for L=           0  read in
    real space projection operators read in
  non local Contribution for L=           0  read in
    real space projection operators read in
  non local Contribution for L=           1  read in
    real space projection operators read in
  non local Contribution for L=           1  read in
    real space projection operators read in
  non local Contribution for L=           2  read in
    real space projection operators read in
    PAW grid and wavefunctions read in
 
   number of l-projection  operators is LMAX  =           5
   number of lm-projection operators is LMMAX =          13
 
 PAW_PBE Ga_d 06Sep2000                 :
 energy of atom  1       EATOM=-2149.0616
 kinetic energy error for atom=    0.0253 (will be added to EATOM!!)
 PAW_PBE As 06Sep2000                   :
 energy of atom  2       EATOM= -170.0753
 kinetic energy error for atom=    0.0022 (will be added to EATOM!!)
 
 
 POSCAR: Ga4 As4                                 
  positions in direct lattice
  velocities in cartesian coordinates
 exchange correlation table for  LEXCH =        8
   RHO(1)=    0.500       N(1)  =     2000
   RHO(2)=  100.500       N(2)  =     4000

 VTST: version 2.03d, (02/18/09)

 CHAIN: initializing optimizer
 
 OPT: Using VASP Dynamics algorithm
 CHAIN: Read ICHAIN            0
 


--------------------------------------------------------------------------------------------------------


 ion  position               nearest neighbor table
   1  0.000  0.000  0.000-   5 2.44   6 2.44   7 2.44   8 2.44
   2  0.500  0.500  0.000-   5 2.44   6 2.44   7 2.44   8 2.44
   3  0.000  0.500  0.500-   5 2.44   6 2.44   7 2.44   8 2.44
   4  0.500  0.000  0.500-   5 2.44   6 2.44   7 2.44   8 2.44
   5  0.250  0.250  0.250-   1 2.44   2 2.44   3 2.44   4 2.44
   6  0.750  0.750  0.250-   1 2.44   2 2.44   3 2.44   4 2.44
   7  0.250  0.750  0.750-   1 2.44   2 2.44   3 2.44   4 2.44
   8  0.750  0.250  0.750-   1 2.44   2 2.44   3 2.44   4 2.44
 
  LATTYP: Found a simple cubic cell.
 ALAT       =     5.6266000000
  
  Lattice vectors:
  
 A1 = (   5.6266000000,   0.0000000000,   0.0000000000)
 A2 = (   0.0000000000,   5.6266000000,   0.0000000000)
 A3 = (   0.0000000000,   0.0000000000,   5.6266000000)
 Subroutine PRICEL returns following result:
 
  LATTYP: Found a face centered cubic cell.
 ALAT       =     5.6266000000
  
  Lattice vectors:
  
 A1 = (   2.8133000000,   2.8133000000,   0.0000000000)
 A2 = (   2.8133000000,   0.0000000000,  -2.8133000000)
 A3 = (   0.0000000000,   2.8133000000,  -2.8133000000)
 
   4 primitive cells build up your supercell.
 

Analysis of symmetry for initial positions (statically):

 Routine SETGRP: Setting up the symmetry group for a 
 simple cubic supercell.


 Subroutine GETGRP returns: Found 24 space group operations
 (whereof 24 operations were pure point group operations)
 out of a pool of 48 trial point group operations.


The static configuration has the point symmetry T_d .

Analysis of symmetry for dynamics (positions and initial velocities):

 Subroutine DYNSYM returns: Found 24 space group operations
 (whereof 24 operations were pure point group operations)
 out of a pool of 24 trial space group operations
 (whereof 24 operations were pure point group operations)
 and found also     4 'primitive' translations


The dynamic configuration has the point symmetry T_d .

Analysis of magnetic symmetry:

 Subroutine MAGSYM returns: Found 24 space group operations
 (whereof 24 operations were pure point group operations)
 out of a pool of 24 trial space group operations
 (whereof 24 operations were pure point group operations)
 and found also     4 'primitive' translations


The magnetic configuration has the point symmetry T_d .
 
 
 KPOINTS: Automatic kpoint scheme                 

Automatic generation of k-mesh.
 
 Subroutine IBZKPT returns following result:
 ===========================================
 
 Found      1 irreducible k-points:
 
 Following reciprocal coordinates:
            Coordinates               Weight
  0.250000  0.250000  0.250000      8.000000
 
 Following cartesian coordinates:
            Coordinates               Weight
  0.044432  0.044432  0.044432      8.000000
 


--------------------------------------------------------------------------------------------------------




 Dimension of arrays:
   k-points           NKPTS =      1   k-points in BZ     NKDIM =      1   number of bands    NBANDS=     47
   number of dos      NEDOS =    301   number of ions     NIONS =      8
   non local maximal  LDIM  =      6   non local SUM 2l+1 LMDIM =     18
   total plane-waves  NPLWV =  13824
   max r-space proj   IRMAX =      1   max aug-charges    IRDMAX=   3410
   dimension x,y,z NGX =    24 NGY =   24 NGZ =   24
   dimension x,y,z NGXF=    48 NGYF=   48 NGZF=   48
   support grid    NGXF=    48 NGYF=   48 NGZF=   48
   ions per type =               4   4
 NGX,Y,Z   is equivalent  to a cutoff of   7.09,  7.09,  7.09 a.u.
 NGXF,Y,Z  is equivalent  to a cutoff of  14.18, 14.18, 14.18 a.u.


 I would recommend the setting:
   dimension x,y,z NGX =    24 NGY =   24 NGZ =   24
 SYSTEM =  unknown system                          
 POSCAR =  Ga4 As4                                 

 Startparameter for this run:
   NWRITE =      2    write-flag & timer
   PREC   = normal    medium, high low
   ISTART =      0    job   : 0-new  1-cont  2-samecut
   ICHARG =      2    charge: 1-file 2-atom 10-const
   ISPIN  =      2    spin polarized calculation?
   LNONCOLLINEAR =      F non collinear calculations
   LSORBIT =      F    spin-orbit coupling
   INIWAV =      1    electr: 0-lowe 1-rand  2-diag
   LASPH  =      F    aspherical Exc in radial PAW
   METAGGA=      F    non-selfconsistent MetaGGA calc.

 Electronic Relaxation 1
   ENCUT  =  313.0 eV  23.00 Ry    4.80 a.u.   8.12  8.12  8.12*2*pi/ulx,y,z
   ENINI  =  313.0     initial cutoff
   ENAUG  =  490.7 eV  augmentation charge cutoff
   NELM   =     60;   NELMIN=  2; NELMDL= -5     # of ELM steps 
   EDIFF  = 0.1E-03   stopping-criterion for ELM
   LREAL  =      F    real-space projection
   LCOMPAT=      F    compatible to vasp.4.4
   LREAL_COMPAT= F    compatible to vasp.4.5.1-3
   GGA_COMPAT  = T    GGA compatible to vasp.4.4-vasp.4.6
   LMAXPAW     = -100 max onsite density
   LMAXMIX     =    2 max onsite mixed and CHGCAR
   VOSKOWN=      0    Vosko Wilk Nusair interpolation
   ROPT   =    0.00000   0.00000
 Ionic relaxation
   EDIFFG = 0.1E-02   stopping-criterion for IOM
   NSW    =      0    number of steps for IOM
   NBLOCK =      1;   KBLOCK =      1    inner block; outer block 
   IBRION =     -1    ionic relax: 0-MD 1-quasi-New 2-CG
   NFREE  =      0    steps in history (QN), initial steepest desc. (CG)
   ISIF   =      2    stress and relaxation
   IWAVPR =     10    prediction:  0-non 1-charg 2-wave 3-comb
   ISYM   =      2    0-nonsym 1-usesym 2-fastsym
   LCORR  =      T    Harris-Foulkes like correction to forces

   POTIM  = 0.5000    time-step for ionic-motion
   TEIN   =    0.0    initial temperature
   TEBEG  =    0.0;   TEEND  =   0.0 temperature during run
   SMASS  =  -3.00    Nose mass-parameter (am)
   estimated Nose-frequenzy (Omega)   =  0.10E-29 period in steps =****** mass=  -0.723E-27a.u.
   NPACO  =    256;   APACO  = 16.0  distance and # of slots for P.C.
   PSTRESS=    0.0 pullay stress

  Mass of Ions in am
   POMASS =  69.72 74.92
  Ionic Valenz
   ZVAL   =  13.00  5.00
  Atomic Wigner-Seitz radii
   RWIGS  =  -1.00 -1.00
   NELECT =      72.0000    total number of electrons
   NUPDOWN=      -1.0000    fix difference up-down

 DOS related values:
   EMIN   =  10.00;   EMAX   =-10.00  energy-range for DOS
   EFERMI =   0.00
   ISMEAR =     1;   SIGMA  =   0.20  broadening in eV -4-tet -1-fermi 0-gaus

 Electronic relaxation 2 (details)
   IALGO  =     38    algorithm
   LDIAG  =      T    sub-space diagonalisation
   IMIX   =      4    mixing-type and parameters
     AMIX     =   0.40;   BMIX     =  1.00
     AMIX_MAG =   1.60;   BMIX_MAG =  1.00
     AMIN     =   0.10
     WC   =   100.;   INIMIX=   1;  MIXPRE=   1

 Intra band minimization:
   WEIMIN = 0.0000     energy-eigenvalue tresh-hold
   EBREAK =  0.53E-06  absolut break condition
   DEPER  =   0.30     relativ break condition  

   TIME   =   0.40     timestep for ELM

  volume/ion in A,a.u.               =      22.27       150.26
  Fermi-wavevector in a.u.,A,eV,Ry     =   1.210430  2.287381 19.934445  1.465140
  Thomas-Fermi vector in A             =   2.345977
 
 Write flags
   LWAVE  =      F    write WAVECAR
   LCHARG =      F    write CHGCAR
   LVTOT  =      F    write LOCPOT, local potential
   LELF   =      F    write electronic localiz. function (ELF)
   LORBIT =      0    0 simple, 1 ext, 2 COOP (PROOUT)


 Dipole corrections
   LMONO  =      F    monopole corrections only (constant potential shift)
   LDIPOL =      F    correct potential (dipole corrections)
   IDIPOL =      0    1-x, 2-y, 3-z, 4-all directions 
   EPSILON=  1.0000000 bulk dielectric constant

 Exchange correlation treatment:
   GGA     =    --    GGA type
   LEXCH   =     8    internal setting for exchange type
   VOSKOWN=      0    Vosko Wilk Nusair interpolation
   LHFCALC =     F    Hartree Fock is set to
   LHFONE  =     F    Hartree Fock one center treatment
   AEXX    =    0.0000 exact exchange contribution

 Linear response parameters
   LEPSILON=     F    determine dielectric tensor
   LRPA    =     F    only Hartree local field effects (RPA)
   LNABLA  =     F    use nabla operator in PAW spheres
   LVEL    =     F    velocity operator in full k-point grid
   LINTERFAST=   F  fast interpolation
   KINTER  =     0    interpolate to denser k-point grid
   CSHIFT  =0.1000    complex shift for real part using Kramers Kronig
   OMEGAMAX=  -1.0    maximum frequency

 Orbital magnetization related:
   ORBITALMAG=     F  switch on orbital magnetization
   LCHIMAG   =     F  perturbation theory with respect to B field



--------------------------------------------------------------------------------------------------------


 Static calculation
 charge density and potential will be updated during run
 spin polarized calculation
 Variant of blocked Davidson
 Davidson routine will perform the subspace rotation
 perform sub-space diagonalisation
    after iterative eigenvector-optimisation
 modified Broyden-mixing scheme, WC =      100.0
 initial mixing is a Kerker type mixing with AMIX =  0.4000 and BMIX =      1.0000
 Hartree-type preconditioning will be used
 using additional bands           11
 reciprocal scheme for non local part
 use partial core corrections
 calculate Harris-corrections to forces 
   (improved forces if not selfconsistent)
 use gradient corrections 
 use of overlap-Matrix (Vanderbilt PP)
 Methfessel and Paxton  Order N= 1 SIGMA  =   0.20


--------------------------------------------------------------------------------------------------------


  energy-cutoff  :      313.00
  volume of cell :      178.13
      direct lattice vectors                 reciprocal lattice vectors
     5.626600000  0.000000000  0.000000000     0.177727224  0.000000000  0.000000000
     0.000000000  5.626600000  0.000000000     0.000000000  0.177727224  0.000000000
     0.000000000  0.000000000  5.626600000     0.000000000  0.000000000  0.177727224

  length of vectors
     5.626600000  5.626600000  5.626600000     0.177727224  0.177727224  0.177727224


 
 k-points in units of 2pi/SCALE and weight: Automatic kpoint scheme                 
   0.04443181  0.04443181  0.04443181       1.000
 
 k-points in reciprocal lattice and weights: Automatic kpoint scheme                 
   0.25000000  0.25000000  0.25000000       1.000
 
 position of ions in fractional coordinates (direct lattice) 
   0.00000000  0.00000000  0.00000000
   0.50000000  0.50000000  0.00000000
   0.00000000  0.50000000  0.50000000
   0.50000000  0.00000000  0.50000000
   0.25000000  0.25000000  0.25000000
   0.75000000  0.75000000  0.25000000
   0.25000000  0.75000000  0.75000000
   0.75000000  0.25000000  0.75000000
 
 position of ions in cartesian coordinates  (Angst):
   0.00000000  0.00000000  0.00000000
   2.81330000  2.81330000  0.00000000
   0.00000000  2.81330000  2.81330000
   2.81330000  0.00000000  2.81330000
   1.40665000  1.40665000  1.40665000
   4.21995000  4.21995000  1.40665000
   1.40665000  4.21995000  4.21995000
   4.21995000  1.40665000  4.21995000
 


--------------------------------------------------------------------------------------------------------


 k-point  1 :  0.25000.25000.2500  plane waves:    2238

 maximum and minimum number of plane-waves per node :    2238   2238

 maximum number of plane-waves:    2238
 maximal index in each direction: 
   IXMAX=  7   IYMAX=  7   IZMAX=  7
   IXMIN= -8   IYMIN= -8   IZMIN= -8

 WARNING: aliasing errors must be expected set NGX to  32 to avoid them
 WARNING: aliasing errors must be expected set NGY to  32 to avoid them
 WARNING: aliasing errors must be expected set NGZ to  32 to avoid them
 aliasing errors are usually negligible using standard VASP settings
 and one can safely disregard these warnings

 serial   3D FFT for wavefunctions
 parallel 3D FFT for charge:
    minimum data exchange during FFTs selected (reduces bandwidth)


 total amount of memory used by VASP on root node  48913. kBytes
========================================================================

   base      :    30000. kBytes
   nonl-proj :      931. kBytes
   fftplans  :     3916. kBytes
   grid      :    10266. kBytes
   one-center:      248. kBytes
   wavefun   :     3552. kBytes
 
 Broyden mixing: mesh for mixing (old mesh)
   NGX = 17   NGY = 17   NGZ = 17
  (NGX  = 48   NGY  = 48   NGZ  = 48)
  gives a total of   4913 points

 initial charge density was supplied:
 charge density of overlapping atoms calculated
 number of electron   72.0000000 magnetization    8.0000000
 keeping initial charge density in first step


--------------------------------------------------------------------------------------------------------


 Maximum index for augmentation-charges         3119 (set IRDMAX)


--------------------------------------------------------------------------------------------------------


 First call to EWALD:  gamma=   0.315
 Maximum number of real-space cells 3x 3x 3
 Maximum number of reciprocal cells 3x 3x 3

    FEWALD:  cpu time    0.02: real time    0.00
   RESPFUN:  cpu time    0.00: real time    0.00


----------------------------------------- Iteration    1(   1)  ---------------------------------------


    POTLOK:  cpu time    0.64: real time    0.49
    SETDIJ:  cpu time    0.15: real time    0.15
     EDDAV:  cpu time    6.50: real time    1.64
       DOS:  cpu time    0.00: real time    0.00
    --------------------------------------------
      LOOP:  cpu time    7.29: real time    2.28

 eigenvalue-minimisations  :   210
 total energy-change (2. order) : 0.5446738E+03  (-0.2421448E+04)
 number of electron   72.0000000 magnetization    8.0000000
 augmentation part    72.0000000 magnetization    8.0000000

 Free energy of the ion-electron system (eV)
  ---------------------------------------------------
  alpha Z        PSCENC =       306.75524442
  Ewald energy   TEWEN  =     -5086.29860236
  -1/2 Hartree   DENC   =     -2886.31813692
  -exchange  EXHF       =         0.00000000
  -V(xc)+E(xc)   XCENC  =       205.60727342
  PAW double counting   =      5961.56305679    -7287.72377296
  entropy T*S    EENTRO =         0.00774607
  eigenvalues    EBANDS =        54.64338670
  atomic energy  EATOM  =      9276.43764982
  ---------------------------------------------------
  free energy    TOTEN  =       544.67384496 eV

  energy without entropy =      544.66609889  energy(sigma->0) =      544.67126294


--------------------------------------------------------------------------------------------------------




----------------------------------------- Iteration    1(   2)  ---------------------------------------


     EDDAV:  cpu time    5.65: real time    1.41
       DOS:  cpu time    0.00: real time    0.00
    --------------------------------------------
      LOOP:  cpu time    5.67: real time    1.42

 eigenvalue-minimisations  :   188
 total energy-change (2. order) :-0.4815150E+03  (-0.4646573E+03)
 number of electron   72.0000000 magnetization    8.0000000
 augmentation part    72.0000000 magnetization    8.0000000

 Free energy of the ion-electron system (eV)
  ---------------------------------------------------
  alpha Z        PSCENC =       306.75524442
  Ewald energy   TEWEN  =     -5086.29860236
  -1/2 Hartree   DENC   =     -2886.31813692
  -exchange  EXHF       =         0.00000000
  -V(xc)+E(xc)   XCENC  =       205.60727342
  PAW double counting   =      5961.56305679    -7287.72377296
  entropy T*S    EENTRO =        -0.01536598
  eigenvalues    EBANDS =      -426.84849475
  atomic energy  EATOM  =      9276.43764982
  ---------------------------------------------------
  free energy    TOTEN  =        63.15885147 eV

  energy without entropy =       63.17421745  energy(sigma->0) =       63.16397346


--------------------------------------------------------------------------------------------------------




----------------------------------------- Iteration    1(   3)  ---------------------------------------


     EDDAV:  cpu time    6.30: real time    1.58
       DOS:  cpu time    0.00: real time    0.00
    --------------------------------------------
      LOOP:  cpu time    6.31: real time    1.58

 eigenvalue-minimisations  :   217
 total energy-change (2. order) :-0.9009208E+02  (-0.8875522E+02)
 number of electron   72.0000000 magnetization    8.0000000
 augmentation part    72.0000000 magnetization    8.0000000

 Free energy of the ion-electron system (eV)
  ---------------------------------------------------
  alpha Z        PSCENC =       306.75524442
  Ewald energy   TEWEN  =     -5086.29860236
  -1/2 Hartree   DENC   =     -2886.31813692
  -exchange  EXHF       =         0.00000000
  -V(xc)+E(xc)   XCENC  =       205.60727342
  PAW double counting   =      5961.56305679    -7287.72377296
  entropy T*S    EENTRO =         0.00875795
  eigenvalues    EBANDS =      -516.96470294
  atomic energy  EATOM  =      9276.43764982
  ---------------------------------------------------
  free energy    TOTEN  =       -26.93323280 eV

  energy without entropy =      -26.94199075  energy(sigma->0) =      -26.93615211


--------------------------------------------------------------------------------------------------------




----------------------------------------- Iteration    1(   4)  ---------------------------------------


     EDDAV:  cpu time    6.44: real time    1.62
       DOS:  cpu time    0.00: real time    0.00
    --------------------------------------------
      LOOP:  cpu time    6.45: real time    1.63

 eigenvalue-minimisations  :   224
 total energy-change (2. order) :-0.4928032E+01  (-0.4916746E+01)
 number of electron   72.0000000 magnetization    8.0000000
 augmentation part    72.0000000 magnetization    8.0000000

 Free energy of the ion-electron system (eV)
  ---------------------------------------------------
  alpha Z        PSCENC =       306.75524442
  Ewald energy   TEWEN  =     -5086.29860236
  -1/2 Hartree   DENC   =     -2886.31813692
  -exchange  EXHF       =         0.00000000
  -V(xc)+E(xc)   XCENC  =       205.60727342
  PAW double counting   =      5961.56305679    -7287.72377296
  entropy T*S    EENTRO =         0.01159643
  eigenvalues    EBANDS =      -521.89557310
  atomic energy  EATOM  =      9276.43764982
  ---------------------------------------------------
  free energy    TOTEN  =       -31.86126447 eV

  energy without entropy =      -31.87286091  energy(sigma->0) =      -31.86512995


--------------------------------------------------------------------------------------------------------




----------------------------------------- Iteration    1(   5)  ---------------------------------------


     EDDAV:  cpu time    6.14: real time    1.54
       DOS:  cpu time    0.01: real time    0.00
    CHARGE:  cpu time    0.24: real time    0.14
    MIXING:  cpu time    0.01: real time    0.01
    --------------------------------------------
      LOOP:  cpu time    6.40: real time    1.69

 eigenvalue-minimisations  :   210
 total energy-change (2. order) :-0.7490351E-01  (-0.7488216E-01)
 number of electron   71.9998700 magnetization    0.8964752
 augmentation part    30.3973091 magnetization    0.9584708

 Broyden mixing:
  rms(total) = 0.14469E+01    rms(broyden)= 0.14469E+01
  rms(prec ) = 0.16977E+01
  weight for this iteration     100.00

 Free energy of the ion-electron system (eV)
  ---------------------------------------------------
  alpha Z        PSCENC =       306.75524442
  Ewald energy   TEWEN  =     -5086.29860236
  -1/2 Hartree   DENC   =     -2886.31813692
  -exchange  EXHF       =         0.00000000
  -V(xc)+E(xc)   XCENC  =       205.60727342
  PAW double counting   =      5961.56305679    -7287.72377296
  entropy T*S    EENTRO =         0.01159581
  eigenvalues    EBANDS =      -521.97047599
  atomic energy  EATOM  =      9276.43764982
  ---------------------------------------------------
  free energy    TOTEN  =       -31.93616798 eV

  energy without entropy =      -31.94776380  energy(sigma->0) =      -31.94003325


--------------------------------------------------------------------------------------------------------




----------------------------------------- Iteration    1(   6)  ---------------------------------------


    POTLOK:  cpu time    0.49: real time    0.49
    SETDIJ:  cpu time    0.15: real time    0.15
     EDDAV:  cpu time    7.43: real time    1.89
       DOS:  cpu time    0.00: real time    0.00
    CHARGE:  cpu time    0.24: real time    0.14
    MIXING:  cpu time    0.01: real time    0.01
    --------------------------------------------
      LOOP:  cpu time    8.32: real time    2.68

 eigenvalue-minimisations  :   256
 total energy-change (2. order) :-0.6471819E+00  (-0.1696570E+00)
 number of electron   71.9998699 magnetization    0.3150413
 augmentation part    30.5090802 magnetization    0.1783173

 Broyden mixing:
  rms(total) = 0.55620E+00    rms(broyden)= 0.55619E+00
  rms(prec ) = 0.71177E+00
  weight for this iteration     100.00

 eigenvalues of (default mixing * dielectric matrix)
  average eigenvalue GAMMA=   0.7478
  0.7478

 Free energy of the ion-electron system (eV)
  ---------------------------------------------------
  alpha Z        PSCENC =       306.75524442
  Ewald energy   TEWEN  =     -5086.29860236
  -1/2 Hartree   DENC   =     -2870.70275309
  -exchange  EXHF       =         0.00000000
  -V(xc)+E(xc)   XCENC  =       204.92129450
  PAW double counting   =      6045.81715980    -7370.92554318
  entropy T*S    EENTRO =         0.02485630
  eigenvalues    EBANDS =      -538.61265611
  atomic energy  EATOM  =      9276.43764982
  ---------------------------------------------------
  free energy    TOTEN  =       -32.58334991 eV

  energy without entropy =      -32.60820621  energy(sigma->0) =      -32.59163534


--------------------------------------------------------------------------------------------------------




----------------------------------------- Iteration    1(   7)  ---------------------------------------


    POTLOK:  cpu time    0.49: real time    0.49
    SETDIJ:  cpu time    0.15: real time    0.15
     EDDAV:  cpu time    6.81: real time    1.71
       DOS:  cpu time    0.00: real time    0.00
    CHARGE:  cpu time    0.24: real time    0.14
    MIXING:  cpu time    0.01: real time    0.01
    --------------------------------------------
      LOOP:  cpu time    7.70: real time    2.51

 eigenvalue-minimisations  :   226
 total energy-change (2. order) :-0.1500858E+00  (-0.4858137E-01)
 number of electron   71.9998700 magnetization   -0.1483304
 augmentation part    30.5467921 magnetization   -0.1394870

 Broyden mixing:
  rms(total) = 0.21268E+00    rms(broyden)= 0.21268E+00
  rms(prec ) = 0.35035E+00
  weight for this iteration     100.00

 eigenvalues of (default mixing * dielectric matrix)
  average eigenvalue GAMMA=   0.9475
  0.7142  1.1808

 Free energy of the ion-electron system (eV)
  ---------------------------------------------------
  alpha Z        PSCENC =       306.75524442
  Ewald energy   TEWEN  =     -5086.29860236
  -1/2 Hartree   DENC   =     -2868.27352866
  -exchange  EXHF       =         0.00000000
  -V(xc)+E(xc)   XCENC  =       204.89123514
  PAW double counting   =      6103.81100361    -7432.66562386
  entropy T*S    EENTRO =         0.02319787
  eigenvalues    EBANDS =      -537.41401169
  atomic energy  EATOM  =      9276.43764982
  ---------------------------------------------------
  free energy    TOTEN  =       -32.73343571 eV

  energy without entropy =      -32.75663358  energy(sigma->0) =      -32.74116834


--------------------------------------------------------------------------------------------------------




----------------------------------------- Iteration    1(   8)  ---------------------------------------


    POTLOK:  cpu time    0.51: real time    0.49
    SETDIJ:  cpu time    0.15: real time    0.15
     EDDAV:  cpu time    6.30: real time    1.59
       DOS:  cpu time    0.00: real time    0.00
    CHARGE:  cpu time    0.24: real time    0.14
    MIXING:  cpu time    0.02: real time    0.01
    --------------------------------------------
      LOOP:  cpu time    7.23: real time    2.39

 eigenvalue-minimisations  :   216
 total energy-change (2. order) : 0.1691157E-01  (-0.1331491E-01)
 number of electron   71.9998701 magnetization   -0.0656351
 augmentation part    30.5571069 magnetization   -0.0506943

 Broyden mixing:
  rms(total) = 0.85610E-01    rms(broyden)= 0.85610E-01
  rms(prec ) = 0.14091E+00
  weight for this iteration     100.00

 eigenvalues of (default mixing * dielectric matrix)
  average eigenvalue GAMMA=   1.1406
  1.8273  0.8950  0.6993

 Free energy of the ion-electron system (eV)
  ---------------------------------------------------
  alpha Z        PSCENC =       306.75524442
  Ewald energy   TEWEN  =     -5086.29860236
  -1/2 Hartree   DENC   =     -2867.59084584
  -exchange  EXHF       =         0.00000000
  -V(xc)+E(xc)   XCENC  =       205.09902803
  PAW double counting   =      6180.49997666    -7514.82553632
  entropy T*S    EENTRO =         0.02323563
  eigenvalues    EBANDS =      -532.81667419
  atomic energy  EATOM  =      9276.43764982
  ---------------------------------------------------
  free energy    TOTEN  =       -32.71652414 eV

  energy without entropy =      -32.73975978  energy(sigma->0) =      -32.72426936


--------------------------------------------------------------------------------------------------------




----------------------------------------- Iteration    1(   9)  ---------------------------------------


    POTLOK:  cpu time    0.54: real time    0.49
    SETDIJ:  cpu time    0.15: real time    0.15
     EDDAV:  cpu time    6.34: real time    1.60
       DOS:  cpu time    0.00: real time    0.00
    CHARGE:  cpu time    0.24: real time    0.14
    MIXING:  cpu time    0.03: real time    0.01
    --------------------------------------------
      LOOP:  cpu time    7.31: real time    2.39

 eigenvalue-minimisations  :   217
 total energy-change (2. order) :-0.8727247E-02  (-0.2817310E-02)
 number of electron   71.9998701 magnetization    0.0051940
 augmentation part    30.5552686 magnetization    0.0083001

 Broyden mixing:
  rms(total) = 0.35156E-01    rms(broyden)= 0.35156E-01
  rms(prec ) = 0.48915E-01
  weight for this iteration     100.00

 eigenvalues of (default mixing * dielectric matrix)
  average eigenvalue GAMMA=   1.2416
  2.4317  1.0892  0.7760  0.6694

 Free energy of the ion-electron system (eV)
  ---------------------------------------------------
  alpha Z        PSCENC =       306.75524442
  Ewald energy   TEWEN  =     -5086.29860236
  -1/2 Hartree   DENC   =     -2868.21033172
  -exchange  EXHF       =         0.00000000
  -V(xc)+E(xc)   XCENC  =       205.22844577
  PAW double counting   =      6220.63197487    -7557.70621312
  entropy T*S    EENTRO =         0.02319404
  eigenvalues    EBANDS =      -529.58661310
  atomic energy  EATOM  =      9276.43764982
  ---------------------------------------------------
  free energy    TOTEN  =       -32.72525139 eV

  energy without entropy =      -32.74844543  energy(sigma->0) =      -32.73298274


--------------------------------------------------------------------------------------------------------




----------------------------------------- Iteration    1(  10)  ---------------------------------------


    POTLOK:  cpu time    0.57: real time    0.49
    SETDIJ:  cpu time    0.15: real time    0.15
     EDDAV:  cpu time    6.92: real time    1.75
       DOS:  cpu time    0.00: real time    0.00
    CHARGE:  cpu time    0.24: real time    0.14
    MIXING:  cpu time    0.03: real time    0.02
    --------------------------------------------
      LOOP:  cpu time    7.92: real time    2.55

 eigenvalue-minimisations  :   232
 total energy-change (2. order) :-0.1742459E-02  (-0.3977341E-03)
 number of electron   71.9998701 magnetization    0.0070725
 augmentation part    30.5557191 magnetization    0.0107796

 Broyden mixing:
  rms(total) = 0.10973E-01    rms(broyden)= 0.10973E-01
  rms(prec ) = 0.16186E-01
  weight for this iteration     100.00

 eigenvalues of (default mixing * dielectric matrix)
  average eigenvalue GAMMA=   1.2422
  2.6153  1.2794  0.9296  0.7444  0.6422

 Free energy of the ion-electron system (eV)
  ---------------------------------------------------
  alpha Z        PSCENC =       306.75524442
  Ewald energy   TEWEN  =     -5086.29860236
  -1/2 Hartree   DENC   =     -2868.56951061
  -exchange  EXHF       =         0.00000000
  -V(xc)+E(xc)   XCENC  =       205.26541507
  PAW double counting   =      6229.18625958    -7566.60280338
  entropy T*S    EENTRO =         0.02319234
  eigenvalues    EBANDS =      -528.92383872
  atomic energy  EATOM  =      9276.43764982
  ---------------------------------------------------
  free energy    TOTEN  =       -32.72699385 eV

  energy without entropy =      -32.75018619  energy(sigma->0) =      -32.73472463


--------------------------------------------------------------------------------------------------------




----------------------------------------- Iteration    1(  11)  ---------------------------------------


    POTLOK:  cpu time    0.56: real time    0.48
    SETDIJ:  cpu time    0.14: real time    0.15
     EDDAV:  cpu time    6.44: real time    1.63
       DOS:  cpu time    0.00: real time    0.00
    CHARGE:  cpu time    0.24: real time    0.14
    MIXING:  cpu time    0.03: real time    0.02
    --------------------------------------------
      LOOP:  cpu time    7.43: real time    2.42

 eigenvalue-minimisations  :   209
 total energy-change (2. order) :-0.4688862E-03  (-0.8790798E-04)
 number of electron   71.9998701 magnetization   -0.0015369
 augmentation part    30.5561455 magnetization   -0.0018419

 Broyden mixing:
  rms(total) = 0.46429E-02    rms(broyden)= 0.46428E-02
  rms(prec ) = 0.76906E-02
  weight for this iteration     100.00

 eigenvalues of (default mixing * dielectric matrix)
  average eigenvalue GAMMA=   1.2631
  2.6114  1.5986  0.6360  0.7403  0.8987  1.0936

 Free energy of the ion-electron system (eV)
  ---------------------------------------------------
  alpha Z        PSCENC =       306.75524442
  Ewald energy   TEWEN  =     -5086.29860236
  -1/2 Hartree   DENC   =     -2868.75514105
  -exchange  EXHF       =         0.00000000
  -V(xc)+E(xc)   XCENC  =       205.27413822
  PAW double counting   =      6228.18706048    -7565.40126543
  entropy T*S    EENTRO =         0.02319162
  eigenvalues    EBANDS =      -528.94973846
  atomic energy  EATOM  =      9276.43764982
  ---------------------------------------------------
  free energy    TOTEN  =       -32.72746274 eV

  energy without entropy =      -32.75065436  energy(sigma->0) =      -32.73519328


--------------------------------------------------------------------------------------------------------




----------------------------------------- Iteration    1(  12)  ---------------------------------------


    POTLOK:  cpu time    0.56: real time    0.48
    SETDIJ:  cpu time    0.15: real time    0.15
     EDDAV:  cpu time    5.41: real time    1.37
       DOS:  cpu time    0.00: real time    0.00
    CHARGE:  cpu time    0.24: real time    0.14
    MIXING:  cpu time    0.03: real time    0.02
    --------------------------------------------
      LOOP:  cpu time    6.40: real time    2.16

 eigenvalue-minimisations  :   160
 total energy-change (2. order) :-0.2233688E-03  (-0.1967073E-04)
 number of electron   71.9998701 magnetization   -0.0007743
 augmentation part    30.5567667 magnetization   -0.0013893

 Broyden mixing:
  rms(total) = 0.22927E-02    rms(broyden)= 0.22927E-02
  rms(prec ) = 0.39969E-02
  weight for this iteration     100.00

 eigenvalues of (default mixing * dielectric matrix)
  average eigenvalue GAMMA=   1.3144
  2.5618  2.3031  1.2308  0.6311  0.9616  0.7391  0.7732

 Free energy of the ion-electron system (eV)
  ---------------------------------------------------
  alpha Z        PSCENC =       306.75524442
  Ewald energy   TEWEN  =     -5086.29860236
  -1/2 Hartree   DENC   =     -2868.90376423
  -exchange  EXHF       =         0.00000000
  -V(xc)+E(xc)   XCENC  =       205.28113041
  PAW double counting   =      6226.14484996    -7563.20497808
  entropy T*S    EENTRO =         0.02319170
  eigenvalues    EBANDS =      -528.96240773
  atomic energy  EATOM  =      9276.43764982
  ---------------------------------------------------
  free energy    TOTEN  =       -32.72768610 eV

  energy without entropy =      -32.75087780  energy(sigma->0) =      -32.73541667


--------------------------------------------------------------------------------------------------------




----------------------------------------- Iteration    1(  13)  ---------------------------------------


    POTLOK:  cpu time    0.56: real time    0.48
    SETDIJ:  cpu time    0.15: real time    0.15
     EDDAV:  cpu time    5.20: real time    1.31
       DOS:  cpu time    0.00: real time    0.00
    --------------------------------------------
      LOOP:  cpu time    5.92: real time    1.94

 eigenvalue-minimisations  :   153
 total energy-change (2. order) :-0.6950343E-04  (-0.8695170E-05)
 number of electron   71.9998701 magnetization   -0.0007743
 augmentation part    30.5567667 magnetization   -0.0013893

 Free energy of the ion-electron system (eV)
  ---------------------------------------------------
  alpha Z        PSCENC =       306.75524442
  Ewald energy   TEWEN  =     -5086.29860236
  -1/2 Hartree   DENC   =     -2869.05661658
  -exchange  EXHF       =         0.00000000
  -V(xc)+E(xc)   XCENC  =       205.28895252
  PAW double counting   =      6225.02935106    -7562.06150779
  entropy T*S    EENTRO =         0.02319166
  eigenvalues    EBANDS =      -528.84541835
  atomic energy  EATOM  =      9276.43764982
  ---------------------------------------------------
  free energy    TOTEN  =       -32.72775561 eV

  energy without entropy =      -32.75094727  energy(sigma->0) =      -32.73548616


--------------------------------------------------------------------------------------------------------




 average (electrostatic) potential at core
  the test charge radii are     1.0314  1.0621
  (the norm of the test charge is              1.0000)
       1 -30.1972       2 -30.1972       3 -30.1972       4 -30.1972       5 -51.0289
       6 -51.0289       7 -51.0289       8 -51.0289
 
 
 
 E-fermi :   2.7353     XC(G=0):  -9.6067     alpha+bet : -9.0262
   add alpha+bet to get absolut eigen values

 spin component 1

 k-point   1 :       0.2500    0.2500    0.2500
  band No.  band energies     occupation 
      1     -11.7035      1.00000
      2     -11.7035      1.00000
      3     -11.7035      1.00000
      4     -11.6540      1.00000
      5     -11.5979      1.00000
      6     -11.5979      1.00000
      7     -11.5784      1.00000
      8     -11.5784      1.00000
      9     -11.5784      1.00000
     10     -11.5728      1.00000
     11     -11.5728      1.00000
     12     -11.5728      1.00000
     13     -11.5404      1.00000
     14     -11.5404      1.00000
     15     -11.5404      1.00000
     16     -11.5286      1.00000
     17     -11.5286      1.00000
     18     -11.5215      1.00000
     19     -11.5215      1.00000
     20     -11.5215      1.00000
     21      -8.8415      1.00000
     22      -7.4344      1.00000
     23      -7.4344      1.00000
     24      -7.4344      1.00000
     25      -3.0759      1.00000
     26      -3.0759      1.00000
     27      -3.0759      1.00000
     28      -0.9041      1.00000
     29      -0.0436      1.00000
     30      -0.0436      1.00000
     31      -0.0436      1.00000
     32       1.1728      1.00000
     33       1.1728      1.00000
     34       1.1728      1.00000
     35       2.5670      0.99986
     36       2.5670      0.99986
     37       4.7642      0.00000
     38       5.4488      0.00000
     39       5.4488      0.00000
     40       5.4488      0.00000
     41       7.8406      0.00000
     42       7.8406      0.00000
     43       8.0021      0.00000
     44       8.0021      0.00000
     45       8.0021      0.00000
     46       9.2957      0.00000
     47       9.5152      0.00000

 spin component 2

 k-point   1 :       0.2500    0.2500    0.2500
  band No.  band energies     occupation 
      1     -11.7043      1.00000
      2     -11.7043      1.00000
      3     -11.7043      1.00000
      4     -11.6549      1.00000
      5     -11.5988      1.00000
      6     -11.5988      1.00000
      7     -11.5793      1.00000
      8     -11.5793      1.00000
      9     -11.5793      1.00000
     10     -11.5737      1.00000
     11     -11.5737      1.00000
     12     -11.5737      1.00000
     13     -11.5413      1.00000
     14     -11.5413      1.00000
     15     -11.5413      1.00000
     16     -11.5295      1.00000
     17     -11.5295      1.00000
     18     -11.5224      1.00000
     19     -11.5224      1.00000
     20     -11.5224      1.00000
     21      -8.8417      1.00000
     22      -7.4346      1.00000
     23      -7.4346      1.00000
     24      -7.4346      1.00000
     25      -3.0762      1.00000
     26      -3.0762      1.00000
     27      -3.0762      1.00000
     28      -0.9043      1.00000
     29      -0.0440      1.00000
     30      -0.0440      1.00000
     31      -0.0440      1.00000
     32       1.1725      1.00000
     33       1.1725      1.00000
     34       1.1725      1.00000
     35       2.5667      1.00014
     36       2.5667      1.00014
     37       4.7639      0.00000
     38       5.4483      0.00000
     39       5.4483      0.00000
     40       5.4483      0.00000
     41       7.8400      0.00000
     42       7.8400      0.00000
     43       8.0018      0.00000
     44       8.0018      0.00000
     45       8.0018      0.00000
     46       9.2956      0.00000
     47       9.5147      0.00000


--------------------------------------------------------------------------------------------------------


 soft charge-density along one line, spin component           1
         0         1         2         3         4         5         6         7         8         9
 total charge-density along one line
 
 soft charge-density along one line, spin component           2
         0         1         2         3         4         5         6         7         8         9
 total charge-density along one line
 
 pseudopotential strength for first ion, spin component:           1
-15.383   0.000   0.000   0.000   0.000   9.418   0.000   0.000
  0.000 -15.383   0.000   0.000   0.000   0.000   9.418   0.000
  0.000   0.000 -15.383   0.000   0.000   0.000   0.000   9.418
  0.000   0.000   0.000 -15.383   0.000   0.000   0.000   0.000
  0.000   0.000   0.000   0.000 -15.383   0.000   0.000   0.000
  9.418   0.000   0.000   0.000   0.000  -3.699   0.000   0.000
  0.000   9.418   0.000   0.000   0.000   0.000  -3.699   0.000
  0.000   0.000   9.418   0.000   0.000   0.000   0.000  -3.699
  0.000   0.000   0.000   9.418   0.000   0.000   0.000   0.000
  0.000   0.000   0.000   0.000   9.418   0.000   0.000   0.000
  0.000   0.000   0.000   0.000   0.000   0.000   0.000   0.000
  0.000   0.000   0.000   0.000   0.000   0.000   0.000   0.000
  0.000   0.000   0.000  -0.002   0.000   0.000   0.000   0.000
 -0.002   0.000   0.000   0.000   0.000   0.002   0.000   0.000
  0.000  -0.002   0.000   0.000   0.000   0.000   0.002   0.000
  0.000   0.000   0.000   0.000   0.000   0.000   0.000   0.000
  0.000   0.000   0.000   0.000   0.000   0.000   0.000   0.000
  0.000   0.000   0.000   0.000   0.000   0.000   0.000   0.000
 pseudopotential strength for first ion, spin component:           2
-15.384   0.000   0.000   0.000   0.000   9.419   0.000   0.000
  0.000 -15.384   0.000   0.000   0.000   0.000   9.419   0.000
  0.000   0.000 -15.384   0.000   0.000   0.000   0.000   9.418
  0.000   0.000   0.000 -15.384   0.000   0.000   0.000   0.000
  0.000   0.000   0.000   0.000 -15.384   0.000   0.000   0.000
  9.419   0.000   0.000   0.000   0.000  -3.699   0.000   0.000
  0.000   9.419   0.000   0.000   0.000   0.000  -3.699   0.000
  0.000   0.000   9.418   0.000   0.000   0.000   0.000  -3.700
  0.000   0.000   0.000   9.419   0.000   0.000   0.000   0.000
  0.000   0.000   0.000   0.000   9.418   0.000   0.000   0.000
  0.000   0.000   0.000   0.000   0.000   0.000   0.000   0.000
  0.000   0.000   0.000   0.000   0.000   0.000   0.000   0.000
  0.000   0.000   0.000  -0.002   0.000   0.000   0.000   0.000
 -0.002   0.000   0.000   0.000   0.000   0.002   0.000   0.000
  0.000  -0.002   0.000   0.000   0.000   0.000   0.002   0.000
  0.000   0.000   0.000   0.000   0.000   0.000   0.000   0.000
  0.000   0.000   0.000   0.000   0.000   0.000   0.000   0.000
  0.000   0.000   0.000   0.000   0.000   0.000   0.000   0.000
 total augmentation occupancy for first ion, spin component:           1
  2.050   0.000   0.000   0.000   0.000   0.070   0.000   0.000   0.000   0.000   0.000   0.000   0.000   0.133   0.000   0.000
  0.000   2.050   0.000   0.000   0.000   0.000   0.070   0.000   0.000   0.000   0.000   0.000   0.000   0.000   0.133   0.000
  0.000   0.000   2.014   0.000   0.000   0.000   0.000   0.021   0.000   0.000   0.000   0.000   0.000   0.000   0.000   0.000
  0.000   0.000   0.000   2.050   0.000   0.000   0.000   0.000   0.070   0.000   0.000   0.000   0.133   0.000   0.000  -0.063
  0.000   0.000   0.000   0.000   2.014   0.000   0.000   0.000   0.000   0.021   0.000   0.000   0.000   0.000   0.000   0.000
  0.070   0.000   0.000   0.000   0.000   0.093   0.000   0.000   0.000   0.000   0.000   0.000   0.000   0.226   0.000   0.000
  0.000   0.070   0.000   0.000   0.000   0.000   0.093   0.000   0.000   0.000   0.000   0.000   0.000   0.000   0.226   0.000
  0.000   0.000   0.021   0.000   0.000   0.000   0.000   0.025   0.000   0.000   0.000   0.000   0.000   0.000   0.000   0.000
  0.000   0.000   0.000   0.070   0.000   0.000   0.000   0.000   0.093   0.000   0.000   0.000   0.226   0.000   0.000  -0.070
  0.000   0.000   0.000   0.000   0.021   0.000   0.000   0.000   0.000   0.025   0.000   0.000   0.000   0.000   0.000   0.000
  0.000   0.000   0.000   0.000   0.000   0.000   0.000   0.000   0.000   0.000   1.393  -0.309   0.000   0.000   0.000   0.000
  0.000   0.000   0.000   0.000   0.000   0.000   0.000   0.000   0.000   0.000  -0.309   0.133   0.000   0.000   0.000   0.000
  0.000   0.000   0.000   0.133   0.000   0.000   0.000   0.000   0.226   0.000   0.000   0.000   0.939   0.000   0.000  -0.276
  0.133   0.000   0.000   0.000   0.000   0.226   0.000   0.000   0.000   0.000   0.000   0.000   0.000   0.939   0.000   0.000
  0.000   0.133   0.000   0.000   0.000   0.000   0.226   0.000   0.000   0.000   0.000   0.000   0.000   0.000   0.939   0.000
  0.000   0.000   0.000  -0.063   0.000   0.000   0.000   0.000  -0.070   0.000   0.000   0.000  -0.276   0.000   0.000   0.100
 -0.063   0.000   0.000   0.000   0.000  -0.070   0.000   0.000   0.000   0.000   0.000   0.000   0.000  -0.276   0.000   0.000
  0.000  -0.063   0.000   0.000   0.000   0.000  -0.070   0.000   0.000   0.000   0.000   0.000   0.000   0.000  -0.276   0.000
 total augmentation occupancy for first ion, spin component:           2
  0.000   0.000   0.000   0.000   0.000   0.000   0.000   0.000   0.000   0.000   0.000   0.000   0.000   0.000   0.000   0.000
  0.000   0.000   0.000   0.000   0.000   0.000   0.000   0.000   0.000   0.000   0.000   0.000   0.000   0.000   0.000   0.000
  0.000   0.000   0.000   0.000   0.000   0.000   0.000   0.000   0.000   0.000   0.000   0.000   0.000   0.000   0.000   0.000
  0.000   0.000   0.000   0.000   0.000   0.000   0.000   0.000   0.000   0.000   0.000   0.000   0.000   0.000   0.000   0.000
  0.000   0.000   0.000   0.000   0.000   0.000   0.000   0.000   0.000   0.000   0.000   0.000   0.000   0.000   0.000   0.000
  0.000   0.000   0.000   0.000   0.000   0.000   0.000   0.000   0.000   0.000   0.000   0.000   0.000   0.000   0.000   0.000
  0.000   0.000   0.000   0.000   0.000   0.000   0.000   0.000   0.000   0.000   0.000   0.000   0.000   0.000   0.000   0.000
  0.000   0.000   0.000   0.000   0.000   0.000   0.000   0.000   0.000   0.000   0.000   0.000   0.000   0.000   0.000   0.000
  0.000   0.000   0.000   0.000   0.000   0.000   0.000   0.000   0.000   0.000   0.000   0.000   0.000   0.000   0.000   0.000
  0.000   0.000   0.000   0.000   0.000   0.000   0.000   0.000   0.000   0.000   0.000   0.000   0.000   0.000   0.000   0.000
  0.000   0.000   0.000   0.000   0.000   0.000   0.000   0.000   0.000   0.000   0.000   0.000   0.000   0.000   0.000   0.000
  0.000   0.000   0.000   0.000   0.000   0.000   0.000   0.000   0.000   0.000   0.000   0.000   0.000   0.000   0.000   0.000
  0.000   0.000   0.000   0.000   0.000   0.000   0.000   0.000   0.000   0.000   0.000   0.000   0.000   0.000   0.000   0.000
  0.000   0.000   0.000   0.000   0.000   0.000   0.000   0.000   0.000   0.000   0.000   0.000   0.000   0.000   0.000   0.000
  0.000   0.000   0.000   0.000   0.000   0.000   0.000   0.000   0.000   0.000   0.000   0.000   0.000   0.000   0.000   0.000
  0.000   0.000   0.000   0.000   0.000   0.000   0.000   0.000   0.000   0.000   0.000   0.000   0.000   0.000   0.000   0.000
  0.000   0.000   0.000   0.000   0.000   0.000   0.000   0.000   0.000   0.000   0.000   0.000   0.000   0.000   0.000   0.000
  0.000   0.000   0.000   0.000   0.000   0.000   0.000   0.000   0.000   0.000   0.000   0.000   0.000   0.000   0.000   0.000


------------------------ aborting loop because EDIFF is reached ----------------------------------------




--------------------------------------------------------------------------------------------------------



  FREE ENERGIE OF THE ION-ELECTRON SYSTEM (eV)
  ---------------------------------------------------
  free  energy   TOTEN  =       -32.727756 eV

  energy  without entropy=      -32.750947  energy(sigma->0) =      -32.735486
 
    CHARGE:  cpu time    0.21: real time    0.14
    FORLOC:  cpu time    0.03: real time    0.03
    FORNL :  cpu time    0.90: real time    0.90
    STRESS:  cpu time    3.88: real time    1.19
    FORCOR:  cpu time    0.51: real time    0.51
    FORHAR:  cpu time    0.08: real time    0.08
    MIXING:  cpu time    0.05: real time    0.02

  FORCE on cell =-STRESS in cart. coord.  units (eV):
  Direction    XX          YY          ZZ          XY          YZ          ZX
  --------------------------------------------------------------------------------------
  Alpha Z   306.75524   306.75524   306.75524
  Ewald   -1695.43513 -1695.43513 -1695.43513     0.00000     0.00000     0.00000
  Hartree   956.37523   956.37523   956.37523     0.00000     0.00000     0.00000
  E(xc)    -376.92968  -376.92968  -376.92968     0.00000     0.00000     0.00000
  Local     449.08401   449.08401   449.08401     0.00000     0.00000     0.00000
  n-local    96.32950    96.32952    96.32949    -4.13410    -4.13406    -4.13406
  augment  -178.05288  -178.05285  -178.05284     0.00006     0.00004     0.00002
  Kinetic   447.47908   447.47909   447.47914   -11.39280   -11.39287   -11.39284
  Fock        0.00000     0.00000     0.00000     0.00000     0.00000     0.00000
  -------------------------------------------------------------------------------------
  Total       5.60543     5.60543     5.60543     0.00000     0.00000     0.00000
  in kB      50.41755    50.41755    50.41755     0.00000     0.00000     0.00000
  external pressure =       50.42 kB  Pullay stress =        0.00 kB


 VOLUME and BASIS-vectors are now :
 -----------------------------------------------------------------------------
  energy-cutoff  :      313.00
  volume of cell :      178.13
      direct lattice vectors                 reciprocal lattice vectors
     5.626600000  0.000000000  0.000000000     0.177727224  0.000000000  0.000000000
     0.000000000  5.626600000  0.000000000     0.000000000  0.177727224  0.000000000
     0.000000000  0.000000000  5.626600000     0.000000000  0.000000000  0.177727224

  length of vectors
     5.626600000  5.626600000  5.626600000     0.177727224  0.177727224  0.177727224


 FORCES acting on ions
    electron-ion (+dipol)            ewald-force                    non-local-force                 convergence-correction
 -----------------------------------------------------------------------------------------------
   0.807E-13 0.552E-13 -.338E-12   0.115E-13 0.266E-14 -.169E-13   0.364E-16 0.971E-16 -.347E-17   -.161E-12 -.151E-12 -.245E-13
   0.817E-12 -.339E-11 -.466E-11   0.311E-13 0.115E-13 -.169E-13   -.173E-17 0.867E-16 -.139E-16   -.128E-12 -.891E-13 0.333E-12
   0.486E-13 0.897E-12 0.475E-12   0.258E-13 0.115E-13 0.169E-13   0.139E-16 0.109E-15 0.295E-16   -.125E-12 -.777E-13 0.208E-12
   0.834E-12 0.694E-13 -.462E-11   0.453E-13 0.169E-13 0.169E-13   -.104E-16 0.954E-16 0.867E-17   -.156E-12 -.209E-12 0.232E-12
   -.309E-14 0.147E-12 -.924E-13   -.264E-13 -.180E-13 0.164E-13   -.694E-17 -.625E-16 -.590E-16   -.699E-14 -.170E-13 0.365E-13
   -.403E-14 -.538E-12 0.114E-13   -.322E-13 -.111E-13 0.165E-13   -.146E-15 -.104E-15 -.451E-16   -.292E-13 -.188E-13 0.327E-13
   -.452E-14 0.139E-12 -.153E-12   -.248E-13 -.112E-13 -.163E-13   0.937E-16 -.104E-15 -.798E-16   -.493E-14 -.149E-13 0.470E-14
   -.483E-14 0.583E-13 -.558E-12   -.306E-13 -.169E-13 -.163E-13   0.659E-16 -.118E-15 -.729E-16   -.312E-13 -.246E-13 0.107E-13
 -----------------------------------------------------------------------------------------------
   0.176E-11 -.256E-11 -.993E-11   -.283E-15 -.145E-13 0.235E-15   0.451E-16 0.000E+00 -.236E-15   -.643E-12 -.602E-12 0.832E-12
 
 
 POSITION                                       TOTAL-FORCE (eV/Angst)
 -----------------------------------------------------------------------------------
      0.00000      0.00000      0.00000         0.000000      0.000000      0.000000
      2.81330      2.81330      0.00000         0.000000      0.000000      0.000000
      0.00000      2.81330      2.81330         0.000000      0.000000      0.000000
      2.81330      0.00000      2.81330         0.000000      0.000000      0.000000
      1.40665      1.40665      1.40665         0.000000      0.000000      0.000000
      4.21995      4.21995      1.40665         0.000000      0.000000      0.000000
      1.40665      4.21995      4.21995         0.000000      0.000000      0.000000
      4.21995      1.40665      4.21995         0.000000      0.000000      0.000000
 -----------------------------------------------------------------------------------
    total drift:                                0.000000      0.000000      0.000000


--------------------------------------------------------------------------------------------------------


    POTLOK:  cpu time    0.78: real time    0.63


--------------------------------------------------------------------------------------------------------


  FORCES: max atom, RMS     0.000000    0.000000
  FORCE total and by dimension    0.000000    0.000000
     LOOP+:  cpu time   97.00: real time   31.31
    4ORBIT:  cpu time    0.00: real time    0.00

 total amount of memory used by VASP on root node  48913. kBytes
========================================================================

   base      :    30000. kBytes
   nonl-proj :      931. kBytes
   fftplans  :     3916. kBytes
   grid      :    10266. kBytes
   one-center:      248. kBytes
   wavefun   :     3552. kBytes
 
  
  
 General timing and accounting informations for this job:
 ========================================================
  
                  Total CPU time used (sec):       98.572
                            User time (sec):       97.407
                          System time (sec):        1.165
                         Elapsed time (sec):       32.382
  
                   Maximum memory used (kb):           0.
                   Average memory used (kb):           0.
  
                          Minor page faults:        34348
                          Major page faults:            0
                 Voluntary context switches:          336
