    3    3    1    1
  0.1429167E+02  0.3500000E-09  0.3500000E-09  0.3500000E-09  0.1000000E-16
  1.000000000000000E-004
  CAR 
 unknown system                          
    9    2    8
 
  0.2500000E+00  0.2500000E+00  0.2500000E+00  0.5000000E+00
   1       -0.625497
   2        5.070699
   3        5.220499
   4        5.282604
   5       10.502542
   6       10.777759
   7       11.421444
   8       15.883938
 
 -0.2500000E+00  0.2500000E+00  0.2500000E+00  0.5000000E+00
   1       -0.627959
   2        5.101091
   3        5.235798
   4        5.321991
   5       10.072965
   6       10.914810
   7       11.356903
   8       15.862948
