       N       E                     dE             d eps       ncg     rms          rms(c)
RMM:   1     0.163980271485E+03    0.16398E+03   -0.14614E+04   192   0.401E+02
RMM:   2    -0.653984138580E+02   -0.22938E+03   -0.21365E+03   192   0.806E+01
RMM:   3    -0.104343841898E+03   -0.38945E+02   -0.34643E+02   192   0.252E+01
RMM:   4    -0.113762906014E+03   -0.94191E+01   -0.60347E+01   192   0.130E+01
RMM:   5    -0.115906103308E+03   -0.21432E+01   -0.13439E+01   192   0.580E+00
RMM:   6    -0.116438215055E+03   -0.53211E+00   -0.33381E+00   192   0.297E+00
RMM:   7    -0.116543329516E+03   -0.10511E+00   -0.81851E-01   192   0.151E+00
RMM:   8    -0.116567948633E+03   -0.24619E-01   -0.20962E-01   192   0.807E-01
RMM:   9    -0.116575784997E+03   -0.78364E-02   -0.72649E-02   409   0.441E-01
RMM:  10    -0.116576579113E+03   -0.79412E-03   -0.70948E-03   382   0.126E-01
RMM:  11    -0.116576617725E+03   -0.38612E-04   -0.31889E-04   281   0.275E-02
RMM:  12    -0.116576621566E+03   -0.38410E-05   -0.36595E-05   244   0.131E-02    0.643E+00
RMM:  13    -0.114869652912E+03    0.17070E+01   -0.22744E+00   384   0.155E+00    0.365E+00
RMM:  14    -0.114538461522E+03    0.33119E+00   -0.21986E-01   384   0.602E-01    0.232E+00
RMM:  15    -0.114397132955E+03    0.14133E+00   -0.73930E-02   384   0.452E-01    0.675E-01
RMM:  16    -0.114382500299E+03    0.14633E-01   -0.82842E-03   384   0.163E-01    0.110E-01
RMM:  17    -0.114381927514E+03    0.57278E-03   -0.69297E-04   376   0.473E-02    0.442E-02
RMM:  18    -0.114381875683E+03    0.51831E-04   -0.13707E-04   248   0.219E-02
   1 F= -.11438188E+03 E0= -.11437076E+03  d E =-.114382E+03
       N       E                     dE             d eps       ncg     rms          rms(c)
RMM:   1    -0.115299940310E+03   -0.91801E+00   -0.54195E+00   384   0.506E+00    0.896E-01
RMM:   2    -0.115210655922E+03    0.89284E-01   -0.14629E-01   385   0.672E-01    0.293E-01
RMM:   3    -0.115205585195E+03    0.50707E-02   -0.64982E-03   384   0.150E-01    0.154E-01
RMM:   4    -0.115205149310E+03    0.43589E-03   -0.10060E-03   383   0.568E-02    0.653E-02
RMM:   5    -0.115205141146E+03    0.81642E-05   -0.11225E-04   248   0.220E-02
   2 F= -.11520514E+03 E0= -.11520313E+03  d E =-.823265E+00
       N       E                     dE             d eps       ncg     rms          rms(c)
RMM:   1    -0.116070988214E+03   -0.86584E+00   -0.22139E+01   384   0.102E+01    0.150E+00
RMM:   2    -0.115810342651E+03    0.26065E+00   -0.40124E-01   384   0.128E+00    0.492E-01
RMM:   3    -0.115803709943E+03    0.66327E-02   -0.17731E-02   385   0.289E-01    0.268E-01
RMM:   4    -0.115802802932E+03    0.90701E-03   -0.33464E-03   384   0.107E-01    0.102E-01
RMM:   5    -0.115802854705E+03   -0.51773E-04   -0.24208E-04   277   0.355E-02
   3 F= -.11580285E+03 E0= -.11580484E+03  d E =-.142098E+01
       N       E                     dE             d eps       ncg     rms          rms(c)
RMM:   1    -0.116054321486E+03   -0.25152E+00   -0.38214E+00   384   0.430E+00    0.555E-01
RMM:   2    -0.116025429134E+03    0.28892E-01   -0.54451E-02   387   0.520E-01    0.199E-01
RMM:   3    -0.116024296675E+03    0.11325E-02   -0.36784E-03   381   0.129E-01    0.998E-02
RMM:   4    -0.116024236108E+03    0.60567E-04   -0.47995E-04   355   0.433E-02
   4 F= -.11602424E+03 E0= -.11602444E+03  d E =-.221381E+00
       N       E                     dE             d eps       ncg     rms          rms(c)
RMM:   1    -0.116030376432E+03   -0.60798E-02   -0.12531E-01   384   0.776E-01    0.101E-01
RMM:   2    -0.116029512652E+03    0.86378E-03   -0.17717E-03   384   0.953E-02    0.392E-02
RMM:   3    -0.116029481662E+03    0.30990E-04   -0.10559E-04   247   0.241E-02
   5 F= -.11602948E+03 E0= -.11602944E+03  d E =-.226627E+00
       N       E                     dE             d eps       ncg     rms          rms(c)
RMM:   1    -0.116115740958E+03   -0.86228E-01   -0.82095E-01   384   0.201E+00    0.221E-01
RMM:   2    -0.116112742284E+03    0.29987E-02   -0.93827E-03   385   0.233E-01    0.101E-01
RMM:   3    -0.116112400350E+03    0.34193E-03   -0.10084E-03   373   0.623E-02    0.429E-02
RMM:   4    -0.116112395881E+03    0.44689E-05   -0.97766E-05   245   0.208E-02
   6 F= -.11611240E+03 E0= -.11611239E+03  d E =-.829142E-01
       N       E                     dE             d eps       ncg     rms          rms(c)
RMM:   1    -0.116157898094E+03   -0.45498E-01   -0.13989E+00   384   0.261E+00    0.288E-01
RMM:   2    -0.116152746919E+03    0.51512E-02   -0.16134E-02   385   0.305E-01    0.132E-01
RMM:   3    -0.116152189963E+03    0.55696E-03   -0.16818E-03   380   0.808E-02    0.569E-02
RMM:   4    -0.116152183133E+03    0.68295E-05   -0.16728E-04   256   0.267E-02
   7 F= -.11615218E+03 E0= -.11615181E+03  d E =-.122701E+00
       N       E                     dE             d eps       ncg     rms          rms(c)
RMM:   1    -0.116190839923E+03   -0.38650E-01   -0.57169E-01   384   0.169E+00    0.218E-01
RMM:   2    -0.116187504148E+03    0.33358E-02   -0.77509E-03   385   0.201E-01    0.971E-02
RMM:   3    -0.116187264429E+03    0.23972E-03   -0.95910E-04   367   0.593E-02    0.425E-02
RMM:   4    -0.116187266078E+03   -0.16491E-05   -0.58987E-05   243   0.194E-02
   8 F= -.11618727E+03 E0= -.11618604E+03  d E =-.350829E-01
       N       E                     dE             d eps       ncg     rms          rms(c)
RMM:   1    -0.116199699881E+03   -0.12435E-01   -0.44420E-01   384   0.149E+00    0.191E-01
RMM:   2    -0.116197089007E+03    0.26109E-02   -0.60980E-03   385   0.178E-01    0.841E-02
RMM:   3    -0.116196908950E+03    0.18006E-03   -0.73921E-04   362   0.523E-02    0.370E-02
RMM:   4    -0.116196911078E+03   -0.21274E-05   -0.46156E-05   240   0.174E-02
   9 F= -.11619691E+03 E0= -.11619461E+03  d E =-.447279E-01
