       N       E                     dE             d eps       ncg     rms          rms(c)
RMM:   1     0.280727148852E+03    0.28073E+03   -0.17308E+04   144   0.579E+02
RMM:   2    -0.251804048568E+02   -0.30591E+03   -0.29821E+03   144   0.121E+02
RMM:   3    -0.914379319947E+02   -0.66258E+02   -0.67019E+02   144   0.407E+01
RMM:   4    -0.106641849239E+03   -0.15204E+02   -0.14407E+02   144   0.230E+01
RMM:   5    -0.112168546715E+03   -0.55267E+01   -0.42965E+01   144   0.116E+01
RMM:   6    -0.114089801279E+03   -0.19213E+01   -0.15068E+01   144   0.651E+00
RMM:   7    -0.114854179016E+03   -0.76438E+00   -0.59697E+00   144   0.378E+00
RMM:   8    -0.115170861355E+03   -0.31668E+00   -0.25554E+00   144   0.227E+00
RMM:   9    -0.115359170800E+03   -0.18831E+00   -0.16795E+00   325   0.140E+00
RMM:  10    -0.115393503352E+03   -0.34333E-01   -0.26192E-01   302   0.379E-01
RMM:  11    -0.115395960917E+03   -0.24576E-02   -0.15235E-02   233   0.896E-02
RMM:  12    -0.115395990584E+03   -0.29666E-04   -0.20169E-04   178   0.220E-02    0.646E+00
RMM:  13    -0.113636761689E+03    0.17592E+01   -0.43798E+00   288   0.268E+00    0.366E+00
RMM:  14    -0.113303051601E+03    0.33371E+00   -0.47351E-01   288   0.109E+00    0.223E+00
RMM:  15    -0.113174752924E+03    0.12830E+00   -0.10969E-01   290   0.633E-01    0.709E-01
RMM:  16    -0.113158481794E+03    0.16271E-01   -0.15311E-02   289   0.255E-01    0.106E-01
RMM:  17    -0.113157826912E+03    0.65488E-03   -0.16468E-03   290   0.773E-02    0.365E-02
RMM:  18    -0.113157788302E+03    0.38610E-04   -0.17466E-04   193   0.288E-02
   1 F= -.11315779E+03 E0= -.11315443E+03  d E =-.113158E+03
       N       E                     dE             d eps       ncg     rms          rms(c)
RMM:   1    -0.114462791108E+03   -0.13050E+01   -0.89725E+00   288   0.801E+00    0.882E-01
RMM:   2    -0.114383415909E+03    0.79375E-01   -0.22404E-01   288   0.109E+00    0.342E-01
RMM:   3    -0.114377300730E+03    0.61152E-02   -0.16865E-02   289   0.298E-01    0.172E-01
RMM:   4    -0.114376596421E+03    0.70431E-03   -0.41403E-03   288   0.127E-01    0.659E-02
RMM:   5    -0.114376618719E+03   -0.22298E-04   -0.21875E-04   202   0.393E-02
   2 F= -.11437662E+03 E0= -.11437586E+03  d E =-.121883E+01
       N       E                     dE             d eps       ncg     rms          rms(c)
RMM:   1    -0.115231086770E+03   -0.85449E+00   -0.16302E+01   288   0.107E+01    0.106E+00
RMM:   2    -0.115121141431E+03    0.10995E+00   -0.29055E-01   288   0.138E+00    0.440E-01
RMM:   3    -0.115111491435E+03    0.96500E-02   -0.34147E-02   290   0.412E-01    0.191E-01
RMM:   4    -0.115111101909E+03    0.38953E-03   -0.42413E-03   291   0.142E-01    0.822E-02
RMM:   5    -0.115111179447E+03   -0.77539E-04   -0.35173E-04   216   0.485E-02
   3 F= -.11511118E+03 E0= -.11510714E+03  d E =-.195339E+01
       N       E                     dE             d eps       ncg     rms          rms(c)
RMM:   1    -0.115585796955E+03   -0.47470E+00   -0.46053E+00   288   0.582E+00    0.485E-01
RMM:   2    -0.115563824801E+03    0.21972E-01   -0.69362E-02   289   0.715E-01    0.216E-01
RMM:   3    -0.115562351545E+03    0.14733E-02   -0.72603E-03   292   0.206E-01    0.104E-01
RMM:   4    -0.115562320231E+03    0.31314E-04   -0.89284E-04   279   0.708E-02
   4 F= -.11556232E+03 E0= -.11556042E+03  d E =-.451141E+00
       N       E                     dE             d eps       ncg     rms          rms(c)
RMM:   1    -0.115812192994E+03   -0.24984E+00   -0.83528E+00   288   0.786E+00    0.634E-01
RMM:   2    -0.115776272696E+03    0.35920E-01   -0.11760E-01   288   0.957E-01    0.294E-01
RMM:   3    -0.115773517224E+03    0.27555E-02   -0.15765E-02   290   0.292E-01    0.132E-01
RMM:   4    -0.115773533693E+03   -0.16470E-04   -0.12835E-03   284   0.887E-02    0.614E-02
RMM:   5    -0.115773566214E+03   -0.32520E-04   -0.15009E-04   184   0.350E-02
   5 F= -.11577357E+03 E0= -.11577027E+03  d E =-.662387E+00
       N       E                     dE             d eps       ncg     rms          rms(c)
RMM:   1    -0.115914830741E+03   -0.14130E+00   -0.25980E+00   288   0.456E+00    0.399E-01
RMM:   2    -0.115904296025E+03    0.10535E-01   -0.38336E-02   288   0.555E-01    0.185E-01
RMM:   3    -0.115903224097E+03    0.10719E-02   -0.49887E-03   289   0.167E-01    0.784E-02
RMM:   4    -0.115903210679E+03    0.13419E-04   -0.43398E-04   232   0.521E-02
   6 F= -.11590321E+03 E0= -.11589848E+03  d E =-.129644E+00
       N       E                     dE             d eps       ncg     rms          rms(c)
RMM:   1    -0.115910569257E+03   -0.73452E-02   -0.20705E-01   288   0.129E+00    0.112E-01
RMM:   2    -0.115909830561E+03    0.73870E-03   -0.30639E-03   288   0.159E-01    0.542E-02
RMM:   3    -0.115909753778E+03    0.76783E-04   -0.39229E-04   231   0.480E-02
   7 F= -.11590975E+03 E0= -.11590467E+03  d E =-.136188E+00
       N       E                     dE             d eps       ncg     rms          rms(c)
RMM:   1    -0.116022763862E+03   -0.11293E+00   -0.18688E+00   288   0.405E+00    0.307E-01
RMM:   2    -0.116019457374E+03    0.33065E-02   -0.22463E-02   288   0.461E-01    0.168E-01
RMM:   3    -0.116018749474E+03    0.70790E-03   -0.33368E-03   288   0.133E-01    0.632E-02
RMM:   4    -0.116018761348E+03   -0.11874E-04   -0.19812E-04   198   0.378E-02
   8 F= -.11601876E+03 E0= -.11601511E+03  d E =-.109008E+00
       N       E                     dE             d eps       ncg     rms          rms(c)
RMM:   1    -0.116067289210E+03   -0.48540E-01   -0.25351E+00   288   0.471E+00    0.348E-01
RMM:   2    -0.116063068907E+03    0.42203E-02   -0.30422E-02   288   0.536E-01    0.191E-01
RMM:   3    -0.116062168368E+03    0.90054E-03   -0.43211E-03   288   0.152E-01    0.725E-02
RMM:   4    -0.116062186890E+03   -0.18522E-04   -0.27203E-04   209   0.434E-02
   9 F= -.11606219E+03 E0= -.11606029E+03  d E =-.152433E+00
       N       E                     dE             d eps       ncg     rms          rms(c)
RMM:   1    -0.116145592763E+03   -0.83424E-01   -0.17969E+00   288   0.405E+00    0.323E-01
RMM:   2    -0.116142301552E+03    0.32912E-02   -0.26288E-02   289   0.476E-01    0.176E-01
RMM:   3    -0.116141874392E+03    0.42716E-03   -0.38556E-03   287   0.151E-01    0.725E-02
RMM:   4    -0.116141894701E+03   -0.20309E-04   -0.24188E-04   206   0.460E-02
  10 F= -.11614189E+03 E0= -.11614162E+03  d E =-.797078E-01
       N       E                     dE             d eps       ncg     rms          rms(c)
RMM:   1    -0.116155559296E+03   -0.13685E-01   -0.52911E-01   288   0.219E+00    0.174E-01
RMM:   2    -0.116154627953E+03    0.93134E-03   -0.78890E-03   289   0.261E-01    0.942E-02
RMM:   3    -0.116154510780E+03    0.11717E-03   -0.11766E-03   278   0.832E-02    0.384E-02
RMM:   4    -0.116154516962E+03   -0.61815E-05   -0.69297E-05   180   0.262E-02
  11 F= -.11615452E+03 E0= -.11615470E+03  d E =-.923301E-01
       N       E                     dE             d eps       ncg     rms          rms(c)
RMM:   1    -0.116179101167E+03   -0.24590E-01   -0.28094E-01   288   0.154E+00    0.124E-01
RMM:   2    -0.116178308066E+03    0.79310E-03   -0.37149E-03   288   0.182E-01    0.632E-02
RMM:   3    -0.116178170991E+03    0.13707E-03   -0.65297E-04   275   0.584E-02    0.228E-02
RMM:   4    -0.116178170435E+03    0.55555E-06   -0.34308E-05   171   0.172E-02
  12 F= -.11617817E+03 E0= -.11617824E+03  d E =-.236535E-01
       N       E                     dE             d eps       ncg     rms          rms(c)
RMM:   1    -0.116189438926E+03   -0.11268E-01   -0.39417E-01   288   0.183E+00    0.148E-01
RMM:   2    -0.116188322534E+03    0.11164E-02   -0.52363E-03   288   0.216E-01    0.754E-02
RMM:   3    -0.116188132598E+03    0.18994E-03   -0.92065E-04   279   0.694E-02    0.272E-02
RMM:   4    -0.116188132316E+03    0.28146E-06   -0.46690E-05   176   0.198E-02
  13 F= -.11618813E+03 E0= -.11618810E+03  d E =-.336154E-01
