 vasp.5.2.2 15Apr09 complex 
 executed on             LinuxIFC date 2016.12.16  16:02:10
 running on   32 nodes
 distr:  one band on    1 nodes,   32 groups


--------------------------------------------------------------------------------------------------------


 INCAR:
 POTCAR:   PAW_PBE Al 04Jan2001                   
 POTCAR:   PAW_PBE Mg 05Jan2001                   
 POTCAR:   PAW_PBE Al 04Jan2001                   
   VRHFIN =Al: s2p1                                                             
   LEXCH  = PE                                                                  
   EATOM  =    53.5387 eV,    3.9350 Ry                                         
                                                                                
   TITEL  = PAW_PBE Al 04Jan2001                                                
   LULTRA =        F    use ultrasoft PP ?                                      
   IUNSCR =        1    unscreen: 0-lin 1-nonlin 2-no                           
   RPACOR =    1.500    partial core radius                                     
   POMASS =   26.982; ZVAL   =    3.000    mass and valenz                      
   RCORE  =    1.900    outmost cutoff radius                                   
   RWIGS  =    2.650; RWIGS  =    1.402    wigner-seitz radius (au A)           
   ENMAX  =  240.300; ENMIN  =  180.225 eV                                      
   ICORE  =        2    local potential                                         
   LCOR   =        T    correct aug charges                                     
   LPAW   =        T    paw PP                                                  
   EAUG   =  291.052                                                            
   DEXC   =    -.041                                                            
   RMAX   =    2.974    core radius for proj-oper                               
   RAUG   =    1.300    factor for augmentation sphere                          
   RDEP   =    1.966    radius for radial grids                                 
   QCUT   =   -4.203; QGAM   =    8.405    optimization parameters              
                                                                                
   Description                                                                  
     l     E      TYP  RCUT    TYP  RCUT                                        
     0   .000     23  1.900                                                     
     0   .000     23  1.900                                                     
     1   .000     23  1.900                                                     
     1  1.000     23  1.900                                                     
     2   .000      7  1.900                                                     
  local pseudopotential read in
  partial core-charges read in
  atomic valenz-charges read in
  non local Contribution for L=           0  read in
    real space projection operators read in
  non local Contribution for L=           0  read in
    real space projection operators read in
  non local Contribution for L=           1  read in
    real space projection operators read in
  non local Contribution for L=           1  read in
    real space projection operators read in
    PAW grid and wavefunctions read in
 
   number of l-projection  operators is LMAX  =           4
   number of lm-projection operators is LMMAX =           8
 
 POTCAR:   PAW_PBE Mg 05Jan2001                   
   VRHFIN =Mg: s2p0                                                             
   LEXCH  = PE                                                                  
   EATOM  =    23.0029 eV,    1.6907 Ry                                         
                                                                                
   TITEL  = PAW_PBE Mg 05Jan2001                                                
   LULTRA =        F    use ultrasoft PP ?                                      
   IUNSCR =        1    unscreen: 0-lin 1-nonlin 2-no                           
   RPACOR =    2.000    partial core radius                                     
   POMASS =   24.305; ZVAL   =    2.000    mass and valenz                      
   RCORE  =    2.000    outmost cutoff radius                                   
   RWIGS  =    2.880; RWIGS  =    1.524    wigner-seitz radius (au A)           
   ENMAX  =  210.012; ENMIN  =  157.509 eV                                      
   ICORE  =        2    local potential                                         
   LCOR   =        T    correct aug charges                                     
   LPAW   =        T    paw PP                                                  
   EAUG   =  274.554                                                            
   DEXC   =    -.136                                                            
   RMAX   =    3.182    core radius for proj-oper                               
   RAUG   =    1.300    factor for augmentation sphere                          
   RDEP   =    2.025    radius for radial grids                                 
   QCUT   =   -3.929; QGAM   =    7.858    optimization parameters              
                                                                                
   Description                                                                  
     l     E      TYP  RCUT    TYP  RCUT                                        
     0   .000     23  2.000                                                     
     0  2.000     23  2.000                                                     
     1   .000     23  2.000                                                     
     1  2.000     23  2.000                                                     
     2   .000     23  2.000                                                     
  local pseudopotential read in
  partial core-charges read in
  atomic valenz-charges read in
  non local Contribution for L=           0  read in
    real space projection operators read in
  non local Contribution for L=           0  read in
    real space projection operators read in
  non local Contribution for L=           1  read in
    real space projection operators read in
  non local Contribution for L=           1  read in
    real space projection operators read in
    PAW grid and wavefunctions read in
 
   number of l-projection  operators is LMAX  =           4
   number of lm-projection operators is LMMAX =           8
 

 ----------------------------------------------------------------------------- 
|                                                                             |
|  ADVICE TO THIS USER RUNNING 'VASP/VAMP'   (HEAR YOUR MASTER'S VOICE ...):  |
|                                                                             |
|      You have a (more or less) 'large supercell' and for larger cells       |
|      it might be more efficient to use real space projection operators      |
|      So try LREAL= Auto  in the INCAR   file.                               |
|      Mind: If you want to do a very accurate calculations keep the          |
|      reciprocal projection scheme          (i.e. LREAL=.FALSE.)             |
|                                                                             |
 ----------------------------------------------------------------------------- 

 PAW_PBE Al 04Jan2001                   :
 energy of atom  1       EATOM=  -53.5387
 kinetic energy error for atom=    0.0011 (will be added to EATOM!!)
 PAW_PBE Mg 05Jan2001                   :
 energy of atom  2       EATOM=  -23.0029
 kinetic energy error for atom=    0.0002 (will be added to EATOM!!)
 
 
 POSCAR: Mg1 Al32                                
  positions in direct lattice
  velocities in cartesian coordinates
 exchange correlation table for  LEXCH =        8
   RHO(1)=    0.500       N(1)  =     2000
   RHO(2)=  100.500       N(2)  =     4000

 VTST: version 2.03d, (02/18/09)

 CHAIN: initializing optimizer
 
 OPT: Using VASP Conjugate-Gradient optimizer
 CHAIN: Read ICHAIN            0
 


--------------------------------------------------------------------------------------------------------


 ion  position               nearest neighbor table
   1  0.010  0.010  0.010-   2 2.76   3 2.76   4 2.76  15 2.77  22 2.77  28 2.77  12 2.93   6 2.93
                            18 2.93  20 2.93   7 2.93  11 2.93
   2  0.251  0.016  0.251-   8 2.60  19 2.60   3 2.69   4 2.69  21 2.71   1 2.76   5 2.76  17 2.76
                            16 2.81  27 2.81  12 2.90  11 2.90
   3  0.251  0.251  0.016-   8 2.60  10 2.60   2 2.69   4 2.69  13 2.71   1 2.76   5 2.76   9 2.76
                            24 2.81  26 2.81  18 2.90  20 2.90
   4  0.016  0.251  0.251-  10 2.60  19 2.60   2 2.69   3 2.69  25 2.71   1 2.76   9 2.76  17 2.76
                            23 2.81  14 2.81   7 2.90   6 2.90
   5  0.487  0.005  0.005-   8 2.72  16 2.75  24 2.75   3 2.76   2 2.76   7 2.81   6 2.81  32 2.83
                            11 2.93  18 2.93  22 2.99  15 2.99
   6  0.736  0.027  0.246-  31 2.48   7 2.50  23 2.56  15 2.65   8 2.71   5 2.81  21 2.81   4 2.90
                             1 2.93  17 2.93  16 3.00  12 3.33
   7  0.736  0.246  0.027-  30 2.48   6 2.50  14 2.56  22 2.65   8 2.71   5 2.81  13 2.81   4 2.90
                             1 2.93   9 2.93  24 3.00  20 3.33
   8  0.479  0.242  0.242-   2 2.60   3 2.60   6 2.71   7 2.71  10 2.71  19 2.71   5 2.72  13 2.76
                            21 2.76  29 2.82  23 2.97  14 2.97
   9  0.005  0.487  0.005-  10 2.72  14 2.75  26 2.75   4 2.76   3 2.76  11 2.81  12 2.81  30 2.83
                             7 2.93  20 2.93  28 2.99  15 2.99
  10  0.242  0.479  0.242-   3 2.60   4 2.60  11 2.71  12 2.71   8 2.71  19 2.71   9 2.72  13 2.76
                            25 2.76  29 2.82  27 2.97  16 2.97
  11  0.246  0.736  0.027-  32 2.48  12 2.50  16 2.56  28 2.65  10 2.71   9 2.81  13 2.81   2 2.90
                             1 2.93   5 2.93  26 3.00  18 3.33
  12  0.027  0.736  0.246-  31 2.48  11 2.50  27 2.56  15 2.65  10 2.71   9 2.81  25 2.81   2 2.90
                             1 2.93  17 2.93  14 3.00   6 3.33
  13  0.488  0.488  0.005-   3 2.71   8 2.76  10 2.76   7 2.81  11 2.81  24 2.86  26 2.86  14 2.87
                            16 2.87  30 3.05  32 3.05  15 3.23  33 3.51
  14  0.757  0.482  0.237-   7 2.56  31 2.64   9 2.75  15 2.78  23 2.81   4 2.81  25 2.86  13 2.87
                             8 2.97  29 2.98  12 3.00  16 3.14
  15  0.769  0.769  0.047-   6 2.65  12 2.65  33 2.73   1 2.77  16 2.78  14 2.78  31 2.86   9 2.99
                             5 2.99  22 3.18  28 3.18  13 3.23
  16  0.482  0.757  0.237-  11 2.56  31 2.64   5 2.75  15 2.78  27 2.81   2 2.81  21 2.86  13 2.87
                            10 2.97  29 2.98   6 3.00  14 3.14
  17  0.005  0.005  0.487-  19 2.72  23 2.75  27 2.75   4 2.76   2 2.76  18 2.81  20 2.81  31 2.83
                             6 2.93  12 2.93  28 2.99  22 2.99
  18  0.246  0.027  0.736-  32 2.48  20 2.50  24 2.56  28 2.65  19 2.71  17 2.81  21 2.81   3 2.90
                             1 2.93   5 2.93  27 3.00  11 3.33
  19  0.242  0.242  0.479-   2 2.60   4 2.60  18 2.71  20 2.71   8 2.71  10 2.71  17 2.72  21 2.76
                            25 2.76  29 2.82  26 2.97  24 2.97
  20  0.027  0.246  0.736-  30 2.48  18 2.50  26 2.56  22 2.65  19 2.71  17 2.81  25 2.81   3 2.90
                             1 2.93   9 2.93  23 3.00   7 3.33
  21  0.488  0.005  0.488-   2 2.71   8 2.76  19 2.76  18 2.81   6 2.81  27 2.86  16 2.86  24 2.87
                            23 2.87  31 3.05  32 3.05  22 3.23  33 3.51
  22  0.769  0.047  0.769-   7 2.65  20 2.65  33 2.73   1 2.77  24 2.78  23 2.78  30 2.86  17 2.99
                             5 2.99  15 3.18  28 3.18  21 3.23
  23  0.757  0.237  0.482-   6 2.56  30 2.64  17 2.75  22 2.78  14 2.81   4 2.81  25 2.86  21 2.87
                             8 2.97  29 2.98  20 3.00  24 3.14
  24  0.482  0.237  0.757-  18 2.56  30 2.64   5 2.75  22 2.78  26 2.81   3 2.81  13 2.86  21 2.87
                            19 2.97  29 2.98   7 3.00  23 3.14
  25  0.005  0.488  0.488-   4 2.71  10 2.76  19 2.76  12 2.81  20 2.81  23 2.86  14 2.86  26 2.87
                            27 2.87  30 3.05  31 3.05  28 3.23  33 3.51
  26  0.237  0.482  0.757-  20 2.56  32 2.64   9 2.75  28 2.78  24 2.81   3 2.81  13 2.86  25 2.87
                            19 2.97  29 2.98  11 3.00  27 3.14
  27  0.237  0.757  0.482-  12 2.56  32 2.64  17 2.75  28 2.78  16 2.81   2 2.81  21 2.86  25 2.87
                            10 2.97  29 2.98  18 3.00  26 3.14
  28  0.047  0.769  0.769-  11 2.65  18 2.65  33 2.73   1 2.77  27 2.78  26 2.78  32 2.86  17 2.99
                             9 2.99  15 3.18  22 3.18  25 3.23
  29  0.489  0.489  0.489-   8 2.82  10 2.82  19 2.82  23 2.98  27 2.98  16 2.98  24 2.98  26 2.98
                            14 2.98  33 3.20  31 3.24  32 3.24  30 3.24
  30  0.765  0.400  0.765-   7 2.48  20 2.48  33 2.62  24 2.64  23 2.64   9 2.83  22 2.86  25 3.05
                            13 3.05  29 3.24
  31  0.765  0.765  0.400-   6 2.48  12 2.48  33 2.62  16 2.64  14 2.64  17 2.83  15 2.86  25 3.05
                            21 3.05  29 3.24
  32  0.400  0.765  0.765-  11 2.48  18 2.48  33 2.62  27 2.64  26 2.64   5 2.83  28 2.86  13 3.05
                            21 3.05  29 3.24
  33  0.717  0.717  0.717-  30 2.62  31 2.62  32 2.62  15 2.73  22 2.73  28 2.73  29 3.20  25 3.51
                            21 3.51  13 3.51
 
  LATTYP: Found a simple cubic cell.
 ALAT       =     8.0870400000
  
  Lattice vectors:
  
 A1 = (   8.0870400000,   0.0000000000,   0.0000000000)
 A2 = (   0.0000000000,   8.0870400000,   0.0000000000)
 A3 = (   0.0000000000,   0.0000000000,   8.0870400000)
 Subroutine PRICEL returns:
 Original cell was already a primitive cell.
 

Analysis of symmetry for initial positions (statically):

 Routine SETGRP: Setting up the symmetry group for a 
 simple cubic supercell.


 Subroutine GETGRP returns: Found  6 space group operations
 (whereof  6 operations were pure point group operations)
 out of a pool of 48 trial point group operations.


The static configuration has the point symmetry C_3v.

Analysis of symmetry for dynamics (positions and initial velocities):

 Subroutine DYNSYM returns: Found  6 space group operations
 (whereof  6 operations were pure point group operations)
 out of a pool of  6 trial space group operations
 (whereof  6 operations were pure point group operations)
 and found also     1 'primitive' translations


The dynamic configuration has the point symmetry C_3v.
 
 
 KPOINTS: Automatic kpoint scheme                 

Automatic generation of k-mesh.
 
 Subroutine IBZKPT returns following result:
 ===========================================
 
 Found      2 irreducible k-points:
 
 Following reciprocal coordinates:
            Coordinates               Weight
  0.250000  0.250000  0.250000      2.000000
 -0.250000  0.250000  0.250000      6.000000
 
 Following cartesian coordinates:
            Coordinates               Weight
  0.030914  0.030914  0.030914      2.000000
 -0.030914  0.030914  0.030914      6.000000
 


--------------------------------------------------------------------------------------------------------




 Dimension of arrays:
   k-points           NKPTS =      2   k-points in BZ     NKDIM =      2   number of bands    NBANDS=     96
   number of dos      NEDOS =    301   number of ions     NIONS =     33
   non local maximal  LDIM  =      4   non local SUM 2l+1 LMDIM =      8
   total plane-waves  NPLWV = 110592
   max r-space proj   IRMAX =      1   max aug-charges    IRDMAX=   9081
   dimension x,y,z NGX =    48 NGY =   48 NGZ =   48
   dimension x,y,z NGXF=    96 NGYF=   96 NGZF=   96
   support grid    NGXF=    96 NGYF=   96 NGZF=   96
   ions per type =              32   1
 NGX,Y,Z   is equivalent  to a cutoff of   9.87,  9.87,  9.87 a.u.
 NGXF,Y,Z  is equivalent  to a cutoff of  19.73, 19.73, 19.73 a.u.


 I would recommend the setting:
   dimension x,y,z NGX =    46 NGY =   46 NGZ =   46
 SYSTEM =  unknown system                          
 POSCAR =  Mg1 Al32                                

 Startparameter for this run:
   NWRITE =      2    write-flag & timer
   PREC   = accura    medium, high low
   ISTART =      0    job   : 0-new  1-cont  2-samecut
   ICHARG =      2    charge: 1-file 2-atom 10-const
   ISPIN  =      1    spin polarized calculation?
   LNONCOLLINEAR =      F non collinear calculations
   LSORBIT =      F    spin-orbit coupling
   INIWAV =      1    electr: 0-lowe 1-rand  2-diag
   LASPH  =      F    aspherical Exc in radial PAW
   METAGGA=      F    non-selfconsistent MetaGGA calc.

 Electronic Relaxation 1
   ENCUT  =  300.0 eV  22.05 Ry    4.70 a.u.  11.42 11.42 11.42*2*pi/ulx,y,z
   ENINI  =  300.0     initial cutoff
   ENAUG  =  291.1 eV  augmentation charge cutoff
   NELM   =     60;   NELMIN=  2; NELMDL=-12     # of ELM steps 
   EDIFF  = 0.1E-03   stopping-criterion for ELM
   LREAL  =      F    real-space projection
   LCOMPAT=      F    compatible to vasp.4.4
   LREAL_COMPAT= F    compatible to vasp.4.5.1-3
   GGA_COMPAT  = T    GGA compatible to vasp.4.4-vasp.4.6
   LMAXPAW     = -100 max onsite density
   LMAXMIX     =    2 max onsite mixed and CHGCAR
   VOSKOWN=      0    Vosko Wilk Nusair interpolation
   ROPT   =    0.00000   0.00000
 Ionic relaxation
   EDIFFG = 0.5E-01   stopping-criterion for IOM
   NSW    =    191    number of steps for IOM
   NBLOCK =      1;   KBLOCK =    191    inner block; outer block 
   IBRION =      2    ionic relax: 0-MD 1-quasi-New 2-CG
   NFREE  =      1    steps in history (QN), initial steepest desc. (CG)
   ISIF   =      2    stress and relaxation
   IWAVPR =     11    prediction:  0-non 1-charg 2-wave 3-comb
   ISYM   =      2    0-nonsym 1-usesym 2-fastsym
   LCORR  =      T    Harris-Foulkes like correction to forces

   POTIM  = 0.5000    time-step for ionic-motion
   TEIN   =    0.0    initial temperature
   TEBEG  =    0.0;   TEEND  =   0.0 temperature during run
   SMASS  =  -3.00    Nose mass-parameter (am)
   estimated Nose-frequenzy (Omega)   =  0.10E-29 period in steps =****** mass=  -0.149E-26a.u.
   NPACO  =    256;   APACO  = 16.0  distance and # of slots for P.C.
   PSTRESS=    0.0 pullay stress

  Mass of Ions in am
   POMASS =  26.98 24.30
  Ionic Valenz
   ZVAL   =   3.00  2.00
  Atomic Wigner-Seitz radii
   RWIGS  =  -1.00 -1.00
   NELECT =      98.0000    total number of electrons
   NUPDOWN=      -1.0000    fix difference up-down

 DOS related values:
   EMIN   =  10.00;   EMAX   =-10.00  energy-range for DOS
   EFERMI =   0.00
   ISMEAR =     1;   SIGMA  =   0.20  broadening in eV -4-tet -1-fermi 0-gaus

 Electronic relaxation 2 (details)
   IALGO  =     48    algorithm
   LDIAG  =      T    sub-space diagonalisation
   IMIX   =      4    mixing-type and parameters
     AMIX     =   0.40;   BMIX     =  1.00
     AMIX_MAG =   1.60;   BMIX_MAG =  1.00
     AMIN     =   0.10
     WC   =   100.;   INIMIX=   1;  MIXPRE=   1

 Intra band minimization:
   WEIMIN = 0.0010     energy-eigenvalue tresh-hold
   EBREAK =  0.38E-06  absolut break condition
   DEPER  =   0.30     relativ break condition  

   TIME   =   0.40     timestep for ELM

  volume/ion in A,a.u.               =      16.03       108.16
  Fermi-wavevector in a.u.,A,eV,Ry     =   0.933313  1.763706 11.851667  0.871073
  Thomas-Fermi vector in A             =   2.060001
 
 Write flags
   LWAVE  =      F    write WAVECAR
   LCHARG =      F    write CHGCAR
   LVTOT  =      F    write LOCPOT, local potential
   LELF   =      F    write electronic localiz. function (ELF)
   LORBIT =      0    0 simple, 1 ext, 2 COOP (PROOUT)


 Dipole corrections
   LMONO  =      F    monopole corrections only (constant potential shift)
   LDIPOL =      F    correct potential (dipole corrections)
   IDIPOL =      0    1-x, 2-y, 3-z, 4-all directions 
   EPSILON=  1.0000000 bulk dielectric constant

 Exchange correlation treatment:
   GGA     =    --    GGA type
   LEXCH   =     8    internal setting for exchange type
   VOSKOWN=      0    Vosko Wilk Nusair interpolation
   LHFCALC =     F    Hartree Fock is set to
   LHFONE  =     F    Hartree Fock one center treatment
   AEXX    =    0.0000 exact exchange contribution

 Linear response parameters
   LEPSILON=     F    determine dielectric tensor
   LRPA    =     F    only Hartree local field effects (RPA)
   LNABLA  =     F    use nabla operator in PAW spheres
   LVEL    =     F    velocity operator in full k-point grid
   LINTERFAST=   F  fast interpolation
   KINTER  =     0    interpolate to denser k-point grid
   CSHIFT  =0.1000    complex shift for real part using Kramers Kronig
   OMEGAMAX=  -1.0    maximum frequency

 Orbital magnetization related:
   ORBITALMAG=     F  switch on orbital magnetization
   LCHIMAG   =     F  perturbation theory with respect to B field



--------------------------------------------------------------------------------------------------------


 conjugate gradient relaxation of ions
 charge density and potential will be updated during run
 non-spin polarized calculation
 RMM-DIIS sequential band-by-band
 perform sub-space diagonalisation
    before iterative eigenvector-optimisation
 modified Broyden-mixing scheme, WC =      100.0
 initial mixing is a Kerker type mixing with AMIX =  0.4000 and BMIX =      1.0000
 Hartree-type preconditioning will be used
 using additional bands           47
 reciprocal scheme for non local part
 use partial core corrections
 calculate Harris-corrections to forces 
   (improved forces if not selfconsistent)
 use gradient corrections 
 use of overlap-Matrix (Vanderbilt PP)
 Methfessel and Paxton  Order N= 1 SIGMA  =   0.20


--------------------------------------------------------------------------------------------------------


  energy-cutoff  :      300.00
  volume of cell :      528.89
      direct lattice vectors                 reciprocal lattice vectors
     8.087040000  0.000000000  0.000000000     0.123654638  0.000000000  0.000000000
     0.000000000  8.087040000  0.000000000     0.000000000  0.123654638  0.000000000
     0.000000000  0.000000000  8.087040000     0.000000000  0.000000000  0.123654638

  length of vectors
     8.087040000  8.087040000  8.087040000     0.123654638  0.123654638  0.123654638


 
 k-points in units of 2pi/SCALE and weight: Automatic kpoint scheme                 
   0.03091366  0.03091366  0.03091366       0.250
  -0.03091366  0.03091366  0.03091366       0.750
 
 k-points in reciprocal lattice and weights: Automatic kpoint scheme                 
   0.25000000  0.25000000  0.25000000       0.250
  -0.25000000  0.25000000  0.25000000       0.750
 
 position of ions in fractional coordinates (direct lattice) 
   0.00970200  0.00970200  0.00970200
   0.25083000  0.01565500  0.25083000
   0.25083000  0.25083000  0.01565500
   0.01565500  0.25083000  0.25083000
   0.48721300  0.00478600  0.00478600
   0.73589500  0.02748200  0.24581200
   0.73589500  0.24581200  0.02748200
   0.47940000  0.24232900  0.24232900
   0.00478600  0.48721300  0.00478600
   0.24232900  0.47940000  0.24232900
   0.24581200  0.73589500  0.02748200
   0.02748200  0.73589500  0.24581200
   0.48802900  0.48802900  0.00540100
   0.75676000  0.48221600  0.23660500
   0.76877100  0.76877100  0.04721600
   0.48221600  0.75676000  0.23660500
   0.00478600  0.00478600  0.48721300
   0.24581200  0.02748200  0.73589500
   0.24232900  0.24232900  0.47940000
   0.02748200  0.24581200  0.73589500
   0.48802900  0.00540100  0.48802900
   0.76877100  0.04721600  0.76877100
   0.75676000  0.23660500  0.48221600
   0.48221600  0.23660500  0.75676000
   0.00540100  0.48802900  0.48802900
   0.23660500  0.48221600  0.75676000
   0.23660500  0.75676000  0.48221600
   0.04721600  0.76877100  0.76877100
   0.48898000  0.48898000  0.48898000
   0.76490200  0.40039400  0.76490200
   0.76490200  0.76490200  0.40039400
   0.40039400  0.76490200  0.76490200
   0.71720400  0.71720400  0.71720400
 
 position of ions in cartesian coordinates  (Angst):
   0.07846046  0.07846046  0.07846046
   2.02847224  0.12660261  2.02847224
   2.02847224  2.02847224  0.12660261
   0.12660261  2.02847224  2.02847224
   3.94011102  0.03870457  0.03870457
   5.95121230  0.22224803  1.98789148
   5.95121230  1.98789148  0.22224803
   3.87692698  1.95972432  1.95972432
   0.03870457  3.94011102  0.03870457
   1.95972432  3.87692698  1.95972432
   1.98789148  5.95121230  0.22224803
   0.22224803  5.95121230  1.98789148
   3.94671004  3.94671004  0.04367810
   6.11994839  3.89970008  1.91343410
   6.21708183  6.21708183  0.38183768
   3.89970008  6.11994839  1.91343410
   0.03870457  0.03870457  3.94011102
   1.98789148  0.22224803  5.95121230
   1.95972432  1.95972432  3.87692698
   0.22224803  1.98789148  5.95121230
   3.94671004  0.04367810  3.94671004
   6.21708183  0.38183768  6.21708183
   6.11994839  1.91343410  3.89970008
   3.89970008  1.91343410  6.11994839
   0.04367810  3.94671004  3.94671004
   1.91343410  3.89970008  6.11994839
   1.91343410  6.11994839  3.89970008
   0.38183768  6.21708183  6.21708183
   3.95440082  3.95440082  3.95440082
   6.18579307  3.23800229  6.18579307
   6.18579307  6.18579307  3.23800229
   3.23800229  6.18579307  6.18579307
   5.80005744  5.80005744  5.80005744
 


--------------------------------------------------------------------------------------------------------


 k-point  1 :  0.25000.25000.2500  plane waves:    6238
 k-point  2 :  -.25000.25000.2500  plane waves:    6238

 maximum and minimum number of plane-waves per node :    6238   6238

 maximum number of plane-waves:    6238
 maximal index in each direction: 
   IXMAX= 11   IYMAX= 11   IZMAX= 11
   IXMIN=-11   IYMIN=-11   IZMIN=-11

 NGX is ok and might be reduce to  46
 NGY is ok and might be reduce to  46
 NGZ is ok and might be reduce to  46

 serial   3D FFT for wavefunctions
 parallel 3D FFT for charge:
    minimum data exchange during FFTs selected (reduces bandwidth)


 total amount of memory used by VASP on root node  56777. kBytes
========================================================================

   base      :    30000. kBytes
   nonl-proj :     4892. kBytes
   fftplans  :     1413. kBytes
   grid      :    19745. kBytes
   one-center:      101. kBytes
   wavefun   :      626. kBytes
 
 Broyden mixing: mesh for mixing (old mesh)
   NGX = 23   NGY = 23   NGZ = 23
  (NGX  = 96   NGY  = 96   NGZ  = 96)
  gives a total of  12167 points

 initial charge density was supplied:
 charge density of overlapping atoms calculated
 number of electron   98.0000000 magnetization 
 keeping initial charge density in first step


--------------------------------------------------------------------------------------------------------


 Maximum index for augmentation-charges          485 (set IRDMAX)


--------------------------------------------------------------------------------------------------------


 First call to EWALD:  gamma=   0.219
 Maximum number of real-space cells 3x 3x 3
 Maximum number of reciprocal cells 3x 3x 3

    FEWALD:  cpu time    0.02: real time    0.02
   RESPFUN:  cpu time    0.00: real time    0.00


----------------------------------------- Iteration    1(   1)  ---------------------------------------


    POTLOK:  cpu time    0.09: real time    0.09
    SETDIJ:  cpu time    0.01: real time    0.01
    EDDIAG:  cpu time    0.18: real time    0.18
  RMM-DIIS:  cpu time    0.37: real time    0.37
    ORTHCH:  cpu time    0.02: real time    0.02
       DOS:  cpu time    0.00: real time    0.00
    --------------------------------------------
      LOOP:  cpu time    0.68: real time    0.69

 eigenvalue-minimisations  :   192
 total energy-change (2. order) : 0.1639803E+03  (-0.1461382E+04)
 number of electron   98.0000000 magnetization 
 augmentation part    98.0000000 magnetization 

 Free energy of the ion-electron system (eV)
  ---------------------------------------------------
  alpha Z        PSCENC =        -8.27958290
  Ewald energy   TEWEN  =     -2353.65247195
  -1/2 Hartree   DENC   =       -36.26031684
  -exchange  EXHF       =         0.00000000
  -V(xc)+E(xc)   XCENC  =      -845.16355409
  PAW double counting   =      1149.32568210     -115.70169129
  entropy T*S    EENTRO =        -0.00528530
  eigenvalues    EBANDS =       637.51080266
  atomic energy  EATOM  =      1736.20668909
  ---------------------------------------------------
  free energy    TOTEN  =       163.98027148 eV

  energy without entropy =      163.98555679  energy(sigma->0) =      163.98203325


--------------------------------------------------------------------------------------------------------




----------------------------------------- Iteration    1(   2)  ---------------------------------------


    EDDIAG:  cpu time    0.18: real time    0.18
  RMM-DIIS:  cpu time    0.37: real time    0.37
    ORTHCH:  cpu time    0.02: real time    0.02
       DOS:  cpu time    0.00: real time    0.00
    --------------------------------------------
      LOOP:  cpu time    0.56: real time    0.57

 eigenvalue-minimisations  :   192
 total energy-change (2. order) :-0.2293787E+03  (-0.2136495E+03)
 number of electron   98.0000000 magnetization 
 augmentation part    98.0000000 magnetization 

 Free energy of the ion-electron system (eV)
  ---------------------------------------------------
  alpha Z        PSCENC =        -8.27958290
  Ewald energy   TEWEN  =     -2353.65247195
  -1/2 Hartree   DENC   =       -36.26031684
  -exchange  EXHF       =         0.00000000
  -V(xc)+E(xc)   XCENC  =      -845.16355409
  PAW double counting   =      1149.32568210     -115.70169129
  entropy T*S    EENTRO =        -0.00068723
  eigenvalues    EBANDS =       408.12751925
  atomic energy  EATOM  =      1736.20668909
  ---------------------------------------------------
  free energy    TOTEN  =       -65.39841386 eV

  energy without entropy =      -65.39772663  energy(sigma->0) =      -65.39818478


--------------------------------------------------------------------------------------------------------




----------------------------------------- Iteration    1(   3)  ---------------------------------------


    EDDIAG:  cpu time    0.19: real time    0.19
  RMM-DIIS:  cpu time    0.37: real time    0.37
    ORTHCH:  cpu time    0.02: real time    0.02
       DOS:  cpu time    0.00: real time    0.00
    --------------------------------------------
      LOOP:  cpu time    0.57: real time    0.66

 eigenvalue-minimisations  :   192
 total energy-change (2. order) :-0.3894543E+02  (-0.3464345E+02)
 number of electron   98.0000000 magnetization 
 augmentation part    98.0000000 magnetization 

 Free energy of the ion-electron system (eV)
  ---------------------------------------------------
  alpha Z        PSCENC =        -8.27958290
  Ewald energy   TEWEN  =     -2353.65247195
  -1/2 Hartree   DENC   =       -36.26031684
  -exchange  EXHF       =         0.00000000
  -V(xc)+E(xc)   XCENC  =      -845.16355409
  PAW double counting   =      1149.32568210     -115.70169129
  entropy T*S    EENTRO =        -0.00011069
  eigenvalues    EBANDS =       369.18151467
  atomic energy  EATOM  =      1736.20668909
  ---------------------------------------------------
  free energy    TOTEN  =      -104.34384190 eV

  energy without entropy =     -104.34373120  energy(sigma->0) =     -104.34380500


--------------------------------------------------------------------------------------------------------




----------------------------------------- Iteration    1(   4)  ---------------------------------------


    EDDIAG:  cpu time    0.17: real time    0.17
  RMM-DIIS:  cpu time    0.37: real time    0.37
    ORTHCH:  cpu time    0.02: real time    0.02
       DOS:  cpu time    0.00: real time    0.00
    --------------------------------------------
      LOOP:  cpu time    0.56: real time    0.57

 eigenvalue-minimisations  :   192
 total energy-change (2. order) :-0.9419064E+01  (-0.6034665E+01)
 number of electron   98.0000000 magnetization 
 augmentation part    98.0000000 magnetization 

 Free energy of the ion-electron system (eV)
  ---------------------------------------------------
  alpha Z        PSCENC =        -8.27958290
  Ewald energy   TEWEN  =     -2353.65247195
  -1/2 Hartree   DENC   =       -36.26031684
  -exchange  EXHF       =         0.00000000
  -V(xc)+E(xc)   XCENC  =      -845.16355409
  PAW double counting   =      1149.32568210     -115.70169129
  entropy T*S    EENTRO =        -0.06658952
  eigenvalues    EBANDS =       359.82892938
  atomic energy  EATOM  =      1736.20668909
  ---------------------------------------------------
  free energy    TOTEN  =      -113.76290601 eV

  energy without entropy =     -113.69631650  energy(sigma->0) =     -113.74070951


--------------------------------------------------------------------------------------------------------




----------------------------------------- Iteration    1(   5)  ---------------------------------------


    EDDIAG:  cpu time    0.17: real time    0.17
  RMM-DIIS:  cpu time    0.36: real time    0.36
    ORTHCH:  cpu time    0.02: real time    0.02
       DOS:  cpu time    0.00: real time    0.00
    --------------------------------------------
      LOOP:  cpu time    0.56: real time    0.56

 eigenvalue-minimisations  :   192
 total energy-change (2. order) :-0.2143197E+01  (-0.1343934E+01)
 number of electron   98.0000000 magnetization 
 augmentation part    98.0000000 magnetization 

 Free energy of the ion-electron system (eV)
  ---------------------------------------------------
  alpha Z        PSCENC =        -8.27958290
  Ewald energy   TEWEN  =     -2353.65247195
  -1/2 Hartree   DENC   =       -36.26031684
  -exchange  EXHF       =         0.00000000
  -V(xc)+E(xc)   XCENC  =      -845.16355409
  PAW double counting   =      1149.32568210     -115.70169129
  entropy T*S    EENTRO =        -0.11267447
  eigenvalues    EBANDS =       357.73181704
  atomic energy  EATOM  =      1736.20668909
  ---------------------------------------------------
  free energy    TOTEN  =      -115.90610331 eV

  energy without entropy =     -115.79342884  energy(sigma->0) =     -115.86854515


--------------------------------------------------------------------------------------------------------




----------------------------------------- Iteration    1(   6)  ---------------------------------------


    EDDIAG:  cpu time    0.18: real time    0.18
  RMM-DIIS:  cpu time    0.37: real time    0.37
    ORTHCH:  cpu time    0.02: real time    0.02
       DOS:  cpu time    0.00: real time    0.00
    --------------------------------------------
      LOOP:  cpu time    0.56: real time    0.57

 eigenvalue-minimisations  :   192
 total energy-change (2. order) :-0.5321117E+00  (-0.3338100E+00)
 number of electron   98.0000000 magnetization 
 augmentation part    98.0000000 magnetization 

 Free energy of the ion-electron system (eV)
  ---------------------------------------------------
  alpha Z        PSCENC =        -8.27958290
  Ewald energy   TEWEN  =     -2353.65247195
  -1/2 Hartree   DENC   =       -36.26031684
  -exchange  EXHF       =         0.00000000
  -V(xc)+E(xc)   XCENC  =      -845.16355409
  PAW double counting   =      1149.32568210     -115.70169129
  entropy T*S    EENTRO =        -0.11890054
  eigenvalues    EBANDS =       357.20593136
  atomic energy  EATOM  =      1736.20668909
  ---------------------------------------------------
  free energy    TOTEN  =      -116.43821506 eV

  energy without entropy =     -116.31931452  energy(sigma->0) =     -116.39858154


--------------------------------------------------------------------------------------------------------




----------------------------------------- Iteration    1(   7)  ---------------------------------------


    EDDIAG:  cpu time    0.17: real time    0.18
  RMM-DIIS:  cpu time    0.37: real time    0.37
    ORTHCH:  cpu time    0.02: real time    0.02
       DOS:  cpu time    0.00: real time    0.00
    --------------------------------------------
      LOOP:  cpu time    0.56: real time    0.57

 eigenvalue-minimisations  :   192
 total energy-change (2. order) :-0.1051145E+00  (-0.8185136E-01)
 number of electron   98.0000000 magnetization 
 augmentation part    98.0000000 magnetization 

 Free energy of the ion-electron system (eV)
  ---------------------------------------------------
  alpha Z        PSCENC =        -8.27958290
  Ewald energy   TEWEN  =     -2353.65247195
  -1/2 Hartree   DENC   =       -36.26031684
  -exchange  EXHF       =         0.00000000
  -V(xc)+E(xc)   XCENC  =      -845.16355409
  PAW double counting   =      1149.32568210     -115.70169129
  entropy T*S    EENTRO =        -0.11691717
  eigenvalues    EBANDS =       357.09883353
  atomic energy  EATOM  =      1736.20668909
  ---------------------------------------------------
  free energy    TOTEN  =      -116.54332952 eV

  energy without entropy =     -116.42641235  energy(sigma->0) =     -116.50435713


--------------------------------------------------------------------------------------------------------




----------------------------------------- Iteration    1(   8)  ---------------------------------------


    EDDIAG:  cpu time    0.17: real time    0.17
  RMM-DIIS:  cpu time    0.37: real time    0.37
    ORTHCH:  cpu time    0.02: real time    0.02
       DOS:  cpu time    0.00: real time    0.00
    --------------------------------------------
      LOOP:  cpu time    0.56: real time    0.57

 eigenvalue-minimisations  :   192
 total energy-change (2. order) :-0.2461912E-01  (-0.2096186E-01)
 number of electron   98.0000000 magnetization 
 augmentation part    98.0000000 magnetization 

 Free energy of the ion-electron system (eV)
  ---------------------------------------------------
  alpha Z        PSCENC =        -8.27958290
  Ewald energy   TEWEN  =     -2353.65247195
  -1/2 Hartree   DENC   =       -36.26031684
  -exchange  EXHF       =         0.00000000
  -V(xc)+E(xc)   XCENC  =      -845.16355409
  PAW double counting   =      1149.32568210     -115.70169129
  entropy T*S    EENTRO =        -0.11637092
  eigenvalues    EBANDS =       357.07366816
  atomic energy  EATOM  =      1736.20668909
  ---------------------------------------------------
  free energy    TOTEN  =      -116.56794863 eV

  energy without entropy =     -116.45157772  energy(sigma->0) =     -116.52915833


--------------------------------------------------------------------------------------------------------




----------------------------------------- Iteration    1(   9)  ---------------------------------------


    EDDIAG:  cpu time    0.19: real time    0.19
  RMM-DIIS:  cpu time    0.75: real time    0.75
    ORTHCH:  cpu time    0.02: real time    0.02
       DOS:  cpu time    0.00: real time    0.00
    --------------------------------------------
      LOOP:  cpu time    0.96: real time    1.00

 eigenvalue-minimisations  :   409
 total energy-change (2. order) :-0.7836365E-02  (-0.7264900E-02)
 number of electron   98.0000000 magnetization 
 augmentation part    98.0000000 magnetization 

 Free energy of the ion-electron system (eV)
  ---------------------------------------------------
  alpha Z        PSCENC =        -8.27958290
  Ewald energy   TEWEN  =     -2353.65247195
  -1/2 Hartree   DENC   =       -36.26031684
  -exchange  EXHF       =         0.00000000
  -V(xc)+E(xc)   XCENC  =      -845.16355409
  PAW double counting   =      1149.32568210     -115.70169129
  entropy T*S    EENTRO =        -0.11616630
  eigenvalues    EBANDS =       357.06562718
  atomic energy  EATOM  =      1736.20668909
  ---------------------------------------------------
  free energy    TOTEN  =      -116.57578500 eV

  energy without entropy =     -116.45961870  energy(sigma->0) =     -116.53706290


--------------------------------------------------------------------------------------------------------




----------------------------------------- Iteration    1(  10)  ---------------------------------------


    EDDIAG:  cpu time    0.17: real time    0.17
  RMM-DIIS:  cpu time    0.74: real time    0.74
    ORTHCH:  cpu time    0.02: real time    0.02
       DOS:  cpu time    0.00: real time    0.00
    --------------------------------------------
      LOOP:  cpu time    0.93: real time    0.94

 eigenvalue-minimisations  :   382
 total energy-change (2. order) :-0.7941159E-03  (-0.7094809E-03)
 number of electron   98.0000000 magnetization 
 augmentation part    98.0000000 magnetization 

 Free energy of the ion-electron system (eV)
  ---------------------------------------------------
  alpha Z        PSCENC =        -8.27958290
  Ewald energy   TEWEN  =     -2353.65247195
  -1/2 Hartree   DENC   =       -36.26031684
  -exchange  EXHF       =         0.00000000
  -V(xc)+E(xc)   XCENC  =      -845.16355409
  PAW double counting   =      1149.32568210     -115.70169129
  entropy T*S    EENTRO =        -0.11613605
  eigenvalues    EBANDS =       357.06480282
  atomic energy  EATOM  =      1736.20668909
  ---------------------------------------------------
  free energy    TOTEN  =      -116.57657911 eV

  energy without entropy =     -116.46044306  energy(sigma->0) =     -116.53786710


--------------------------------------------------------------------------------------------------------




----------------------------------------- Iteration    1(  11)  ---------------------------------------


    EDDIAG:  cpu time    0.17: real time    0.17
  RMM-DIIS:  cpu time    0.53: real time    0.54
    ORTHCH:  cpu time    0.02: real time    0.02
       DOS:  cpu time    0.00: real time    0.00
    --------------------------------------------
      LOOP:  cpu time    0.73: real time    0.73

 eigenvalue-minimisations  :   281
 total energy-change (2. order) :-0.3861157E-04  (-0.3188855E-04)
 number of electron   98.0000000 magnetization 
 augmentation part    98.0000000 magnetization 

 Free energy of the ion-electron system (eV)
  ---------------------------------------------------
  alpha Z        PSCENC =        -8.27958290
  Ewald energy   TEWEN  =     -2353.65247195
  -1/2 Hartree   DENC   =       -36.26031684
  -exchange  EXHF       =         0.00000000
  -V(xc)+E(xc)   XCENC  =      -845.16355409
  PAW double counting   =      1149.32568210     -115.70169129
  entropy T*S    EENTRO =        -0.11613454
  eigenvalues    EBANDS =       357.06476269
  atomic energy  EATOM  =      1736.20668909
  ---------------------------------------------------
  free energy    TOTEN  =      -116.57661772 eV

  energy without entropy =     -116.46048318  energy(sigma->0) =     -116.53790621


--------------------------------------------------------------------------------------------------------




----------------------------------------- Iteration    1(  12)  ---------------------------------------


    EDDIAG:  cpu time    0.17: real time    0.18
  RMM-DIIS:  cpu time    0.52: real time    0.52
    ORTHCH:  cpu time    0.02: real time    0.02
       DOS:  cpu time    0.00: real time    0.00
    CHARGE:  cpu time    0.16: real time    0.16
    MIXING:  cpu time    0.00: real time    0.00
    --------------------------------------------
      LOOP:  cpu time    0.87: real time    0.87

 eigenvalue-minimisations  :   244
 total energy-change (2. order) :-0.3841042E-05  (-0.3659505E-05)
 number of electron   98.0000002 magnetization 
 augmentation part    -1.1670085 magnetization 

 Broyden mixing:
  rms(total) = 0.64290E+00    rms(broyden)= 0.64288E+00
  rms(prec ) = 0.14000E+01
  weight for this iteration     100.00

 Free energy of the ion-electron system (eV)
  ---------------------------------------------------
  alpha Z        PSCENC =        -8.27958290
  Ewald energy   TEWEN  =     -2353.65247195
  -1/2 Hartree   DENC   =       -36.26031684
  -exchange  EXHF       =         0.00000000
  -V(xc)+E(xc)   XCENC  =      -845.16355409
  PAW double counting   =      1149.32568210     -115.70169129
  entropy T*S    EENTRO =        -0.11613445
  eigenvalues    EBANDS =       357.06475876
  atomic energy  EATOM  =      1736.20668909
  ---------------------------------------------------
  free energy    TOTEN  =      -116.57662157 eV

  energy without entropy =     -116.46048711  energy(sigma->0) =     -116.53791008


--------------------------------------------------------------------------------------------------------




----------------------------------------- Iteration    1(  13)  ---------------------------------------


    POTLOK:  cpu time    0.06: real time    0.06
    SETDIJ:  cpu time    0.01: real time    0.01
    EDDIAG:  cpu time    0.17: real time    0.17
  RMM-DIIS:  cpu time    0.63: real time    0.64
    ORTHCH:  cpu time    0.02: real time    0.02
       DOS:  cpu time    0.00: real time    0.00
    CHARGE:  cpu time    0.13: real time    0.13
    MIXING:  cpu time    0.00: real time    0.00
    --------------------------------------------
      LOOP:  cpu time    1.03: real time    1.03

 eigenvalue-minimisations  :   384
 total energy-change (2. order) : 0.1706969E+01  (-0.2274369E+00)
 number of electron   98.0000002 magnetization 
 augmentation part    -1.1629898 magnetization 

 Broyden mixing:
  rms(total) = 0.36488E+00    rms(broyden)= 0.36487E+00
  rms(prec ) = 0.63240E+00
  weight for this iteration     100.00

 eigenvalues of (default mixing * dielectric matrix)
  average eigenvalue GAMMA=   1.6107
  1.6107

 Free energy of the ion-electron system (eV)
  ---------------------------------------------------
  alpha Z        PSCENC =        -8.27958290
  Ewald energy   TEWEN  =     -2353.65247195
  -1/2 Hartree   DENC   =       -42.27988731
  -exchange  EXHF       =         0.00000000
  -V(xc)+E(xc)   XCENC  =      -843.71114889
  PAW double counting   =      1156.71555975     -123.47758404
  entropy T*S    EENTRO =         0.00058508
  eigenvalues    EBANDS =       363.60818826
  atomic energy  EATOM  =      1736.20668909
  ---------------------------------------------------
  free energy    TOTEN  =      -114.86965291 eV

  energy without entropy =     -114.87023799  energy(sigma->0) =     -114.86984794


--------------------------------------------------------------------------------------------------------




----------------------------------------- Iteration    1(  14)  ---------------------------------------


    POTLOK:  cpu time    0.06: real time    0.06
    SETDIJ:  cpu time    0.01: real time    0.01
    EDDIAG:  cpu time    0.17: real time    0.17
  RMM-DIIS:  cpu time    0.63: real time    0.64
    ORTHCH:  cpu time    0.02: real time    0.02
       DOS:  cpu time    0.00: real time    0.00
    CHARGE:  cpu time    0.12: real time    0.12
    MIXING:  cpu time    0.00: real time    0.00
    --------------------------------------------
      LOOP:  cpu time    1.02: real time    1.03

 eigenvalue-minimisations  :   384
 total energy-change (2. order) : 0.3311914E+00  (-0.2198639E-01)
 number of electron   98.0000002 magnetization 
 augmentation part    -1.1748665 magnetization 

 Broyden mixing:
  rms(total) = 0.23206E+00    rms(broyden)= 0.23206E+00
  rms(prec ) = 0.33800E+00
  weight for this iteration     100.00

 eigenvalues of (default mixing * dielectric matrix)
  average eigenvalue GAMMA=   1.5804
  2.3732  0.7876

 Free energy of the ion-electron system (eV)
  ---------------------------------------------------
  alpha Z        PSCENC =        -8.27958290
  Ewald energy   TEWEN  =     -2353.65247195
  -1/2 Hartree   DENC   =       -42.04464901
  -exchange  EXHF       =         0.00000000
  -V(xc)+E(xc)   XCENC  =      -842.88629585
  PAW double counting   =      1160.18957912     -127.17381804
  entropy T*S    EENTRO =        -0.03233422
  eigenvalues    EBANDS =       363.13442224
  atomic energy  EATOM  =      1736.20668909
  ---------------------------------------------------
  free energy    TOTEN  =      -114.53846152 eV

  energy without entropy =     -114.50612731  energy(sigma->0) =     -114.52768345


--------------------------------------------------------------------------------------------------------




----------------------------------------- Iteration    1(  15)  ---------------------------------------


    POTLOK:  cpu time    0.06: real time    0.06
    SETDIJ:  cpu time    0.01: real time    0.01
    EDDIAG:  cpu time    0.17: real time    0.17
  RMM-DIIS:  cpu time    0.64: real time    0.64
    ORTHCH:  cpu time    0.02: real time    0.02
       DOS:  cpu time    0.00: real time    0.00
    CHARGE:  cpu time    0.12: real time    0.12
    MIXING:  cpu time    0.00: real time    0.00
    --------------------------------------------
      LOOP:  cpu time    1.02: real time    1.03

 eigenvalue-minimisations  :   384
 total energy-change (2. order) : 0.1413286E+00  (-0.7392984E-02)
 number of electron   98.0000002 magnetization 
 augmentation part    -1.1887424 magnetization 

 Broyden mixing:
  rms(total) = 0.67530E-01    rms(broyden)= 0.67530E-01
  rms(prec ) = 0.10134E+00
  weight for this iteration     100.00

 eigenvalues of (default mixing * dielectric matrix)
  average eigenvalue GAMMA=   1.5128
  2.5753  1.1862  0.7770

 Free energy of the ion-electron system (eV)
  ---------------------------------------------------
  alpha Z        PSCENC =        -8.27958290
  Ewald energy   TEWEN  =     -2353.65247195
  -1/2 Hartree   DENC   =       -43.26747133
  -exchange  EXHF       =         0.00000000
  -V(xc)+E(xc)   XCENC  =      -841.60085020
  PAW double counting   =      1164.85249696     -132.16142559
  entropy T*S    EENTRO =        -0.03464409
  eigenvalues    EBANDS =       363.54012705
  atomic energy  EATOM  =      1736.20668909
  ---------------------------------------------------
  free energy    TOTEN  =      -114.39713295 eV

  energy without entropy =     -114.36248887  energy(sigma->0) =     -114.38558493


--------------------------------------------------------------------------------------------------------




----------------------------------------- Iteration    1(  16)  ---------------------------------------


    POTLOK:  cpu time    0.06: real time    0.06
    SETDIJ:  cpu time    0.01: real time    0.01
    EDDIAG:  cpu time    0.17: real time    0.17
  RMM-DIIS:  cpu time    0.64: real time    0.64
    ORTHCH:  cpu time    0.02: real time    0.02
       DOS:  cpu time    0.00: real time    0.00
    CHARGE:  cpu time    0.12: real time    0.12
    MIXING:  cpu time    0.00: real time    0.00
    --------------------------------------------
      LOOP:  cpu time    1.03: real time    1.03

 eigenvalue-minimisations  :   384
 total energy-change (2. order) : 0.1463266E-01  (-0.8284250E-03)
 number of electron   98.0000002 magnetization 
 augmentation part    -1.1958243 magnetization 

 Broyden mixing:
  rms(total) = 0.10963E-01    rms(broyden)= 0.10963E-01
  rms(prec ) = 0.20048E-01
  weight for this iteration     100.00

 eigenvalues of (default mixing * dielectric matrix)
  average eigenvalue GAMMA=   1.5008
  2.6184  0.7961  1.0429  1.5460

 Free energy of the ion-electron system (eV)
  ---------------------------------------------------
  alpha Z        PSCENC =        -8.27958290
  Ewald energy   TEWEN  =     -2353.65247195
  -1/2 Hartree   DENC   =       -43.62787213
  -exchange  EXHF       =         0.00000000
  -V(xc)+E(xc)   XCENC  =      -841.07955329
  PAW double counting   =      1166.53970842     -133.97821179
  entropy T*S    EENTRO =        -0.03293736
  eigenvalues    EBANDS =       363.52173160
  atomic energy  EATOM  =      1736.20668909
  ---------------------------------------------------
  free energy    TOTEN  =      -114.38250030 eV

  energy without entropy =     -114.34956294  energy(sigma->0) =     -114.37152118


--------------------------------------------------------------------------------------------------------




----------------------------------------- Iteration    1(  17)  ---------------------------------------


    POTLOK:  cpu time    0.06: real time    0.06
    SETDIJ:  cpu time    0.01: real time    0.01
    EDDIAG:  cpu time    0.17: real time    0.17
  RMM-DIIS:  cpu time    0.63: real time    0.63
    ORTHCH:  cpu time    0.02: real time    0.02
       DOS:  cpu time    0.00: real time    0.00
    CHARGE:  cpu time    0.12: real time    0.12
    MIXING:  cpu time    0.00: real time    0.00
    --------------------------------------------
      LOOP:  cpu time    1.02: real time    1.02

 eigenvalue-minimisations  :   376
 total energy-change (2. order) : 0.5727846E-03  (-0.6929729E-04)
 number of electron   98.0000002 magnetization 
 augmentation part    -1.1978170 magnetization 

 Broyden mixing:
  rms(total) = 0.44163E-02    rms(broyden)= 0.44162E-02
  rms(prec ) = 0.69177E-02
  weight for this iteration     100.00

 eigenvalues of (default mixing * dielectric matrix)
  average eigenvalue GAMMA=   1.5068
  2.6426  1.9871  1.2203  0.8224  0.8617

 Free energy of the ion-electron system (eV)
  ---------------------------------------------------
  alpha Z        PSCENC =        -8.27958290
  Ewald energy   TEWEN  =     -2353.65247195
  -1/2 Hartree   DENC   =       -43.60695233
  -exchange  EXHF       =         0.00000000
  -V(xc)+E(xc)   XCENC  =      -841.01486439
  PAW double counting   =      1166.70967507     -134.16546622
  entropy T*S    EENTRO =        -0.03332613
  eigenvalues    EBANDS =       363.45437225
  atomic energy  EATOM  =      1736.20668909
  ---------------------------------------------------
  free energy    TOTEN  =      -114.38192751 eV

  energy without entropy =     -114.34860138  energy(sigma->0) =     -114.37081880


--------------------------------------------------------------------------------------------------------




----------------------------------------- Iteration    1(  18)  ---------------------------------------


    POTLOK:  cpu time    0.06: real time    0.06
    SETDIJ:  cpu time    0.01: real time    0.01
    EDDIAG:  cpu time    0.17: real time    0.18
  RMM-DIIS:  cpu time    0.47: real time    0.47
    ORTHCH:  cpu time    0.02: real time    0.02
       DOS:  cpu time    0.00: real time    0.00
    --------------------------------------------
      LOOP:  cpu time    0.74: real time    0.74

 eigenvalue-minimisations  :   248
 total energy-change (2. order) : 0.5183128E-04  (-0.1370652E-04)
 number of electron   98.0000002 magnetization 
 augmentation part    -1.1978170 magnetization 

 Free energy of the ion-electron system (eV)
  ---------------------------------------------------
  alpha Z        PSCENC =        -8.27958290
  Ewald energy   TEWEN  =     -2353.65247195
  -1/2 Hartree   DENC   =       -43.60520830
  -exchange  EXHF       =         0.00000000
  -V(xc)+E(xc)   XCENC  =      -840.99247005
  PAW double counting   =      1166.72744193     -134.18992813
  entropy T*S    EENTRO =        -0.03333667
  eigenvalues    EBANDS =       363.43699129
  atomic energy  EATOM  =      1736.20668909
  ---------------------------------------------------
  free energy    TOTEN  =      -114.38187568 eV

  energy without entropy =     -114.34853901  energy(sigma->0) =     -114.37076346


--------------------------------------------------------------------------------------------------------




 average (electrostatic) potential at core
  the test charge radii are     1.0406  1.0714
  (the norm of the test charge is              1.0000)
       1 -72.2260       2 -72.3647       3 -72.3647       4 -72.3647       5 -72.2799
       6 -72.2520       7 -72.2520       8 -72.3670       9 -72.2799      10 -72.3670
      11 -72.2520      12 -72.2520      13 -72.3398      14 -72.4424      15 -72.3226
      16 -72.4424      17 -72.2799      18 -72.2520      19 -72.3670      20 -72.2520
      21 -72.3398      22 -72.3226      23 -72.4424      24 -72.4424      25 -72.3398
      26 -72.4424      27 -72.4424      28 -72.3226      29 -72.3990      30 -72.0075
      31 -72.0075      32 -72.0075      33 -49.5939
 
 
 
 E-fermi :   8.2460     XC(G=0): -10.2376     alpha+bet :-15.2356
   add alpha+bet to get absolut eigen values

 k-point   1 :       0.2500    0.2500    0.2500
  band No.  band energies     occupation 
      1      -2.8866      2.00000
      2      -1.7833      2.00000
      3      -1.7833      2.00000
      4      -1.5151      2.00000
      5      -0.6506      2.00000
      6      -0.6506      2.00000
      7      -0.1484      2.00000
      8       0.4645      2.00000
      9       0.4645      2.00000
     10       0.6645      2.00000
     11       1.0293      2.00000
     12       1.4494      2.00000
     13       1.5209      2.00000
     14       1.5209      2.00000
     15       1.9471      2.00000
     16       1.9747      2.00000
     17       1.9747      2.00000
     18       2.9956      2.00000
     19       3.1112      2.00000
     20       3.1112      2.00000
     21       3.6616      2.00000
     22       3.7370      2.00000
     23       3.7370      2.00000
     24       3.8203      2.00000
     25       3.8203      2.00000
     26       4.2060      2.00000
     27       4.6203      2.00000
     28       4.7796      2.00000
     29       4.7796      2.00000
     30       5.0210      2.00000
     31       5.0908      2.00000
     32       5.0908      2.00000
     33       5.2310      2.00000
     34       5.3584      2.00000
     35       5.3584      2.00000
     36       6.1322      2.00000
     37       6.1322      2.00000
     38       6.6026      2.00000
     39       6.7165      2.00000
     40       6.8633      2.00000
     41       6.8633      2.00000
     42       7.2091      2.00000
     43       7.2091      2.00000
     44       7.2116      2.00000
     45       7.3265      2.00000
     46       8.0078      2.07054
     47       8.0078      2.07054
     48       8.0263      2.06510
     49       8.1238      1.84961
     50       8.3626      0.17530
     51       8.3626      0.17530
     52       8.5264     -0.06340
     53       8.5264     -0.06340
     54       8.5760     -0.04154
     55       9.2023      0.00000
     56       9.2023      0.00000
     57       9.3254      0.00000
     58       9.5465      0.00000
     59       9.6639      0.00000
     60       9.6639      0.00000
     61       9.9796      0.00000
     62      10.0987      0.00000
     63      10.0987      0.00000
     64      10.3344      0.00000
     65      10.3344      0.00000
     66      10.4900      0.00000
     67      10.4900      0.00000
     68      10.6405      0.00000
     69      11.0366      0.00000
     70      11.1704      0.00000
     71      11.2250      0.00000
     72      11.2250      0.00000
     73      11.4541      0.00000
     74      11.4541      0.00000
     75      11.7399      0.00000
     76      11.8221      0.00000
     77      11.8221      0.00000
     78      11.9793      0.00000
     79      12.4420      0.00000
     80      12.4420      0.00000
     81      12.5300      0.00000
     82      12.9203      0.00000
     83      12.9207      0.00000
     84      13.1688      0.00000
     85      13.1692      0.00000
     86      13.2325      0.00000
     87      13.4804      0.00000
     88      13.5928      0.00000
     89      13.5961      0.00000
     90      13.8063      0.00000
     91      13.8964      0.00000
     92      13.9216      0.00000
     93      14.1080      0.00000
     94      14.3796      0.00000
     95      14.5101      0.00000
     96      14.5972      0.00000

 k-point   2 :      -0.2500    0.2500    0.2500
  band No.  band energies     occupation 
      1      -2.8853      2.00000
      2      -1.7857      2.00000
      3      -1.7655      2.00000
      4      -1.5667      2.00000
      5      -0.6288      2.00000
      6      -0.5064      2.00000
      7      -0.2558      2.00000
      8       0.3911      2.00000
      9       0.4442      2.00000
     10       0.6689      2.00000
     11       0.9924      2.00000
     12       1.4764      2.00000
     13       1.6057      2.00000
     14       1.7345      2.00000
     15       1.7998      2.00000
     16       1.8849      2.00000
     17       1.9870      2.00000
     18       2.9413      2.00000
     19       3.0615      2.00000
     20       3.1393      2.00000
     21       3.7390      2.00000
     22       3.7449      2.00000
     23       3.8060      2.00000
     24       3.8656      2.00000
     25       3.9099      2.00000
     26       4.0591      2.00000
     27       4.6724      2.00000
     28       4.7686      2.00000
     29       4.8161      2.00000
     30       4.9955      2.00000
     31       5.0173      2.00000
     32       5.0918      2.00000
     33       5.1622      2.00000
     34       5.2532      2.00000
     35       5.3335      2.00000
     36       6.1573      2.00000
     37       6.1872      2.00000
     38       6.5607      2.00000
     39       6.8474      2.00000
     40       6.9260      2.00000
     41       6.9648      2.00000
     42       7.0984      2.00000
     43       7.1486      2.00000
     44       7.2164      2.00000
     45       7.2929      2.00000
     46       7.9859      2.06933
     47       8.0111      2.07008
     48       8.1689      1.60187
     49       8.2313      1.12389
     50       8.2812      0.70708
     51       8.3087      0.49693
     52       8.4776     -0.06941
     53       8.4829     -0.07038
     54       8.6809     -0.00874
     55       9.1512      0.00000
     56       9.1857      0.00000
     57       9.3537      0.00000
     58       9.4399      0.00000
     59       9.5719      0.00000
     60       9.6485      0.00000
     61      10.0039      0.00000
     62      10.1139      0.00000
     63      10.1160      0.00000
     64      10.3145      0.00000
     65      10.4053      0.00000
     66      10.5740      0.00000
     67      10.5951      0.00000
     68      10.6291      0.00000
     69      10.9764      0.00000
     70      11.1365      0.00000
     71      11.3033      0.00000
     72      11.3651      0.00000
     73      11.4365      0.00000
     74      11.4833      0.00000
     75      11.6231      0.00000
     76      11.7259      0.00000
     77      11.7707      0.00000
     78      11.9497      0.00000
     79      12.4326      0.00000
     80      12.5282      0.00000
     81      12.6096      0.00000
     82      12.7989      0.00000
     83      12.8358      0.00000
     84      13.1922      0.00000
     85      13.2386      0.00000
     86      13.3495      0.00000
     87      13.4089      0.00000
     88      13.4425      0.00000
     89      13.4863      0.00000
     90      13.6025      0.00000
     91      13.9447      0.00000
     92      14.0139      0.00000
     93      14.1020      0.00000
     94      14.4193      0.00000
     95      14.5354      0.00000
     96      14.6753      0.00000


--------------------------------------------------------------------------------------------------------


 soft charge-density along one line, spin component           1
         0         1         2         3         4         5         6         7         8         9
 total charge-density along one line
 
 pseudopotential strength for first ion, spin component:           1
  8.438  -0.007   0.000   0.000   0.000   0.000   0.000   0.000
 -0.007   0.000   0.000   0.000   0.000   0.000   0.000   0.000
  0.000   0.000   1.992   0.000   0.000  -0.028   0.000   0.000
  0.000   0.000   0.000   1.992   0.000   0.000  -0.028   0.000
  0.000   0.000   0.000   0.000   1.992   0.000   0.000  -0.028
  0.000   0.000  -0.028   0.000   0.000  -0.012   0.000   0.000
  0.000   0.000   0.000  -0.028   0.000   0.000  -0.012   0.000
  0.000   0.000   0.000   0.000  -0.028   0.000   0.000  -0.012
 total augmentation occupancy for first ion, spin component:           1
  1.381  -0.526   0.001   0.001   0.001  -0.002  -0.002  -0.002
 -0.526   0.551  -0.008  -0.008  -0.008   0.004   0.004   0.004
  0.001  -0.008   0.760   0.011   0.011  -0.191  -0.007  -0.007
  0.001  -0.008   0.011   0.760   0.011  -0.007  -0.191  -0.007
  0.001  -0.008   0.011   0.011   0.760  -0.007  -0.007  -0.191
 -0.002   0.004  -0.191  -0.007  -0.007   0.054   0.002   0.002
 -0.002   0.004  -0.007  -0.191  -0.007   0.002   0.054   0.002
 -0.002   0.004  -0.007  -0.007  -0.191   0.002   0.002   0.054


------------------------ aborting loop because EDIFF is reached ----------------------------------------




--------------------------------------------------------------------------------------------------------



  FREE ENERGIE OF THE ION-ELECTRON SYSTEM (eV)
  ---------------------------------------------------
  free  energy   TOTEN  =      -114.381876 eV

  energy  without entropy=     -114.348539  energy(sigma->0) =     -114.370763
 
    CHARGE:  cpu time    0.12: real time    0.12
    FORLOC:  cpu time    0.01: real time    0.02
    FORNL :  cpu time    0.29: real time    0.30
    STRESS:  cpu time    0.78: real time    0.78
    FORCOR:  cpu time    0.07: real time    0.07
    FORHAR:  cpu time    0.03: real time    0.03
    MIXING:  cpu time    0.00: real time    0.00

  FORCE on cell =-STRESS in cart. coord.  units (eV):
  Direction    XX          YY          ZZ          XY          YZ          ZX
  --------------------------------------------------------------------------------------
  Alpha Z    -8.27958    -8.27958    -8.27958
  Ewald    -784.55392  -784.55392  -784.55392    -1.06652    -1.06652    -1.06652
  Hartree    14.54701    14.54701    14.54701    -0.16679    -0.16679    -0.16679
  E(xc)    -284.82130  -284.82130  -284.82130     0.02052     0.02052     0.02052
  Local     -21.27583   -21.27583   -21.27583     1.10076     1.10076     1.10076
  n-local   637.25659   637.65559   637.65567     0.42272    -1.55326     0.42259
  augment   -31.99690   -31.99690   -31.99690     0.01219     0.01218     0.01218
  Kinetic   503.53257   508.06743   508.06744     0.46840    -1.28472     0.46841
  Fock        0.00000     0.00000     0.00000     0.00000     0.00000     0.00000
  -------------------------------------------------------------------------------------
  Total      27.69791    27.69791    27.69791    -0.45179    -0.45179    -0.45179
  in kB      83.90520    83.90520    83.90520    -1.36862    -1.36862    -1.36862
  external pressure =       83.91 kB  Pullay stress =        0.00 kB


 VOLUME and BASIS-vectors are now :
 -----------------------------------------------------------------------------
  energy-cutoff  :      300.00
  volume of cell :      528.89
      direct lattice vectors                 reciprocal lattice vectors
     8.087040000  0.000000000  0.000000000     0.123654638  0.000000000  0.000000000
     0.000000000  8.087040000  0.000000000     0.000000000  0.123654638  0.000000000
     0.000000000  0.000000000  8.087040000     0.000000000  0.000000000  0.123654638

  length of vectors
     8.087040000  8.087040000  8.087040000     0.123654638  0.123654638  0.123654638


 FORCES acting on ions
    electron-ion (+dipol)            ewald-force                    non-local-force                 convergence-correction
 -----------------------------------------------------------------------------------------------
   0.551E+01 0.551E+01 0.551E+01   -.546E+01 -.546E+01 -.546E+01   -.175E+00 -.175E+00 -.175E+00   -.412E-02 -.412E-02 -.412E-02
   0.559E+00 0.112E+02 0.559E+00   -.214E+00 -.961E+01 -.214E+00   -.626E+00 -.264E+01 -.626E+00   0.175E-02 -.504E-02 0.175E-02
   0.559E+00 0.559E+00 0.112E+02   -.214E+00 -.214E+00 -.961E+01   -.626E+00 -.626E+00 -.264E+01   0.175E-02 0.175E-02 -.504E-02
   0.112E+02 0.559E+00 0.559E+00   -.961E+01 -.214E+00 -.214E+00   -.264E+01 -.626E+00 -.626E+00   -.504E-02 0.175E-02 0.175E-02
   -.725E+01 0.112E+02 0.112E+02   0.710E+01 -.104E+02 -.104E+02   0.543E+00 -.138E+01 -.138E+01   0.470E-02 -.404E-02 -.404E-02
   -.163E+01 0.582E+01 -.234E+01   0.105E+01 -.522E+01 0.249E+01   0.648E+00 -.774E+00 -.280E+00   -.155E-02 -.284E-02 0.119E-02
   -.163E+01 -.234E+01 0.582E+01   0.105E+01 0.249E+01 -.522E+01   0.648E+00 -.280E+00 -.774E+00   -.155E-02 0.119E-02 -.284E-02
   -.101E+02 -.657E+01 -.657E+01   0.889E+01 0.592E+01 0.592E+01   0.195E+01 0.122E+01 0.122E+01   0.539E-02 0.136E-02 0.136E-02
   0.112E+02 -.725E+01 0.112E+02   -.104E+02 0.710E+01 -.104E+02   -.138E+01 0.543E+00 -.138E+01   -.404E-02 0.470E-02 -.404E-02
   -.657E+01 -.101E+02 -.657E+01   0.592E+01 0.889E+01 0.592E+01   0.122E+01 0.195E+01 0.122E+01   0.136E-02 0.539E-02 0.136E-02
   -.234E+01 -.163E+01 0.582E+01   0.249E+01 0.105E+01 -.522E+01   -.280E+00 0.648E+00 -.774E+00   0.119E-02 -.155E-02 -.284E-02
   0.582E+01 -.163E+01 -.234E+01   -.522E+01 0.105E+01 0.249E+01   -.774E+00 0.648E+00 -.280E+00   -.284E-02 -.155E-02 0.119E-02
   -.127E+02 -.127E+02 0.112E+02   0.117E+02 0.117E+02 -.101E+02   0.160E+01 0.160E+01 -.156E+01   0.423E-02 0.423E-02 -.311E-02
   0.691E+01 -.725E+01 -.519E+01   -.635E+01 0.647E+01 0.478E+01   -.858E+00 0.121E+01 0.881E+00   -.155E-02 0.357E-02 -.132E-04
   0.652E+01 0.652E+01 0.182E+02   -.603E+01 -.603E+01 -.177E+02   -.765E+00 -.765E+00 -.722E+00   -.189E-02 -.189E-02 -.309E-02
   -.725E+01 0.691E+01 -.519E+01   0.647E+01 -.635E+01 0.478E+01   0.121E+01 -.858E+00 0.881E+00   0.357E-02 -.155E-02 -.132E-04
   0.112E+02 0.112E+02 -.725E+01   -.104E+02 -.104E+02 0.710E+01   -.138E+01 -.138E+01 0.543E+00   -.404E-02 -.404E-02 0.470E-02
   -.234E+01 0.582E+01 -.163E+01   0.249E+01 -.522E+01 0.105E+01   -.280E+00 -.774E+00 0.648E+00   0.119E-02 -.284E-02 -.155E-02
   -.657E+01 -.657E+01 -.101E+02   0.592E+01 0.592E+01 0.889E+01   0.122E+01 0.122E+01 0.195E+01   0.136E-02 0.136E-02 0.539E-02
   0.582E+01 -.234E+01 -.163E+01   -.522E+01 0.249E+01 0.105E+01   -.774E+00 -.280E+00 0.648E+00   -.284E-02 0.119E-02 -.155E-02
   -.127E+02 0.112E+02 -.127E+02   0.117E+02 -.101E+02 0.117E+02   0.160E+01 -.156E+01 0.160E+01   0.423E-02 -.311E-02 0.424E-02
   0.652E+01 0.182E+02 0.652E+01   -.603E+01 -.177E+02 -.603E+01   -.765E+00 -.722E+00 -.765E+00   -.189E-02 -.309E-02 -.189E-02
   0.691E+01 -.519E+01 -.725E+01   -.635E+01 0.478E+01 0.647E+01   -.858E+00 0.881E+00 0.121E+01   -.155E-02 -.136E-04 0.357E-02
   -.725E+01 -.519E+01 0.691E+01   0.647E+01 0.478E+01 -.635E+01   0.121E+01 0.881E+00 -.858E+00   0.357E-02 -.137E-04 -.155E-02
   0.112E+02 -.127E+02 -.127E+02   -.101E+02 0.117E+02 0.117E+02   -.156E+01 0.160E+01 0.160E+01   -.311E-02 0.423E-02 0.424E-02
   -.519E+01 -.725E+01 0.691E+01   0.478E+01 0.647E+01 -.635E+01   0.881E+00 0.121E+01 -.858E+00   -.137E-04 0.357E-02 -.155E-02
   -.519E+01 0.691E+01 -.725E+01   0.478E+01 -.635E+01 0.647E+01   0.881E+00 -.858E+00 0.121E+01   -.136E-04 -.155E-02 0.357E-02
   0.182E+02 0.652E+01 0.652E+01   -.177E+02 -.603E+01 -.603E+01   -.722E+00 -.765E+00 -.765E+00   -.309E-02 -.189E-02 -.189E-02
   -.116E+02 -.116E+02 -.116E+02   0.105E+02 0.105E+02 0.105E+02   0.136E+01 0.136E+01 0.136E+01   0.328E-02 0.328E-02 0.328E-02
   0.659E+01 -.229E+02 0.659E+01   -.614E+01 0.220E+02 -.614E+01   -.101E+01 0.173E+01 -.101E+01   -.106E-02 0.414E-02 -.106E-02
   0.659E+01 0.659E+01 -.229E+02   -.614E+01 -.614E+01 0.220E+02   -.101E+01 -.101E+01 0.173E+01   -.106E-02 -.106E-02 0.414E-02
   -.229E+02 0.659E+01 0.659E+01   0.220E+02 -.614E+01 -.614E+01   0.173E+01 -.101E+01 -.101E+01   0.414E-02 -.106E-02 -.106E-02
   0.179E+01 0.179E+01 0.179E+01   -.168E+01 -.168E+01 -.168E+01   -.184E+00 -.184E+00 -.184E+00   -.323E-03 -.323E-03 -.323E-03
 -----------------------------------------------------------------------------------------------
   -.605E-02 -.605E-02 -.605E-02   0.107E-13 0.497E-13 -.222E-15   0.552E-02 0.552E-02 0.552E-02   0.166E-03 0.166E-03 0.166E-03
 
 
 POSITION                                       TOTAL-FORCE (eV/Angst)
 -----------------------------------------------------------------------------------
      0.07846      0.07846      0.07846        -0.131856     -0.131856     -0.131856
      2.02847      0.12660      2.02847        -0.279669     -1.050141     -0.279669
      2.02847      2.02847      0.12660        -0.279669     -0.279669     -1.050141
      0.12660      2.02847      2.02847        -1.050141     -0.279669     -0.279669
      3.94011      0.03870      0.03870         0.403973     -0.517163     -0.517163
      5.95121      0.22225      1.98789         0.066679     -0.184999     -0.134421
      5.95121      1.98789      0.22225         0.066679     -0.134421     -0.184999
      3.87693      1.95972      1.95972         0.774832      0.563746      0.563746
      0.03870      3.94011      0.03870        -0.517163      0.403973     -0.517163
      1.95972      3.87693      1.95972         0.563746      0.774832      0.563746
      1.98789      5.95121      0.22225        -0.134421      0.066679     -0.184999
      0.22225      5.95121      1.98789        -0.184999      0.066679     -0.134421
      3.94671      3.94671      0.04368         0.586142      0.586142     -0.546344
      6.11995      3.89970      1.91343        -0.298275      0.433008      0.467851
      6.21708      6.21708      0.38184        -0.271046     -0.271046     -0.276870
      3.89970      6.11995      1.91343         0.433008     -0.298275      0.467851
      0.03870      0.03870      3.94011        -0.517163     -0.517163      0.403973
      1.98789      0.22225      5.95121        -0.134421     -0.184999      0.066679
      1.95972      1.95972      3.87693         0.563746      0.563746      0.774832
      0.22225      1.98789      5.95121        -0.184999     -0.134421      0.066679
      3.94671      0.04368      3.94671         0.586142     -0.546344      0.586142
      6.21708      0.38184      6.21708        -0.271046     -0.276870     -0.271046
      6.11995      1.91343      3.89970        -0.298275      0.467851      0.433008
      3.89970      1.91343      6.11995         0.433008      0.467851     -0.298275
      0.04368      3.94671      3.94671        -0.546344      0.586142      0.586142
      1.91343      3.89970      6.11995         0.467851      0.433008     -0.298275
      1.91343      6.11995      3.89970         0.467851     -0.298275      0.433008
      0.38184      6.21708      6.21708        -0.276870     -0.271046     -0.271046
      3.95440      3.95440      3.95440         0.347079      0.347079      0.347079
      6.18579      3.23800      6.18579        -0.572774      0.834587     -0.572774
      6.18579      6.18579      3.23800        -0.572774     -0.572774      0.834587
      3.23800      6.18579      6.18579         0.834587     -0.572774     -0.572774
      5.80006      5.80006      5.80006        -0.073420     -0.073420     -0.073420
 -----------------------------------------------------------------------------------
    total drift:                               -0.000364     -0.000364     -0.000362


--------------------------------------------------------------------------------------------------------


    POTLOK:  cpu time    0.07: real time    0.07


--------------------------------------------------------------------------------------------------------


  FORCES: max atom, RMS     1.163046    0.797873
  FORCE total and by dimension    4.583433    1.050141


--------------------------------------------------------------------------------------------------------


    WAVPRE:  cpu time    0.02: real time    0.02
    FEWALD:  cpu time    0.01: real time    0.01
    ORTHCH:  cpu time    0.08: real time    0.08
     LOOP+:  cpu time   15.49: real time   15.71
   RESPFUN:  cpu time    0.00: real time    0.00


----------------------------------------- Iteration    2(   1)  ---------------------------------------


    POTLOK:  cpu time    0.06: real time    0.06
    SETDIJ:  cpu time    0.01: real time    0.01
    EDDIAG:  cpu time    0.17: real time    0.18
  RMM-DIIS:  cpu time    0.64: real time    0.64
    ORTHCH:  cpu time    0.02: real time    0.02
       DOS:  cpu time    0.00: real time    0.00
    CHARGE:  cpu time    0.12: real time    0.12
    MIXING:  cpu time    0.00: real time    0.00
    --------------------------------------------
      LOOP:  cpu time    1.03: real time    1.04

 eigenvalue-minimisations  :   384
 total energy-change (2. order) :-0.9180128E+00  (-0.5419505E+00)
 number of electron   98.0000000 magnetization 
 augmentation part    -1.1931199 magnetization 

 Broyden mixing:
  rms(total) = 0.89561E-01    rms(broyden)= 0.89552E-01
  rms(prec ) = 0.30756E+00
  weight for this iteration     100.00

 Free energy of the ion-electron system (eV)
  ---------------------------------------------------
  alpha Z        PSCENC =        -8.27958290
  Ewald energy   TEWEN  =     -2367.64628665
  -1/2 Hartree   DENC   =       -33.09565431
  -exchange  EXHF       =         0.00000000
  -V(xc)+E(xc)   XCENC  =      -841.16228990
  PAW double counting   =      1166.71675566     -134.18121843
  entropy T*S    EENTRO =         0.00126874
  eigenvalues    EBANDS =       366.14037838
  atomic energy  EATOM  =      1736.20668909
  ---------------------------------------------------
  free energy    TOTEN  =      -115.29994031 eV

  energy without entropy =     -115.30120905  energy(sigma->0) =     -115.30036322


--------------------------------------------------------------------------------------------------------




----------------------------------------- Iteration    2(   2)  ---------------------------------------


    POTLOK:  cpu time    0.06: real time    0.06
    SETDIJ:  cpu time    0.01: real time    0.01
    EDDIAG:  cpu time    0.26: real time    0.26
  RMM-DIIS:  cpu time    0.67: real time    0.67
    ORTHCH:  cpu time    0.02: real time    0.02
       DOS:  cpu time    0.00: real time    0.00
    CHARGE:  cpu time    0.12: real time    0.12
    MIXING:  cpu time    0.00: real time    0.00
    --------------------------------------------
      LOOP:  cpu time    1.14: real time    1.14

 eigenvalue-minimisations  :   385
 total energy-change (2. order) : 0.8928439E-01  (-0.1462863E-01)
 number of electron   98.0000000 magnetization 
 augmentation part    -1.1944603 magnetization 

 Broyden mixing:
  rms(total) = 0.29269E-01    rms(broyden)= 0.29268E-01
  rms(prec ) = 0.75674E-01
  weight for this iteration     100.00

 eigenvalues of (default mixing * dielectric matrix)
  average eigenvalue GAMMA=   0.9947
  0.9947

 Free energy of the ion-electron system (eV)
  ---------------------------------------------------
  alpha Z        PSCENC =        -8.27958290
  Ewald energy   TEWEN  =     -2367.64628665
  -1/2 Hartree   DENC   =       -32.15451441
  -exchange  EXHF       =         0.00000000
  -V(xc)+E(xc)   XCENC  =      -841.19699615
  PAW double counting   =      1166.03692057     -133.47484911
  entropy T*S    EENTRO =        -0.00881196
  eigenvalues    EBANDS =       365.30677560
  atomic energy  EATOM  =      1736.20668909
  ---------------------------------------------------
  free energy    TOTEN  =      -115.21065592 eV

  energy without entropy =     -115.20184396  energy(sigma->0) =     -115.20771860


--------------------------------------------------------------------------------------------------------




----------------------------------------- Iteration    2(   3)  ---------------------------------------


    POTLOK:  cpu time    0.06: real time    0.06
    SETDIJ:  cpu time    0.01: real time    0.01
    EDDIAG:  cpu time    0.17: real time    0.17
  RMM-DIIS:  cpu time    0.63: real time    0.63
    ORTHCH:  cpu time    0.02: real time    0.02
       DOS:  cpu time    0.00: real time    0.00
    CHARGE:  cpu time    0.12: real time    0.12
    MIXING:  cpu time    0.00: real time    0.00
    --------------------------------------------
      LOOP:  cpu time    1.02: real time    1.03

 eigenvalue-minimisations  :   384
[...]
     14       1.6202      2.00000
     15       1.9963      2.00000
     16       1.9963      2.00000
     17       2.1304      2.00000
     18       2.8171      2.00000
     19       2.9536      2.00000
     20       2.9536      2.00000
     21       3.8365      2.00000
     22       3.8365      2.00000
     23       3.8961      2.00000
     24       4.0424      2.00000
     25       4.0424      2.00000
     26       4.2762      2.00000
     27       4.7615      2.00000
     28       4.7776      2.00000
     29       4.7776      2.00000
     30       5.0236      2.00000
     31       5.1164      2.00000
     32       5.1164      2.00000
     33       5.2642      2.00000
     34       5.2642      2.00000
     35       5.2790      2.00000
     36       5.9741      2.00000
     37       5.9741      2.00000
     38       6.4547      2.00000
     39       6.9503      2.00000
     40       6.9949      2.00000
     41       6.9949      2.00000
     42       7.1953      2.00000
     43       7.3070      2.00000
     44       7.3070      2.00000
     45       7.4355      2.00000
     46       7.9506      2.04004
     47       7.9506      2.04004
     48       8.0259      2.06972
     49       8.2814      1.02119
     50       8.3730      0.32281
     51       8.3730      0.32281
     52       8.5338     -0.07074
     53       8.5338     -0.07074
     54       8.5417     -0.06975
     55       9.2253      0.00000
     56       9.2253      0.00000
     57       9.4553      0.00000
     58       9.6567      0.00000
     59       9.6567      0.00000
     60       9.7308      0.00000
     61      10.1468      0.00000
     62      10.1468      0.00000
     63      10.2153      0.00000
     64      10.3274      0.00000
     65      10.3274      0.00000
     66      10.4799      0.00000
     67      10.4799      0.00000
     68      10.5818      0.00000
     69      10.9776      0.00000
     70      11.1333      0.00000
     71      11.1333      0.00000
     72      11.4250      0.00000
     73      11.5420      0.00000
     74      11.5420      0.00000
     75      11.6513      0.00000
     76      11.8281      0.00000
     77      11.8281      0.00000
     78      11.9521      0.00000
     79      12.4464      0.00000
     80      12.4464      0.00000
     81      12.4667      0.00000
     82      12.7555      0.00000
     83      12.7555      0.00000
     84      13.2569      0.00000
     85      13.2901      0.00000
     86      13.2901      0.00000
     87      13.4668      0.00000
     88      13.4668      0.00000
     89      13.6559      0.00000
     90      13.8367      0.00000
     91      14.0767      0.00000
     92      14.0768      0.00000
     93      14.2631      0.00000
     94      14.3628      0.00000
     95      14.3643      0.00000
     96      14.4514      0.00000

 k-point   2 :      -0.2500    0.2500    0.2500
  band No.  band energies     occupation 
      1      -2.6723      2.00000
      2      -1.6770      2.00000
      3      -1.6627      2.00000
      4      -1.3343      2.00000
      5      -0.5730      2.00000
      6      -0.5508      2.00000
      7      -0.1171      2.00000
      8       0.5975      2.00000
      9       0.6156      2.00000
     10       0.7106      2.00000
     11       0.9365      2.00000
     12       1.5881      2.00000
     13       1.6237      2.00000
     14       1.6848      2.00000
     15       1.9494      2.00000
     16       1.9536      2.00000
     17       2.1760      2.00000
     18       2.8119      2.00000
     19       2.9497      2.00000
     20       2.9568      2.00000
     21       3.8458      2.00000
     22       3.8773      2.00000
     23       3.9229      2.00000
     24       4.0189      2.00000
     25       4.0417      2.00000
     26       4.2524      2.00000
     27       4.7390      2.00000
     28       4.7813      2.00000
     29       4.8268      2.00000
     30       5.0275      2.00000
     31       5.0970      2.00000
     32       5.1319      2.00000
     33       5.1931      2.00000
     34       5.2042      2.00000
     35       5.3304      2.00000
     36       5.9874      2.00000
     37       6.0003      2.00000
     38       6.4424      2.00000
     39       6.9690      2.00000
     40       6.9940      2.00000
     41       7.0068      2.00000
     42       7.1999      2.00000
     43       7.2727      2.00000
     44       7.2796      2.00000
     45       7.4418      2.00000
     46       7.9474      2.03863
     47       7.9723      2.05003
     48       8.0688      2.06258
     49       8.2666      1.14611
     50       8.3266      0.64816
     51       8.3701      0.34055
     52       8.4828     -0.04907
     53       8.5366     -0.07049
     54       8.6289     -0.03495
     55       9.2151      0.00000
     56       9.2202      0.00000
     57       9.4617      0.00000
     58       9.6366      0.00000
     59       9.6535      0.00000
     60       9.7360      0.00000
     61      10.1315      0.00000
     62      10.1429      0.00000
     63      10.2068      0.00000
     64      10.3723      0.00000
     65      10.3792      0.00000
     66      10.4607      0.00000
     67      10.4998      0.00000
     68      10.5780      0.00000
     69      10.9827      0.00000
     70      11.1151      0.00000
     71      11.1619      0.00000
     72      11.4821      0.00000
     73      11.5132      0.00000
     74      11.5363      0.00000
     75      11.6287      0.00000
     76      11.7778      0.00000
     77      11.7791      0.00000
     78      11.9757      0.00000
     79      12.4292      0.00000
     80      12.4640      0.00000
     81      12.5122      0.00000
     82      12.7140      0.00000
     83      12.7226      0.00000
     84      13.2413      0.00000
     85      13.2873      0.00000
     86      13.3115      0.00000
     87      13.4626      0.00000
     88      13.4726      0.00000
     89      13.6005      0.00000
     90      13.8275      0.00000
     91      14.0936      0.00000
     92      14.1335      0.00000
     93      14.1884      0.00000
     94      14.3911      0.00000
     95      14.4116      0.00000
     96      14.5240      0.00000


--------------------------------------------------------------------------------------------------------


 soft charge-density along one line, spin component           1
         0         1         2         3         4         5         6         7         8         9
 total charge-density along one line
 
 pseudopotential strength for first ion, spin component:           1
  8.437  -0.006   0.000   0.000   0.000   0.000   0.000   0.000
 -0.006   0.000   0.000   0.000   0.000   0.000   0.000   0.000
  0.000   0.000   1.990   0.000   0.000  -0.028   0.000   0.000
  0.000   0.000   0.000   1.990   0.000   0.000  -0.028   0.000
  0.000   0.000   0.000   0.000   1.990   0.000   0.000  -0.028
  0.000   0.000  -0.028   0.000   0.000  -0.012   0.000   0.000
  0.000   0.000   0.000  -0.028   0.000   0.000  -0.012   0.000
  0.000   0.000   0.000   0.000  -0.028   0.000   0.000  -0.012
 total augmentation occupancy for first ion, spin component:           1
  1.347  -0.493  -0.010  -0.010  -0.010   0.004   0.004   0.004
 -0.493   0.498  -0.006  -0.006  -0.006   0.001   0.001   0.001
 -0.010  -0.006   0.737  -0.018  -0.018  -0.180   0.003   0.003
 -0.010  -0.006  -0.018   0.737  -0.018   0.003  -0.180   0.003
 -0.010  -0.006  -0.018  -0.018   0.737   0.003   0.003  -0.180
  0.004   0.001  -0.180   0.003   0.003   0.050  -0.001  -0.001
  0.004   0.001   0.003  -0.180   0.003  -0.001   0.050  -0.001
  0.004   0.001   0.003   0.003  -0.180  -0.001  -0.001   0.050


------------------------ aborting loop because EDIFF is reached ----------------------------------------




--------------------------------------------------------------------------------------------------------



  FREE ENERGIE OF THE ION-ELECTRON SYSTEM (eV)
  ---------------------------------------------------
  free  energy   TOTEN  =      -116.196911 eV

  energy  without entropy=     -116.190006  energy(sigma->0) =     -116.194609
 
    CHARGE:  cpu time    0.12: real time    0.12
    FORLOC:  cpu time    0.02: real time    0.02
    FORNL :  cpu time    0.30: real time    0.30
    STRESS:  cpu time    0.76: real time    0.76
    FORCOR:  cpu time    0.07: real time    0.07
    FORHAR:  cpu time    0.03: real time    0.03
    MIXING:  cpu time    0.00: real time    0.00

  FORCE on cell =-STRESS in cart. coord.  units (eV):
  Direction    XX          YY          ZZ          XY          YZ          ZX
  --------------------------------------------------------------------------------------
  Alpha Z    -8.27958    -8.27958    -8.27958
  Ewald    -795.95644  -795.95644  -795.95644     0.00186     0.00186     0.00186
  Hartree     5.19505     5.19505     5.19505    -0.01804    -0.01804    -0.01804
  E(xc)    -283.47804  -283.47804  -283.47804    -0.01986    -0.01986    -0.01986
  Local       2.41572     2.41572     2.41572    -0.22513    -0.22513    -0.22513
  n-local   629.97900   630.11610   630.11608     0.72596    -0.77016     0.72598
  augment   -31.72036   -31.72036   -31.72037    -0.01909    -0.01909    -0.01909
  Kinetic   501.92125   502.36408   502.36408     4.58703    -8.70557     4.58703
  Fock        0.00000     0.00000     0.00000     0.00000     0.00000     0.00000
  -------------------------------------------------------------------------------------
  Total      20.46321    20.46321    20.46321     0.10316     0.10316     0.10316
  in kB      61.98913    61.98913    61.98913     0.31251     0.31251     0.31251
  external pressure =       61.99 kB  Pullay stress =        0.00 kB


 VOLUME and BASIS-vectors are now :
 -----------------------------------------------------------------------------
  energy-cutoff  :      300.00
  volume of cell :      528.89
      direct lattice vectors                 reciprocal lattice vectors
     8.087040000  0.000000000  0.000000000     0.123654638  0.000000000  0.000000000
     0.000000000  8.087040000  0.000000000     0.000000000  0.123654638  0.000000000
     0.000000000  0.000000000  8.087040000     0.000000000  0.000000000  0.123654638

  length of vectors
     8.087040000  8.087040000  8.087040000     0.123654638  0.123654638  0.123654638


 FORCES acting on ions
    electron-ion (+dipol)            ewald-force                    non-local-force                 convergence-correction
 -----------------------------------------------------------------------------------------------
   0.996E+00 0.996E+00 0.996E+00   -.119E+01 -.119E+01 -.119E+01   0.211E+00 0.211E+00 0.211E+00   0.384E-03 0.384E-03 0.384E-03
   -.204E+00 -.185E+01 -.204E+00   0.294E+00 0.199E+01 0.294E+00   -.126E+00 -.185E+00 -.126E+00   0.850E-03 -.113E-04 0.850E-03
   -.204E+00 -.204E+00 -.185E+01   0.294E+00 0.294E+00 0.199E+01   -.126E+00 -.126E+00 -.185E+00   0.850E-03 0.850E-03 -.113E-04
   -.185E+01 -.204E+00 -.204E+00   0.199E+01 0.294E+00 0.294E+00   -.185E+00 -.126E+00 -.126E+00   -.113E-04 0.850E-03 0.850E-03
   -.157E+01 0.221E+01 0.221E+01   0.170E+01 -.220E+01 -.220E+01   -.126E+00 -.131E-01 -.131E-01   -.413E-03 0.328E-03 0.328E-03
   -.402E+00 0.190E+00 -.366E+00   0.190E+00 0.229E+00 0.400E+00   0.256E+00 -.350E+00 -.187E-01   -.889E-03 0.106E-02 0.785E-03
   -.402E+00 -.366E+00 0.190E+00   0.190E+00 0.400E+00 0.229E+00   0.256E+00 -.187E-01 -.350E+00   -.889E-03 0.785E-03 0.106E-02
   0.963E+00 -.837E+00 -.837E+00   -.143E+01 0.876E+00 0.876E+00   0.563E+00 -.151E-01 -.151E-01   -.858E-06 0.239E-03 0.239E-03
   0.221E+01 -.157E+01 0.221E+01   -.220E+01 0.170E+01 -.220E+01   -.131E-01 -.126E+00 -.131E-01   0.328E-03 -.413E-03 0.328E-03
   -.837E+00 0.963E+00 -.837E+00   0.876E+00 -.143E+01 0.876E+00   -.151E-01 0.563E+00 -.151E-01   0.239E-03 -.858E-06 0.239E-03
   -.366E+00 -.402E+00 0.190E+00   0.400E+00 0.190E+00 0.229E+00   -.187E-01 0.256E+00 -.350E+00   0.785E-03 -.889E-03 0.106E-02
   0.190E+00 -.402E+00 -.366E+00   0.229E+00 0.190E+00 0.400E+00   -.350E+00 0.256E+00 -.187E-01   0.106E-02 -.889E-03 0.785E-03
   -.230E+01 -.230E+01 0.243E+01   0.232E+01 0.232E+01 -.227E+01   -.303E-01 -.303E-01 -.181E+00   -.403E-03 -.403E-03 0.494E-03
   0.115E+01 0.604E+00 -.104E+01   -.108E+01 -.885E+00 0.926E+00   -.996E-01 0.166E+00 0.152E+00   -.279E-03 -.872E-03 0.257E-03
   0.137E+01 0.137E+01 0.147E+02   -.123E+01 -.123E+01 -.141E+02   -.202E+00 -.202E+00 -.541E+00   -.755E-03 -.755E-03 -.134E-03
   0.604E+00 0.115E+01 -.104E+01   -.885E+00 -.108E+01 0.926E+00   0.166E+00 -.996E-01 0.152E+00   -.872E-03 -.279E-03 0.257E-03
   0.221E+01 0.221E+01 -.157E+01   -.220E+01 -.220E+01 0.170E+01   -.131E-01 -.131E-01 -.126E+00   0.328E-03 0.328E-03 -.413E-03
   -.366E+00 0.190E+00 -.402E+00   0.400E+00 0.229E+00 0.190E+00   -.187E-01 -.350E+00 0.256E+00   0.785E-03 0.106E-02 -.889E-03
   -.837E+00 -.837E+00 0.963E+00   0.876E+00 0.876E+00 -.143E+01   -.151E-01 -.151E-01 0.563E+00   0.239E-03 0.239E-03 -.839E-06
   0.190E+00 -.366E+00 -.402E+00   0.229E+00 0.400E+00 0.190E+00   -.350E+00 -.187E-01 0.256E+00   0.106E-02 0.785E-03 -.889E-03
   -.230E+01 0.243E+01 -.230E+01   0.232E+01 -.227E+01 0.232E+01   -.303E-01 -.181E+00 -.303E-01   -.403E-03 0.494E-03 -.403E-03
   0.137E+01 0.147E+02 0.137E+01   -.123E+01 -.141E+02 -.123E+01   -.202E+00 -.541E+00 -.202E+00   -.755E-03 -.133E-03 -.755E-03
   0.115E+01 -.104E+01 0.604E+00   -.108E+01 0.926E+00 -.885E+00   -.996E-01 0.152E+00 0.166E+00   -.279E-03 0.257E-03 -.871E-03
   0.604E+00 -.104E+01 0.115E+01   -.885E+00 0.926E+00 -.108E+01   0.166E+00 0.152E+00 -.996E-01   -.871E-03 0.257E-03 -.279E-03
   0.243E+01 -.230E+01 -.230E+01   -.227E+01 0.232E+01 0.232E+01   -.181E+00 -.303E-01 -.303E-01   0.494E-03 -.403E-03 -.403E-03
   -.104E+01 0.604E+00 0.115E+01   0.926E+00 -.885E+00 -.108E+01   0.152E+00 0.166E+00 -.996E-01   0.257E-03 -.871E-03 -.279E-03
   -.104E+01 0.115E+01 0.604E+00   0.926E+00 -.108E+01 -.885E+00   0.152E+00 -.996E-01 0.166E+00   0.257E-03 -.279E-03 -.871E-03
   0.147E+02 0.137E+01 0.137E+01   -.141E+02 -.123E+01 -.123E+01   -.541E+00 -.202E+00 -.202E+00   -.133E-03 -.755E-03 -.755E-03
   -.221E+01 -.221E+01 -.221E+01   0.217E+01 0.217E+01 0.217E+01   -.813E-02 -.813E-02 -.813E-02   -.561E-03 -.561E-03 -.560E-03
   0.914E+00 -.153E+02 0.914E+00   -.839E+00 0.146E+02 -.839E+00   -.127E+00 0.859E+00 -.127E+00   -.209E-04 0.447E-03 -.210E-04
   0.914E+00 0.914E+00 -.153E+02   -.839E+00 -.839E+00 0.146E+02   -.127E+00 -.127E+00 0.859E+00   -.209E-04 -.209E-04 0.447E-03
   -.153E+02 0.914E+00 0.914E+00   0.146E+02 -.839E+00 -.839E+00   0.859E+00 -.127E+00 -.127E+00   0.447E-03 -.209E-04 -.210E-04
   -.584E+00 -.584E+00 -.584E+00   0.511E+00 0.511E+00 0.511E+00   0.107E+00 0.107E+00 0.107E+00   -.389E-03 -.389E-03 -.389E-03
 -----------------------------------------------------------------------------------------------
   0.116E+00 0.116E+00 0.116E+00   0.120E-13 -.203E-13 0.226E-13   -.117E+00 -.117E+00 -.117E+00   0.421E-03 0.421E-03 0.421E-03
 
 
 POSITION                                       TOTAL-FORCE (eV/Angst)
 -----------------------------------------------------------------------------------
      0.01461      0.01461      0.01461         0.017231      0.017231      0.017231
      2.03266      0.01072      2.03266        -0.035607     -0.054690     -0.035607
      2.03266      2.03266      0.01072        -0.035607     -0.035607     -0.054690
      0.01072      2.03266      2.03266        -0.054690     -0.035607     -0.035607
      4.01712     -0.06428     -0.06428         0.008297     -0.005338     -0.005338
      5.98743      0.14736      1.98066         0.042527      0.069346      0.016577
      5.98743      1.98066      0.14736         0.042527      0.016577      0.069346
      3.96597      2.03024      2.03024         0.092337      0.024872      0.024872
     -0.06428      4.01712     -0.06428        -0.005338      0.008297     -0.005338
      2.03024      3.96597      2.03024         0.024872      0.092337      0.024872
      1.98066      5.98743      0.14736         0.016577      0.042527      0.069346
      0.14736      5.98743      1.98066         0.069346      0.042527      0.016577
      4.09463      4.09463     -0.10936        -0.006889     -0.006889     -0.020416
      6.04299      3.92915      1.95861        -0.029856     -0.115467      0.041636
      6.13209      6.13209      0.40354        -0.063481     -0.063481      0.012825
      3.92915      6.04299      1.95861        -0.115467     -0.029856      0.041636
     -0.06428     -0.06428      4.01712        -0.005338     -0.005338      0.008297
      1.98066      0.14736      5.98743         0.016577      0.069346      0.042527
      2.03024      2.03024      3.96597         0.024872      0.024872      0.092337
      0.14736      1.98066      5.98743         0.069346      0.016577      0.042527
      4.09463     -0.10936      4.09463        -0.006889     -0.020416     -0.006889
      6.13209      0.40354      6.13209        -0.063481      0.012825     -0.063481
      6.04299      1.95861      3.92915        -0.029856      0.041636     -0.115467
      3.92915      1.95861      6.04299        -0.115467      0.041636     -0.029856
     -0.10936      4.09463      4.09463        -0.020416     -0.006889     -0.006889
      1.95861      3.92915      6.04299         0.041636     -0.115467     -0.029856
      1.95861      6.04299      3.92915         0.041636     -0.029856     -0.115467
      0.40354      6.13209      6.13209         0.012825     -0.063481     -0.063481
      4.11926      4.11926      4.11926        -0.045588     -0.045588     -0.045588
      6.09616      3.34995      6.09616        -0.052016      0.183491     -0.052016
      6.09616      6.09616      3.34995        -0.052016     -0.052016      0.183491
      3.34995      6.09616      6.09616         0.183491     -0.052016     -0.052016
      5.87471      5.87471      5.87471         0.033905      0.033905      0.033905
 -----------------------------------------------------------------------------------
    total drift:                               -0.000557     -0.000557     -0.000556
 d Force = 0.9522468E-02[-0.584E-03, 0.196E-01]  d Energy = 0.9644999E-02-0.123E-03
 d Force =-0.1099314E+01[-0.117E+01,-0.103E+01]  d Ewald  =-0.1099381E+01 0.669E-04


--------------------------------------------------------------------------------------------------------


    POTLOK:  cpu time    0.07: real time    0.07


--------------------------------------------------------------------------------------------------------


  FORCES: max atom, RMS     0.197687    0.101110
  FORCE total and by dimension    0.580835    0.183491


--------------------------------------------------------------------------------------------------------


  
 reached required accuracy - stopping structural energy minimisation
     LOOP+:  cpu time    5.21: real time    5.25
    4ORBIT:  cpu time    0.00: real time    0.00

 total amount of memory used by VASP on root node  56777. kBytes
========================================================================

   base      :    30000. kBytes
   nonl-proj :     4892. kBytes
   fftplans  :     1413. kBytes
   grid      :    19745. kBytes
   one-center:      101. kBytes
   wavefun   :      626. kBytes
 
  
  
 General timing and accounting informations for this job:
 ========================================================
  
                  Total CPU time used (sec):       61.046
                            User time (sec):       60.200
                          System time (sec):        0.846
                         Elapsed time (sec):       63.009
  
                   Maximum memory used (kb):           0.
                   Average memory used (kb):           0.
  
                          Minor page faults:        27177
                          Major page faults:            0
                 Voluntary context switches:         4507
