  32  32   0   0
  0.1652794E+02  0.8087040E-09  0.8087040E-09  0.8087040E-09  0.5000000E-15
  1.000000000000000E-004
  CAR 
 unknown system                          
     13.59493899     -4.79407014  301      7.84514917      1.00000000
     -4.794  0.0000E+00  0.0000E+00
     -4.733  0.0000E+00  0.0000E+00
     -4.671  0.0000E+00  0.0000E+00
     -4.610  0.0000E+00  0.0000E+00
     -4.549  0.0000E+00  0.0000E+00
     -4.488  0.0000E+00  0.0000E+00
     -4.426 -0.8269E-27 -0.5069E-28
     -4.365 -0.1073E-24 -0.6626E-26
     -4.304 -0.1158E-22 -0.7166E-24
     -4.242 -0.1035E-20 -0.6413E-22
     -4.181 -0.7641E-19 -0.4748E-20
     -4.120 -0.4665E-17 -0.2907E-18
     -4.059 -0.2354E-15 -0.1472E-16
     -3.997 -0.9815E-14 -0.6163E-15
     -3.936 -0.3275E-12 -0.2069E-13
     -3.875 -0.9278E-11 -0.5894E-12
     -3.813 -0.2166E-09 -0.1387E-10
     -3.752 -0.4164E-08 -0.2691E-09
     -3.691 -0.6586E-07 -0.4306E-08
     -3.629 -0.8556E-06 -0.5675E-07
     -3.568 -0.9114E-05 -0.6154E-06
     -3.507 -0.7939E-04 -0.5482E-05
     -3.446 -0.5635E-03 -0.4002E-04
     -3.384 -0.3243E-02 -0.2388E-03
     -3.323 -0.1501E-01 -0.1159E-02
     -3.262 -0.5519E-01 -0.4542E-02
     -3.200 -0.1575E+00 -0.1420E-01
     -3.139 -0.3318E+00 -0.3454E-01
     -3.078 -0.4444E+00 -0.6177E-01
     -3.016 -0.8147E-01 -0.6677E-01
     -2.955  0.1329E+01  0.1472E-01
     -2.894  0.3929E+01  0.2556E+00
     -2.833  0.6810E+01  0.6730E+00
     -2.771  0.8327E+01  0.1183E+01
     -2.710  0.7457E+01  0.1641E+01
     -2.649  0.4799E+01  0.1935E+01
     -2.587  0.1974E+01  0.2056E+01
     -2.526  0.1963E+00  0.2068E+01
     -2.465 -0.4141E+00  0.2042E+01
     -2.403 -0.3832E+00  0.2019E+01
     -2.342 -0.2038E+00  0.2006E+01
     -2.281 -0.8591E-01  0.2001E+01
     -2.220 -0.6257E-01  0.1997E+01
     -2.158 -0.1455E+00  0.1988E+01
     -2.097 -0.3829E+00  0.1965E+01
     -2.036 -0.7711E+00  0.1918E+01
     -1.974 -0.9925E+00  0.1857E+01
     -1.913 -0.1540E+00  0.1847E+01
     -1.852  0.2953E+01  0.2028E+01
     -1.791  0.8741E+01  0.2564E+01
     -1.729  0.1568E+02  0.3525E+01
     -1.668  0.2065E+02  0.4791E+01
     -1.607  0.2113E+02  0.6086E+01
     -1.545  0.1703E+02  0.7130E+01
     -1.484  0.1065E+02  0.7782E+01
     -1.423  0.4755E+01  0.8074E+01
     -1.361  0.9918E+00  0.8135E+01
     -1.300 -0.5745E+00  0.8100E+01
     -1.239 -0.7826E+00  0.8052E+01
     -1.178 -0.5179E+00  0.8020E+01
     -1.116 -0.2863E+00  0.8002E+01
     -1.055 -0.2636E+00  0.7986E+01
     -0.994 -0.4807E+00  0.7957E+01
     -0.932 -0.8254E+00  0.7906E+01
     -0.871 -0.8042E+00  0.7857E+01
     -0.810  0.5884E+00  0.7893E+01
     -0.748  0.4299E+01  0.8156E+01
     -0.687  0.9988E+01  0.8769E+01
     -0.626  0.1551E+02  0.9719E+01
     -0.565  0.1830E+02  0.1084E+02
     -0.503  0.1753E+02  0.1192E+02
     -0.442  0.1435E+02  0.1280E+02
     -0.381  0.1039E+02  0.1343E+02
     -0.319  0.6523E+01  0.1383E+02
     -0.258  0.3219E+01  0.1403E+02
     -0.197  0.8984E+00  0.1408E+02
     -0.136 -0.2646E+00  0.1407E+02
     -0.074 -0.5798E+00  0.1403E+02
     -0.013 -0.6106E+00  0.1399E+02
      0.048 -0.7934E+00  0.1395E+02
      0.110 -0.1165E+01  0.1387E+02
      0.171 -0.1106E+01  0.1381E+02
      0.232  0.7361E+00  0.1385E+02
      0.294  0.5699E+01  0.1420E+02
      0.355  0.1351E+02  0.1503E+02
      0.416  0.2142E+02  0.1634E+02
      0.477  0.2576E+02  0.1792E+02
      0.539  0.2478E+02  0.1944E+02
      0.600  0.1971E+02  0.2065E+02
      0.661  0.1318E+02  0.2146E+02
      0.723  0.7201E+01  0.2190E+02
      0.784  0.2687E+01  0.2206E+02
      0.845 -0.1665E+00  0.2205E+02
      0.907 -0.1485E+01  0.2196E+02
      0.968 -0.1315E+01  0.2188E+02
      1.029  0.7139E+00  0.2192E+02
      1.090  0.5122E+01  0.2224E+02
      1.152  0.1174E+02  0.2296E+02
      1.213  0.1916E+02  0.2413E+02
      1.274  0.2520E+02  0.2568E+02
      1.336  0.2807E+02  0.2740E+02
      1.397  0.2738E+02  0.2907E+02
      1.458  0.2419E+02  0.3056E+02
      1.519  0.2019E+02  0.3180E+02
      1.581  0.1649E+02  0.3281E+02
      1.642  0.1345E+02  0.3363E+02
      1.703  0.1119E+02  0.3432E+02
      1.765  0.1012E+02  0.3494E+02
      1.826  0.1061E+02  0.3559E+02
      1.887  0.1254E+02  0.3636E+02
      1.949  0.1547E+02  0.3730E+02
      2.010  0.1904E+02  0.3847E+02
      2.071  0.2281E+02  0.3987E+02
      2.132  0.2587E+02  0.4146E+02
      2.194  0.2719E+02  0.4312E+02
      2.255  0.2640E+02  0.4474E+02
      2.316  0.2408E+02  0.4622E+02
      2.378  0.2123E+02  0.4752E+02
      2.439  0.1874E+02  0.4867E+02
      2.500  0.1701E+02  0.4971E+02
      2.562  0.1579E+02  0.5068E+02
      2.623  0.1443E+02  0.5156E+02
      2.684  0.1258E+02  0.5233E+02
      2.745  0.1081E+02  0.5300E+02
      2.807  0.1012E+02  0.5362E+02
      2.868  0.1088E+02  0.5428E+02
      2.929  0.1250E+02  0.5505E+02
      2.991  0.1419E+02  0.5592E+02
      3.052  0.1543E+02  0.5686E+02
      3.113  0.1565E+02  0.5782E+02
      3.175  0.1431E+02  0.5870E+02
      3.236  0.1197E+02  0.5943E+02
      3.297  0.1065E+02  0.6009E+02
      3.358  0.1218E+02  0.6083E+02
      3.420  0.1602E+02  0.6182E+02
      3.481  0.1929E+02  0.6300E+02
      3.542  0.1925E+02  0.6418E+02
      3.604  0.1564E+02  0.6514E+02
      3.665  0.1074E+02  0.6580E+02
      3.726  0.7392E+01  0.6625E+02
      3.787  0.7113E+01  0.6668E+02
      3.849  0.9573E+01  0.6727E+02
      3.910  0.1326E+02  0.6808E+02
      3.971  0.1643E+02  0.6909E+02
      4.033  0.1794E+02  0.7019E+02
      4.094  0.1772E+02  0.7128E+02
      4.155  0.1666E+02  0.7230E+02
      4.217  0.1597E+02  0.7328E+02
      4.278  0.1625E+02  0.7427E+02
      4.339  0.1704E+02  0.7532E+02
      4.400  0.1724E+02  0.7638E+02
      4.462  0.1626E+02  0.7737E+02
      4.523  0.1465E+02  0.7827E+02
      4.584  0.1338E+02  0.7909E+02
      4.646  0.1261E+02  0.7986E+02
      4.707  0.1152E+02  0.8057E+02
      4.768  0.9414E+01  0.8115E+02
      4.830  0.6868E+01  0.8157E+02
      4.891  0.5649E+01  0.8191E+02
      4.952  0.7283E+01  0.8236E+02
      5.013  0.1156E+02  0.8307E+02
      5.075  0.1656E+02  0.8408E+02
      5.136  0.2033E+02  0.8533E+02
      5.197  0.2230E+02  0.8670E+02
      5.259  0.2302E+02  0.8811E+02
      5.320  0.2306E+02  0.8952E+02
      5.381  0.2255E+02  0.9090E+02
      5.442  0.2143E+02  0.9222E+02
      5.504  0.1969E+02  0.9342E+02
      5.565  0.1768E+02  0.9451E+02
      5.626  0.1615E+02  0.9550E+02
      5.688  0.1568E+02  0.9646E+02
      5.749  0.1593E+02  0.9744E+02
      5.810  0.1552E+02  0.9839E+02
      5.872  0.1314E+02  0.9919E+02
      5.933  0.8862E+01  0.9974E+02
      5.994  0.4193E+01  0.9999E+02
      6.055  0.8726E+00  0.1000E+03
      6.117 -0.1712E+00  0.1000E+03
      6.178  0.9830E+00  0.1001E+03
      6.239  0.3564E+01  0.1003E+03
      6.301  0.6503E+01  0.1007E+03
      6.362  0.8909E+01  0.1013E+03
      6.423  0.1040E+02  0.1019E+03
      6.485  0.1091E+02  0.1026E+03
      6.546  0.1035E+02  0.1032E+03
      6.607  0.8756E+01  0.1037E+03
      6.668  0.6687E+01  0.1041E+03
      6.730  0.5134E+01  0.1045E+03
      6.791  0.4661E+01  0.1047E+03
      6.852  0.4907E+01  0.1050E+03
      6.914  0.5211E+01  0.1054E+03
      6.975  0.5726E+01  0.1057E+03
      7.036  0.7446E+01  0.1062E+03
      7.097  0.1092E+02  0.1068E+03
      7.159  0.1532E+02  0.1078E+03
      7.220  0.1912E+02  0.1090E+03
      7.281  0.2134E+02  0.1103E+03
      7.343  0.2181E+02  0.1116E+03
      7.404  0.2090E+02  0.1129E+03
      7.465  0.1932E+02  0.1141E+03
      7.527  0.1777E+02  0.1152E+03
      7.588  0.1623E+02  0.1161E+03
      7.649  0.1421E+02  0.1170E+03
      7.710  0.1181E+02  0.1177E+03
      7.772  0.9918E+01  0.1184E+03
      7.833  0.8905E+01  0.1189E+03
      7.894  0.7885E+01  0.1194E+03
      7.956  0.5794E+01  0.1197E+03
      8.017  0.2830E+01  0.1199E+03
      8.078  0.4601E+00  0.1199E+03
      8.140  0.3225E+00  0.1200E+03
      8.201  0.3172E+01  0.1202E+03
      8.262  0.8219E+01  0.1207E+03
      8.323  0.1326E+02  0.1215E+03
      8.385  0.1626E+02  0.1225E+03
      8.446  0.1733E+02  0.1235E+03
      8.507  0.1865E+02  0.1247E+03
      8.569  0.2191E+02  0.1260E+03
      8.630  0.2625E+02  0.1276E+03
      8.691  0.2929E+02  0.1294E+03
      8.752  0.2967E+02  0.1312E+03
      8.814  0.2791E+02  0.1329E+03
      8.875  0.2512E+02  0.1345E+03
      8.936  0.2157E+02  0.1358E+03
      8.998  0.1694E+02  0.1368E+03
      9.059  0.1141E+02  0.1375E+03
      9.120  0.5949E+01  0.1379E+03
      9.182  0.1739E+01  0.1380E+03
      9.243 -0.4277E+00  0.1380E+03
      9.304 -0.1865E+00  0.1380E+03
      9.365  0.2472E+01  0.1381E+03
      9.427  0.6898E+01  0.1386E+03
      9.488  0.1163E+02  0.1393E+03
      9.549  0.1510E+02  0.1402E+03
      9.611  0.1669E+02  0.1412E+03
      9.672  0.1689E+02  0.1423E+03
      9.733  0.1642E+02  0.1433E+03
      9.795  0.1579E+02  0.1442E+03
      9.856  0.1540E+02  0.1452E+03
      9.917  0.1562E+02  0.1461E+03
      9.978  0.1622E+02  0.1471E+03
     10.040  0.1610E+02  0.1481E+03
     10.101  0.1422E+02  0.1490E+03
     10.162  0.1114E+02  0.1497E+03
     10.224  0.9002E+01  0.1502E+03
     10.285  0.9810E+01  0.1508E+03
     10.346  0.1353E+02  0.1516E+03
     10.408  0.1784E+02  0.1527E+03
     10.469  0.1992E+02  0.1540E+03
     10.530  0.1874E+02  0.1551E+03
     10.591  0.1589E+02  0.1561E+03
     10.653  0.1394E+02  0.1569E+03
     10.714  0.1401E+02  0.1578E+03
     10.775  0.1526E+02  0.1587E+03
     10.837  0.1620E+02  0.1597E+03
     10.898  0.1587E+02  0.1607E+03
     10.959  0.1429E+02  0.1616E+03
     11.020  0.1221E+02  0.1623E+03
     11.082  0.1071E+02  0.1630E+03
     11.143  0.1035E+02  0.1636E+03
     11.204  0.1083E+02  0.1643E+03
     11.266  0.1122E+02  0.1650E+03
     11.327  0.1077E+02  0.1656E+03
     11.388  0.9426E+01  0.1662E+03
     11.450  0.7803E+01  0.1667E+03
     11.511  0.6530E+01  0.1671E+03
     11.572  0.5643E+01  0.1674E+03
     11.633  0.4661E+01  0.1677E+03
     11.695  0.3255E+01  0.1679E+03
     11.756  0.1676E+01  0.1680E+03
     11.817  0.4520E+00  0.1680E+03
     11.879 -0.1497E+00  0.1680E+03
     11.940 -0.2653E+00  0.1680E+03
     12.001 -0.1797E+00  0.1680E+03
     12.063 -0.8241E-01  0.1680E+03
     12.124 -0.2842E-01  0.1680E+03
     12.185 -0.7668E-02  0.1680E+03
     12.246 -0.1649E-02  0.1680E+03
     12.308 -0.2860E-03  0.1680E+03
     12.369 -0.4025E-04  0.1680E+03
     12.430 -0.4619E-05  0.1680E+03
     12.492 -0.4337E-06  0.1680E+03
     12.553 -0.3339E-07  0.1680E+03
     12.614 -0.2113E-08  0.1680E+03
     12.675 -0.1100E-09  0.1680E+03
     12.737 -0.4713E-11  0.1680E+03
     12.798 -0.1684E-12  0.1680E+03
     12.859 -0.3622E-14  0.1680E+03
     12.921  0.0000E+00  0.1680E+03
     12.982  0.0000E+00  0.1680E+03
     13.043  0.0000E+00  0.1680E+03
     13.105  0.0000E+00  0.1680E+03
     13.166  0.0000E+00  0.1680E+03
     13.227  0.0000E+00  0.1680E+03
     13.288  0.0000E+00  0.1680E+03
     13.350  0.0000E+00  0.1680E+03
     13.411  0.0000E+00  0.1680E+03
     13.472  0.0000E+00  0.1680E+03
     13.534  0.0000E+00  0.1680E+03
     13.595  0.0000E+00  0.1680E+03
