   32   32    1    1
  0.1652794E+02  0.8087040E-09  0.8087040E-09  0.8087040E-09  0.5000000E-15
  1.000000000000000E-004
  CAR 
 unknown system                          
  119    4   84
 
  0.2500000E+00  0.2500000E+00  0.2500000E+00  0.2500000E+00
   1       -2.794070
   2       -1.704427
   3       -1.676654
   4       -1.586929
   5       -0.619610
   6       -0.592327
   7       -0.423414
   8        0.403303
   9        0.417956
  10        0.492539
  11        0.607395
  12        1.164830
  13        1.230897
  14        1.346801
  15        1.383289
  16        1.467719
  17        1.633942
  18        1.734435
  19        1.882870
  20        2.081715
  21        2.110196
  22        2.161171
  23        2.221634
  24        2.388959
  25        2.479442
  26        2.683117
  27        2.842810
  28        2.902622
  29        3.037033
  30        3.159711
  31        3.410897
  32        3.460567
  33        3.600504
  34        3.870121
  35        3.963529
  36        4.046213
  37        4.171480
  38        4.353684
  39        4.387869
  40        4.447171
  41        4.671885
  42        5.028796
  43        5.117519
  44        5.234492
  45        5.264582
  46        5.419950
  47        5.507634
  48        5.626276
  49        5.745831
  50        5.807561
  51        6.329731
  52        6.539566
  53        6.922057
  54        7.145244
  55        7.157886
  56        7.292470
  57        7.363336
  58        7.577230
  59        7.632669
  60        7.873743
  61        8.314860
  62        8.370945
  63        8.529705
  64        8.636712
  65        8.688213
  66        8.757276
  67        8.895534
  68        8.952235
  69        8.997657
  70        9.458459
  71        9.520077
  72        9.655697
  73        9.799332
  74       10.062817
  75       10.092869
  76       10.344159
  77       10.451700
  78       10.469915
  79       10.656089
  80       10.876860
  81       10.909829
  82       11.044993
  83       11.250428
  84       11.341406
 
 -0.2500000E+00  0.2500000E+00  0.2500000E+00  0.2500000E+00
   1       -2.791345
   2       -1.724561
   3       -1.689611
   4       -1.561080
   5       -0.629697
   6       -0.593955
   7       -0.440529
   8        0.422513
   9        0.451959
  10        0.511841
  11        0.646409
  12        1.271749
  13        1.300234
  14        1.328732
  15        1.348199
  16        1.460830
  17        1.625904
  18        1.669764
  19        1.832995
  20        2.020246
  21        2.081766
  22        2.194140
  23        2.217596
  24        2.323219
  25        2.364242
  26        2.591870
  27        2.788096
  28        2.924013
  29        3.089722
  30        3.182335
  31        3.400444
  32        3.502800
  33        3.510839
  34        3.902175
  35        3.987075
  36        4.112508
  37        4.250802
  38        4.342530
  39        4.521745
  40        4.631256
  41        4.746898
  42        5.044346
  43        5.097899
  44        5.219999
  45        5.281225
  46        5.362085
  47        5.458146
  48        5.595894
  49        5.722994
  50        5.841240
  51        6.418026
  52        6.464476
  53        6.674819
  54        7.220890
  55        7.278500
  56        7.345260
  57        7.404804
  58        7.487893
  59        7.551721
  60        7.843454
  61        8.329495
  62        8.369051
  63        8.577689
  64        8.618373
  65        8.630574
  66        8.676625
  67        8.792080
  68        8.808424
  69        8.834741
  70        9.625496
  71        9.672707
  72        9.768282
  73        9.900811
  74        9.940992
  75        9.964598
  76       10.261342
  77       10.442599
  78       10.460459
  79       10.688559
  80       10.741183
  81       10.768638
  82       11.138831
  83       11.364426
  84       11.594939
 
  0.2500000E+00 -0.2500000E+00  0.2500000E+00  0.2500000E+00
   1       -2.793830
   2       -1.707191
   3       -1.679280
   4       -1.579757
   5       -0.623035
   6       -0.594169
   7       -0.424756
   8        0.408671
   9        0.429561
  10        0.462091
  11        0.629587
  12        1.162251
  13        1.199357
  14        1.310040
  15        1.390106
  16        1.511508
  17        1.544420
  18        1.867824
  19        1.947579
  20        2.063066
  21        2.122641
  22        2.230007
  23        2.267900
  24        2.374184
  25        2.478236
  26        2.572187
  27        2.656803
  28        2.932836
  29        3.110583
  30        3.156832
  31        3.378603
  32        3.459199
  33        3.582352
  34        3.800723
  35        3.942862
  36        4.032940
  37        4.177276
  38        4.347568
  39        4.427932
  40        4.597250
  41        4.725968
  42        5.046093
  43        5.095003
  44        5.201376
  45        5.319258
  46        5.381945
  47        5.491792
  48        5.561897
  49        5.760517
  50        5.866366
  51        6.300653
  52        6.558904
  53        6.864426
  54        7.124547
  55        7.169908
  56        7.309788
  57        7.387613
  58        7.578196
  59        7.634882
  60        7.868223
  61        8.307897
  62        8.395890
  63        8.548073
  64        8.631541
  65        8.687413
  66        8.747168
  67        8.859524
  68        8.916349
  69        8.972500
  70        9.479299
  71        9.533992
  72        9.716366
  73        9.811459
  74       10.047416
  75       10.071031
  76       10.308769
  77       10.456380
  78       10.469192
  79       10.667974
  80       10.861157
  81       10.888046
  82       11.027361
  83       11.277630
  84       11.461023
 
 -0.2500000E+00 -0.2500000E+00  0.2500000E+00  0.2500000E+00
   1       -2.793137
   2       -1.723299
   3       -1.684164
   4       -1.559435
   5       -0.626484
   6       -0.618130
   7       -0.379801
   8        0.406467
   9        0.414636
  10        0.480316
  11        0.608910
  12        1.167800
  13        1.229128
  14        1.300374
  15        1.361484
  16        1.474811
  17        1.582956
  18        1.883535
  19        1.954796
  20        2.055756
  21        2.122513
  22        2.202424
  23        2.282831
  24        2.361418
  25        2.464083
  26        2.590777
  27        2.615542
  28        2.922419
  29        3.067588
  30        3.179883
  31        3.438761
  32        3.493676
  33        3.562351
  34        3.766949
  35        3.981993
  36        4.076591
  37        4.191518
  38        4.298622
  39        4.423248
  40        4.613243
  41        4.808295
  42        5.025418
  43        5.088559
  44        5.250252
  45        5.272797
  46        5.406132
  47        5.441034
  48        5.568979
  49        5.738783
  50        5.853101
  51        6.286344
  52        6.527624
  53        6.847082
  54        7.118871
  55        7.164302
  56        7.360255
  57        7.382428
  58        7.545714
  59        7.654845
  60        7.848354
  61        8.318670
  62        8.361667
  63        8.529567
  64        8.623082
  65        8.675648
  66        8.724175
  67        8.857871
  68        8.930924
  69        9.067672
  70        9.486108
  71        9.531196
  72        9.697682
  73        9.849664
  74       10.014021
  75       10.054832
  76       10.352754
  77       10.466216
  78       10.478529
  79       10.698087
  80       10.824829
  81       10.939070
  82       11.150800
  83       11.226230
  84       11.593618
