 vasp.5.2.2 15Apr09 complex 
 executed on             LinuxIFC date 2017.01.11  13:42:02
 running on   12 nodes
 distr:  one band on    1 nodes,   12 groups


--------------------------------------------------------------------------------------------------------


 INCAR:
 POTCAR:   PAW_PBE Al 04Jan2001                   
 POTCAR:   PAW_PBE Ag 06Sep2000                   
 POTCAR:   PAW_PBE Pt 05Jan2001                   
 POTCAR:   PAW_PBE Au 06Sep2000                   
 POTCAR:   PAW_PBE Al 04Jan2001                   
   VRHFIN =Al: s2p1                                                             
   LEXCH  = PE                                                                  
   EATOM  =    53.5387 eV,    3.9350 Ry                                         
                                                                                
   TITEL  = PAW_PBE Al 04Jan2001                                                
   LULTRA =        F    use ultrasoft PP ?                                      
   IUNSCR =        1    unscreen: 0-lin 1-nonlin 2-no                           
   RPACOR =    1.500    partial core radius                                     
   POMASS =   26.982; ZVAL   =    3.000    mass and valenz                      
   RCORE  =    1.900    outmost cutoff radius                                   
   RWIGS  =    2.650; RWIGS  =    1.402    wigner-seitz radius (au A)           
   ENMAX  =  240.300; ENMIN  =  180.225 eV                                      
   ICORE  =        2    local potential                                         
   LCOR   =        T    correct aug charges                                     
   LPAW   =        T    paw PP                                                  
   EAUG   =  291.052                                                            
   DEXC   =    -.041                                                            
   RMAX   =    2.974    core radius for proj-oper                               
   RAUG   =    1.300    factor for augmentation sphere                          
   RDEP   =    1.966    radius for radial grids                                 
   QCUT   =   -4.203; QGAM   =    8.405    optimization parameters              
                                                                                
   Description                                                                  
     l     E      TYP  RCUT    TYP  RCUT                                        
     0   .000     23  1.900                                                     
     0   .000     23  1.900                                                     
     1   .000     23  1.900                                                     
     1  1.000     23  1.900                                                     
     2   .000      7  1.900                                                     
  local pseudopotential read in
  partial core-charges read in
  atomic valenz-charges read in
  non local Contribution for L=           0  read in
    real space projection operators read in
  non local Contribution for L=           0  read in
    real space projection operators read in
  non local Contribution for L=           1  read in
    real space projection operators read in
  non local Contribution for L=           1  read in
    real space projection operators read in
    PAW grid and wavefunctions read in
 
   number of l-projection  operators is LMAX  =           4
   number of lm-projection operators is LMMAX =           8
 
 POTCAR:   PAW_PBE Ag 06Sep2000                   
   VRHFIN =Ag : s1 d10                                                          
   LEXCH  = PE                                                                  
   EATOM  =  1037.4134 eV,   76.2477 Ry                                         
                                                                                
   TITEL  = PAW_PBE Ag 06Sep2000                                                
   LULTRA =        F    use ultrasoft PP ?                                      
   IUNSCR =        1    unscreen: 0-lin 1-nonlin 2-no                           
   RPACOR =    2.000    partial core radius                                     
   POMASS =  107.868; ZVAL   =   11.000    mass and valenz                      
   RCORE  =    2.400    outmost cutoff radius                                   
   RWIGS  =    2.840; RWIGS  =    1.503    wigner-seitz radius (au A)           
   ENMAX  =  249.846; ENMIN  =  187.385 eV                                      
   RCLOC  =    1.962    cutoff for local pot                                    
   LCOR   =        T    correct aug charges                                     
   LPAW   =        T    paw PP                                                  
   EAUG   =  412.496                                                            
   DEXC   =    -.047                                                            
   RMAX   =    2.917    core radius for proj-oper                               
   RAUG   =    1.300    factor for augmentation sphere                          
   RDEP   =    2.416    radius for radial grids                                 
   QCUT   =   -4.285; QGAM   =    8.570    optimization parameters              
                                                                                
   Description                                                                  
     l     E      TYP  RCUT    TYP  RCUT                                        
     2   .000     23  2.400                                                     
     2   .000     23  2.400                                                     
     0   .000     23  2.400                                                     
     0   .000     23  2.400                                                     
     1  -.200     23  2.400                                                     
     1  1.500     23  2.400                                                     
     3   .000      7   .000                                                     
  local pseudopotential read in
  partial core-charges read in
  atomic valenz-charges read in
  non local Contribution for L=           2  read in
    real space projection operators read in
  non local Contribution for L=           2  read in
    real space projection operators read in
  non local Contribution for L=           0  read in
    real space projection operators read in
  non local Contribution for L=           0  read in
    real space projection operators read in
  non local Contribution for L=           1  read in
    real space projection operators read in
  non local Contribution for L=           1  read in
    real space projection operators read in
    PAW grid and wavefunctions read in
 
   number of l-projection  operators is LMAX  =           6
   number of lm-projection operators is LMMAX =          18
 
 POTCAR:   PAW_PBE Pt 05Jan2001                   
   VRHFIN =Pt: s1d9                                                             
   LEXCH  = PE                                                                  
   EATOM  =   729.1171 eV,   53.5886 Ry                                         
                                                                                
   TITEL  = PAW_PBE Pt 05Jan2001                                                
   LULTRA =        F    use ultrasoft PP ?                                      
   IUNSCR =        1    unscreen: 0-lin 1-nonlin 2-no                           
   RPACOR =    2.330    partial core radius                                     
   POMASS =  195.080; ZVAL   =   10.000    mass and valenz                      
   RCORE  =    2.500    outmost cutoff radius                                   
   RWIGS  =    2.750; RWIGS  =    1.455    wigner-seitz radius (au A)           
   ENMAX  =  230.283; ENMIN  =  172.712 eV                                      
   RCLOC  =    1.896    cutoff for local pot                                    
   LCOR   =        T    correct aug charges                                     
   LPAW   =        T    paw PP                                                  
   EAUG   =  358.966                                                            
   DEXC   =    -.039                                                            
   RMAX   =    3.038    core radius for proj-oper                               
   RAUG   =    1.300    factor for augmentation sphere                          
   RDEP   =    2.590    radius for radial grids                                 
   QCUT   =   -4.114; QGAM   =    8.228    optimization parameters              
                                                                                
   Description                                                                  
     l     E      TYP  RCUT    TYP  RCUT                                        
     2   .000     23  2.500                                                     
     2   .000     23  2.500                                                     
     0   .000     23  2.500                                                     
     0   .000     23  2.500                                                     
     1  -.200     23  2.500                                                     
     1  1.500     23  2.500                                                     
     3   .000      7   .000                                                     
  local pseudopotential read in
  partial core-charges read in
  atomic valenz-charges read in
  non local Contribution for L=           2  read in
    real space projection operators read in
  non local Contribution for L=           2  read in
    real space projection operators read in
  non local Contribution for L=           0  read in
    real space projection operators read in
  non local Contribution for L=           0  read in
    real space projection operators read in
  non local Contribution for L=           1  read in
    real space projection operators read in
  non local Contribution for L=           1  read in
    real space projection operators read in
    PAW grid and wavefunctions read in
 
   number of l-projection  operators is LMAX  =           6
   number of lm-projection operators is LMMAX =          18
 
 POTCAR:   PAW_PBE Au 06Sep2000                   
   VRHFIN =Au: s1d10                                                            
   LEXCH  = PE                                                                  
   EATOM  =   926.0567 eV,   68.0632 Ry                                         
                                                                                
   TITEL  = PAW_PBE Au 06Sep2000                                                
   LULTRA =        F    use ultrasoft PP ?                                      
   IUNSCR =        1    unscreen: 0-lin 1-nonlin 2-no                           
   RPACOR =    2.330    partial core radius                                     
   POMASS =  196.966; ZVAL   =   11.000    mass and valenz                      
   RCORE  =    2.500    outmost cutoff radius                                   
   RWIGS  =    2.840; RWIGS  =    1.503    wigner-seitz radius (au A)           
   ENMAX  =  229.948; ENMIN  =  172.461 eV                                      
   RCLOC  =    1.964    cutoff for local pot                                    
   LCOR   =        T    correct aug charges                                     
   LPAW   =        T    paw PP                                                  
   EAUG   =  356.670                                                            
   DEXC   =    -.025                                                            
   RMAX   =    3.041    core radius for proj-oper                               
   RAUG   =    1.300    factor for augmentation sphere                          
   RDEP   =    2.598    radius for radial grids                                 
   QCUT   =   -4.111; QGAM   =    8.222    optimization parameters              
                                                                                
   Description                                                                  
     l     E      TYP  RCUT    TYP  RCUT                                        
     2   .000     23  2.500                                                     
     2   .000     23  2.500                                                     
     0   .000     23  2.500                                                     
     0   .000     23  2.500                                                     
     1  -.200     23  2.500                                                     
     1   .000     23  2.500                                                     
     3   .000      7   .000                                                     
  local pseudopotential read in
  partial core-charges read in
  atomic valenz-charges read in
  non local Contribution for L=           2  read in
    real space projection operators read in
  non local Contribution for L=           2  read in
    real space projection operators read in
  non local Contribution for L=           0  read in
    real space projection operators read in
  non local Contribution for L=           0  read in
    real space projection operators read in
  non local Contribution for L=           1  read in
    real space projection operators read in
  non local Contribution for L=           1  read in
    real space projection operators read in
    PAW grid and wavefunctions read in
 
   number of l-projection  operators is LMAX  =           6
   number of lm-projection operators is LMMAX =          18
 

 ----------------------------------------------------------------------------- 
|                                                                             |
|  ADVICE TO THIS USER RUNNING 'VASP/VAMP'   (HEAR YOUR MASTER'S VOICE ...):  |
|                                                                             |
|      You have a (more or less) 'large supercell' and for larger cells       |
|      it might be more efficient to use real space projection operators      |
|      So try LREAL= Auto  in the INCAR   file.                               |
|      Mind: If you want to do a very accurate calculations keep the          |
|      reciprocal projection scheme          (i.e. LREAL=.FALSE.)             |
|                                                                             |
 ----------------------------------------------------------------------------- 

 PAW_PBE Al 04Jan2001                   :
 energy of atom  1       EATOM=  -53.5387
 kinetic energy error for atom=    0.0011 (will be added to EATOM!!)
 PAW_PBE Ag 06Sep2000                   :
 energy of atom  2       EATOM=-1037.4134
 kinetic energy error for atom=    0.0535 (will be added to EATOM!!)
 PAW_PBE Pt 05Jan2001                   :
 energy of atom  3       EATOM= -729.1171
 kinetic energy error for atom=    0.0416 (will be added to EATOM!!)
 PAW_PBE Au 06Sep2000                   :
 energy of atom  4       EATOM= -926.0567
 kinetic energy error for atom=    0.0455 (will be added to EATOM!!)
 
 
 POSCAR: Al29 Ag1 Pt1 Au1                        
  positions in direct lattice
  velocities in cartesian coordinates
 exchange correlation table for  LEXCH =        8
   RHO(1)=    0.500       N(1)  =     2000
   RHO(2)=  100.500       N(2)  =     4000

 VTST: version 2.03d, (02/18/09)

 CHAIN: initializing optimizer
 
 OPT: Using VASP Dynamics algorithm
 CHAIN: Read ICHAIN            0
 


--------------------------------------------------------------------------------------------------------


 ion  position               nearest neighbor table
   1  0.004  0.000  1.000-  32 2.84   3 2.84   4 2.85   2 2.85  30 2.86  10 2.87  17 2.87  19 2.88
                            13 2.88  25 2.88   6 2.88   5 2.90
   2  0.258  0.999  0.244-  14 2.78  31 2.80   3 2.80  30 2.83   7 2.83   1 2.85  18 2.87  16 2.88
                            24 2.89   4 2.91  10 2.93  15 2.95
   3  0.259  0.242  0.997-  21 2.75   2 2.80  31 2.81  32 2.83   1 2.84   7 2.85  11 2.87  23 2.89
                             9 2.90   4 2.93  17 2.93   8 2.96
   4  0.999  0.249  0.249-   5 2.83   6 2.84  16 2.84  22 2.85   1 2.85  15 2.85   9 2.85  20 2.86
                            12 2.86   8 2.86   2 2.91   3 2.93
   5  0.751  0.001  0.254-  31 2.66  15 2.80  20 2.81  28 2.83   4 2.83  14 2.85   7 2.85  10 2.86
                            18 2.86  13 2.86   6 2.88   1 2.90
   6  0.751  0.252  0.000-  31 2.68   8 2.82  12 2.83  19 2.84   4 2.84  27 2.84  21 2.84  17 2.85
                            11 2.86   7 2.86   5 2.88   1 2.88
   7  0.503  0.250  0.252-  31 2.68  26 2.82  20 2.83   2 2.83  12 2.84   5 2.85  16 2.85   3 2.85
                             6 2.86   9 2.86  18 2.86  11 2.87
   8  0.998  0.498  0.998-   6 2.82  12 2.84  30 2.85  17 2.85  25 2.86  23 2.86  27 2.86   4 2.86
                            10 2.86   9 2.87  13 2.90   3 2.96
   9  0.249  0.498  0.249-  16 2.82  30 2.83  22 2.85  24 2.85   4 2.85  26 2.86   7 2.86  11 2.86
                             8 2.87  10 2.87   3 2.90  14 2.90
  10  0.998  0.748  0.249-  12 2.84  28 2.84  22 2.85  30 2.85  24 2.85  13 2.86   5 2.86  15 2.86
                             8 2.86   9 2.87   1 2.87   2 2.93
  11  0.502  0.502  0.001-  12 2.83  30 2.84  13 2.85  27 2.85  14 2.85   6 2.86  29 2.86   9 2.86
                             7 2.87   3 2.87  21 2.88  23 2.90
  12  0.750  0.500  0.247-  11 2.83   6 2.83  10 2.84   7 2.84   8 2.84  28 2.85  22 2.86   4 2.86
                            26 2.87  13 2.87  14 2.89  20 2.89
  13  0.747  0.754  0.000-  31 2.79  19 2.81  14 2.83  29 2.84  11 2.85  25 2.85  10 2.86   5 2.86
                            12 2.87   1 2.88   8 2.90  27 2.92
  14  0.500  0.755  0.247-   2 2.78  31 2.80  13 2.83  30 2.84   5 2.85  28 2.85  11 2.85  24 2.87
                            18 2.88  12 2.89   9 2.90  26 2.91
  15  0.997  0.999  0.498-  32 2.78   5 2.80  20 2.83  28 2.85   4 2.85  10 2.86  17 2.86  25 2.87
                            24 2.88  16 2.89  19 2.90   2 2.95
  16  0.249  0.251  0.496-  32 2.80   9 2.82  26 2.84   4 2.84  22 2.85   7 2.85  23 2.85  18 2.86
                             2 2.88  17 2.88  15 2.89  21 2.91
  17  0.996  0.250  0.747-  32 2.80  27 2.83  20 2.83   6 2.85  22 2.85   8 2.85  19 2.86  23 2.86
                            15 2.86   1 2.87  16 2.88   3 2.93
  18  0.501  0.001  0.504-  20 2.82  21 2.83  19 2.84  29 2.84  32 2.84   5 2.86  28 2.86   7 2.86
                            16 2.86   2 2.87  14 2.88  24 2.90
  19  0.746  0.001  0.755-  21 2.81  13 2.81  31 2.81  29 2.83   6 2.84  18 2.84  17 2.86  25 2.87
                            20 2.87   1 2.88  15 2.90  28 2.92
  20  0.749  0.246  0.499-   5 2.81  18 2.82   7 2.83  15 2.83  17 2.83  27 2.85   4 2.86  26 2.86
                            22 2.87  19 2.87  12 2.89  21 2.90
  21  0.499  0.244  0.756-   3 2.75  19 2.81  18 2.83  31 2.83  32 2.84   6 2.84  27 2.87  11 2.88
                            23 2.89  20 2.90  16 2.91  26 2.92
  22  0.999  0.498  0.498-  16 2.85  10 2.85   4 2.85  17 2.85   9 2.85  24 2.85  23 2.85  12 2.86
                            25 2.86  28 2.87  20 2.87  27 2.87
  23  0.248  0.498  0.747-  16 2.85  22 2.85  24 2.86  17 2.86   8 2.86  26 2.86  30 2.87  25 2.88
                            21 2.89   3 2.89  29 2.90  11 2.90
  24  0.248  0.748  0.497-   9 2.85  22 2.85  10 2.85  23 2.86  32 2.86  26 2.87  14 2.87  15 2.88
                            25 2.89   2 2.89  18 2.90  29 2.90
  25  0.995  0.748  0.748-  28 2.85  27 2.85  13 2.85   8 2.86  22 2.86  15 2.87  19 2.87  23 2.88
                            32 2.88   1 2.88  24 2.89  30 2.90
  26  0.500  0.498  0.499-   7 2.82  16 2.84  27 2.85  28 2.86   9 2.86  23 2.86  20 2.86  12 2.87
                            24 2.87  14 2.91  21 2.92  29 2.99
  27  0.748  0.496  0.748-  17 2.83   6 2.84  26 2.85  20 2.85  25 2.85  11 2.85   8 2.86  22 2.87
                            21 2.87  28 2.88  13 2.92  29 2.97
  28  0.749  0.749  0.497-   5 2.83  10 2.84  15 2.85  25 2.85  14 2.85  12 2.85  26 2.86  18 2.86
                            22 2.87  27 2.88  19 2.92  29 2.97
  29  0.493  0.760  0.759-  30 2.78  19 2.83  13 2.84  18 2.84  32 2.85  11 2.86  24 2.90  23 2.90
                            31 2.95  28 2.97  27 2.97  26 2.99
  30  0.249  0.746  0.002-  29 2.78   9 2.83   2 2.83  14 2.84  11 2.84   8 2.85  10 2.85   1 2.86
                            23 2.87  25 2.90  32 2.98  31 3.09
  31  0.521  0.015  0.020-   5 2.66   6 2.68   7 2.68  13 2.79   2 2.80  14 2.80   3 2.81  19 2.81
                            21 2.83  29 2.95  30 3.09  32 3.20
  32  0.241  0.006  0.740-  15 2.78  17 2.80  16 2.80   3 2.83   1 2.84  21 2.84  18 2.84  29 2.85
                            24 2.86  25 2.88  30 2.98  31 3.20
 
  LATTYP: Found a simple cubic cell.
 ALAT       =     8.0870400000
  
  Lattice vectors:
  
 A1 = (   8.0870400000,   0.0000000000,   0.0000000000)
 A2 = (   0.0000000000,   8.0870400000,   0.0000000000)
 A3 = (   0.0000000000,   0.0000000000,   8.0870400000)
 Subroutine PRICEL returns:
 Original cell was already a primitive cell.
 

Analysis of symmetry for initial positions (statically):

 Routine SETGRP: Setting up the symmetry group for a 
 simple cubic supercell.


 Subroutine GETGRP returns: Found  1 space group operations
 (whereof  1 operations were pure point group operations)
 out of a pool of 48 trial point group operations.


The static configuration has the point symmetry C_1 .

Analysis of symmetry for dynamics (positions and initial velocities):

 Subroutine DYNSYM returns: Found  1 space group operations
 (whereof  1 operations were pure point group operations)
 out of a pool of  1 trial space group operations
 (whereof  1 operations were pure point group operations)
 and found also     1 'primitive' translations


The dynamic configuration has the point symmetry C_1 .
 
 
 KPOINTS: Automatic kpoint scheme                 

Automatic generation of k-mesh.
 
 Subroutine IBZKPT returns following result:
 ===========================================
 
 Found      4 irreducible k-points:
 
 Following reciprocal coordinates:
            Coordinates               Weight
  0.250000  0.250000  0.250000      2.000000
 -0.250000  0.250000  0.250000      2.000000
  0.250000 -0.250000  0.250000      2.000000
 -0.250000 -0.250000  0.250000      2.000000
 
 Following cartesian coordinates:
            Coordinates               Weight
  0.030914  0.030914  0.030914      2.000000
 -0.030914  0.030914  0.030914      2.000000
  0.030914 -0.030914  0.030914      2.000000
 -0.030914 -0.030914  0.030914      2.000000
 


--------------------------------------------------------------------------------------------------------




 Dimension of arrays:
   k-points           NKPTS =      4   k-points in BZ     NKDIM =      4   number of bands    NBANDS=     84
   number of dos      NEDOS =    301   number of ions     NIONS =     32
   non local maximal  LDIM  =      6   non local SUM 2l+1 LMDIM =     18
   total plane-waves  NPLWV = 110592
   max r-space proj   IRMAX =      1   max aug-charges    IRDMAX=  12985
   dimension x,y,z NGX =    48 NGY =   48 NGZ =   48
   dimension x,y,z NGXF=    96 NGYF=   96 NGZF=   96
   support grid    NGXF=    96 NGYF=   96 NGZF=   96
   ions per type =              29   1   1   1
 NGX,Y,Z   is equivalent  to a cutoff of   9.87,  9.87,  9.87 a.u.
 NGXF,Y,Z  is equivalent  to a cutoff of  19.73, 19.73, 19.73 a.u.


 I would recommend the setting:
   dimension x,y,z NGX =    46 NGY =   46 NGZ =   46
 SYSTEM =  unknown system                          
 POSCAR =  Al29 Ag1 Pt1 Au1                        

 Startparameter for this run:
   NWRITE =      2    write-flag & timer
   PREC   = accura    medium, high low
   ISTART =      0    job   : 0-new  1-cont  2-samecut
   ICHARG =      2    charge: 1-file 2-atom 10-const
   ISPIN  =      1    spin polarized calculation?
   LNONCOLLINEAR =      F non collinear calculations
   LSORBIT =      F    spin-orbit coupling
   INIWAV =      1    electr: 0-lowe 1-rand  2-diag
   LASPH  =      F    aspherical Exc in radial PAW
   METAGGA=      F    non-selfconsistent MetaGGA calc.

 Electronic Relaxation 1
   ENCUT  =  300.0 eV  22.05 Ry    4.70 a.u.  11.42 11.42 11.42*2*pi/ulx,y,z
   ENINI  =  300.0     initial cutoff
   ENAUG  =  412.5 eV  augmentation charge cutoff
   NELM   =     60;   NELMIN=  2; NELMDL=-12     # of ELM steps 
   EDIFF  = 0.1E-03   stopping-criterion for ELM
   LREAL  =      F    real-space projection
   LCOMPAT=      F    compatible to vasp.4.4
   LREAL_COMPAT= F    compatible to vasp.4.5.1-3
   GGA_COMPAT  = T    GGA compatible to vasp.4.4-vasp.4.6
   LMAXPAW     = -100 max onsite density
   LMAXMIX     =    2 max onsite mixed and CHGCAR
   VOSKOWN=      0    Vosko Wilk Nusair interpolation
   ROPT   =    0.00000   0.00000   0.00000   0.00000
 Ionic relaxation
   EDIFFG = 0.5E-01   stopping-criterion for IOM
   NSW    =      0    number of steps for IOM
   NBLOCK =      1;   KBLOCK =      1    inner block; outer block 
   IBRION =     -1    ionic relax: 0-MD 1-quasi-New 2-CG
   NFREE  =      0    steps in history (QN), initial steepest desc. (CG)
   ISIF   =      2    stress and relaxation
   IWAVPR =     10    prediction:  0-non 1-charg 2-wave 3-comb
   ISYM   =      2    0-nonsym 1-usesym 2-fastsym
   LCORR  =      T    Harris-Foulkes like correction to forces

   POTIM  = 0.5000    time-step for ionic-motion
   TEIN   =    0.0    initial temperature
   TEBEG  =    0.0;   TEEND  =   0.0 temperature during run
   SMASS  =  -3.00    Nose mass-parameter (am)
   estimated Nose-frequenzy (Omega)   =  0.10E-29 period in steps =****** mass=  -0.149E-26a.u.
   NPACO  =    256;   APACO  = 16.0  distance and # of slots for P.C.
   PSTRESS=    0.0 pullay stress

  Mass of Ions in am
   POMASS =  26.98107.87195.08196.97
  Ionic Valenz
   ZVAL   =   3.00 11.00 10.00 11.00
  Atomic Wigner-Seitz radii
   RWIGS  =  -1.00 -1.00 -1.00 -1.00
   NELECT =     119.0000    total number of electrons
   NUPDOWN=      -1.0000    fix difference up-down

 DOS related values:
   EMIN   =  10.00;   EMAX   =-10.00  energy-range for DOS
   EFERMI =   0.00
   ISMEAR =     1;   SIGMA  =   0.20  broadening in eV -4-tet -1-fermi 0-gaus

 Electronic relaxation 2 (details)
   IALGO  =     48    algorithm
   LDIAG  =      T    sub-space diagonalisation
   IMIX   =      4    mixing-type and parameters
     AMIX     =   0.40;   BMIX     =  1.00
     AMIX_MAG =   1.60;   BMIX_MAG =  1.00
     AMIN     =   0.10
     WC   =   100.;   INIMIX=   1;  MIXPRE=   1

 Intra band minimization:
   WEIMIN = 0.0000     energy-eigenvalue tresh-hold
   EBREAK =  0.33E-06  absolut break condition
   DEPER  =   0.30     relativ break condition  

   TIME   =   0.40     timestep for ELM

  volume/ion in A,a.u.               =      16.53       111.54
  Fermi-wavevector in a.u.,A,eV,Ry     =   0.995713  1.881625 13.489423  0.991445
  Thomas-Fermi vector in A             =   2.127752
 
 Write flags
   LWAVE  =      F    write WAVECAR
   LCHARG =      F    write CHGCAR
   LVTOT  =      F    write LOCPOT, local potential
   LELF   =      F    write electronic localiz. function (ELF)
   LORBIT =      0    0 simple, 1 ext, 2 COOP (PROOUT)


 Dipole corrections
   LMONO  =      F    monopole corrections only (constant potential shift)
   LDIPOL =      F    correct potential (dipole corrections)
   IDIPOL =      0    1-x, 2-y, 3-z, 4-all directions 
   EPSILON=  1.0000000 bulk dielectric constant

 Exchange correlation treatment:
   GGA     =    --    GGA type
   LEXCH   =     8    internal setting for exchange type
   VOSKOWN=      0    Vosko Wilk Nusair interpolation
   LHFCALC =     F    Hartree Fock is set to
   LHFONE  =     F    Hartree Fock one center treatment
   AEXX    =    0.0000 exact exchange contribution

 Linear response parameters
   LEPSILON=     F    determine dielectric tensor
   LRPA    =     F    only Hartree local field effects (RPA)
   LNABLA  =     F    use nabla operator in PAW spheres
   LVEL    =     F    velocity operator in full k-point grid
   LINTERFAST=   F  fast interpolation
   KINTER  =     0    interpolate to denser k-point grid
   CSHIFT  =0.1000    complex shift for real part using Kramers Kronig
   OMEGAMAX=  -1.0    maximum frequency

 Orbital magnetization related:
   ORBITALMAG=     F  switch on orbital magnetization
   LCHIMAG   =     F  perturbation theory with respect to B field



--------------------------------------------------------------------------------------------------------


 Static calculation
 charge density and potential will be updated during run
 non-spin polarized calculation
 RMM-DIIS sequential band-by-band
 perform sub-space diagonalisation
    before iterative eigenvector-optimisation
 modified Broyden-mixing scheme, WC =      100.0
 initial mixing is a Kerker type mixing with AMIX =  0.4000 and BMIX =      1.0000
 Hartree-type preconditioning will be used
 using additional bands           24
 reciprocal scheme for non local part
 use partial core corrections
 calculate Harris-corrections to forces 
   (improved forces if not selfconsistent)
 use gradient corrections 
 use of overlap-Matrix (Vanderbilt PP)
 Methfessel and Paxton  Order N= 1 SIGMA  =   0.20


--------------------------------------------------------------------------------------------------------


  energy-cutoff  :      300.00
  volume of cell :      528.89
      direct lattice vectors                 reciprocal lattice vectors
     8.087040000  0.000000000  0.000000000     0.123654638  0.000000000  0.000000000
     0.000000000  8.087040000  0.000000000     0.000000000  0.123654638  0.000000000
     0.000000000  0.000000000  8.087040000     0.000000000  0.000000000  0.123654638

  length of vectors
     8.087040000  8.087040000  8.087040000     0.123654638  0.123654638  0.123654638


 
 k-points in units of 2pi/SCALE and weight: Automatic kpoint scheme                 
   0.03091366  0.03091366  0.03091366       0.250
  -0.03091366  0.03091366  0.03091366       0.250
   0.03091366 -0.03091366  0.03091366       0.250
  -0.03091366 -0.03091366  0.03091366       0.250
 
 k-points in reciprocal lattice and weights: Automatic kpoint scheme                 
   0.25000000  0.25000000  0.25000000       0.250
  -0.25000000  0.25000000  0.25000000       0.250
   0.25000000 -0.25000000  0.25000000       0.250
  -0.25000000 -0.25000000  0.25000000       0.250
 
 position of ions in fractional coordinates (direct lattice) 
   0.00447300  0.00031000  0.99979600
   0.25842200  0.99935500  0.24410000
   0.25935800  0.24203900  0.99715600
   0.99899500  0.24864600  0.24934100
   0.75121900  0.00089200  0.25387000
   0.75143100  0.25161800  0.00025400
   0.50289900  0.25043700  0.25168500
   0.99844000  0.49820000  0.99821400
   0.24918700  0.49752300  0.24910900
   0.99768600  0.74790200  0.24925500
   0.50194200  0.50178100  0.00096100
   0.74990900  0.49954600  0.24718400
   0.74741400  0.75438400  0.00008200
   0.49988500  0.75461200  0.24717500
   0.99662800  0.99890500  0.49836900
   0.24949400  0.25077300  0.49625100
   0.99626500  0.24994600  0.74747800
   0.50107900  0.00146800  0.50369000
   0.74625600  0.00059600  0.75539200
   0.74945400  0.24632200  0.49935400
   0.49861300  0.24367500  0.75600500
   0.99920400  0.49832400  0.49754100
   0.24818400  0.49803500  0.74741500
   0.24844000  0.74789800  0.49745500
   0.99493500  0.74787500  0.74846400
   0.49995400  0.49760200  0.49850100
   0.74790500  0.49620900  0.74815100
   0.74874100  0.74895100  0.49658500
   0.49278200  0.76001500  0.75914200
   0.24924000  0.74590900  0.00214800
   0.52079700  0.01457600  0.01959500
   0.24076600  0.00567400  0.74027900
 
 position of ions in cartesian coordinates  (Angst):
   0.03617333  0.00250698  8.08539024
   2.08986905  8.08182386  1.97404646
   2.09743852  1.95737907  8.06404046
   8.07891252  2.01081015  2.01643064
   6.07513810  0.00721364  2.05305684
   6.07685255  2.03484483  0.00205411
   4.06696433  2.02529404  2.03538666
   8.07442422  4.02896333  8.07259655
   2.01518524  4.02348840  2.01455445
   8.06832659  6.04831339  2.01573516
   4.05922503  4.05792302  0.00777165
   6.06454408  4.03984848  1.99898690
   6.04436691  6.10073358  0.00066314
   4.04258999  6.10257743  1.99891411
   8.05977050  8.07818469  4.03033004
   2.01766796  2.02801128  4.01320169
   8.05683491  2.02132330  6.04488449
   4.05224592  0.01187177  4.07336118
   6.03500212  0.00481988  6.10888532
   6.06086448  1.99201587  4.03829577
   4.03230328  1.97060947  6.11384268
   8.08060272  4.02996612  4.02363397
   2.00707394  4.02762897  6.04437500
   2.00914422  6.04828104  4.02293848
   8.04607914  6.04809504  6.05285831
   4.04314800  4.02412728  4.03139753
   6.04833765  4.01286203  6.05032706
   6.05509842  6.05679670  4.01590276
   3.98514775  6.14627171  6.13921172
   2.01561385  6.03219592  0.01737096
   4.21170617  0.11787670  0.15846555
   1.94708427  0.04588586  5.98666588
 


--------------------------------------------------------------------------------------------------------


 k-point  1 :  0.25000.25000.2500  plane waves:    6238
 k-point  2 :  -.25000.25000.2500  plane waves:    6238
 k-point  3 :  0.2500-.25000.2500  plane waves:    6238
 k-point  4 :  -.2500-.25000.2500  plane waves:    6238

 maximum and minimum number of plane-waves per node :    6238   6238

 maximum number of plane-waves:    6238
 maximal index in each direction: 
   IXMAX= 11   IYMAX= 11   IZMAX= 11
   IXMIN=-11   IYMIN=-11   IZMIN=-11

 NGX is ok and might be reduce to  46
 NGY is ok and might be reduce to  46
 NGZ is ok and might be reduce to  46

 serial   3D FFT for wavefunctions
 parallel 3D FFT for charge:
    minimum data exchange during FFTs selected (reduces bandwidth)


 total amount of memory used by VASP on root node  76806. kBytes
========================================================================

   base      :    30000. kBytes
   nonl-proj :    17571. kBytes
   fftplans  :     2983. kBytes
   grid      :    22831. kBytes
   one-center:      497. kBytes
   wavefun   :     2924. kBytes
 
 Broyden mixing: mesh for mixing (old mesh)
   NGX = 23   NGY = 23   NGZ = 23
  (NGX  = 96   NGY  = 96   NGZ  = 96)
  gives a total of  12167 points

 initial charge density was supplied:
 charge density of overlapping atoms calculated
 number of electron  119.0000000 magnetization 
 keeping initial charge density in first step


--------------------------------------------------------------------------------------------------------


 Maximum index for augmentation-charges         1036 (set IRDMAX)


--------------------------------------------------------------------------------------------------------


 First call to EWALD:  gamma=   0.219
 Maximum number of real-space cells 3x 3x 3
 Maximum number of reciprocal cells 3x 3x 3

    FEWALD:  cpu time    0.01: real time    0.01
   RESPFUN:  cpu time    0.00: real time    0.00


----------------------------------------- Iteration    1(   1)  ---------------------------------------


    POTLOK:  cpu time    0.16: real time    0.16
    SETDIJ:  cpu time    0.02: real time    0.02
    EDDIAG:  cpu time    0.71: real time    0.71
  RMM-DIIS:  cpu time    1.63: real time    1.63
    ORTHCH:  cpu time    0.05: real time    0.05
       DOS:  cpu time    0.00: real time    0.00
    --------------------------------------------
      LOOP:  cpu time    2.56: real time    2.56

 eigenvalue-minimisations  :   336
 total energy-change (2. order) : 0.4687556E+03  (-0.2255300E+04)
 number of electron  119.0000000 magnetization 
 augmentation part   119.0000000 magnetization 

 Free energy of the ion-electron system (eV)
  ---------------------------------------------------
  alpha Z        PSCENC =       100.06042719
  Ewald energy   TEWEN  =     -3901.08341404
  -1/2 Hartree   DENC   =     -1290.05861437
  -exchange  EXHF       =         0.00000000
  -V(xc)+E(xc)   XCENC  =      -752.10792232
  PAW double counting   =      3222.50049718    -2197.73173776
  entropy T*S    EENTRO =         0.00860755
  eigenvalues    EBANDS =      1042.13003949
  atomic energy  EATOM  =      4245.03775698
  ---------------------------------------------------
  free energy    TOTEN  =       468.75563990 eV

  energy without entropy =      468.74703234  energy(sigma->0) =      468.75277071


--------------------------------------------------------------------------------------------------------




----------------------------------------- Iteration    1(   2)  ---------------------------------------


    EDDIAG:  cpu time    0.71: real time    0.71
  RMM-DIIS:  cpu time    1.62: real time    1.62
    ORTHCH:  cpu time    0.05: real time    0.05
       DOS:  cpu time    0.00: real time    0.00
    --------------------------------------------
      LOOP:  cpu time    2.38: real time    2.38

 eigenvalue-minimisations  :   336
 total energy-change (2. order) :-0.4285302E+03  (-0.4153919E+03)
 number of electron  119.0000000 magnetization 
 augmentation part   119.0000000 magnetization 

 Free energy of the ion-electron system (eV)
  ---------------------------------------------------
  alpha Z        PSCENC =       100.06042719
  Ewald energy   TEWEN  =     -3901.08341404
  -1/2 Hartree   DENC   =     -1290.05861437
  -exchange  EXHF       =         0.00000000
  -V(xc)+E(xc)   XCENC  =      -752.10792232
  PAW double counting   =      3222.50049718    -2197.73173776
  entropy T*S    EENTRO =        -0.02947577
  eigenvalues    EBANDS =       613.63790956
  atomic energy  EATOM  =      4245.03775698
  ---------------------------------------------------
  free energy    TOTEN  =        40.22542665 eV

  energy without entropy =       40.25490241  energy(sigma->0) =       40.23525190


--------------------------------------------------------------------------------------------------------




----------------------------------------- Iteration    1(   3)  ---------------------------------------


    EDDIAG:  cpu time    0.71: real time    0.71
  RMM-DIIS:  cpu time    1.62: real time    1.62
    ORTHCH:  cpu time    0.04: real time    0.05
       DOS:  cpu time    0.00: real time    0.00
    --------------------------------------------
      LOOP:  cpu time    2.37: real time    2.38

 eigenvalue-minimisations  :   336
 total energy-change (2. order) :-0.1064129E+03  (-0.9530671E+02)
 number of electron  119.0000000 magnetization 
 augmentation part   119.0000000 magnetization 

 Free energy of the ion-electron system (eV)
  ---------------------------------------------------
  alpha Z        PSCENC =       100.06042719
  Ewald energy   TEWEN  =     -3901.08341404
  -1/2 Hartree   DENC   =     -1290.05861437
  -exchange  EXHF       =         0.00000000
  -V(xc)+E(xc)   XCENC  =      -752.10792232
  PAW double counting   =      3222.50049718    -2197.73173776
  entropy T*S    EENTRO =        -0.03219593
  eigenvalues    EBANDS =       507.22774111
  atomic energy  EATOM  =      4245.03775698
  ---------------------------------------------------
  free energy    TOTEN  =       -66.18746196 eV

  energy without entropy =      -66.15526603  energy(sigma->0) =      -66.17672999


--------------------------------------------------------------------------------------------------------




----------------------------------------- Iteration    1(   4)  ---------------------------------------


    EDDIAG:  cpu time    0.71: real time    0.71
  RMM-DIIS:  cpu time    1.62: real time    1.62
    ORTHCH:  cpu time    0.05: real time    0.05
       DOS:  cpu time    0.00: real time    0.00
    --------------------------------------------
      LOOP:  cpu time    2.37: real time    2.37

 eigenvalue-minimisations  :   336
 total energy-change (2. order) :-0.3588122E+02  (-0.2626797E+02)
 number of electron  119.0000000 magnetization 
 augmentation part   119.0000000 magnetization 

 Free energy of the ion-electron system (eV)
  ---------------------------------------------------
  alpha Z        PSCENC =       100.06042719
  Ewald energy   TEWEN  =     -3901.08341404
  -1/2 Hartree   DENC   =     -1290.05861437
  -exchange  EXHF       =         0.00000000
  -V(xc)+E(xc)   XCENC  =      -752.10792232
  PAW double counting   =      3222.50049718    -2197.73173776
  entropy T*S    EENTRO =         0.00952439
  eigenvalues    EBANDS =       471.30480270
  atomic energy  EATOM  =      4245.03775698
  ---------------------------------------------------
  free energy    TOTEN  =      -102.06868005 eV

  energy without entropy =     -102.07820444  energy(sigma->0) =     -102.07185484


--------------------------------------------------------------------------------------------------------




----------------------------------------- Iteration    1(   5)  ---------------------------------------


    EDDIAG:  cpu time    0.71: real time    0.71
  RMM-DIIS:  cpu time    1.62: real time    1.62
    ORTHCH:  cpu time    0.04: real time    0.05
       DOS:  cpu time    0.00: real time    0.00
    --------------------------------------------
      LOOP:  cpu time    2.38: real time    2.38

 eigenvalue-minimisations  :   336
 total energy-change (2. order) :-0.1368588E+02  (-0.1087366E+02)
 number of electron  119.0000000 magnetization 
 augmentation part   119.0000000 magnetization 

 Free energy of the ion-electron system (eV)
  ---------------------------------------------------
  alpha Z        PSCENC =       100.06042719
  Ewald energy   TEWEN  =     -3901.08341404
  -1/2 Hartree   DENC   =     -1290.05861437
  -exchange  EXHF       =         0.00000000
  -V(xc)+E(xc)   XCENC  =      -752.10792232
  PAW double counting   =      3222.50049718    -2197.73173776
  entropy T*S    EENTRO =         0.01796150
  eigenvalues    EBANDS =       457.61048482
  atomic energy  EATOM  =      4245.03775698
  ---------------------------------------------------
  free energy    TOTEN  =      -115.75456082 eV

  energy without entropy =     -115.77252232  energy(sigma->0) =     -115.76054799


--------------------------------------------------------------------------------------------------------




----------------------------------------- Iteration    1(   6)  ---------------------------------------


    EDDIAG:  cpu time    0.71: real time    0.71
  RMM-DIIS:  cpu time    1.61: real time    1.61
    ORTHCH:  cpu time    0.05: real time    0.05
       DOS:  cpu time    0.00: real time    0.00
    --------------------------------------------
      LOOP:  cpu time    2.37: real time    2.37

 eigenvalue-minimisations  :   336
 total energy-change (2. order) :-0.6390534E+01  (-0.5711744E+01)
 number of electron  119.0000000 magnetization 
 augmentation part   119.0000000 magnetization 

 Free energy of the ion-electron system (eV)
  ---------------------------------------------------
  alpha Z        PSCENC =       100.06042719
  Ewald energy   TEWEN  =     -3901.08341404
  -1/2 Hartree   DENC   =     -1290.05861437
  -exchange  EXHF       =         0.00000000
  -V(xc)+E(xc)   XCENC  =      -752.10792232
  PAW double counting   =      3222.50049718    -2197.73173776
  entropy T*S    EENTRO =         0.00180201
  eigenvalues    EBANDS =       451.23611002
  atomic energy  EATOM  =      4245.03775698
  ---------------------------------------------------
  free energy    TOTEN  =      -122.14509511 eV

  energy without entropy =     -122.14689712  energy(sigma->0) =     -122.14569578


--------------------------------------------------------------------------------------------------------




----------------------------------------- Iteration    1(   7)  ---------------------------------------


    EDDIAG:  cpu time    0.71: real time    0.71
  RMM-DIIS:  cpu time    1.62: real time    1.62
    ORTHCH:  cpu time    0.05: real time    0.05
       DOS:  cpu time    0.00: real time    0.00
    --------------------------------------------
      LOOP:  cpu time    2.38: real time    2.38

 eigenvalue-minimisations  :   336
 total energy-change (2. order) :-0.3427965E+01  (-0.2951166E+01)
 number of electron  119.0000000 magnetization 
 augmentation part   119.0000000 magnetization 

 Free energy of the ion-electron system (eV)
  ---------------------------------------------------
  alpha Z        PSCENC =       100.06042719
  Ewald energy   TEWEN  =     -3901.08341404
  -1/2 Hartree   DENC   =     -1290.05861437
  -exchange  EXHF       =         0.00000000
  -V(xc)+E(xc)   XCENC  =      -752.10792232
  PAW double counting   =      3222.50049718    -2197.73173776
  entropy T*S    EENTRO =        -0.01057695
  eigenvalues    EBANDS =       447.82052354
  atomic energy  EATOM  =      4245.03775698
  ---------------------------------------------------
  free energy    TOTEN  =      -125.57306055 eV

  energy without entropy =     -125.56248360  energy(sigma->0) =     -125.56953490


--------------------------------------------------------------------------------------------------------




----------------------------------------- Iteration    1(   8)  ---------------------------------------


    EDDIAG:  cpu time    0.71: real time    0.71
  RMM-DIIS:  cpu time    1.62: real time    1.63
    ORTHCH:  cpu time    0.04: real time    0.05
       DOS:  cpu time    0.00: real time    0.00
    --------------------------------------------
      LOOP:  cpu time    2.38: real time    2.40

 eigenvalue-minimisations  :   336
 total energy-change (2. order) :-0.1689994E+01  (-0.1556707E+01)
 number of electron  119.0000000 magnetization 
 augmentation part   119.0000000 magnetization 

 Free energy of the ion-electron system (eV)
  ---------------------------------------------------
  alpha Z        PSCENC =       100.06042719
  Ewald energy   TEWEN  =     -3901.08341404
  -1/2 Hartree   DENC   =     -1290.05861437
  -exchange  EXHF       =         0.00000000
  -V(xc)+E(xc)   XCENC  =      -752.10792232
  PAW double counting   =      3222.50049718    -2197.73173776
  entropy T*S    EENTRO =        -0.00956070
  eigenvalues    EBANDS =       446.12951336
  atomic energy  EATOM  =      4245.03775698
  ---------------------------------------------------
  free energy    TOTEN  =      -127.26305448 eV

  energy without entropy =     -127.25349379  energy(sigma->0) =     -127.25986758


--------------------------------------------------------------------------------------------------------




----------------------------------------- Iteration    1(   9)  ---------------------------------------


    EDDIAG:  cpu time    0.71: real time    0.71
  RMM-DIIS:  cpu time    3.93: real time    3.93
    ORTHCH:  cpu time    0.05: real time    0.05
       DOS:  cpu time    0.00: real time    0.00
    --------------------------------------------
      LOOP:  cpu time    4.69: real time    4.69

 eigenvalue-minimisations  :   883
 total energy-change (2. order) :-0.1708318E+01  (-0.1621279E+01)
 number of electron  119.0000000 magnetization 
 augmentation part   119.0000000 magnetization 

 Free energy of the ion-electron system (eV)
  ---------------------------------------------------
  alpha Z        PSCENC =       100.06042719
  Ewald energy   TEWEN  =     -3901.08341404
  -1/2 Hartree   DENC   =     -1290.05861437
  -exchange  EXHF       =         0.00000000
  -V(xc)+E(xc)   XCENC  =      -752.10792232
  PAW double counting   =      3222.50049718    -2197.73173776
  entropy T*S    EENTRO =        -0.01394625
  eigenvalues    EBANDS =       444.42558071
  atomic energy  EATOM  =      4245.03775698
  ---------------------------------------------------
  free energy    TOTEN  =      -128.97137268 eV

  energy without entropy =     -128.95742643  energy(sigma->0) =     -128.96672393


--------------------------------------------------------------------------------------------------------




----------------------------------------- Iteration    1(  10)  ---------------------------------------


    EDDIAG:  cpu time    0.71: real time    0.71
  RMM-DIIS:  cpu time    4.22: real time    4.22
    ORTHCH:  cpu time    0.05: real time    0.05
       DOS:  cpu time    0.00: real time    0.00
    --------------------------------------------
      LOOP:  cpu time    4.98: real time    4.98

 eigenvalue-minimisations  :   900
 total energy-change (2. order) :-0.1575281E+00  (-0.1100342E+00)
 number of electron  119.0000000 magnetization 
 augmentation part   119.0000000 magnetization 

 Free energy of the ion-electron system (eV)
  ---------------------------------------------------
  alpha Z        PSCENC =       100.06042719
  Ewald energy   TEWEN  =     -3901.08341404
  -1/2 Hartree   DENC   =     -1290.05861437
  -exchange  EXHF       =         0.00000000
  -V(xc)+E(xc)   XCENC  =      -752.10792232
  PAW double counting   =      3222.50049718    -2197.73173776
  entropy T*S    EENTRO =        -0.00938138
  eigenvalues    EBANDS =       444.26348770
  atomic energy  EATOM  =      4245.03775698
  ---------------------------------------------------
  free energy    TOTEN  =      -129.12890082 eV

  energy without entropy =     -129.11951944  energy(sigma->0) =     -129.12577370


--------------------------------------------------------------------------------------------------------




----------------------------------------- Iteration    1(  11)  ---------------------------------------


    EDDIAG:  cpu time    0.71: real time    0.71
  RMM-DIIS:  cpu time    3.74: real time    3.74
    ORTHCH:  cpu time    0.05: real time    0.05
       DOS:  cpu time    0.00: real time    0.00
    --------------------------------------------
      LOOP:  cpu time    4.50: real time    4.50

 eigenvalue-minimisations  :   818
 total energy-change (2. order) :-0.7202293E-02  (-0.4784971E-02)
 number of electron  119.0000000 magnetization 
 augmentation part   119.0000000 magnetization 

 Free energy of the ion-electron system (eV)
  ---------------------------------------------------
  alpha Z        PSCENC =       100.06042719
  Ewald energy   TEWEN  =     -3901.08341404
  -1/2 Hartree   DENC   =     -1290.05861437
  -exchange  EXHF       =         0.00000000
  -V(xc)+E(xc)   XCENC  =      -752.10792232
  PAW double counting   =      3222.50049718    -2197.73173776
  entropy T*S    EENTRO =        -0.00883089
  eigenvalues    EBANDS =       444.25573492
  atomic energy  EATOM  =      4245.03775698
  ---------------------------------------------------
  free energy    TOTEN  =      -129.13610311 eV

  energy without entropy =     -129.12727222  energy(sigma->0) =     -129.13315948


--------------------------------------------------------------------------------------------------------




----------------------------------------- Iteration    1(  12)  ---------------------------------------


    EDDIAG:  cpu time    0.71: real time    0.71
  RMM-DIIS:  cpu time    3.46: real time    3.46
    ORTHCH:  cpu time    0.04: real time    0.05
       DOS:  cpu time    0.00: real time    0.00
    CHARGE:  cpu time    0.32: real time    0.32
    MIXING:  cpu time    0.00: real time    0.00
    --------------------------------------------
      LOOP:  cpu time    4.54: real time    4.54

 eigenvalue-minimisations  :   715
 total energy-change (2. order) :-0.1084541E-02  (-0.9810250E-03)
 number of electron  119.0000006 magnetization 
 augmentation part     9.4120742 magnetization 

 Broyden mixing:
  rms(total) = 0.14278E+01    rms(broyden)= 0.14277E+01
  rms(prec ) = 0.27635E+01
  weight for this iteration     100.00

 Free energy of the ion-electron system (eV)
  ---------------------------------------------------
  alpha Z        PSCENC =       100.06042719
  Ewald energy   TEWEN  =     -3901.08341404
  -1/2 Hartree   DENC   =     -1290.05861437
  -exchange  EXHF       =         0.00000000
  -V(xc)+E(xc)   XCENC  =      -752.10792232
  PAW double counting   =      3222.50049718    -2197.73173776
  entropy T*S    EENTRO =        -0.00881522
  eigenvalues    EBANDS =       444.25463471
  atomic energy  EATOM  =      4245.03775698
  ---------------------------------------------------
  free energy    TOTEN  =      -129.13718765 eV

  energy without entropy =     -129.12837243  energy(sigma->0) =     -129.13424925


--------------------------------------------------------------------------------------------------------




----------------------------------------- Iteration    1(  13)  ---------------------------------------


    POTLOK:  cpu time    0.16: real time    0.16
    SETDIJ:  cpu time    0.02: real time    0.02
    EDDIAG:  cpu time    0.71: real time    0.71
  RMM-DIIS:  cpu time    3.49: real time    3.49
    ORTHCH:  cpu time    0.05: real time    0.05
       DOS:  cpu time    0.00: real time    0.00
    CHARGE:  cpu time    0.32: real time    0.32
    MIXING:  cpu time    0.00: real time    0.00
    --------------------------------------------
      LOOP:  cpu time    4.74: real time    4.75

 eigenvalue-minimisations  :   757
 total energy-change (2. order) : 0.3338182E+01  (-0.5972266E+01)
 number of electron  119.0000008 magnetization 
 augmentation part    11.7683289 magnetization 

 Broyden mixing:
  rms(total) = 0.61462E+00    rms(broyden)= 0.61443E+00
  rms(prec ) = 0.12144E+01
  weight for this iteration     100.00

 eigenvalues of (default mixing * dielectric matrix)
  average eigenvalue GAMMA=   0.7536
  0.7536

 Free energy of the ion-electron system (eV)
  ---------------------------------------------------
  alpha Z        PSCENC =       100.06042719
  Ewald energy   TEWEN  =     -3901.08341404
  -1/2 Hartree   DENC   =     -1180.42302764
  -exchange  EXHF       =         0.00000000
  -V(xc)+E(xc)   XCENC  =      -753.61304154
  PAW double counting   =      3062.53493630    -2042.37265325
  entropy T*S    EENTRO =         0.00095570
  eigenvalues    EBANDS =       344.05905431
  atomic energy  EATOM  =      4245.03775698
  ---------------------------------------------------
  free energy    TOTEN  =      -125.79900599 eV

  energy without entropy =     -125.79996170  energy(sigma->0) =     -125.79932456


--------------------------------------------------------------------------------------------------------




----------------------------------------- Iteration    1(  14)  ---------------------------------------


    POTLOK:  cpu time    0.16: real time    0.16
    SETDIJ:  cpu time    0.02: real time    0.02
    EDDIAG:  cpu time    0.71: real time    0.71
  RMM-DIIS:  cpu time    3.52: real time    3.52
    ORTHCH:  cpu time    0.05: real time    0.05
       DOS:  cpu time    0.00: real time    0.00
    CHARGE:  cpu time    0.32: real time    0.32
    MIXING:  cpu time    0.00: real time    0.00
    --------------------------------------------
      LOOP:  cpu time    4.78: real time    4.79

 eigenvalue-minimisations  :   733
 total energy-change (2. order) : 0.2143495E+01  (-0.2879293E+00)
 number of electron  119.0000008 magnetization 
 augmentation part    11.3049576 magnetization 

 Broyden mixing:
  rms(total) = 0.27119E+00    rms(broyden)= 0.27118E+00
  rms(prec ) = 0.44996E+00
  weight for this iteration     100.00

 eigenvalues of (default mixing * dielectric matrix)
  average eigenvalue GAMMA=   1.4319
  0.7910  2.0728

 Free energy of the ion-electron system (eV)
  ---------------------------------------------------
  alpha Z        PSCENC =       100.06042719
  Ewald energy   TEWEN  =     -3901.08341404
  -1/2 Hartree   DENC   =     -1212.02763869
  -exchange  EXHF       =         0.00000000
  -V(xc)+E(xc)   XCENC  =      -752.44445411
  PAW double counting   =      3169.35351003    -2151.53475574
  entropy T*S    EENTRO =        -0.00536992
  eigenvalues    EBANDS =       378.98842716
  atomic energy  EATOM  =      4245.03775698
  ---------------------------------------------------
  free energy    TOTEN  =      -123.65551114 eV

  energy without entropy =     -123.65014122  energy(sigma->0) =     -123.65372117


--------------------------------------------------------------------------------------------------------




----------------------------------------- Iteration    1(  15)  ---------------------------------------


    POTLOK:  cpu time    0.16: real time    0.16
    SETDIJ:  cpu time    0.02: real time    0.02
    EDDIAG:  cpu time    0.71: real time    0.71
  RMM-DIIS:  cpu time    3.51: real time    3.53
    ORTHCH:  cpu time    0.05: real time    0.05
       DOS:  cpu time    0.00: real time    0.00
    CHARGE:  cpu time    0.32: real time    0.32
    MIXING:  cpu time    0.00: real time    0.00
    --------------------------------------------
      LOOP:  cpu time    4.77: real time    4.79

 eigenvalue-minimisations  :   746
 total energy-change (2. order) : 0.1888856E+00  (-0.1702697E+00)
 number of electron  119.0000007 magnetization 
 augmentation part    10.9433553 magnetization 

 Broyden mixing:
  rms(total) = 0.17770E+00    rms(broyden)= 0.17768E+00
  rms(prec ) = 0.32176E+00
  weight for this iteration     100.00

 eigenvalues of (default mixing * dielectric matrix)
  average eigenvalue GAMMA=   1.3700
  2.5341  0.7879  0.7879

 Free energy of the ion-electron system (eV)
  ---------------------------------------------------
  alpha Z        PSCENC =       100.06042719
  Ewald energy   TEWEN  =     -3901.08341404
  -1/2 Hartree   DENC   =     -1226.63599154
  -exchange  EXHF       =         0.00000000
  -V(xc)+E(xc)   XCENC  =      -751.25081145
  PAW double counting   =      3257.30904927    -2242.33400449
  entropy T*S    EENTRO =        -0.00775762
  eigenvalues    EBANDS =       395.43812020
  atomic energy  EATOM  =      4245.03775698
  ---------------------------------------------------
  free energy    TOTEN  =      -123.46662550 eV

  energy without entropy =     -123.45886788  energy(sigma->0) =     -123.46403963


--------------------------------------------------------------------------------------------------------




----------------------------------------- Iteration    1(  16)  ---------------------------------------


    POTLOK:  cpu time    0.16: real time    0.16
    SETDIJ:  cpu time    0.02: real time    0.02
    EDDIAG:  cpu time    0.71: real time    0.71
  RMM-DIIS:  cpu time    3.62: real time    3.62
    ORTHCH:  cpu time    0.05: real time    0.05
       DOS:  cpu time    0.00: real time    0.00
    CHARGE:  cpu time    0.31: real time    0.32
    MIXING:  cpu time    0.00: real time    0.00
    --------------------------------------------
      LOOP:  cpu time    4.87: real time    4.87

 eigenvalue-minimisations  :   787
 total energy-change (2. order) : 0.1061912E+00  (-0.8258318E-02)
 number of electron  119.0000007 magnetization 
 augmentation part    11.0304692 magnetization 

 Broyden mixing:
  rms(total) = 0.56726E-01    rms(broyden)= 0.56725E-01
  rms(prec ) = 0.11008E+00
  weight for this iteration     100.00

 eigenvalues of (default mixing * dielectric matrix)
  average eigenvalue GAMMA=   1.2860
  2.5668  0.8672  0.8672  0.8430

 Free energy of the ion-electron system (eV)
  ---------------------------------------------------
  alpha Z        PSCENC =       100.06042719
  Ewald energy   TEWEN  =     -3901.08341404
  -1/2 Hartree   DENC   =     -1220.07928486
  -exchange  EXHF       =         0.00000000
  -V(xc)+E(xc)   XCENC  =      -750.80280457
  PAW double counting   =      3275.10477982    -2261.63977896
  entropy T*S    EENTRO =        -0.00668473
  eigenvalues    EBANDS =       390.04856890
  atomic energy  EATOM  =      4245.03775698
  ---------------------------------------------------
  free energy    TOTEN  =      -123.36043427 eV

  energy without entropy =     -123.35374954  energy(sigma->0) =     -123.35820602


--------------------------------------------------------------------------------------------------------




----------------------------------------- Iteration    1(  17)  ---------------------------------------


    POTLOK:  cpu time    0.16: real time    0.16
    SETDIJ:  cpu time    0.02: real time    0.02
    EDDIAG:  cpu time    0.71: real time    0.71
  RMM-DIIS:  cpu time    3.69: real time    3.69
    ORTHCH:  cpu time    0.05: real time    0.05
       DOS:  cpu time    0.00: real time    0.00
    CHARGE:  cpu time    0.33: real time    0.33
    MIXING:  cpu time    0.00: real time    0.00
    --------------------------------------------
      LOOP:  cpu time    4.96: real time    4.96

 eigenvalue-minimisations  :   806
 total energy-change (2. order) : 0.1234775E-01  (-0.4941221E-02)
 number of electron  119.0000007 magnetization 
 augmentation part    11.0942773 magnetization 

 Broyden mixing:
  rms(total) = 0.86358E-02    rms(broyden)= 0.86202E-02
  rms(prec ) = 0.15386E-01
  weight for this iteration     100.00

 eigenvalues of (default mixing * dielectric matrix)
  average eigenvalue GAMMA=   1.3352
  2.5912  1.6250  0.8452  0.8452  0.7697

 Free energy of the ion-electron system (eV)
  ---------------------------------------------------
  alpha Z        PSCENC =       100.06042719
  Ewald energy   TEWEN  =     -3901.08341404
  -1/2 Hartree   DENC   =     -1217.19310643
  -exchange  EXHF       =         0.00000000
  -V(xc)+E(xc)   XCENC  =      -750.81458908
  PAW double counting   =      3270.11712744    -2256.59508965
  entropy T*S    EENTRO =        -0.00634043
  eigenvalues    EBANDS =       387.12914151
  atomic energy  EATOM  =      4245.03775698
  ---------------------------------------------------
  free energy    TOTEN  =      -123.34808651 eV

  energy without entropy =     -123.34174608  energy(sigma->0) =     -123.34597303


--------------------------------------------------------------------------------------------------------




----------------------------------------- Iteration    1(  18)  ---------------------------------------


    POTLOK:  cpu time    0.16: real time    0.16
    SETDIJ:  cpu time    0.02: real time    0.02
    EDDIAG:  cpu time    0.72: real time    0.72
  RMM-DIIS:  cpu time    3.76: real time    3.76
    ORTHCH:  cpu time    0.04: real time    0.05
       DOS:  cpu time    0.00: real time    0.00
    CHARGE:  cpu time    0.32: real time    0.32
    MIXING:  cpu time    0.00: real time    0.00
    --------------------------------------------
      LOOP:  cpu time    5.02: real time    5.02

 eigenvalue-minimisations  :   833
 total energy-change (2. order) :-0.3253682E-03  (-0.7483468E-03)
 number of electron  119.0000007 magnetization 
 augmentation part    11.1131581 magnetization 

 Broyden mixing:
  rms(total) = 0.94571E-02    rms(broyden)= 0.94538E-02
  rms(prec ) = 0.17079E-01
  weight for this iteration     100.00

 eigenvalues of (default mixing * dielectric matrix)
  average eigenvalue GAMMA=   1.4284
  2.5865  2.4983  0.8776  0.8776  0.8653  0.8653

 Free energy of the ion-electron system (eV)
  ---------------------------------------------------
  alpha Z        PSCENC =       100.06042719
  Ewald energy   TEWEN  =     -3901.08341404
  -1/2 Hartree   DENC   =     -1216.58284075
  -exchange  EXHF       =         0.00000000
  -V(xc)+E(xc)   XCENC  =      -750.80526079
  PAW double counting   =      3268.37337225    -2254.74333190
  entropy T*S    EENTRO =        -0.00625851
  eigenvalues    EBANDS =       386.40113770
  atomic energy  EATOM  =      4245.03775698
  ---------------------------------------------------
  free energy    TOTEN  =      -123.34841188 eV

  energy without entropy =     -123.34215336  energy(sigma->0) =     -123.34632571


--------------------------------------------------------------------------------------------------------




----------------------------------------- Iteration    1(  19)  ---------------------------------------


    POTLOK:  cpu time    0.16: real time    0.16
    SETDIJ:  cpu time    0.02: real time    0.02
    EDDIAG:  cpu time    0.71: real time    0.71
  RMM-DIIS:  cpu time    3.46: real time    3.46
    ORTHCH:  cpu time    0.05: real time    0.05
       DOS:  cpu time    0.00: real time    0.00
    CHARGE:  cpu time    0.32: real time    0.32
    MIXING:  cpu time    0.00: real time    0.00
    --------------------------------------------
      LOOP:  cpu time    4.72: real time    4.72

 eigenvalue-minimisations  :   729
 total energy-change (2. order) : 0.2886259E-03  (-0.7543210E-04)
 number of electron  119.0000007 magnetization 
 augmentation part    11.1039229 magnetization 

 Broyden mixing:
  rms(total) = 0.18597E-02    rms(broyden)= 0.18596E-02
  rms(prec ) = 0.26347E-02
  weight for this iteration     100.00

 eigenvalues of (default mixing * dielectric matrix)
  average eigenvalue GAMMA=   1.4044
  2.6663  2.4505  1.3182  0.8766  0.8766  0.8213  0.8213

 Free energy of the ion-electron system (eV)
  ---------------------------------------------------
  alpha Z        PSCENC =       100.06042719
  Ewald energy   TEWEN  =     -3901.08341404
  -1/2 Hartree   DENC   =     -1217.14643968
  -exchange  EXHF       =         0.00000000
  -V(xc)+E(xc)   XCENC  =      -750.78108339
  PAW double counting   =      3269.43810619    -2255.76752097
  entropy T*S    EENTRO =        -0.00633622
  eigenvalues    EBANDS =       386.90038068
  atomic energy  EATOM  =      4245.03775698
  ---------------------------------------------------
  free energy    TOTEN  =      -123.34812325 eV

  energy without entropy =     -123.34178703  energy(sigma->0) =     -123.34601118


--------------------------------------------------------------------------------------------------------




----------------------------------------- Iteration    1(  20)  ---------------------------------------


    POTLOK:  cpu time    0.16: real time    0.16
    SETDIJ:  cpu time    0.02: real time    0.02
    EDDIAG:  cpu time    0.71: real time    0.71
  RMM-DIIS:  cpu time    2.45: real time    2.45
    ORTHCH:  cpu time    0.05: real time    0.05
       DOS:  cpu time    0.00: real time    0.00
    --------------------------------------------
      LOOP:  cpu time    3.38: real time    3.38

 eigenvalue-minimisations  :   456
 total energy-change (2. order) :-0.7162779E-05  (-0.4135726E-05)
 number of electron  119.0000007 magnetization 
 augmentation part    11.1039229 magnetization 

 Free energy of the ion-electron system (eV)
  ---------------------------------------------------
  alpha Z        PSCENC =       100.06042719
  Ewald energy   TEWEN  =     -3901.08341404
  -1/2 Hartree   DENC   =     -1217.21582992
  -exchange  EXHF       =         0.00000000
  -V(xc)+E(xc)   XCENC  =      -750.77167183
  PAW double counting   =      3269.32344044    -2255.62181427
  entropy T*S    EENTRO =        -0.00633874
  eigenvalues    EBANDS =       386.92931376
  atomic energy  EATOM  =      4245.03775698
  ---------------------------------------------------
  free energy    TOTEN  =      -123.34813042 eV

  energy without entropy =     -123.34179168  energy(sigma->0) =     -123.34601750


--------------------------------------------------------------------------------------------------------




 average (electrostatic) potential at core
  the test charge radii are     1.0406  1.1249  1.2059  1.2098
  (the norm of the test charge is              1.0000)
       1 -72.9239       2 -72.9169       3 -72.9624       4 -72.7998       5 -72.7728
       6 -72.7830       7 -72.8171       8 -72.7899       9 -72.7882      10 -72.8193
      11 -72.8581      12 -72.7002      13 -72.8793      14 -72.9057      15 -72.8352
      16 -72.8350      17 -72.8605      18 -72.8838      19 -72.8701      20 -72.6679
      21 -72.9392      22 -72.6964      23 -72.8726      24 -72.9096      25 -72.9223
      26 -72.7973      27 -72.7882      28 -72.7987      29 -73.0581      30 -38.0121
      31 -49.4185      32 -44.6605
 
 
 
 E-fermi :   7.8451     XC(G=0): -10.4272     alpha+bet :-14.4403
   add alpha+bet to get absolut eigen values

 k-point   1 :       0.2500    0.2500    0.2500
  band No.  band energies     occupation 
      1      -2.7941      2.00000
      2      -1.7044      2.00000
      3      -1.6767      2.00000
      4      -1.5869      2.00000
      5      -0.6196      2.00000
      6      -0.5923      2.00000
      7      -0.4234      2.00000
      8       0.4033      2.00000
      9       0.4180      2.00000
     10       0.4925      2.00000
     11       0.6074      2.00000
     12       1.1648      2.00000
     13       1.2309      2.00000
     14       1.3468      2.00000
     15       1.3833      2.00000
     16       1.4677      2.00000
     17       1.6339      2.00000
     18       1.7344      2.00000
     19       1.8829      2.00000
     20       2.0817      2.00000
     21       2.1102      2.00000
     22       2.1612      2.00000
     23       2.2216      2.00000
     24       2.3890      2.00000
     25       2.4794      2.00000
     26       2.6831      2.00000
     27       2.8428      2.00000
     28       2.9026      2.00000
     29       3.0370      2.00000
     30       3.1597      2.00000
     31       3.4109      2.00000
     32       3.4606      2.00000
     33       3.6005      2.00000
     34       3.8701      2.00000
     35       3.9635      2.00000
     36       4.0462      2.00000
     37       4.1715      2.00000
     38       4.3537      2.00000
     39       4.3879      2.00000
     40       4.4472      2.00000
     41       4.6719      2.00000
     42       5.0288      2.00000
     43       5.1175      2.00000
     44       5.2345      2.00000
     45       5.2646      2.00000
     46       5.4200      2.00000
     47       5.5076      2.00000
     48       5.6263      2.00000
     49       5.7458      2.00000
     50       5.8076      2.00000
     51       6.3297      2.00000
     52       6.5396      2.00000
     53       6.9221      2.00000
     54       7.1452      2.00001
     55       7.1579      2.00001
     56       7.2925      2.00066
     57       7.3633      2.00344
     58       7.5772      2.06746
     59       7.6327      2.06090
     60       7.8737      0.76074
     61       8.3149     -0.00443
     62       8.3709     -0.00128
     63       8.5297     -0.00001
     64       8.6367      0.00000
     65       8.6882      0.00000
     66       8.7573      0.00000
     67       8.8955      0.00000
     68       8.9522      0.00000
     69       8.9977      0.00000
     70       9.4585      0.00000
     71       9.5201      0.00000
     72       9.6557      0.00000
     73       9.7993      0.00000
     74      10.0628      0.00000
     75      10.0929      0.00000
     76      10.3442      0.00000
     77      10.4517      0.00000
     78      10.4699      0.00000
     79      10.6561      0.00000
     80      10.8769      0.00000
     81      10.9098      0.00000
     82      11.0450      0.00000
     83      11.2504      0.00000
     84      11.3414      0.00000

 k-point   2 :      -0.2500    0.2500    0.2500
  band No.  band energies     occupation 
      1      -2.7913      2.00000
      2      -1.7246      2.00000
      3      -1.6896      2.00000
      4      -1.5611      2.00000
      5      -0.6297      2.00000
      6      -0.5940      2.00000
      7      -0.4405      2.00000
      8       0.4225      2.00000
      9       0.4520      2.00000
     10       0.5118      2.00000
     11       0.6464      2.00000
     12       1.2717      2.00000
     13       1.3002      2.00000
     14       1.3287      2.00000
     15       1.3482      2.00000
     16       1.4608      2.00000
     17       1.6259      2.00000
     18       1.6698      2.00000
     19       1.8330      2.00000
     20       2.0202      2.00000
     21       2.0818      2.00000
     22       2.1941      2.00000
     23       2.2176      2.00000
     24       2.3232      2.00000
     25       2.3642      2.00000
     26       2.5919      2.00000
     27       2.7881      2.00000
     28       2.9240      2.00000
     29       3.0897      2.00000
     30       3.1823      2.00000
     31       3.4004      2.00000
     32       3.5028      2.00000
     33       3.5108      2.00000
     34       3.9022      2.00000
     35       3.9871      2.00000
     36       4.1125      2.00000
     37       4.2508      2.00000
     38       4.3425      2.00000
     39       4.5217      2.00000
     40       4.6313      2.00000
     41       4.7469      2.00000
     42       5.0443      2.00000
     43       5.0979      2.00000
     44       5.2200      2.00000
     45       5.2812      2.00000
     46       5.3621      2.00000
     47       5.4581      2.00000
     48       5.5959      2.00000
     49       5.7230      2.00000
     50       5.8412      2.00000
     51       6.4180      2.00000
     52       6.4645      2.00000
     53       6.6748      2.00000
     54       7.2209      2.00009
     55       7.2785      2.00046
     56       7.3453      2.00232
     57       7.4048      2.00790
     58       7.4879      2.02993
     59       7.5517      2.05818
     60       7.8435      1.01435
     61       8.3295     -0.00326
     62       8.3691     -0.00134
     63       8.5777      0.00000
     64       8.6184      0.00000
     65       8.6306      0.00000
     66       8.6766      0.00000
     67       8.7921      0.00000
     68       8.8084      0.00000
     69       8.8347      0.00000
     70       9.6255      0.00000
     71       9.6727      0.00000
     72       9.7683      0.00000
     73       9.9008      0.00000
     74       9.9410      0.00000
     75       9.9646      0.00000
     76      10.2613      0.00000
     77      10.4426      0.00000
     78      10.4605      0.00000
     79      10.6886      0.00000
     80      10.7412      0.00000
     81      10.7686      0.00000
     82      11.1388      0.00000
     83      11.3644      0.00000
     84      11.5949      0.00000

 k-point   3 :       0.2500   -0.2500    0.2500
  band No.  band energies     occupation 
      1      -2.7938      2.00000
      2      -1.7072      2.00000
      3      -1.6793      2.00000
      4      -1.5798      2.00000
      5      -0.6230      2.00000
      6      -0.5942      2.00000
      7      -0.4248      2.00000
      8       0.4087      2.00000
      9       0.4296      2.00000
     10       0.4621      2.00000
     11       0.6296      2.00000
     12       1.1623      2.00000
     13       1.1994      2.00000
     14       1.3100      2.00000
     15       1.3901      2.00000
     16       1.5115      2.00000
     17       1.5444      2.00000
     18       1.8678      2.00000
     19       1.9476      2.00000
     20       2.0631      2.00000
     21       2.1226      2.00000
     22       2.2300      2.00000
     23       2.2679      2.00000
     24       2.3742      2.00000
     25       2.4782      2.00000
     26       2.5722      2.00000
     27       2.6568      2.00000
     28       2.9328      2.00000
     29       3.1106      2.00000
     30       3.1568      2.00000
     31       3.3786      2.00000
     32       3.4592      2.00000
     33       3.5824      2.00000
     34       3.8007      2.00000
     35       3.9429      2.00000
     36       4.0329      2.00000
     37       4.1773      2.00000
     38       4.3476      2.00000
     39       4.4279      2.00000
     40       4.5973      2.00000
     41       4.7260      2.00000
     42       5.0461      2.00000
     43       5.0950      2.00000
     44       5.2014      2.00000
     45       5.3193      2.00000
     46       5.3819      2.00000
     47       5.4918      2.00000
     48       5.5619      2.00000
     49       5.7605      2.00000
     50       5.8664      2.00000
     51       6.3007      2.00000
     52       6.5589      2.00000
     53       6.8644      2.00000
     54       7.1245      2.00000
     55       7.1699      2.00002
     56       7.3098      2.00101
     57       7.3876      2.00567
     58       7.5782      2.06772
     59       7.6349      2.05933
     60       7.8682      0.80617
     61       8.3079     -0.00511
     62       8.3959     -0.00069
     63       8.5481     -0.00001
     64       8.6315      0.00000
     65       8.6874      0.00000
     66       8.7472      0.00000
     67       8.8595      0.00000
     68       8.9163      0.00000
     69       8.9725      0.00000
     70       9.4793      0.00000
     71       9.5340      0.00000
     72       9.7164      0.00000
     73       9.8115      0.00000
     74      10.0474      0.00000
     75      10.0710      0.00000
     76      10.3088      0.00000
     77      10.4564      0.00000
     78      10.4692      0.00000
     79      10.6680      0.00000
     80      10.8612      0.00000
     81      10.8880      0.00000
     82      11.0274      0.00000
     83      11.2776      0.00000
     84      11.4610      0.00000

 k-point   4 :      -0.2500   -0.2500    0.2500
  band No.  band energies     occupation 
      1      -2.7931      2.00000
      2      -1.7233      2.00000
      3      -1.6842      2.00000
      4      -1.5594      2.00000
      5      -0.6265      2.00000
      6      -0.6181      2.00000
      7      -0.3798      2.00000
      8       0.4065      2.00000
      9       0.4146      2.00000
     10       0.4803      2.00000
     11       0.6089      2.00000
     12       1.1678      2.00000
     13       1.2291      2.00000
     14       1.3004      2.00000
     15       1.3615      2.00000
     16       1.4748      2.00000
     17       1.5830      2.00000
     18       1.8835      2.00000
     19       1.9548      2.00000
     20       2.0558      2.00000
     21       2.1225      2.00000
     22       2.2024      2.00000
     23       2.2828      2.00000
     24       2.3614      2.00000
     25       2.4641      2.00000
     26       2.5908      2.00000
     27       2.6155      2.00000
     28       2.9224      2.00000
     29       3.0676      2.00000
     30       3.1799      2.00000
     31       3.4388      2.00000
     32       3.4937      2.00000
     33       3.5624      2.00000
     34       3.7669      2.00000
     35       3.9820      2.00000
     36       4.0766      2.00000
     37       4.1915      2.00000
     38       4.2986      2.00000
     39       4.4232      2.00000
     40       4.6132      2.00000
     41       4.8083      2.00000
     42       5.0254      2.00000
     43       5.0886      2.00000
     44       5.2503      2.00000
     45       5.2728      2.00000
     46       5.4061      2.00000
     47       5.4410      2.00000
     48       5.5690      2.00000
     49       5.7388      2.00000
     50       5.8531      2.00000
     51       6.2863      2.00000
     52       6.5276      2.00000
     53       6.8471      2.00000
     54       7.1189      2.00000
     55       7.1643      2.00002
     56       7.3603      2.00322
     57       7.3824      2.00511
     58       7.5457      2.05555
     59       7.6548      2.03867
     60       7.8484      0.97288
     61       8.3187     -0.00410
     62       8.3617     -0.00159
     63       8.5296     -0.00001
     64       8.6231      0.00000
     65       8.6756      0.00000
     66       8.7242      0.00000
     67       8.8579      0.00000
     68       8.9309      0.00000
     69       9.0677      0.00000
     70       9.4861      0.00000
     71       9.5312      0.00000
     72       9.6977      0.00000
     73       9.8497      0.00000
     74      10.0140      0.00000
     75      10.0548      0.00000
     76      10.3528      0.00000
     77      10.4662      0.00000
     78      10.4785      0.00000
     79      10.6981      0.00000
     80      10.8248      0.00000
     81      10.9391      0.00000
     82      11.1508      0.00000
     83      11.2262      0.00000
     84      11.5936      0.00000


--------------------------------------------------------------------------------------------------------


 soft charge-density along one line, spin component           1
         0         1         2         3         4         5         6         7         8         9
 total charge-density along one line
 
 pseudopotential strength for first ion, spin component:           1
  8.453  -0.006   0.000  -0.001   0.001   0.000   0.000   0.000
 -0.006   0.000   0.000   0.000   0.000   0.000   0.000   0.000
  0.000   0.000   1.987   0.000   0.000  -0.026   0.000   0.000
 -0.001   0.000   0.000   1.987   0.000   0.000  -0.026   0.000
  0.001   0.000   0.000   0.000   1.987   0.000   0.000  -0.026
  0.000   0.000  -0.026   0.000   0.000  -0.012   0.000   0.000
  0.000   0.000   0.000  -0.026   0.000   0.000  -0.012   0.000
  0.000   0.000   0.000   0.000  -0.026   0.000   0.000  -0.012
 total augmentation occupancy for first ion, spin component:           1
  1.323  -0.485   0.012   0.025  -0.034  -0.006  -0.007   0.006
 -0.485   0.488   0.002   0.014  -0.031   0.001  -0.004   0.008
  0.012   0.002   0.716   0.000   0.002  -0.177   0.000   0.000
  0.025   0.014   0.000   0.712   0.008   0.000  -0.178   0.001
 -0.034  -0.031   0.002   0.008   0.732   0.000   0.001  -0.179
 -0.006   0.001  -0.177   0.000   0.000   0.049   0.000   0.000
 -0.007  -0.004   0.000  -0.178   0.001   0.000   0.050  -0.001
  0.006   0.008   0.000   0.001  -0.179   0.000  -0.001   0.050


------------------------ aborting loop because EDIFF is reached ----------------------------------------




--------------------------------------------------------------------------------------------------------



  FREE ENERGIE OF THE ION-ELECTRON SYSTEM (eV)
  ---------------------------------------------------
  free  energy   TOTEN  =      -123.348130 eV

  energy  without entropy=     -123.341792  energy(sigma->0) =     -123.346018
 
    CHARGE:  cpu time    0.31: real time    0.31
    FORLOC:  cpu time    0.04: real time    0.04
    FORNL :  cpu time    1.18: real time    1.18
    STRESS:  cpu time    2.99: real time    2.99
    FORCOR:  cpu time    0.19: real time    0.19
    FORHAR:  cpu time    0.08: real time    0.08
    MIXING:  cpu time    0.00: real time    0.01

  FORCE on cell =-STRESS in cart. coord.  units (eV):
  Direction    XX          YY          ZZ          XY          YZ          ZX
  --------------------------------------------------------------------------------------
  Alpha Z   100.06043   100.06043   100.06043
  Ewald   -1306.93427 -1301.35667 -1292.80666    83.88859   -96.73425    87.92583
  Hartree   399.39937   406.38890   411.37830    76.21875   -84.62576    78.53181
  E(xc)    -400.62801  -400.60175  -400.62550    -0.09689     0.04670    -0.12499
  Local    -160.22427  -173.14032  -186.56164  -161.31078   182.24947  -167.76292
  n-local   406.86914   406.79812   406.89819     0.56955    -0.36429     0.80803
  augment    94.83558    94.81709    94.81502     0.31853    -0.20225     0.30786
  Kinetic   864.60057   863.29058   864.32336     1.13264    -0.67200     1.07190
  Fock        0.00000     0.00000     0.00000     0.00000     0.00000     0.00000
  -------------------------------------------------------------------------------------
  Total      -2.02147    -3.74362    -2.51850     0.72039    -0.30238     0.75753
  in kB      -6.12364   -11.34052    -7.62930     2.18226    -0.91601     2.29477
  external pressure =       -8.36 kB  Pullay stress =        0.00 kB


 VOLUME and BASIS-vectors are now :
 -----------------------------------------------------------------------------
  energy-cutoff  :      300.00
  volume of cell :      528.89
      direct lattice vectors                 reciprocal lattice vectors
     8.087040000  0.000000000  0.000000000     0.123654638  0.000000000  0.000000000
     0.000000000  8.087040000  0.000000000     0.000000000  0.123654638  0.000000000
     0.000000000  0.000000000  8.087040000     0.000000000  0.000000000  0.123654638

  length of vectors
     8.087040000  8.087040000  8.087040000     0.123654638  0.123654638  0.123654638


 FORCES acting on ions
    electron-ion (+dipol)            ewald-force                    non-local-force                 convergence-correction
 -----------------------------------------------------------------------------------------------
   0.444E+02 -.228E+02 -.241E+02   -.453E+02 0.232E+02 0.248E+02   0.796E+00 -.452E+00 -.672E+00   0.149E-02 -.946E-03 -.109E-02
   0.252E+02 -.228E+02 -.466E+02   -.253E+02 0.231E+02 0.470E+02   0.777E-01 -.313E+00 -.452E+00   -.136E-02 -.978E-03 0.778E-03
   0.241E+02 -.479E+02 -.231E+02   -.240E+02 0.485E+02 0.235E+02   -.527E-01 -.646E+00 -.364E+00   -.147E-02 0.466E-03 -.105E-02
   0.783E+01 -.107E+02 -.927E+01   -.838E+01 0.110E+02 0.967E+01   0.631E+00 -.296E+00 -.446E+00   -.234E-03 0.774E-03 0.665E-03
   -.279E+02 -.255E+01 -.320E+02   0.279E+02 0.267E+01 0.325E+02   -.145E+00 -.115E+00 -.630E+00   0.140E-02 -.447E-04 0.115E-02
   -.268E+02 -.327E+02 -.254E+01   0.269E+02 0.331E+02 0.254E+01   -.175E+00 -.549E+00 0.491E-01   0.142E-02 0.127E-02 0.229E-03
   -.745E+01 -.334E+02 -.319E+02   0.781E+01 0.337E+02 0.322E+02   -.293E+00 -.281E+00 -.331E+00   0.167E-03 0.152E-02 0.139E-02
   0.278E+02 0.232E+02 -.417E+01   -.284E+02 -.235E+02 0.427E+01   0.667E+00 0.270E+00 -.940E-01   0.919E-03 0.737E-03 0.265E-03
   0.476E+01 0.234E+02 -.284E+02   -.493E+01 -.238E+02 0.292E+02   0.178E+00 0.359E+00 -.758E+00   -.545E-03 0.762E-03 -.560E-03
   0.277E+02 0.995E+01 -.284E+02   -.283E+02 -.104E+02 0.289E+02   0.619E+00 0.416E+00 -.515E+00   0.683E-03 -.557E-03 -.358E-03
   -.283E+02 0.213E+02 -.244E+01   0.290E+02 -.216E+02 0.282E+01   -.691E+00 0.304E+00 -.380E+00   -.775E-03 0.800E-03 0.214E-04
   -.490E+01 0.344E+01 -.114E+02   0.508E+01 -.367E+01 0.116E+02   -.222E+00 0.239E+00 -.120E+00   0.638E-03 -.121E-03 0.731E-03
   -.226E+02 0.310E+02 -.193E+01   0.229E+02 -.314E+02 0.204E+01   -.295E+00 0.462E+00 -.389E-01   0.129E-02 -.121E-02 0.218E-04
   -.277E+02 0.308E+02 -.476E+02   0.281E+02 -.311E+02 0.480E+02   -.363E+00 0.366E+00 -.448E+00   -.703E-03 -.139E-02 0.635E-03
   0.293E+02 -.337E+01 0.251E+02   -.302E+02 0.348E+01 -.256E+02   0.892E+00 -.119E+00 0.478E+00   0.123E-02 0.616E-04 0.934E-03
   0.399E+01 -.301E+02 0.238E+02   -.405E+01 0.310E+02 -.244E+02   0.546E-01 -.942E+00 0.626E+00   -.629E-03 -.754E-03 0.906E-03
   0.288E+02 -.308E+02 0.879E+01   -.296E+02 0.315E+02 -.919E+01   0.800E+00 -.690E+00 0.378E+00   0.103E-02 -.618E-03 -.546E-03
   -.287E+02 -.234E+01 0.201E+02   0.295E+02 0.268E+01 -.207E+02   -.882E+00 -.358E+00 0.494E+00   -.121E-02 -.248E-03 0.855E-03
   -.212E+02 -.205E+01 0.301E+02   0.214E+02 0.225E+01 -.306E+02   -.266E+00 -.172E+00 0.424E+00   0.134E-02 -.259E-03 -.113E-02
   -.442E+01 -.124E+02 0.313E+01   0.462E+01 0.125E+02 -.340E+01   -.241E+00 -.657E-02 0.337E+00   0.712E-03 0.842E-03 -.324E-03
   -.281E+02 -.469E+02 0.291E+02   0.287E+02 0.475E+02 -.294E+02   -.558E+00 -.544E+00 0.294E+00   -.107E-02 0.394E-03 -.135E-02
   0.108E+02 0.394E+01 0.420E+01   -.110E+02 -.409E+01 -.438E+01   0.167E+00 0.145E+00 0.211E+00   -.409E-03 -.208E-03 -.388E-03
   0.291E+01 0.207E+02 0.278E+02   -.337E+01 -.211E+02 -.285E+02   0.436E+00 0.363E+00 0.738E+00   -.259E-03 0.698E-03 0.420E-03
   0.275E+01 0.289E+02 0.207E+02   -.308E+01 -.299E+02 -.213E+02   0.295E+00 0.958E+00 0.626E+00   -.292E-03 0.740E-03 0.817E-03
   0.449E+02 0.287E+02 0.269E+02   -.457E+02 -.295E+02 -.274E+02   0.928E+00 0.847E+00 0.531E+00   0.153E-02 0.660E-03 0.331E-03
   -.106E+02 0.206E+01 0.212E+01   0.108E+02 -.243E+01 -.245E+01   -.196E+00 0.381E+00 0.354E+00   0.289E-03 0.331E-03 0.170E-03
   -.282E+01 0.146E+01 0.109E+02   0.322E+01 -.194E+01 -.112E+02   -.404E+00 0.529E+00 0.213E+00   0.101E-03 0.320E-03 -.685E-03
   -.274E+01 0.117E+02 0.130E+01   0.315E+01 -.119E+02 -.181E+01   -.429E+00 0.116E+00 0.595E+00   0.182E-03 -.747E-03 0.112E-03
   -.485E+02 0.438E+02 0.457E+02   0.490E+02 -.444E+02 -.461E+02   -.610E+00 0.714E+00 0.515E+00   -.165E-02 -.393E-03 -.675E-03
   0.626E+02 0.143E+03 -.703E+02   -.629E+02 -.143E+03 0.704E+02   0.204E+00 0.150E+00 -.453E-01   -.710E-02 -.949E-03 -.295E-02
   -.114E+03 -.570E+02 -.513E+02   0.114E+03 0.571E+02 0.516E+02   -.339E+00 -.163E+00 -.383E+00   -.867E-02 -.631E-02 -.747E-02
   0.576E+02 -.704E+02 0.134E+03   -.578E+02 0.702E+02 -.135E+03   0.196E+00 0.210E+00 0.143E-01   -.308E-02 -.399E-02 0.117E-03
 -----------------------------------------------------------------------------------------------
   -.765E+00 -.117E+01 -.119E+01   0.711E-14 0.853E-13 0.284E-13   0.778E+00 0.118E+01 0.120E+01   -.150E-01 -.933E-02 -.802E-02
 
 
 POSITION                                       TOTAL-FORCE (eV/Angst)
 -----------------------------------------------------------------------------------
      0.03617      0.00251      8.08539        -0.030016     -0.056655     -0.039355
      2.08987      8.08182      1.97405        -0.018756     -0.014492      0.009965
      2.09744      1.95738      8.06404        -0.040940      0.009161      0.045993
      8.07891      2.01081      2.01643         0.074639     -0.007714     -0.049852
      6.07514      0.00721      2.05306        -0.098031      0.005171     -0.161305
      6.07685      2.03484      0.00205        -0.055723     -0.077208      0.051141
      4.06696      2.02529      2.03539         0.062140      0.003956     -0.023383
      8.07442      4.02896      8.07260         0.009094      0.003604      0.008059
      2.01519      4.02349      2.01455         0.008524     -0.014172      0.005339
      8.06833      6.04831      2.01574         0.020589      0.008792     -0.001649
      4.05923      4.05792      0.00777         0.000584     -0.060619      0.002297
      6.06454      4.03985      1.99899        -0.043854      0.008445      0.010354
      6.04437      6.10073      0.00066         0.010500      0.011358      0.062970
      4.04259      6.10258      1.99891         0.045460     -0.000130     -0.045217
      8.05977      8.07818      4.03033         0.037030     -0.012730      0.032024
      2.01767      2.02801      4.01320        -0.011333      0.025432      0.006230
      8.05683      2.02132      6.04488        -0.006336      0.040136     -0.026652
      4.05225      0.01187      4.07336        -0.009434     -0.016025     -0.059917
      6.03500      0.00482      6.10889         0.021536      0.018953      0.000343
      6.06086      1.99202      4.03830        -0.039406      0.083779      0.064701
      4.03230      1.97061      6.11384         0.054571     -0.031510     -0.024763
      8.08060      4.02997      4.02363         0.001351     -0.005960      0.035176
      2.00707      4.02763      6.04438        -0.018412     -0.021404     -0.022521
      2.00914      6.04828      4.02294        -0.035606     -0.013463     -0.007170
      8.04608      6.04810      6.05286         0.074018      0.011077     -0.014005
      4.04315      4.02413      4.03140        -0.000650      0.014557      0.021989
      6.04834      4.01286      6.05033        -0.006866      0.051429     -0.015020
      6.05510      6.05680      4.01590        -0.017191     -0.008405      0.088065
      3.98515      6.14627      6.13921        -0.045134      0.127831      0.095251
      2.01561      6.03220      0.01737        -0.047690     -0.043903      0.042945
      4.21171      0.11788      0.15847         0.108850     -0.032272     -0.022747
      1.94708      0.04589      5.98667        -0.003507     -0.007018     -0.069285
 -----------------------------------------------------------------------------------
    total drift:                               -0.001164     -0.000645     -0.000525


--------------------------------------------------------------------------------------------------------


    POTLOK:  cpu time    0.17: real time    0.17


--------------------------------------------------------------------------------------------------------


  FORCES: max atom, RMS     0.188829    0.076312
  FORCE total and by dimension    0.431684    0.161305
     LOOP+:  cpu time   80.14: real time   80.23
    4ORBIT:  cpu time    0.00: real time    0.00

 total amount of memory used by VASP on root node  76806. kBytes
========================================================================

   base      :    30000. kBytes
   nonl-proj :    17571. kBytes
   fftplans  :     2983. kBytes
   grid      :    22831. kBytes
   one-center:      497. kBytes
   wavefun   :     2924. kBytes
 
  
  
 General timing and accounting informations for this job:
 ========================================================
  
                  Total CPU time used (sec):       81.333
                            User time (sec):       81.227
                          System time (sec):        0.106
                         Elapsed time (sec):       81.554
  
                   Maximum memory used (kb):           0.
                   Average memory used (kb):           0.
  
                          Minor page faults:        26804
                          Major page faults:            0
                 Voluntary context switches:          985
