    3    3  191    1
  0.1535906E+02  0.3585051E-09  0.3585051E-09  0.3585051E-09  0.5000000E-15
  1.000000000000000E-004
  CAR 
 unknown system                          
   24    2   16
 
  0.2500000E+00  0.2500000E+00  0.2500000E+00  0.5000000E+00
   1       -1.426307
   2        0.108873
   3        0.619662
   4        0.990605
   5        1.104533
   6        1.357762
   7        1.485641
   8        1.757542
   9        2.419185
  10        2.831679
  11        3.033200
  12        3.173868
  13        3.467173
  14        3.525549
  15        3.844884
  16        4.352777
 
  0.2500000E+00 -0.2500000E+00  0.2500000E+00  0.5000000E+00
   1       -1.320900
   2        0.629305
   3        0.692453
   4        0.915708
   5        1.160259
   6        1.225490
   7        1.473954
   8        1.978951
   9        2.022498
  10        2.263193
  11        2.772968
  12        3.105370
  13        3.319235
  14        3.727415
  15        3.813937
  16        4.116371
