   31   31  191    1
  0.1706118E+02  0.8087052E-09  0.8087052E-09  0.8087052E-09  0.5000000E-15
  1.000000000000000E-004
  CAR 
 unknown system                          
   92    1   72
 
  0.0000000E+00  0.0000000E+00  0.0000000E+00  0.1000000E+01
   1       -3.416866
   2       -1.427340
   3       -1.283095
   4       -1.203244
   5       -1.202172
   6       -0.853019
   7       -0.844071
   8        0.773092
   9        0.779858
  10        0.914727
  11        0.935196
  12        1.046158
  13        1.054300
  14        1.124742
  15        1.147125
  16        1.166194
  17        1.258929
  18        1.780989
  19        1.980791
  20        3.174304
  21        3.212042
  22        3.280733
  23        3.298353
  24        3.314925
  25        3.398685
  26        3.958354
  27        4.117429
  28        4.849887
  29        4.858037
  30        4.890416
  31        6.011265
  32        6.268840
  33        6.350353
  34        6.630180
  35        6.746831
  36        6.754758
  37        6.769345
  38        6.801578
  39        6.813821
  40        6.972874
  41        7.092144
  42        7.129680
  43        7.305038
  44        7.313326
  45        7.414963
  46        7.517098
  47        7.942443
  48        8.006351
  49        8.018859
  50        8.038723
  51        8.219993
  52        8.546432
  53        8.610381
  54        8.719508
  55        8.724514
  56        8.833438
  57        8.940634
  58        8.953241
  59        9.049291
  60        9.132148
  61        9.171978
  62        9.210517
  63        9.237614
  64        9.285966
  65        9.388575
  66        9.455264
  67        9.473277
  68        9.649605
  69       10.006707
  70       10.194986
  71       10.295593
  72       10.339879
