 vasp.5.2.2 15Apr09 complex 
 executed on             LinuxIFC date 2017.03.17  11:31:58
 running on   12 nodes
 each image running on   12 nodes
 distr:  one band on    1 nodes,   12 groups


--------------------------------------------------------------------------------------------------------


 INCAR:
 POTCAR:   PAW_PBE Al 04Jan2001                   
 POTCAR:   PAW_PBE Mg 05Jan2001                   
 POTCAR:   PAW_PBE Al 04Jan2001                   
   VRHFIN =Al: s2p1                                                             
   LEXCH  = PE                                                                  
   EATOM  =    53.5387 eV,    3.9350 Ry                                         
                                                                                
   TITEL  = PAW_PBE Al 04Jan2001                                                
   LULTRA =        F    use ultrasoft PP ?                                      
   IUNSCR =        1    unscreen: 0-lin 1-nonlin 2-no                           
   RPACOR =    1.500    partial core radius                                     
   POMASS =   26.982; ZVAL   =    3.000    mass and valenz                      
   RCORE  =    1.900    outmost cutoff radius                                   
   RWIGS  =    2.650; RWIGS  =    1.402    wigner-seitz radius (au A)           
   ENMAX  =  240.300; ENMIN  =  180.225 eV                                      
   ICORE  =        2    local potential                                         
   LCOR   =        T    correct aug charges                                     
   LPAW   =        T    paw PP                                                  
   EAUG   =  291.052                                                            
   DEXC   =    -.041                                                            
   RMAX   =    2.974    core radius for proj-oper                               
   RAUG   =    1.300    factor for augmentation sphere                          
   RDEP   =    1.966    radius for radial grids                                 
   QCUT   =   -4.203; QGAM   =    8.405    optimization parameters              
                                                                                
   Description                                                                  
     l     E      TYP  RCUT    TYP  RCUT                                        
     0   .000     23  1.900                                                     
     0   .000     23  1.900                                                     
     1   .000     23  1.900                                                     
     1  1.000     23  1.900                                                     
     2   .000      7  1.900                                                     
  local pseudopotential read in
  partial core-charges read in
  atomic valenz-charges read in
  non local Contribution for L=           0  read in
    real space projection operators read in
  non local Contribution for L=           0  read in
    real space projection operators read in
  non local Contribution for L=           1  read in
    real space projection operators read in
  non local Contribution for L=           1  read in
    real space projection operators read in
    PAW grid and wavefunctions read in
 
   number of l-projection  operators is LMAX  =           4
   number of lm-projection operators is LMMAX =           8
 
 POTCAR:   PAW_PBE Mg 05Jan2001                   
   VRHFIN =Mg: s2p0                                                             
   LEXCH  = PE                                                                  
   EATOM  =    23.0029 eV,    1.6907 Ry                                         
                                                                                
   TITEL  = PAW_PBE Mg 05Jan2001                                                
   LULTRA =        F    use ultrasoft PP ?                                      
   IUNSCR =        1    unscreen: 0-lin 1-nonlin 2-no                           
   RPACOR =    2.000    partial core radius                                     
   POMASS =   24.305; ZVAL   =    2.000    mass and valenz                      
   RCORE  =    2.000    outmost cutoff radius                                   
   RWIGS  =    2.880; RWIGS  =    1.524    wigner-seitz radius (au A)           
   ENMAX  =  210.012; ENMIN  =  157.509 eV                                      
   ICORE  =        2    local potential                                         
   LCOR   =        T    correct aug charges                                     
   LPAW   =        T    paw PP                                                  
   EAUG   =  274.554                                                            
   DEXC   =    -.136                                                            
   RMAX   =    3.182    core radius for proj-oper                               
   RAUG   =    1.300    factor for augmentation sphere                          
   RDEP   =    2.025    radius for radial grids                                 
   QCUT   =   -3.929; QGAM   =    7.858    optimization parameters              
                                                                                
   Description                                                                  
     l     E      TYP  RCUT    TYP  RCUT                                        
     0   .000     23  2.000                                                     
     0  2.000     23  2.000                                                     
     1   .000     23  2.000                                                     
     1  2.000     23  2.000                                                     
     2   .000     23  2.000                                                     
  local pseudopotential read in
  partial core-charges read in
  atomic valenz-charges read in
  non local Contribution for L=           0  read in
    real space projection operators read in
  non local Contribution for L=           0  read in
    real space projection operators read in
  non local Contribution for L=           1  read in
    real space projection operators read in
  non local Contribution for L=           1  read in
    real space projection operators read in
    PAW grid and wavefunctions read in
 
   number of l-projection  operators is LMAX  =           4
   number of lm-projection operators is LMMAX =           8
 

 ----------------------------------------------------------------------------- 
|                                                                             |
|  ADVICE TO THIS USER RUNNING 'VASP/VAMP'   (HEAR YOUR MASTER'S VOICE ...):  |
|                                                                             |
|      You have a (more or less) 'large supercell' and for larger cells       |
|      it might be more efficient to use real space projection operators      |
|      So try LREAL= Auto  in the INCAR   file.                               |
|      Mind: If you want to do a very accurate calculations keep the          |
|      reciprocal projection scheme          (i.e. LREAL=.FALSE.)             |
|                                                                             |
 ----------------------------------------------------------------------------- 

 PAW_PBE Al 04Jan2001                   :
 energy of atom  1       EATOM=  -53.5387
 kinetic energy error for atom=    0.0011 (will be added to EATOM!!)
 PAW_PBE Mg 05Jan2001                   :
 energy of atom  2       EATOM=  -23.0029
 kinetic energy error for atom=    0.0002 (will be added to EATOM!!)
 
 
 POSCAR: Mg1 Al30                                
  positions in direct lattice
  velocities in cartesian coordinates
 exchange correlation table for  LEXCH =        8
   RHO(1)=    0.500       N(1)  =     2000
   RHO(2)=  100.500       N(2)  =     4000

 VTST: version 2.03d, (02/18/09)

 CHAIN: initializing optimizer
 
 OPT: Using VASP QUASI-newton optimizer
 CHAIN: Read ICHAIN            0
 CHAIN: Running the NEB
 NEB:          SPRING     -5.000000
 NEB:          LCLIMB      T
 NEB:     LTANGENTOLD      F
 NEB:           LDNEB      F
 NEB:        LDNEBORG      F
 NEB:          EFIRST      0.000000
 NEB:           ELAST      0.000000
 
 POSCAR: Mg1 Al30                                
  positions in direct lattice
  velocities in cartesian coordinates
 
 POSCAR: Mg1 Al30                                
  positions in direct lattice
  velocities in cartesian coordinates
 


--------------------------------------------------------------------------------------------------------


 ion  position               nearest neighbor table
   1  0.999  0.000  0.999-   6 2.84  17 2.84  14 2.84  27 2.84   7 2.84  19 2.84  21 2.84   2 2.85
                             4 2.88  10 2.88  11 2.88   3 2.88
   2  0.249  0.000  0.249-   3 2.85   4 2.85  10 2.85  11 2.85   1 2.85   8 2.87  15 2.87  18 2.87
                            26 2.87   5 2.88  16 2.88  20 2.89
   3  0.251  0.252  0.003-   4 2.84   8 2.84   9 2.84  12 2.85   2 2.85  25 2.87   5 2.87  17 2.87
                             1 2.88  19 2.88  23 2.88
   4  0.003  0.252  0.251-   3 2.84  18 2.84   9 2.84  24 2.85   2 2.85  13 2.87  16 2.87   6 2.87
                             1 2.88   7 2.88  22 2.88
   5  0.500  0.000  0.996-  17 2.82  21 2.84   8 2.85  15 2.85  14 2.86   7 2.86   3 2.87  10 2.87
                            23 2.87  30 2.87   2 2.88   6 2.90
   6  0.754  0.000  0.250-  16 2.82   1 2.84  15 2.85   8 2.85  14 2.86   7 2.86  22 2.87  29 2.87
                            11 2.87   4 2.87  20 2.88   5 2.90
   7  0.752  0.249  0.998-  19 2.82   1 2.84  21 2.84   8 2.85   5 2.86   6 2.86   9 2.87  28 2.87
                            13 2.87  12 2.87  23 2.88   4 2.88
   8  0.502  0.247  0.248-  31 2.51   3 2.84  22 2.84   7 2.85   5 2.85   6 2.85  13 2.86  12 2.86
                             2 2.87  20 2.87  18 2.91
   9  0.002  0.500  0.002-   3 2.84   4 2.84  10 2.84  11 2.84  13 2.86  25 2.86  19 2.87   7 2.87
                            14 2.87  27 2.87  28 2.90
  10  0.251  0.748  0.003-  11 2.84  15 2.84   9 2.84  12 2.85   2 2.85  25 2.87   5 2.87  17 2.87
                             1 2.88  27 2.88  30 2.88
  11  0.003  0.748  0.251-  10 2.84  26 2.84   9 2.84  24 2.85   2 2.85  13 2.87  16 2.87   6 2.87
                             1 2.88  14 2.88  29 2.88
  12  0.501  0.500  0.000-   3 2.85  10 2.85  13 2.85  28 2.86  15 2.86   8 2.86  23 2.87  30 2.87
                            25 2.87   7 2.87  14 2.87  31 3.20
  13  0.750  0.500  0.249-  22 2.85  29 2.85  12 2.85   9 2.86   8 2.86  15 2.86   4 2.87  11 2.87
                            24 2.87   7 2.87  14 2.87  31 3.20
  14  0.752  0.751  0.998-  27 2.82   1 2.84  21 2.84  15 2.85   5 2.86   6 2.86   9 2.87  28 2.87
                            13 2.87  12 2.87  30 2.88  11 2.88
  15  0.502  0.753  0.248-  31 2.51  10 2.84  29 2.84  14 2.85   5 2.85   6 2.85  13 2.86  12 2.86
                             2 2.87  20 2.87  26 2.91
  16  0.996  0.000  0.500-   6 2.82  21 2.84  18 2.85  26 2.85  27 2.86  19 2.86  11 2.87   4 2.87
                            22 2.87  29 2.87   2 2.88  17 2.90
  17  0.250  0.000  0.754-   5 2.82   1 2.84  18 2.85  26 2.85  27 2.86  19 2.86  23 2.87  30 2.87
                             3 2.87  10 2.87  20 2.88  16 2.90
  18  0.248  0.247  0.502-  31 2.51   4 2.84  23 2.84  19 2.85  16 2.85  17 2.85  25 2.86  24 2.86
                            20 2.87   2 2.87   8 2.91
  19  0.998  0.249  0.752-   7 2.82  21 2.84   1 2.84  18 2.85  16 2.86  17 2.86   9 2.87  28 2.87
                            25 2.87  24 2.87  22 2.88   3 2.88
  20  0.501  0.000  0.501-  22 2.85  29 2.85  23 2.85  30 2.85  21 2.85  18 2.87  26 2.87  15 2.87
                             8 2.87  17 2.88   6 2.88   2 2.89
  21  0.751  0.000  0.751-   5 2.84  16 2.84  27 2.84  14 2.84  19 2.84   7 2.84   1 2.84  20 2.85
                            23 2.88  22 2.88  29 2.88  30 2.88
  22  0.747  0.252  0.499-  23 2.84   8 2.84  28 2.84  13 2.85  20 2.85  24 2.87   6 2.87  16 2.87
                            21 2.88  19 2.88   4 2.88
  23  0.499  0.252  0.747-  22 2.84  18 2.84  28 2.84  25 2.85  20 2.85  12 2.87  17 2.87   5 2.87
                            21 2.88   7 2.88   3 2.88
  24  0.000  0.500  0.501-   4 2.85  11 2.85  25 2.85  28 2.86  26 2.86  18 2.86  22 2.87  29 2.87
                            13 2.87  19 2.87  27 2.87  31 3.20
  25  0.249  0.500  0.750-  23 2.85  30 2.85  24 2.85   9 2.86  26 2.86  18 2.86  10 2.87   3 2.87
                            12 2.87  19 2.87  27 2.87  31 3.20
  26  0.248  0.753  0.502-  31 2.51  11 2.84  30 2.84  27 2.85  16 2.85  17 2.85  25 2.86  24 2.86
                            20 2.87   2 2.87  15 2.91
  27  0.998  0.751  0.752-  14 2.82  21 2.84   1 2.84  26 2.85  16 2.86  17 2.86   9 2.87  28 2.87
                            25 2.87  24 2.87  29 2.88  10 2.88
  28  0.748  0.500  0.748-  22 2.84  29 2.84  23 2.84  30 2.84  12 2.86  24 2.86  19 2.87   7 2.87
                            14 2.87  27 2.87   9 2.90
  29  0.747  0.748  0.499-  30 2.84  15 2.84  28 2.84  13 2.85  20 2.85  24 2.87   6 2.87  16 2.87
                            21 2.88  27 2.88  11 2.88
  30  0.499  0.748  0.747-  29 2.84  26 2.84  28 2.84  25 2.85  20 2.85  12 2.87  17 2.87   5 2.87
                            21 2.88  14 2.88  10 2.88
  31  0.375  0.500  0.375-   8 2.51  15 2.51  18 2.51  26 2.51  25 3.20  13 3.20  12 3.20  24 3.20

 
  LATTYP: Found a simple cubic cell.
 ALAT       =     8.0870520000
  
  Lattice vectors:
  
 A1 = (   8.0870520000,   0.0000000000,   0.0000000000)
 A2 = (   0.0000000000,   8.0870520000,   0.0000000000)
 A3 = (   0.0000000000,   0.0000000000,   8.0870520000)
 Subroutine PRICEL returns:
 Original cell was already a primitive cell.
 

Analysis of symmetry for initial positions (statically):

 Routine SETGRP: Setting up the symmetry group for a 
 simple cubic supercell.


 Subroutine GETGRP returns: Found  8 space group operations
 (whereof  4 operations were pure point group operations)
 out of a pool of 48 trial point group operations.


The static configuration has the point symmetry C_2v.
 The point group associated with its full space group is D_2h.

Analysis of symmetry for dynamics (positions and initial velocities):

 Subroutine DYNSYM returns: Found  8 space group operations
 (whereof  4 operations were pure point group operations)
 out of a pool of  8 trial space group operations
 (whereof  4 operations were pure point group operations)
 and found also     1 'primitive' translations


The dynamic configuration has the point symmetry C_2v.
 The point group associated with its full space group is D_2h.
 
 
 KPOINTS: Automatic kpoint scheme                 

Automatic generation of k-mesh.
 
 Subroutine IBZKPT returns following result:
 ===========================================
 
 Found      1 irreducible k-points:
 
 Following reciprocal coordinates:
            Coordinates               Weight
  0.000000  0.000000  0.000000      1.000000
 
 Following cartesian coordinates:
            Coordinates               Weight
  0.000000  0.000000  0.000000      1.000000
 


--------------------------------------------------------------------------------------------------------




 Dimension of arrays:
   k-points           NKPTS =      1   k-points in BZ     NKDIM =      1   number of bands    NBANDS=     72
   number of dos      NEDOS =    301   number of ions     NIONS =     31
   non local maximal  LDIM  =      4   non local SUM 2l+1 LMDIM =      8
   total plane-waves  NPLWV = 110592
   max r-space proj   IRMAX =      1   max aug-charges    IRDMAX=   9081
   dimension x,y,z NGX =    48 NGY =   48 NGZ =   48
   dimension x,y,z NGXF=    96 NGYF=   96 NGZF=   96
   support grid    NGXF=    96 NGYF=   96 NGZF=   96
   ions per type =              30   1
 NGX,Y,Z   is equivalent  to a cutoff of   9.87,  9.87,  9.87 a.u.
 NGXF,Y,Z  is equivalent  to a cutoff of  19.73, 19.73, 19.73 a.u.


 I would recommend the setting:
   dimension x,y,z NGX =    46 NGY =   46 NGZ =   46
 SYSTEM =  unknown system                          
 POSCAR =  Mg1 Al30                                

 Startparameter for this run:
   NWRITE =      2    write-flag & timer
   PREC   = accura    medium, high low
   ISTART =      0    job   : 0-new  1-cont  2-samecut
   ICHARG =      2    charge: 1-file 2-atom 10-const
   ISPIN  =      1    spin polarized calculation?
   LNONCOLLINEAR =      F non collinear calculations
   LSORBIT =      F    spin-orbit coupling
   INIWAV =      1    electr: 0-lowe 1-rand  2-diag
   LASPH  =      F    aspherical Exc in radial PAW
   METAGGA=      F    non-selfconsistent MetaGGA calc.

 Electronic Relaxation 1
   ENCUT  =  300.0 eV  22.05 Ry    4.70 a.u.  11.42 11.42 11.42*2*pi/ulx,y,z
   ENINI  =  300.0     initial cutoff
   ENAUG  =  291.1 eV  augmentation charge cutoff
   NELM   =     60;   NELMIN=  2; NELMDL=-12     # of ELM steps 
   EDIFF  = 0.1E-03   stopping-criterion for ELM
   LREAL  =      F    real-space projection
   LCOMPAT=      F    compatible to vasp.4.4
   LREAL_COMPAT= F    compatible to vasp.4.5.1-3
   GGA_COMPAT  = T    GGA compatible to vasp.4.4-vasp.4.6
   LMAXPAW     = -100 max onsite density
   LMAXMIX     =    2 max onsite mixed and CHGCAR
   VOSKOWN=      0    Vosko Wilk Nusair interpolation
   ROPT   =    0.00000   0.00000
 Ionic relaxation
   EDIFFG = 0.5E-01   stopping-criterion for IOM
   NSW    =    191    number of steps for IOM
   NBLOCK =      1;   KBLOCK =    191    inner block; outer block 
   IBRION =      1    ionic relax: 0-MD 1-quasi-New 2-CG
   NFREE  =      0    steps in history (QN), initial steepest desc. (CG)
   ISIF   =      2    stress and relaxation
   IWAVPR =     11    prediction:  0-non 1-charg 2-wave 3-comb
   ISYM   =      2    0-nonsym 1-usesym 2-fastsym
   LCORR  =      T    Harris-Foulkes like correction to forces

   POTIM  = 0.5000    time-step for ionic-motion
   TEIN   =    0.0    initial temperature
   TEBEG  =    0.0;   TEEND  =   0.0 temperature during run
   SMASS  =  -3.00    Nose mass-parameter (am)
   estimated Nose-frequenzy (Omega)   =  0.10E-29 period in steps =****** mass=  -0.149E-26a.u.
   NPACO  =    256;   APACO  = 16.0  distance and # of slots for P.C.
   PSTRESS=    0.0 pullay stress

  Mass of Ions in am
   POMASS =  26.98 24.30
  Ionic Valenz
   ZVAL   =   3.00  2.00
  Atomic Wigner-Seitz radii
   RWIGS  =  -1.00 -1.00
   NELECT =      92.0000    total number of electrons
   NUPDOWN=      -1.0000    fix difference up-down

 DOS related values:
   EMIN   =  10.00;   EMAX   =-10.00  energy-range for DOS
   EFERMI =   0.00
   ISMEAR =     1;   SIGMA  =   0.20  broadening in eV -4-tet -1-fermi 0-gaus

 Electronic relaxation 2 (details)
   IALGO  =     48    algorithm
   LDIAG  =      T    sub-space diagonalisation
   IMIX   =      4    mixing-type and parameters
     AMIX     =   0.40;   BMIX     =  1.00
     AMIX_MAG =   1.60;   BMIX_MAG =  1.00
     AMIN     =   0.10
     WC   =   100.;   INIMIX=   1;  MIXPRE=   1

 Intra band minimization:
   WEIMIN = 0.0010     energy-eigenvalue tresh-hold
   EBREAK =  0.40E-06  absolut break condition
   DEPER  =   0.30     relativ break condition  

   TIME   =   0.40     timestep for ELM

  volume/ion in A,a.u.               =      17.06       115.13
  Fermi-wavevector in a.u.,A,eV,Ry     =   0.913862  1.726948 11.362816  0.835143
  Thomas-Fermi vector in A             =   2.038422
 
 Write flags
   LWAVE  =      F    write WAVECAR
   LCHARG =      F    write CHGCAR
   LVTOT  =      F    write LOCPOT, local potential
   LELF   =      F    write electronic localiz. function (ELF)
   LORBIT =      0    0 simple, 1 ext, 2 COOP (PROOUT)


 Dipole corrections
   LMONO  =      F    monopole corrections only (constant potential shift)
   LDIPOL =      F    correct potential (dipole corrections)
   IDIPOL =      0    1-x, 2-y, 3-z, 4-all directions 
   EPSILON=  1.0000000 bulk dielectric constant

 Exchange correlation treatment:
   GGA     =    --    GGA type
   LEXCH   =     8    internal setting for exchange type
   VOSKOWN=      0    Vosko Wilk Nusair interpolation
   LHFCALC =     F    Hartree Fock is set to
   LHFONE  =     F    Hartree Fock one center treatment
   AEXX    =    0.0000 exact exchange contribution

 Linear response parameters
   LEPSILON=     F    determine dielectric tensor
   LRPA    =     F    only Hartree local field effects (RPA)
   LNABLA  =     F    use nabla operator in PAW spheres
   LVEL    =     F    velocity operator in full k-point grid
   LINTERFAST=   F  fast interpolation
   KINTER  =     0    interpolate to denser k-point grid
   CSHIFT  =0.1000    complex shift for real part using Kramers Kronig
   OMEGAMAX=  -1.0    maximum frequency

 Orbital magnetization related:
   ORBITALMAG=     F  switch on orbital magnetization
   LCHIMAG   =     F  perturbation theory with respect to B field



--------------------------------------------------------------------------------------------------------


 quasi-Newton-method for relaxation of ions
 charge density and potential will be updated during run
 non-spin polarized calculation
 RMM-DIIS sequential band-by-band
 perform sub-space diagonalisation
    before iterative eigenvector-optimisation
 modified Broyden-mixing scheme, WC =      100.0
 initial mixing is a Kerker type mixing with AMIX =  0.4000 and BMIX =      1.0000
 Hartree-type preconditioning will be used
 using additional bands           26
 reciprocal scheme for non local part
 use partial core corrections
 calculate Harris-corrections to forces 
   (improved forces if not selfconsistent)
 use gradient corrections 
 use of overlap-Matrix (Vanderbilt PP)
 Methfessel and Paxton  Order N= 1 SIGMA  =   0.20


--------------------------------------------------------------------------------------------------------


  energy-cutoff  :      300.00
  volume of cell :      528.90
      direct lattice vectors                 reciprocal lattice vectors
     8.087052000  0.000000000  0.000000000     0.123654454  0.000000000  0.000000000
     0.000000000  8.087052000  0.000000000     0.000000000  0.123654454  0.000000000
     0.000000000  0.000000000  8.087052000     0.000000000  0.000000000  0.123654454

  length of vectors
     8.087052000  8.087052000  8.087052000     0.123654454  0.123654454  0.123654454


 
 k-points in units of 2pi/SCALE and weight: Automatic kpoint scheme                 
   0.00000000  0.00000000  0.00000000       1.000
 
 k-points in reciprocal lattice and weights: Automatic kpoint scheme                 
   0.00000000  0.00000000  0.00000000       1.000
 
 position of ions in fractional coordinates (direct lattice) 
   0.99925800  0.00000000  0.99925800
   0.24873100  0.00000000  0.24873100
   0.25076400  0.25200500  0.00287000
   0.00287000  0.25200500  0.25076400
   0.49987900  0.00000000  0.99639900
   0.75360100  0.00000000  0.25012200
   0.75151900  0.24905500  0.99848100
   0.50239000  0.24748400  0.24761000
   0.00169600  0.50000000  0.00169600
   0.25076400  0.74799500  0.00287000
   0.00287000  0.74799500  0.25076400
   0.50062400  0.50000000  0.00027000
   0.74972900  0.50000000  0.24937400
   0.75151900  0.75094600  0.99848100
   0.50239000  0.75251600  0.24761000
   0.99639900  0.00000000  0.49987900
   0.25012200  0.00000000  0.75360100
   0.24761000  0.24748400  0.50239000
   0.99848100  0.24905500  0.75151900
   0.50126900  0.00000000  0.50126900
   0.75074200  0.00000000  0.75074200
   0.74713000  0.25200500  0.49923800
   0.49923800  0.25200500  0.74713000
   0.00027000  0.50000000  0.50062400
   0.24937400  0.50000000  0.74972900
   0.24761000  0.75251600  0.50239000
   0.99848100  0.75094600  0.75151900
   0.74830400  0.50000000  0.74830400
   0.74713000  0.74799500  0.49923800
   0.49923800  0.74799500  0.74713000
   0.37500000  0.50000000  0.37500000
 
 position of ions in cartesian coordinates  (Angst):
   8.08105141  0.00000000  8.08105141
   2.01150053  0.00000000  2.01150053
   2.02794151  2.03797754  0.02320984
   0.02320984  2.03797754  2.02794151
   4.04254747  0.00000000  8.05793053
   6.09441047  0.00000000  2.02274962
   6.07757323  2.01412074  8.07476777
   4.06285405  2.00141598  2.00243495
   0.01371564  4.04352600  0.01371564
   2.02794151  6.04907446  0.02320984
   0.02320984  6.04907446  2.02794151
   4.04857232  4.04352600  0.00218350
   6.06309741  4.04352600  2.01670051
   6.07757323  6.07293935  8.07476777
   4.06285405  6.08563602  2.00243495
   8.05793053  0.00000000  4.04254747
   2.02274962  0.00000000  6.09441047
   2.00243495  2.00141598  4.06285405
   8.07476777  2.01412074  6.07757323
   4.05378847  0.00000000  4.05378847
   6.07128959  0.00000000  6.07128959
   6.04207916  2.03797754  4.03736367
   4.03736367  2.03797754  6.04207916
   0.00218350  4.04352600  4.04857232
   2.01670051  4.04352600  6.06309741
   2.00243495  6.08563602  4.06285405
   8.07476777  6.07293935  6.07757323
   6.05157336  4.04352600  6.05157336
   6.04207916  6.04907446  4.03736367
   4.03736367  6.04907446  6.04207916
   3.03264450  4.04352600  3.03264450
 


--------------------------------------------------------------------------------------------------------


 k-point  1 :  0.00000.00000.0000  plane waves:    6235

 maximum and minimum number of plane-waves per node :    6235   6235

 maximum number of plane-waves:    6235
 maximal index in each direction: 
   IXMAX= 11   IYMAX= 11   IZMAX= 11
   IXMIN=-11   IYMIN=-11   IZMIN=-11

 NGX is ok and might be reduce to  46
 NGY is ok and might be reduce to  46
 NGZ is ok and might be reduce to  46

 serial   3D FFT for wavefunctions
 parallel 3D FFT for charge:
    minimum data exchange during FFTs selected (reduces bandwidth)


 total amount of memory used by VASP on root node  59220. kBytes
========================================================================

   base      :    30000. kBytes
   nonl-proj :     3893. kBytes
   fftplans  :     2983. kBytes
   grid      :    21626. kBytes
   one-center:       95. kBytes
   wavefun   :      623. kBytes
 
 Broyden mixing: mesh for mixing (old mesh)
   NGX = 23   NGY = 23   NGZ = 23
  (NGX  = 96   NGY  = 96   NGZ  = 96)
  gives a total of  12167 points

 initial charge density was supplied:
 charge density of overlapping atoms calculated
 number of electron   92.0000000 magnetization 
 keeping initial charge density in first step


--------------------------------------------------------------------------------------------------------


 Maximum index for augmentation-charges          619 (set IRDMAX)


--------------------------------------------------------------------------------------------------------


 First call to EWALD:  gamma=   0.219
 Maximum number of real-space cells 3x 3x 3
 Maximum number of reciprocal cells 3x 3x 3

    FEWALD:  cpu time    0.01: real time    0.01
   RESPFUN:  cpu time    0.00: real time    0.00


----------------------------------------- Iteration    1(   1)  ---------------------------------------


    POTLOK:  cpu time    0.15: real time    0.15
    SETDIJ:  cpu time    0.01: real time    0.01
    EDDIAG:  cpu time    0.15: real time    0.15
  RMM-DIIS:  cpu time    0.34: real time    0.34
    ORTHCH:  cpu time    0.01: real time    0.01
       DOS:  cpu time    0.00: real time    0.00
    --------------------------------------------
      LOOP:  cpu time    0.67: real time    0.67

 eigenvalue-minimisations  :    72
 total energy-change (2. order) : 0.2331863E+03  (-0.1555023E+04)
 number of electron   92.0000000 magnetization 
 augmentation part    92.0000000 magnetization 

 Free energy of the ion-electron system (eV)
  ---------------------------------------------------
  alpha Z        PSCENC =        -7.38313139
  Ewald energy   TEWEN  =     -2183.99402644
  -1/2 Hartree   DENC   =       -21.01455377
  -exchange  EXHF       =         0.00000000
  -V(xc)+E(xc)   XCENC  =      -796.42430283
  PAW double counting   =      1078.21717227     -108.50372521
  entropy T*S    EENTRO =        -0.07201008
  eigenvalues    EBANDS =       643.22940882
  atomic energy  EATOM  =      1629.13144109
  ---------------------------------------------------
  free energy    TOTEN  =       233.18627245 eV

  energy without entropy =      233.25828253  energy(sigma->0) =      233.21027581


--------------------------------------------------------------------------------------------------------




----------------------------------------- Iteration    1(   2)  ---------------------------------------


    EDDIAG:  cpu time    0.15: real time    0.15
  RMM-DIIS:  cpu time    0.34: real time    0.34
    ORTHCH:  cpu time    0.01: real time    0.01
       DOS:  cpu time    0.00: real time    0.00
    --------------------------------------------
      LOOP:  cpu time    0.50: real time    0.51

 eigenvalue-minimisations  :    72
 total energy-change (2. order) :-0.2583758E+03  (-0.2509065E+03)
 number of electron   92.0000000 magnetization 
 augmentation part    92.0000000 magnetization 

 Free energy of the ion-electron system (eV)
  ---------------------------------------------------
  alpha Z        PSCENC =        -7.38313139
  Ewald energy   TEWEN  =     -2183.99402644
  -1/2 Hartree   DENC   =       -21.01455377
  -exchange  EXHF       =         0.00000000
  -V(xc)+E(xc)   XCENC  =      -796.42430283
  PAW double counting   =      1078.21717227     -108.50372521
  entropy T*S    EENTRO =        -0.07048582
  eigenvalues    EBANDS =       384.85204776
  atomic energy  EATOM  =      1629.13144109
  ---------------------------------------------------
  free energy    TOTEN  =       -25.18956434 eV

  energy without entropy =      -25.11907852  energy(sigma->0) =      -25.16606907


--------------------------------------------------------------------------------------------------------




----------------------------------------- Iteration    1(   3)  ---------------------------------------


    EDDIAG:  cpu time    0.15: real time    0.15
  RMM-DIIS:  cpu time    0.33: real time    0.34
    ORTHCH:  cpu time    0.01: real time    0.01
       DOS:  cpu time    0.00: real time    0.00
    --------------------------------------------
      LOOP:  cpu time    0.50: real time    0.50

 eigenvalue-minimisations  :    72
 total energy-change (2. order) :-0.4734752E+02  (-0.4685868E+02)
 number of electron   92.0000000 magnetization 
 augmentation part    92.0000000 magnetization 

 Free energy of the ion-electron system (eV)
  ---------------------------------------------------
  alpha Z        PSCENC =        -7.38313139
  Ewald energy   TEWEN  =     -2183.99402644
  -1/2 Hartree   DENC   =       -21.01455377
  -exchange  EXHF       =         0.00000000
  -V(xc)+E(xc)   XCENC  =      -796.42430283
  PAW double counting   =      1078.21717227     -108.50372521
  entropy T*S    EENTRO =        -0.02031609
  eigenvalues    EBANDS =       337.45435743
  atomic energy  EATOM  =      1629.13144109
  ---------------------------------------------------
  free energy    TOTEN  =       -72.53708494 eV

  energy without entropy =      -72.51676885  energy(sigma->0) =      -72.53031291


--------------------------------------------------------------------------------------------------------




----------------------------------------- Iteration    1(   4)  ---------------------------------------


    EDDIAG:  cpu time    0.15: real time    0.15
  RMM-DIIS:  cpu time    0.34: real time    0.34
    ORTHCH:  cpu time    0.01: real time    0.01
       DOS:  cpu time    0.00: real time    0.00
    --------------------------------------------
      LOOP:  cpu time    0.50: real time    0.50

 eigenvalue-minimisations  :    72
 total energy-change (2. order) :-0.1514202E+02  (-0.1110214E+02)
 number of electron   92.0000000 magnetization 
 augmentation part    92.0000000 magnetization 

 Free energy of the ion-electron system (eV)
  ---------------------------------------------------
  alpha Z        PSCENC =        -7.38313139
  Ewald energy   TEWEN  =     -2183.99402644
  -1/2 Hartree   DENC   =       -21.01455377
  -exchange  EXHF       =         0.00000000
  -V(xc)+E(xc)   XCENC  =      -796.42430283
  PAW double counting   =      1078.21717227     -108.50372521
  entropy T*S    EENTRO =        -0.07273567
  eigenvalues    EBANDS =       322.36475950
  atomic energy  EATOM  =      1629.13144109
  ---------------------------------------------------
  free energy    TOTEN  =       -87.67910245 eV

  energy without entropy =      -87.60636678  energy(sigma->0) =      -87.65485723


--------------------------------------------------------------------------------------------------------




----------------------------------------- Iteration    1(   5)  ---------------------------------------


    EDDIAG:  cpu time    0.15: real time    0.15
  RMM-DIIS:  cpu time    0.34: real time    0.34
    ORTHCH:  cpu time    0.01: real time    0.01
       DOS:  cpu time    0.00: real time    0.00
    --------------------------------------------
      LOOP:  cpu time    0.50: real time    0.50

 eigenvalue-minimisations  :    72
 total energy-change (2. order) :-0.6700527E+01  (-0.4499533E+01)
 number of electron   92.0000000 magnetization 
 augmentation part    92.0000000 magnetization 

 Free energy of the ion-electron system (eV)
  ---------------------------------------------------
  alpha Z        PSCENC =        -7.38313139
  Ewald energy   TEWEN  =     -2183.99402644
  -1/2 Hartree   DENC   =       -21.01455377
  -exchange  EXHF       =         0.00000000
  -V(xc)+E(xc)   XCENC  =      -796.42430283
  PAW double counting   =      1078.21717227     -108.50372521
  entropy T*S    EENTRO =         0.01188565
  eigenvalues    EBANDS =       315.57961095
  atomic energy  EATOM  =      1629.13144109
  ---------------------------------------------------
  free energy    TOTEN  =       -94.37962969 eV

  energy without entropy =      -94.39151533  energy(sigma->0) =      -94.38359157


--------------------------------------------------------------------------------------------------------




----------------------------------------- Iteration    1(   6)  ---------------------------------------


    EDDIAG:  cpu time    0.15: real time    0.15
  RMM-DIIS:  cpu time    0.34: real time    0.34
    ORTHCH:  cpu time    0.01: real time    0.01
       DOS:  cpu time    0.00: real time    0.00
    --------------------------------------------
      LOOP:  cpu time    0.50: real time    0.50

 eigenvalue-minimisations  :    72
 total energy-change (2. order) :-0.2466807E+01  (-0.1794079E+01)
 number of electron   92.0000000 magnetization 
 augmentation part    92.0000000 magnetization 

 Free energy of the ion-electron system (eV)
  ---------------------------------------------------
  alpha Z        PSCENC =        -7.38313139
  Ewald energy   TEWEN  =     -2183.99402644
  -1/2 Hartree   DENC   =       -21.01455377
  -exchange  EXHF       =         0.00000000
  -V(xc)+E(xc)   XCENC  =      -796.42430283
  PAW double counting   =      1078.21717227     -108.50372521
  entropy T*S    EENTRO =         0.00004906
  eigenvalues    EBANDS =       313.12464021
  atomic energy  EATOM  =      1629.13144109
  ---------------------------------------------------
  free energy    TOTEN  =       -96.84643701 eV

  energy without entropy =      -96.84648607  energy(sigma->0) =      -96.84645336


--------------------------------------------------------------------------------------------------------




----------------------------------------- Iteration    1(   7)  ---------------------------------------


    EDDIAG:  cpu time    0.15: real time    0.15
  RMM-DIIS:  cpu time    0.34: real time    0.34
    ORTHCH:  cpu time    0.01: real time    0.01
       DOS:  cpu time    0.00: real time    0.00
    --------------------------------------------
      LOOP:  cpu time    0.50: real time    0.50

 eigenvalue-minimisations  :    72
 total energy-change (2. order) :-0.8436957E+00  (-0.7023347E+00)
 number of electron   92.0000000 magnetization 
 augmentation part    92.0000000 magnetization 

 Free energy of the ion-electron system (eV)
  ---------------------------------------------------
  alpha Z        PSCENC =        -7.38313139
  Ewald energy   TEWEN  =     -2183.99402644
  -1/2 Hartree   DENC   =       -21.01455377
  -exchange  EXHF       =         0.00000000
  -V(xc)+E(xc)   XCENC  =      -796.42430283
  PAW double counting   =      1078.21717227     -108.50372521
  entropy T*S    EENTRO =         0.01236915
  eigenvalues    EBANDS =       312.26862440
  atomic energy  EATOM  =      1629.13144109
  ---------------------------------------------------
  free energy    TOTEN  =       -97.69013274 eV

  energy without entropy =      -97.70250188  energy(sigma->0) =      -97.69425578


--------------------------------------------------------------------------------------------------------




----------------------------------------- Iteration    1(   8)  ---------------------------------------


    EDDIAG:  cpu time    0.15: real time    0.15
  RMM-DIIS:  cpu time    0.34: real time    0.34
    ORTHCH:  cpu time    0.01: real time    0.01
       DOS:  cpu time    0.00: real time    0.00
    --------------------------------------------
      LOOP:  cpu time    0.50: real time    0.50

 eigenvalue-minimisations  :    72
 total energy-change (2. order) :-0.3393256E+00  (-0.2968044E+00)
 number of electron   92.0000000 magnetization 
 augmentation part    92.0000000 magnetization 

 Free energy of the ion-electron system (eV)
  ---------------------------------------------------
  alpha Z        PSCENC =        -7.38313139
  Ewald energy   TEWEN  =     -2183.99402644
  -1/2 Hartree   DENC   =       -21.01455377
  -exchange  EXHF       =         0.00000000
  -V(xc)+E(xc)   XCENC  =      -796.42430283
  PAW double counting   =      1078.21717227     -108.50372521
  entropy T*S    EENTRO =         0.01570621
  eigenvalues    EBANDS =       311.92596178
  atomic energy  EATOM  =      1629.13144109
  ---------------------------------------------------
  free energy    TOTEN  =       -98.02945829 eV

  energy without entropy =      -98.04516450  energy(sigma->0) =      -98.03469370


--------------------------------------------------------------------------------------------------------




----------------------------------------- Iteration    1(   9)  ---------------------------------------


    EDDIAG:  cpu time    0.15: real time    0.15
  RMM-DIIS:  cpu time    0.72: real time    0.72
    ORTHCH:  cpu time    0.01: real time    0.01
       DOS:  cpu time    0.00: real time    0.00
    --------------------------------------------
      LOOP:  cpu time    0.88: real time    0.88

 eigenvalue-minimisations  :   171
 total energy-change (2. order) :-0.2375629E+00  (-0.2201257E+00)
 number of electron   92.0000000 magnetization 
 augmentation part    92.0000000 magnetization 

 Free energy of the ion-electron system (eV)
  ---------------------------------------------------
  alpha Z        PSCENC =        -7.38313139
  Ewald energy   TEWEN  =     -2183.99402644
  -1/2 Hartree   DENC   =       -21.01455377
  -exchange  EXHF       =         0.00000000
  -V(xc)+E(xc)   XCENC  =      -796.42430283
  PAW double counting   =      1078.21717227     -108.50372521
  entropy T*S    EENTRO =         0.01301308
  eigenvalues    EBANDS =       311.69109200
  atomic energy  EATOM  =      1629.13144109
  ---------------------------------------------------
  free energy    TOTEN  =       -98.26702120 eV

  energy without entropy =      -98.28003429  energy(sigma->0) =      -98.27135890


--------------------------------------------------------------------------------------------------------




----------------------------------------- Iteration    1(  10)  ---------------------------------------


    EDDIAG:  cpu time    0.15: real time    0.15
  RMM-DIIS:  cpu time    0.69: real time    0.69
    ORTHCH:  cpu time    0.01: real time    0.01
       DOS:  cpu time    0.00: real time    0.00
    --------------------------------------------
      LOOP:  cpu time    0.86: real time    0.86

 eigenvalue-minimisations  :   154
 total energy-change (2. order) :-0.4009745E-01  (-0.2936401E-01)
 number of electron   92.0000000 magnetization 
 augmentation part    92.0000000 magnetization 

 Free energy of the ion-electron system (eV)
  ---------------------------------------------------
  alpha Z        PSCENC =        -7.38313139
  Ewald energy   TEWEN  =     -2183.99402644
  -1/2 Hartree   DENC   =       -21.01455377
  -exchange  EXHF       =         0.00000000
  -V(xc)+E(xc)   XCENC  =      -796.42430283
  PAW double counting   =      1078.21717227     -108.50372521
  entropy T*S    EENTRO =         0.01231106
  eigenvalues    EBANDS =       311.65169657
  atomic energy  EATOM  =      1629.13144109
  ---------------------------------------------------
  free energy    TOTEN  =       -98.30711865 eV

  energy without entropy =      -98.31942971  energy(sigma->0) =      -98.31122234


--------------------------------------------------------------------------------------------------------




----------------------------------------- Iteration    1(  11)  ---------------------------------------


    EDDIAG:  cpu time    0.15: real time    0.15
  RMM-DIIS:  cpu time    0.54: real time    0.54
    ORTHCH:  cpu time    0.01: real time    0.01
       DOS:  cpu time    0.00: real time    0.00
    --------------------------------------------
      LOOP:  cpu time    0.70: real time    0.70

 eigenvalue-minimisations  :   127
 total energy-change (2. order) :-0.2400955E-02  (-0.1158832E-02)
 number of electron   92.0000000 magnetization 
 augmentation part    92.0000000 magnetization 

 Free energy of the ion-electron system (eV)
  ---------------------------------------------------
  alpha Z        PSCENC =        -7.38313139
  Ewald energy   TEWEN  =     -2183.99402644
  -1/2 Hartree   DENC   =       -21.01455377
  -exchange  EXHF       =         0.00000000
  -V(xc)+E(xc)   XCENC  =      -796.42430283
  PAW double counting   =      1078.21717227     -108.50372521
  entropy T*S    EENTRO =         0.01197746
  eigenvalues    EBANDS =       311.64962921
  atomic energy  EATOM  =      1629.13144109
  ---------------------------------------------------
  free energy    TOTEN  =       -98.30951961 eV

  energy without entropy =      -98.32149707  energy(sigma->0) =      -98.31351210


--------------------------------------------------------------------------------------------------------




----------------------------------------- Iteration    1(  12)  ---------------------------------------


    EDDIAG:  cpu time    0.15: real time    0.15
  RMM-DIIS:  cpu time    0.44: real time    0.44
    ORTHCH:  cpu time    0.01: real time    0.01
       DOS:  cpu time    0.00: real time    0.00
    CHARGE:  cpu time    0.13: real time    0.13
    MIXING:  cpu time    0.00: real time    0.00
    --------------------------------------------
      LOOP:  cpu time    0.73: real time    0.73

 eigenvalue-minimisations  :    90
 total energy-change (2. order) :-0.4061376E-04  (-0.1735257E-04)
 number of electron   91.9999996 magnetization 
 augmentation part    -0.9211958 magnetization 

 Broyden mixing:
  rms(total) = 0.65132E+00    rms(broyden)= 0.65130E+00
  rms(prec ) = 0.11912E+01
  weight for this iteration     100.00

 Free energy of the ion-electron system (eV)
  ---------------------------------------------------
  alpha Z        PSCENC =        -7.38313139
  Ewald energy   TEWEN  =     -2183.99402644
  -1/2 Hartree   DENC   =       -21.01455377
  -exchange  EXHF       =         0.00000000
  -V(xc)+E(xc)   XCENC  =      -796.42430283
  PAW double counting   =      1078.21717227     -108.50372521
  entropy T*S    EENTRO =         0.01195350
  eigenvalues    EBANDS =       311.64961256
  atomic energy  EATOM  =      1629.13144109
  ---------------------------------------------------
  free energy    TOTEN  =       -98.30956022 eV

  energy without entropy =      -98.32151372  energy(sigma->0) =      -98.31354472


--------------------------------------------------------------------------------------------------------




----------------------------------------- Iteration    1(  13)  ---------------------------------------


    POTLOK:  cpu time    0.15: real time    0.15
    SETDIJ:  cpu time    0.01: real time    0.01
    EDDIAG:  cpu time    0.15: real time    0.15
  RMM-DIIS:  cpu time    0.61: real time    0.61
    ORTHCH:  cpu time    0.01: real time    0.01
       DOS:  cpu time    0.00: real time    0.00
    CHARGE:  cpu time    0.13: real time    0.13
    MIXING:  cpu time    0.01: real time    0.00
    --------------------------------------------
      LOOP:  cpu time    1.06: real time    1.06

 eigenvalue-minimisations  :   144
 total energy-change (2. order) : 0.1038069E+01  (-0.2083501E+00)
 number of electron   91.9999996 magnetization 
 augmentation part    -0.9300980 magnetization 

 Broyden mixing:
  rms(total) = 0.39589E+00    rms(broyden)= 0.39589E+00
  rms(prec ) = 0.61710E+00
  weight for this iteration     100.00

 eigenvalues of (default mixing * dielectric matrix)
  average eigenvalue GAMMA=   1.9474
  1.9474

 Free energy of the ion-electron system (eV)
  ---------------------------------------------------
  alpha Z        PSCENC =        -7.38313139
  Ewald energy   TEWEN  =     -2183.99402644
  -1/2 Hartree   DENC   =       -23.60994365
  -exchange  EXHF       =         0.00000000
  -V(xc)+E(xc)   XCENC  =      -795.16183876
  PAW double counting   =      1078.36862920     -108.72710566
  entropy T*S    EENTRO =        -0.07770144
  eigenvalues    EBANDS =       314.18218605
  atomic energy  EATOM  =      1629.13144109
  ---------------------------------------------------
  free energy    TOTEN  =       -97.27149100 eV

  energy without entropy =      -97.19378956  energy(sigma->0) =      -97.24559052


--------------------------------------------------------------------------------------------------------




----------------------------------------- Iteration    1(  14)  ---------------------------------------


    POTLOK:  cpu time    0.15: real time    0.15
    SETDIJ:  cpu time    0.01: real time    0.01
    EDDIAG:  cpu time    0.15: real time    0.15
  RMM-DIIS:  cpu time    0.61: real time    0.61
    ORTHCH:  cpu time    0.01: real time    0.01
       DOS:  cpu time    0.00: real time    0.00
    CHARGE:  cpu time    0.13: real time    0.13
    MIXING:  cpu time    0.00: real time    0.00
    --------------------------------------------
      LOOP:  cpu time    1.06: real time    1.06

 eigenvalue-minimisations  :   144
 total energy-change (2. order) : 0.2656906E+00  (-0.1916966E-01)
 number of electron   91.9999996 magnetization 
 augmentation part    -0.9407149 magnetization 

 Broyden mixing:
  rms(total) = 0.23970E+00    rms(broyden)= 0.23970E+00
  rms(prec ) = 0.36504E+00
  weight for this iteration     100.00

 eigenvalues of (default mixing * dielectric matrix)
  average eigenvalue GAMMA=   1.6535
  2.5278  0.7792

 Free energy of the ion-electron system (eV)
  ---------------------------------------------------
  alpha Z        PSCENC =        -7.38313139
  Ewald energy   TEWEN  =     -2183.99402644
  -1/2 Hartree   DENC   =       -24.03758079
  -exchange  EXHF       =         0.00000000
  -V(xc)+E(xc)   XCENC  =      -794.22768054
  PAW double counting   =      1078.26819292     -108.69273815
  entropy T*S    EENTRO =        -0.09522752
  eigenvalues    EBANDS =       314.02495047
  atomic energy  EATOM  =      1629.13144109
  ---------------------------------------------------
  free energy    TOTEN  =       -97.00580036 eV

  energy without entropy =      -96.91057283  energy(sigma->0) =      -96.97405785


--------------------------------------------------------------------------------------------------------




----------------------------------------- Iteration    1(  15)  ---------------------------------------


    POTLOK:  cpu time    0.15: real time    0.15
    SETDIJ:  cpu time    0.01: real time    0.01
    EDDIAG:  cpu time    0.15: real time    0.15
  RMM-DIIS:  cpu time    0.60: real time    0.60
    ORTHCH:  cpu time    0.01: real time    0.01
       DOS:  cpu time    0.00: real time    0.00
    CHARGE:  cpu time    0.13: real time    0.13
    MIXING:  cpu time    0.00: real time    0.00
    --------------------------------------------
      LOOP:  cpu time    1.06: real time    1.06

 eigenvalue-minimisations  :   144
 total energy-change (2. order) : 0.1376376E+00  (-0.1355346E-01)
 number of electron   91.9999996 magnetization 
 augmentation part    -0.9534346 magnetization 

 Broyden mixing:
  rms(total) = 0.48633E-01    rms(broyden)= 0.48633E-01
  rms(prec ) = 0.86470E-01
  weight for this iteration     100.00

 eigenvalues of (default mixing * dielectric matrix)
  average eigenvalue GAMMA=   1.4336
  2.6039  0.9480  0.7490

 Free energy of the ion-electron system (eV)
  ---------------------------------------------------
  alpha Z        PSCENC =        -7.38313139
  Ewald energy   TEWEN  =     -2183.99402644
  -1/2 Hartree   DENC   =       -25.79754469
  -exchange  EXHF       =         0.00000000
  -V(xc)+E(xc)   XCENC  =      -792.81643949
  PAW double counting   =      1078.06640477     -108.59455927
  entropy T*S    EENTRO =        -0.08027892
  eigenvalues    EBANDS =       314.59997159
  atomic energy  EATOM  =      1629.13144109
  ---------------------------------------------------
  free energy    TOTEN  =       -96.86816275 eV

  energy without entropy =      -96.78788383  energy(sigma->0) =      -96.84140311


--------------------------------------------------------------------------------------------------------




----------------------------------------- Iteration    1(  16)  ---------------------------------------


    POTLOK:  cpu time    0.15: real time    0.15
    SETDIJ:  cpu time    0.01: real time    0.01
    EDDIAG:  cpu time    0.15: real time    0.15
  RMM-DIIS:  cpu time    0.64: real time    0.64
    ORTHCH:  cpu time    0.01: real time    0.01
       DOS:  cpu time    0.00: real time    0.00
    CHARGE:  cpu time    0.13: real time    0.14
    MIXING:  cpu time    0.00: real time    0.00
    --------------------------------------------
      LOOP:  cpu time    1.10: real time    1.10

 eigenvalue-minimisations  :   147
 total energy-change (2. order) : 0.7015178E-02  (-0.1009681E-02)
 number of electron   91.9999996 magnetization 
 augmentation part    -0.9579550 magnetization 

 Broyden mixing:
  rms(total) = 0.16160E-01    rms(broyden)= 0.16160E-01
  rms(prec ) = 0.28351E-01
  weight for this iteration     100.00

 eigenvalues of (default mixing * dielectric matrix)
  average eigenvalue GAMMA=   1.4845
  2.6225  1.7727  0.8488  0.6941

 Free energy of the ion-electron system (eV)
  ---------------------------------------------------
  alpha Z        PSCENC =        -7.38313139
  Ewald energy   TEWEN  =     -2183.99402644
  -1/2 Hartree   DENC   =       -26.12725422
  -exchange  EXHF       =         0.00000000
  -V(xc)+E(xc)   XCENC  =      -792.51002515
  PAW double counting   =      1078.16115684     -108.72271022
  entropy T*S    EENTRO =        -0.08695848
  eigenvalues    EBANDS =       314.67036041
  atomic energy  EATOM  =      1629.13144109
  ---------------------------------------------------
  free energy    TOTEN  =       -96.86114757 eV

  energy without entropy =      -96.77418909  energy(sigma->0) =      -96.83216141


--------------------------------------------------------------------------------------------------------




----------------------------------------- Iteration    1(  17)  ---------------------------------------


    POTLOK:  cpu time    0.15: real time    0.15
    SETDIJ:  cpu time    0.01: real time    0.01
    EDDIAG:  cpu time    0.15: real time    0.15
  RMM-DIIS:  cpu time    0.63: real time    0.64
    ORTHCH:  cpu time    0.01: real time    0.01
       DOS:  cpu time    0.00: real time    0.00
    CHARGE:  cpu time    0.13: real time    0.13
    MIXING:  cpu time    0.00: real time    0.00
    --------------------------------------------
      LOOP:  cpu time    1.08: real time    1.10

 eigenvalue-minimisations  :   147
 total energy-change (2. order) : 0.9384580E-03  (-0.1785560E-03)
 number of electron   91.9999996 magnetization 
 augmentation part    -0.9594051 magnetization 

 Broyden mixing:
  rms(total) = 0.69180E-02    rms(broyden)= 0.69180E-02
  rms(prec ) = 0.12051E-01
  weight for this iteration     100.00

 eigenvalues of (default mixing * dielectric matrix)
  average eigenvalue GAMMA=   1.4266
  2.6424  2.0867  0.8614  0.8614  0.6812

 Free energy of the ion-electron system (eV)
  ---------------------------------------------------
  alpha Z        PSCENC =        -7.38313139
  Ewald energy   TEWEN  =     -2183.99402644
  -1/2 Hartree   DENC   =       -26.12830007
  -exchange  EXHF       =         0.00000000
  -V(xc)+E(xc)   XCENC  =      -792.45202716
  PAW double counting   =      1078.31438678     -108.89379548
  entropy T*S    EENTRO =        -0.08833827
  eigenvalues    EBANDS =       314.63358184
  atomic energy  EATOM  =      1629.13144109
  ---------------------------------------------------
  free energy    TOTEN  =       -96.86020912 eV

  energy without entropy =      -96.77187084  energy(sigma->0) =      -96.83076302


--------------------------------------------------------------------------------------------------------




----------------------------------------- Iteration    1(  18)  ---------------------------------------


    POTLOK:  cpu time    0.15: real time    0.15
    SETDIJ:  cpu time    0.01: real time    0.01
    EDDIAG:  cpu time    0.15: real time    0.15
  RMM-DIIS:  cpu time    0.56: real time    0.56
    ORTHCH:  cpu time    0.01: real time    0.01
       DOS:  cpu time    0.00: real time    0.00
    --------------------------------------------
      LOOP:  cpu time    0.89: real time    0.89

 eigenvalue-minimisations  :   127
 total energy-change (2. order) : 0.9912404E-04  (-0.5420004E-04)
 number of electron   91.9999996 magnetization 
 augmentation part    -0.9594051 magnetization 

 Free energy of the ion-electron system (eV)
  ---------------------------------------------------
  alpha Z        PSCENC =        -7.38313139
  Ewald energy   TEWEN  =     -2183.99402644
  -1/2 Hartree   DENC   =       -26.11997440
  -exchange  EXHF       =         0.00000000
  -V(xc)+E(xc)   XCENC  =      -792.42308537
  PAW double counting   =      1078.41068903     -109.00189685
  entropy T*S    EENTRO =        -0.08786381
  eigenvalues    EBANDS =       314.60773814
  atomic energy  EATOM  =      1629.13144109
  ---------------------------------------------------
  free energy    TOTEN  =       -96.86010999 eV

  energy without entropy =      -96.77224618  energy(sigma->0) =      -96.83082206


--------------------------------------------------------------------------------------------------------




 average (electrostatic) potential at core
  the test charge radii are     1.0406  1.0714
  (the norm of the test charge is              1.0000)
       1 -73.1007       2 -73.1655       3 -73.2431       4 -73.2431       5 -72.8420
       6 -72.8419       7 -73.1061       8 -73.0274       9 -72.8442      10 -73.2431
      11 -73.2431      12 -73.2590      13 -73.2590      14 -73.1061      15 -73.0274
      16 -72.8420      17 -72.8419      18 -73.0274      19 -73.1061      20 -73.1656
      21 -73.1008      22 -73.2432      23 -73.2432      24 -73.2590      25 -73.2590
      26 -73.0274      27 -73.1061      28 -72.8443      29 -73.2432      30 -73.2432
      31 -50.6611
 
 
 
 E-fermi :   7.9023     XC(G=0): -10.0121     alpha+bet :-14.3074
   add alpha+bet to get absolut eigen values

 k-point   1 :       0.0000    0.0000    0.0000
  band No.  band energies     occupation 
      1      -3.3257      2.00000
      2      -1.1957      2.00000
      3      -1.1921      2.00000
      4      -1.1774      2.00000
      5      -1.1678      2.00000
      6      -0.9581      2.00000
      7      -0.7805      2.00000
      8       0.9682      2.00000
      9       0.9843      2.00000
     10       1.0012      2.00000
     11       1.0021      2.00000
     12       1.0258      2.00000
     13       1.0688      2.00000
     14       1.0703      2.00000
     15       1.1404      2.00000
     16       1.1489      2.00000
     17       1.2073      2.00000
     18       1.7681      2.00000
     19       1.8731      2.00000
     20       3.1305      2.00000
     21       3.1934      2.00000
     22       3.2700      2.00000
     23       3.2804      2.00000
     24       3.2989      2.00000
     25       3.3585      2.00000
     26       3.8456      2.00000
     27       3.9247      2.00000
     28       4.9207      2.00000
     29       4.9398      2.00000
     30       4.9635      2.00000
     31       6.1055      2.00000
     32       6.3342      2.00000
     33       6.4057      2.00000
     34       6.7616      2.00000
     35       6.7909      2.00000
     36       6.8069      2.00000
     37       6.8326      2.00000
     38       6.8877      2.00000
     39       6.9594      2.00000
     40       7.0097      2.00000
     41       7.0368      2.00000
     42       7.0868      2.00000
     43       7.1636      2.00000
     44       7.2933      2.00015
     45       7.3235      2.00033
     46       7.8725      1.24914
     47       7.9687      0.47075
     48       8.0308      0.12381
     49       8.0434      0.07637
     50       8.0482      0.06055
     51       8.0627      0.01891
     52       8.5976     -0.00001
     53       8.7458      0.00000
     54       8.7620      0.00000
     55       8.8000      0.00000
     56       8.8510      0.00000
     57       8.8542      0.00000
     58       8.9444      0.00000
     59       8.9524      0.00000
     60       8.9604      0.00000
     61       9.1588      0.00000
     62       9.2295      0.00000
     63       9.2575      0.00000
     64       9.3031      0.00000
     65       9.3352      0.00000
     66       9.3520      0.00000
     67       9.3843      0.00000
     68       9.5566      0.00000
     69       9.8381      0.00000
     70      10.3223      0.00000
     71      10.4925      0.00000
     72      10.5397      0.00000


--------------------------------------------------------------------------------------------------------


 soft charge-density along one line, spin component           1
         0         1         2         3         4         5         6         7         8         9
 total charge-density along one line
 
 pseudopotential strength for first ion, spin component:           1
  8.458  -0.005   0.000   0.001   0.001   0.000   0.000   0.000
 -0.005   0.000   0.000   0.000   0.000   0.000   0.000   0.000
  0.000   0.000   1.986   0.000   0.000  -0.025   0.000   0.000
  0.001   0.000   0.000   1.986   0.000   0.000  -0.025   0.000
  0.001   0.000   0.000   0.000   1.986   0.000   0.000  -0.025
  0.000   0.000  -0.025   0.000   0.000  -0.012   0.000   0.000
  0.000   0.000   0.000  -0.025   0.000   0.000  -0.012   0.000
  0.000   0.000   0.000   0.000  -0.025   0.000   0.000  -0.012
 total augmentation occupancy for first ion, spin component:           1
  1.189  -0.550   0.000   0.001   0.001   0.000   0.005   0.005
 -0.550   0.485   0.000   0.001   0.001   0.000  -0.002  -0.002
  0.000   0.000   0.767   0.000   0.000  -0.173   0.000   0.000
  0.001   0.001   0.000   0.794  -0.025   0.000  -0.177   0.004
  0.001   0.001   0.000  -0.025   0.794   0.000   0.004  -0.177
  0.000   0.000  -0.173   0.000   0.000   0.048   0.000   0.000
  0.005  -0.002   0.000  -0.177   0.004   0.000   0.048  -0.001
  0.005  -0.002   0.000   0.004  -0.177   0.000  -0.001   0.048


------------------------ aborting loop because EDIFF is reached ----------------------------------------




--------------------------------------------------------------------------------------------------------



  FREE ENERGIE OF THE ION-ELECTRON SYSTEM (eV)
  ---------------------------------------------------
  free  energy   TOTEN  =       -96.860110 eV

  energy  without entropy=      -96.772246  energy(sigma->0) =      -96.830822
 
    CHARGE:  cpu time    0.12: real time    0.12
    FORLOC:  cpu time    0.04: real time    0.04
    FORNL :  cpu time    0.24: real time    0.24
    STRESS:  cpu time    0.43: real time    0.43
    FORCOR:  cpu time    0.17: real time    0.17
    FORHAR:  cpu time    0.07: real time    0.07
    MIXING:  cpu time    0.00: real time    0.00

  FORCE on cell =-STRESS in cart. coord.  units (eV):
  Direction    XX          YY          ZZ          XY          YZ          ZX
  --------------------------------------------------------------------------------------
  Alpha Z    -7.38313    -7.38313    -7.38313
  Ewald    -729.10512  -725.79268  -729.10512     0.00000     0.00000    -3.47015
  Hartree    11.16424     3.81049    11.16424     0.00000     0.00000     2.11201
  E(xc)    -259.88150  -260.36460  -259.88150     0.00000     0.00000     0.24638
  Local     -10.59766    -2.85188   -10.59766     0.00000     0.00000     1.96808
  n-local   549.49462   553.45627   549.49458    -0.00003    -0.00001    -2.31159
  augment   -25.71349   -25.79255   -25.71349    -0.00001     0.00000     0.11008
  Kinetic   466.35293   469.24410   466.35247    -0.00008    -0.00011    -0.78689
  Fock        0.00000     0.00000     0.00000     0.00000     0.00000     0.00000
  -------------------------------------------------------------------------------------
  Total      -5.66936     4.32603    -5.66936     0.00000     0.00000    -2.13208
  in kB     -17.17408    13.10476   -17.17408     0.00000     0.00000    -6.45868
  external pressure =       -7.08 kB  Pullay stress =        0.00 kB


 VOLUME and BASIS-vectors are now :
 -----------------------------------------------------------------------------
  energy-cutoff  :      300.00
  volume of cell :      528.90
      direct lattice vectors                 reciprocal lattice vectors
     8.087052000  0.000000000  0.000000000     0.123654454  0.000000000  0.000000000
     0.000000000  8.087052000  0.000000000     0.000000000  0.123654454  0.000000000
     0.000000000  0.000000000  8.087052000     0.000000000  0.000000000  0.123654454

  length of vectors
     8.087052000  8.087052000  8.087052000     0.123654454  0.123654454  0.123654454


 FORCES acting on ions
    electron-ion (+dipol)            ewald-force                    non-local-force                 convergence-correction
 -----------------------------------------------------------------------------------------------
   -.240E+01 0.725E-06 -.240E+01   0.191E+01 0.671E-04 0.191E+01   0.251E+00 0.000E+00 0.251E+00   -.155E-02 -.553E-06 -.155E-02
   -.150E+01 0.221E-07 -.150E+01   0.133E+01 0.193E-05 0.133E+01   0.224E+00 0.000E+00 0.224E+00   0.442E-02 -.936E-07 0.442E-02
   -.105E+01 -.874E+01 -.623E+01   0.928E+00 0.875E+01 0.630E+01   0.694E-01 -.712E-01 -.190E+00   0.201E-02 -.375E-02 0.291E-02
   -.623E+01 -.874E+01 -.105E+01   0.630E+01 0.875E+01 0.928E+00   -.190E+00 -.712E-01 0.694E-01   0.291E-02 -.375E-02 0.201E-02
   0.120E+01 0.355E-06 -.154E+01   -.131E+01 0.329E-04 0.135E+01   0.387E+00 -.127E-20 0.296E+00   0.253E-02 -.319E-06 0.440E-02
   0.154E+01 0.355E-06 -.120E+01   -.135E+01 0.329E-04 0.131E+01   -.296E+00 0.000E+00 -.387E+00   -.443E-02 -.319E-06 -.250E-02
   0.134E+01 -.384E+01 -.134E+01   -.133E+01 0.341E+01 0.133E+01   -.750E-01 0.984E-01 0.750E-01   -.275E-02 -.101E-01 0.271E-02
   0.432E+01 -.745E+01 -.432E+01   -.457E+01 0.850E+01 0.457E+01   0.944E+00 -.225E+01 -.944E+00   -.240E-02 -.647E-02 0.242E-02
   -.696E+01 0.704E-06 -.696E+01   0.705E+01 0.656E-04 0.705E+01   -.223E+00 0.000E+00 -.223E+00   0.456E-02 -.748E-06 0.457E-02
   -.105E+01 0.874E+01 -.623E+01   0.928E+00 -.875E+01 0.630E+01   0.694E-01 0.712E-01 -.190E+00   0.201E-02 0.375E-02 0.291E-02
   -.623E+01 0.874E+01 -.105E+01   0.630E+01 -.875E+01 0.928E+00   -.190E+00 0.712E-01 0.694E-01   0.291E-02 0.375E-02 0.201E-02
   0.688E+01 0.361E-06 -.401E+01   -.662E+01 0.336E-04 0.428E+01   -.146E+00 0.000E+00 -.216E-01   -.422E-02 -.481E-06 0.182E-02
   0.401E+01 0.361E-06 -.688E+01   -.428E+01 0.336E-04 0.662E+01   0.216E-01 0.000E+00 0.146E+00   -.184E-02 -.481E-06 0.424E-02
   0.134E+01 0.384E+01 -.134E+01   -.133E+01 -.341E+01 0.133E+01   -.750E-01 -.984E-01 0.750E-01   -.275E-02 0.101E-01 0.271E-02
   0.432E+01 0.745E+01 -.432E+01   -.457E+01 -.850E+01 0.457E+01   0.944E+00 0.225E+01 -.944E+00   -.240E-02 0.647E-02 0.242E-02
   -.154E+01 0.355E-06 0.120E+01   0.135E+01 0.329E-04 -.131E+01   0.296E+00 0.000E+00 0.387E+00   0.440E-02 -.319E-06 0.253E-02
   -.120E+01 0.355E-06 0.154E+01   0.131E+01 0.329E-04 -.135E+01   -.387E+00 0.000E+00 -.296E+00   -.250E-02 -.319E-06 -.443E-02
   -.432E+01 -.745E+01 0.432E+01   0.457E+01 0.850E+01 -.457E+01   -.944E+00 -.225E+01 0.944E+00   0.241E-02 -.647E-02 -.240E-02
   -.134E+01 -.384E+01 0.134E+01   0.133E+01 0.341E+01 -.133E+01   0.750E-01 0.984E-01 -.750E-01   0.271E-02 -.101E-01 -.276E-02
   0.150E+01 0.221E-07 0.150E+01   -.133E+01 0.193E-05 -.133E+01   -.224E+00 0.000E+00 -.224E+00   -.439E-02 -.936E-07 -.439E-02
   0.240E+01 0.725E-06 0.240E+01   -.191E+01 0.671E-04 -.191E+01   -.251E+00 0.000E+00 -.251E+00   0.152E-02 -.553E-06 0.151E-02
   0.623E+01 -.874E+01 0.105E+01   -.630E+01 0.875E+01 -.929E+00   0.190E+00 -.712E-01 -.694E-01   -.293E-02 -.376E-02 -.196E-02
   0.105E+01 -.874E+01 0.623E+01   -.929E+00 0.875E+01 -.630E+01   -.694E-01 -.712E-01 0.190E+00   -.196E-02 -.376E-02 -.293E-02
   -.401E+01 0.361E-06 0.688E+01   0.428E+01 0.336E-04 -.662E+01   -.216E-01 0.000E+00 -.146E+00   0.182E-02 -.481E-06 -.422E-02
   -.688E+01 0.361E-06 0.401E+01   0.662E+01 0.336E-04 -.428E+01   0.146E+00 -.424E-21 0.216E-01   0.424E-02 -.481E-06 -.184E-02
   -.432E+01 0.745E+01 0.432E+01   0.457E+01 -.850E+01 -.457E+01   -.944E+00 0.225E+01 0.944E+00   0.241E-02 0.647E-02 -.240E-02
   -.134E+01 0.384E+01 0.134E+01   0.133E+01 -.341E+01 -.133E+01   0.750E-01 -.984E-01 -.750E-01   0.271E-02 0.101E-01 -.276E-02
   0.696E+01 0.704E-06 0.696E+01   -.705E+01 0.656E-04 -.705E+01   0.223E+00 0.000E+00 0.223E+00   -.459E-02 -.748E-06 -.459E-02
   0.623E+01 0.874E+01 0.105E+01   -.630E+01 -.875E+01 -.929E+00   0.190E+00 0.712E-01 -.694E-01   -.293E-02 0.376E-02 -.196E-02
   0.105E+01 0.874E+01 0.623E+01   -.929E+00 -.875E+01 -.630E+01   -.694E-01 0.712E-01 0.190E+00   -.196E-02 0.376E-02 -.293E-02
   0.121E-06 0.121E-07 0.121E-06   0.111E-04 0.123E-05 0.111E-04   0.000E+00 0.000E+00 0.000E+00   0.692E-05 -.108E-06 0.692E-05
 -----------------------------------------------------------------------------------------------
   0.572E-03 0.390E-03 0.572E-03   -.116E-13 0.869E-13 -.174E-13   -.278E-15 0.167E-15 -.500E-15   -.179E-04 0.323E-06 -.179E-04
 
 
 POSITION                                       TOTAL-FORCE (eV/Angst)
 -----------------------------------------------------------------------------------
      8.08105      0.00000      8.08105        -0.238954      0.000000     -0.238954
      2.01150      0.00000      2.01150         0.063929      0.000000      0.063929
      2.02794      2.03798      0.02321        -0.047768     -0.067330     -0.112975
      0.02321      2.03798      2.02794        -0.112975     -0.067330     -0.047768
      4.04255      0.00000      8.05793         0.279310      0.000000      0.108638
      6.09441      0.00000      2.02275        -0.108638      0.000000     -0.279310
      6.07757      2.01412      8.07477        -0.074870     -0.340995      0.074870
      4.06285      2.00142      2.00243         0.695372     -1.199438     -0.695372
      0.01372      4.04353      0.01372        -0.122786      0.000000     -0.122786
      2.02794      6.04907      0.02321        -0.047768      0.067330     -0.112975
      0.02321      6.04907      2.02794        -0.112975      0.067330     -0.047768
      4.04857      4.04353      0.00218         0.101545      0.000000      0.253517
      6.06310      4.04353      2.01670        -0.253517      0.000000     -0.101545
      6.07757      6.07294      8.07477        -0.074870      0.340995      0.074870
      4.06285      6.08564      2.00243         0.695372      1.199438     -0.695372
      8.05793      0.00000      4.04255         0.108638      0.000000      0.279310
      2.02275      0.00000      6.09441        -0.279310      0.000000     -0.108638
      2.00243      2.00142      4.06285        -0.695372     -1.199438      0.695372
      8.07477      2.01412      6.07757         0.074870     -0.340995     -0.074870
      4.05379      0.00000      4.05379        -0.063929      0.000000     -0.063929
      6.07129      0.00000      6.07129         0.238954      0.000000      0.238954
      6.04208      2.03798      4.03736         0.112975     -0.067330      0.047768
      4.03736      2.03798      6.04208         0.047768     -0.067330      0.112975
      0.00218      4.04353      4.04857         0.253517      0.000000      0.101545
      2.01670      4.04353      6.06310        -0.101545      0.000000     -0.253517
      2.00243      6.08564      4.06285        -0.695372      1.199438      0.695372
      8.07477      6.07294      6.07757         0.074870      0.340995     -0.074870
      6.05157      4.04353      6.05157         0.122786      0.000000      0.122786
      6.04208      6.04907      4.03736         0.112975      0.067330      0.047768
      4.03736      6.04907      6.04208         0.047768      0.067330      0.112975
      3.03264      4.04353      3.03264         0.000000      0.000000      0.000000
 -----------------------------------------------------------------------------------
    total drift:                                0.000554      0.000390      0.000554


--------------------------------------------------------------------------------------------------------


    POTLOK:  cpu time    0.16: real time    0.16


--------------------------------------------------------------------------------------------------------


 NEB: the previous image is higher in energy: F
 NEB: the next image is higher in energy    : F
 NEB: image is at an extrema
 NEB: diff energy (min, max):    96.860110   96.860110

 NEB: Tangent
 ----------------------------------------------
     -0.00187      0.00000     -0.00187
      0.00297      0.00000      0.00297
      0.00457      0.01478      0.01566
      0.01566      0.01478      0.00457
      0.00147      0.00000      0.00146
      0.00147      0.00000      0.00147
     -0.00337      0.00000     -0.00337
     -0.01339      0.00001     -0.01337
      0.01622      0.00000      0.01622
      0.00457     -0.01478      0.01566
      0.01566     -0.01478      0.00457
     -0.01151      0.00000      0.01761
      0.01760      0.00000     -0.01150
     -0.00337      0.00000     -0.00337
     -0.01339     -0.00001     -0.01337
      0.00146      0.00000      0.00147
      0.00147      0.00000      0.00147
     -0.01337      0.00001     -0.01339
     -0.00337      0.00000     -0.00337
      0.00298      0.00000      0.00298
     -0.00188      0.00000     -0.00188
      0.01564     -0.01477      0.00456
      0.00456     -0.01477      0.01564
      0.01761      0.00000     -0.01151
     -0.01150      0.00000      0.01760
     -0.01337     -0.00001     -0.01339
     -0.00337      0.00000     -0.00337
      0.01620      0.00000      0.01620
      0.01564      0.01477      0.00456
      0.00456      0.01477      0.01564
      0.70417      0.00000      0.70417

 NEB: forces: par spring, perp REAL, dneb     0.000058    3.354425    0.000000
 NEB: distance to prev, next image, angle between     1.311664    1.311652  179.997942
 NEB: projections on to tangent (spring, REAL)    -0.000058   -0.000119

  FORCES: max atom, RMS     1.551043    0.602473
  FORCE total and by dimension    3.354425    1.199438
 Quasi-Newton relaxation of ions (Broydens 2nd method)
  g(Force)  = 0.543E+00   g(Stress)= 0.000E+00

 Reset! Starting new Quasi-Newton update for ions 


--------------------------------------------------------------------------------------------------------


    WAVPRE:  cpu time    0.05: real time    0.05
    FEWALD:  cpu time    0.01: real time    0.01
    ORTHCH:  cpu time    0.05: real time    0.06
     LOOP+:  cpu time   14.96: real time   15.01
   RESPFUN:  cpu time    0.00: real time    0.00


----------------------------------------- Iteration    2(   1)  ---------------------------------------


    POTLOK:  cpu time    0.15: real time    0.15
    SETDIJ:  cpu time    0.01: real time    0.01
    EDDIAG:  cpu time    0.15: real time    0.15
  RMM-DIIS:  cpu time    0.61: real time    0.62
    ORTHCH:  cpu time    0.01: real time    0.01
       DOS:  cpu time    0.00: real time    0.00
    CHARGE:  cpu time    0.13: real time    0.13
    MIXING:  cpu time    0.00: real time    0.00
    --------------------------------------------
      LOOP:  cpu time    1.07: real time    1.08

 eigenvalue-minimisations  :   144
 total energy-change (2. order) :-0.5427016E+00  (-0.3358601E+00)
 number of electron   91.9999996 magnetization 
 augmentation part    -0.9618139 magnetization 

 Broyden mixing:
  rms(total) = 0.89352E-01    rms(broyden)= 0.89348E-01
  rms(prec ) = 0.27563E+00
  weight for this iteration     100.00

 Free energy of the ion-electron system (eV)
  ---------------------------------------------------
  alpha Z        PSCENC =        -7.38313139
  Ewald energy   TEWEN  =     -2179.18684306
  -1/2 Hartree   DENC   =       -30.54285453
  -exchange  EXHF       =         0.00000000
  -V(xc)+E(xc)   XCENC  =      -792.31947134
  PAW double counting   =      1078.42572558     -109.01969099
  entropy T*S    EENTRO =         0.03009048
  eigenvalues    EBANDS =       313.46182346
  atomic energy  EATOM  =      1629.13144109
  ---------------------------------------------------
  free energy    TOTEN  =       -97.40291070 eV

  energy without entropy =      -97.43300118  energy(sigma->0) =      -97.41294086


--------------------------------------------------------------------------------------------------------




----------------------------------------- Iteration    2(   2)  ---------------------------------------


    POTLOK:  cpu time    0.15: real time    0.15
    SETDIJ:  cpu time    0.01: real time    0.01
    EDDIAG:  cpu time    0.15: real time    0.15
  RMM-DIIS:  cpu time    0.60: real time    0.60
    ORTHCH:  cpu time    0.01: real time    0.01
       DOS:  cpu time    0.00: real time    0.00
    CHARGE:  cpu time    0.13: real time    0.13
    MIXING:  cpu time    0.00: real time    0.00
    --------------------------------------------
      LOOP:  cpu time    1.06: real time    1.06

 eigenvalue-minimisations  :   144
 total energy-change (2. order) : 0.7173873E-01  (-0.1863828E-01)
 number of electron   91.9999996 magnetization 
 augmentation part    -0.9590476 magnetization 

 Broyden mixing:
  rms(total) = 0.28360E-01    rms(broyden)= 0.28359E-01
  rms(prec ) = 0.88423E-01
  weight for this iteration     100.00

 eigenvalues of (default mixing * dielectric matrix)
  average eigenvalue GAMMA=   0.9657
  0.9657

 Free energy of the ion-electron system (eV)
  ---------------------------------------------------
  alpha Z        PSCENC =        -7.38313139
  Ewald energy   TEWEN  =     -2179.18684306
  -1/2 Hartree   DENC   =       -31.40304188
  -exchange  EXHF       =         0.00000000
  -V(xc)+E(xc)   XCENC  =      -792.31333069
  PAW double counting   =      1078.41355953     -109.00067386
  entropy T*S    EENTRO =        -0.01259956
  eigenvalues    EBANDS =       314.42344785
  atomic energy  EATOM  =      1629.13144109
  ---------------------------------------------------
  free energy    TOTEN  =       -97.33117197 eV

  energy without entropy =      -97.31857241  energy(sigma->0) =      -97.32697211


--------------------------------------------------------------------------------------------------------




----------------------------------------- Iteration    2(   3)  ---------------------------------------


    POTLOK:  cpu time    0.15: real time    0.15
    SETDIJ:  cpu time    0.01: real time    0.01
    EDDIAG:  cpu time    0.15: real time    0.15
  RMM-DIIS:  cpu time    0.61: real time    0.62
    ORTHCH:  cpu time    0.01: real time    0.01
       DOS:  cpu time    0.00: real time    0.00
    CHARGE:  cpu time    0.13: real time    0.13
    MIXING:  cpu time    0.00: real time    0.00
    --------------------------------------------
      LOOP:  cpu time    1.07: real time    1.07

 eigenvalue-minimisations  :   146
 total energy-change (2. order) : 0.6198543E-02  (-0.1334944E-02)
 number of electron   91.9999996 magnetization 
 augmentation part    -0.9591788 magnetization 

 Broyden mixing:
  rms(total) = 0.13266E-01    rms(broyden)= 0.13266E-01
  rms(prec ) = 0.24108E-01
  weight for this iteration     100.00

 eigenvalues of (default mixing * dielectric matrix)
  average eigenvalue GAMMA=   1.0838
  0.7594  1.4083

 Free energy of the ion-electron system (eV)
  ---------------------------------------------------
  alpha Z        PSCENC =        -7.38313139
  Ewald energy   TEWEN  =     -2179.18684306
  -1/2 Hartree   DENC   =       -31.25922003
  -exchange  EXHF       =         0.00000000
  -V(xc)+E(xc)   XCENC  =      -792.31486124
  PAW double counting   =      1078.38659186     -108.97206104
  entropy T*S    EENTRO =        -0.01976281
  eigenvalues    EBANDS =       314.29287319
  atomic energy  EATOM  =      1629.13144109
  ---------------------------------------------------
  free energy    TOTEN  =       -97.32497342 eV

  energy without entropy =      -97.30521061  energy(sigma->0) =      -97.31838582


--------------------------------------------------------------------------------------------------------




----------------------------------------- Iteration    2(   4)  ---------------------------------------


    POTLOK:  cpu time    0.15: real time    0.15
    SETDIJ:  cpu time    0.01: real time    0.01
    EDDIAG:  cpu time    0.15: real time    0.15
  RMM-DIIS:  cpu time    0.61: real time    0.61
    ORTHCH:  cpu time    0.01: real time    0.01
       DOS:  cpu time    0.00: real time    0.00
    CHARGE:  cpu time    0.13: real time    0.13
    MIXING:  cpu time    0.00: real time    0.00
    --------------------------------------------
      LOOP:  cpu time    1.07: real time    1.07

 eigenvalue-minimisations  :   140
 total energy-change (2. order) : 0.3809786E-03  (-0.1120772E-03)
 number of electron   91.9999996 magnetization 
 augmentation part    -0.9590002 magnetization 

 Broyden mixing:
  rms(total) = 0.72019E-02    rms(broyden)= 0.72018E-02
  rms(prec ) = 0.10998E-01
  weight for this iteration     100.00

 eigenvalues of (default mixing * dielectric matrix)
  average eigenvalue GAMMA=   1.2298
  2.0064  0.9535  0.7295

 Free energy of the ion-electron system (eV)
  ---------------------------------------------------
  alpha Z        PSCENC =        -7.38313139
  Ewald energy   TEWEN  =     -2179.18684306
  -1/2 Hartree   DENC   =       -31.27453386
  -exchange  EXHF       =         0.00000000
  -V(xc)+E(xc)   XCENC  =      -792.31604902
  PAW double counting   =      1078.37662809     -108.96068215
  entropy T*S    EENTRO =        -0.01935379
  eigenvalues    EBANDS =       314.30793165
  atomic energy  EATOM  =      1629.13144109
  ---------------------------------------------------
  free energy    TOTEN  =       -97.32459245 eV

[...]
  RMM-DIIS:  cpu time    0.45: real time    0.45
    ORTHCH:  cpu time    0.01: real time    0.01
       DOS:  cpu time    0.00: real time    0.00
    --------------------------------------------
      LOOP:  cpu time    0.77: real time    0.77

 eigenvalue-minimisations  :    92
 total energy-change (2. order) :-0.7259366E-06  (-0.6129516E-05)
 number of electron   91.9999998 magnetization 
 augmentation part    -0.9556209 magnetization 

 Free energy of the ion-electron system (eV)
  ---------------------------------------------------
  alpha Z        PSCENC =        -7.38313139
  Ewald energy   TEWEN  =     -2151.60771544
  -1/2 Hartree   DENC   =       -57.68020344
  -exchange  EXHF       =         0.00000000
  -V(xc)+E(xc)   XCENC  =      -791.81466916
  PAW double counting   =      1079.83853692     -110.47347885
  entropy T*S    EENTRO =         0.10112284
  eigenvalues    EBANDS =       311.90029121
  atomic energy  EATOM  =      1629.13144109
  ---------------------------------------------------
  free energy    TOTEN  =       -97.98780622 eV

  energy without entropy =      -98.08892906  energy(sigma->0) =      -98.02151383


--------------------------------------------------------------------------------------------------------




 average (electrostatic) potential at core
  the test charge radii are     1.0406  1.0714
  (the norm of the test charge is              1.0000)
       1 -72.8279       2 -73.1058       3 -73.2987       4 -73.2987       5 -72.6140
       6 -72.6139       7 -72.9869       8 -73.0847       9 -72.7448      10 -73.2987
      11 -73.2987      12 -73.3547      13 -73.3546      14 -72.9869      15 -73.0847
      16 -72.6140      17 -72.6139      18 -73.0847      19 -72.9869      20 -73.1060
      21 -72.8282      22 -73.2989      23 -73.2989      24 -73.3547      25 -73.3546
      26 -73.0847      27 -72.9869      28 -72.7450      29 -73.2989      30 -73.2989
      31 -51.1806
 
 
 
 E-fermi :   7.8097     XC(G=0):  -9.9954     alpha+bet :-14.3074
   add alpha+bet to get absolut eigen values

 k-point   1 :       0.0000    0.0000    0.0000
  band No.  band energies     occupation 
      1      -3.4169      2.00000
      2      -1.4273      2.00000
      3      -1.2831      2.00000
      4      -1.2032      2.00000
      5      -1.2022      2.00000
      6      -0.8530      2.00000
      7      -0.8441      2.00000
      8       0.7731      2.00000
      9       0.7799      2.00000
     10       0.9147      2.00000
     11       0.9352      2.00000
     12       1.0462      2.00000
     13       1.0543      2.00000
     14       1.1247      2.00000
     15       1.1471      2.00000
     16       1.1662      2.00000
     17       1.2589      2.00000
     18       1.7810      2.00000
     19       1.9808      2.00000
     20       3.1743      2.00000
     21       3.2120      2.00000
     22       3.2807      2.00000
     23       3.2984      2.00000
     24       3.3149      2.00000
     25       3.3987      2.00000
     26       3.9584      2.00000
     27       4.1174      2.00000
     28       4.8499      2.00000
     29       4.8580      2.00000
     30       4.8904      2.00000
     31       6.0113      2.00000
     32       6.2688      2.00000
     33       6.3504      2.00000
     34       6.6302      2.00000
     35       6.7468      2.00000
     36       6.7548      2.00000
     37       6.7693      2.00000
     38       6.8016      2.00000
     39       6.8138      2.00000
     40       6.9729      2.00000
     41       7.0921      2.00000
     42       7.1297      2.00002
     43       7.3050      2.00209
     44       7.3133      2.00251
     45       7.4150      2.01740
     46       7.5171      2.05854
     47       7.9424      0.10682
     48       8.0064     -0.04662
     49       8.0189     -0.05851
     50       8.0387     -0.06875
     51       8.2200     -0.01349
     52       8.5464      0.00000
     53       8.6104      0.00000
     54       8.7195      0.00000
     55       8.7245      0.00000
     56       8.8334      0.00000
     57       8.9406      0.00000
     58       8.9532      0.00000
     59       9.0493      0.00000
     60       9.1321      0.00000
     61       9.1720      0.00000
     62       9.2105      0.00000
     63       9.2376      0.00000
     64       9.2860      0.00000
     65       9.3886      0.00000
     66       9.4553      0.00000
     67       9.4733      0.00000
     68       9.6496      0.00000
     69      10.0067      0.00000
     70      10.1950      0.00000
     71      10.2956      0.00000
     72      10.3399      0.00000


--------------------------------------------------------------------------------------------------------


 soft charge-density along one line, spin component           1
         0         1         2         3         4         5         6         7         8         9
 total charge-density along one line
 
 pseudopotential strength for first ion, spin component:           1
  8.455  -0.006   0.000   0.002   0.002   0.000   0.000   0.000
 -0.006   0.000   0.000   0.000   0.000   0.000   0.000   0.000
  0.000   0.000   1.990   0.000   0.000  -0.026   0.000   0.000
  0.002   0.000   0.000   1.989   0.000   0.000  -0.026   0.000
  0.002   0.000   0.000   0.000   1.989   0.000   0.000  -0.026
  0.000   0.000  -0.026   0.000   0.000  -0.012   0.000   0.000
  0.000   0.000   0.000  -0.026   0.000   0.000  -0.012   0.000
  0.000   0.000   0.000   0.000  -0.026   0.000   0.000  -0.012
 total augmentation occupancy for first ion, spin component:           1
  1.179  -0.614   0.000  -0.024  -0.024   0.000   0.029   0.029
 -0.614   0.568   0.000   0.032   0.032   0.000  -0.022  -0.022
  0.000   0.000   0.763   0.000   0.000  -0.188   0.000   0.000
 -0.024   0.032   0.000   0.880  -0.047   0.000  -0.209   0.010
 -0.024   0.032   0.000  -0.047   0.880   0.000   0.010  -0.209
  0.000   0.000  -0.188   0.000   0.000   0.055   0.000   0.000
  0.029  -0.022   0.000  -0.209   0.010   0.000   0.059  -0.001
  0.029  -0.022   0.000   0.010  -0.209   0.000  -0.001   0.059


------------------------ aborting loop because EDIFF is reached ----------------------------------------




--------------------------------------------------------------------------------------------------------



  FREE ENERGIE OF THE ION-ELECTRON SYSTEM (eV)
  ---------------------------------------------------
  free  energy   TOTEN  =       -97.987806 eV

  energy  without entropy=      -98.088929  energy(sigma->0) =      -98.021514
 
    CHARGE:  cpu time    0.12: real time    0.12
    FORLOC:  cpu time    0.04: real time    0.04
    FORNL :  cpu time    0.24: real time    0.24
    STRESS:  cpu time    0.43: real time    0.43
    FORCOR:  cpu time    0.17: real time    0.17
    FORHAR:  cpu time    0.07: real time    0.07
    MIXING:  cpu time    0.00: real time    0.00

  FORCE on cell =-STRESS in cart. coord.  units (eV):
  Direction    XX          YY          ZZ          XY          YZ          ZX
  --------------------------------------------------------------------------------------
  Alpha Z    -7.38313    -7.38313    -7.38313
  Ewald    -707.98186  -735.65224  -707.98186     0.00000     0.00000     1.72427
  Hartree    27.64238     2.40536    27.64238     0.00000     0.00000     3.50613
  E(xc)    -260.83500  -260.74626  -260.83500     0.00000     0.00000     0.15727
  Local     -50.32268     8.95682   -50.32268     0.00000     0.00000    -4.94699
  n-local   552.90968   549.83086   552.90968     0.00000     0.00000    -1.43574
  augment   -25.70113   -25.28256   -25.70113     0.00000     0.00000     0.08293
  Kinetic   467.36977   473.87606   467.36978    -0.00005     0.00010    -1.18978
  Fock        0.00000     0.00000     0.00000     0.00000     0.00000     0.00000
  -------------------------------------------------------------------------------------
  Total      -4.30196     6.00491    -4.30196     0.00000     0.00000    -2.10191
  in kB     -13.03186    18.19057   -13.03186     0.00000     0.00000    -6.36729
  external pressure =       -2.62 kB  Pullay stress =        0.00 kB


 VOLUME and BASIS-vectors are now :
 -----------------------------------------------------------------------------
  energy-cutoff  :      300.00
  volume of cell :      528.90
      direct lattice vectors                 reciprocal lattice vectors
     8.087052000  0.000000000  0.000000000     0.123654454  0.000000000  0.000000000
     0.000000000  8.087052000  0.000000000     0.000000000  0.123654454  0.000000000
     0.000000000  0.000000000  8.087052000     0.000000000  0.000000000  0.123654454

  length of vectors
     8.087052000  8.087052000  8.087052000     0.123654454  0.123654454  0.123654454


 FORCES acting on ions
    electron-ion (+dipol)            ewald-force                    non-local-force                 convergence-correction
 -----------------------------------------------------------------------------------------------
   -.937E+01 0.756E-06 -.937E+01   0.757E+01 0.726E-04 0.757E+01   0.184E+01 0.000E+00 0.184E+01   -.787E-03 0.683E-06 -.787E-03
   0.132E+01 0.108E-08 0.132E+01   -.637E+00 0.214E-06 -.637E+00   -.700E+00 0.000E+00 -.700E+00   -.222E-02 0.372E-06 -.222E-02
   -.287E+01 -.154E+02 -.108E+02   0.245E+01 0.148E+02 0.103E+02   0.378E+00 0.590E+00 0.532E+00   -.546E-03 0.443E-02 -.169E-02
   -.108E+02 -.154E+02 -.287E+01   0.103E+02 0.148E+02 0.245E+01   0.532E+00 0.590E+00 0.378E+00   -.169E-02 0.443E-02 -.545E-03
   0.601E+01 0.321E-06 -.284E+00   -.570E+01 0.310E-04 -.278E-02   -.301E+00 0.000E+00 0.222E+00   0.232E-03 0.541E-06 -.629E-03
   0.284E+00 0.321E-06 -.601E+01   0.302E-02 0.310E-04 0.570E+01   -.222E+00 0.000E+00 0.301E+00   0.621E-03 0.541E-06 -.224E-03
   0.230E+01 -.120E+02 -.230E+01   -.227E+01 0.105E+02 0.227E+01   -.223E-01 0.150E+01 0.223E-01   0.167E-02 0.561E-02 -.168E-02
   0.109E+02 -.203E+02 -.109E+02   -.981E+01 0.185E+02 0.981E+01   -.106E+01 0.169E+01 0.106E+01   0.139E-02 0.495E-02 -.138E-02
   -.117E+02 0.807E-06 -.117E+02   0.109E+02 0.771E-04 0.109E+02   0.831E+00 0.000E+00 0.831E+00   -.204E-02 -.699E-06 -.204E-02
   -.287E+01 0.154E+02 -.108E+02   0.245E+01 -.148E+02 0.103E+02   0.378E+00 -.590E+00 0.532E+00   -.546E-03 -.443E-02 -.169E-02
   -.108E+02 0.154E+02 -.287E+01   0.103E+02 -.148E+02 0.245E+01   0.532E+00 -.590E+00 0.378E+00   -.169E-02 -.443E-02 -.545E-03
   0.136E+02 0.402E-06 -.453E+01   -.119E+02 0.382E-04 0.552E+01   -.163E+01 0.212E-21 -.107E+01   0.457E-03 -.502E-06 -.225E-02
   0.453E+01 0.402E-06 -.136E+02   -.552E+01 0.382E-04 0.119E+02   0.107E+01 0.000E+00 0.163E+01   0.224E-02 -.502E-06 -.444E-03
   0.230E+01 0.120E+02 -.230E+01   -.227E+01 -.105E+02 0.227E+01   -.223E-01 -.150E+01 0.223E-01   0.167E-02 -.561E-02 -.168E-02
   0.109E+02 0.203E+02 -.109E+02   -.981E+01 -.185E+02 0.981E+01   -.106E+01 -.169E+01 0.106E+01   0.139E-02 -.495E-02 -.138E-02
   -.284E+00 0.321E-06 0.601E+01   -.278E-02 0.310E-04 -.570E+01   0.222E+00 0.000E+00 -.301E+00   -.629E-03 0.541E-06 0.232E-03
   -.601E+01 0.321E-06 0.284E+00   0.570E+01 0.310E-04 0.302E-02   0.301E+00 0.000E+00 -.222E+00   -.225E-03 0.541E-06 0.621E-03
   -.109E+02 -.203E+02 0.109E+02   0.981E+01 0.185E+02 -.981E+01   0.106E+01 0.169E+01 -.106E+01   -.138E-02 0.495E-02 0.139E-02
   -.230E+01 -.120E+02 0.230E+01   0.227E+01 0.105E+02 -.227E+01   0.223E-01 0.150E+01 -.223E-01   -.168E-02 0.561E-02 0.167E-02
   -.132E+01 0.108E-08 -.132E+01   0.636E+00 0.214E-06 0.636E+00   0.700E+00 0.000E+00 0.700E+00   0.222E-02 0.372E-06 0.222E-02
   0.937E+01 0.756E-06 0.937E+01   -.757E+01 0.726E-04 -.757E+01   -.184E+01 0.000E+00 -.184E+01   0.779E-03 0.683E-06 0.779E-03
   0.108E+02 -.154E+02 0.287E+01   -.103E+02 0.148E+02 -.245E+01   -.532E+00 0.590E+00 -.378E+00   0.168E-02 0.443E-02 0.552E-03
   0.287E+01 -.154E+02 0.108E+02   -.245E+01 0.148E+02 -.103E+02   -.378E+00 0.590E+00 -.532E+00   0.553E-03 0.443E-02 0.168E-02
   -.453E+01 0.402E-06 0.136E+02   0.552E+01 0.382E-04 -.119E+02   -.107E+01 0.000E+00 -.163E+01   -.225E-02 -.502E-06 0.455E-03
   -.136E+02 0.402E-06 0.453E+01   0.119E+02 0.382E-04 -.552E+01   0.163E+01 0.000E+00 0.107E+01   -.446E-03 -.502E-06 0.224E-02
   -.109E+02 0.203E+02 0.109E+02   0.981E+01 -.185E+02 -.981E+01   0.106E+01 -.169E+01 -.106E+01   -.138E-02 -.495E-02 0.138E-02
   -.230E+01 0.120E+02 0.230E+01   0.227E+01 -.105E+02 -.227E+01   0.223E-01 -.150E+01 -.223E-01   -.168E-02 -.561E-02 0.167E-02
   0.117E+02 0.807E-06 0.117E+02   -.109E+02 0.771E-04 -.109E+02   -.831E+00 0.000E+00 -.831E+00   0.203E-02 -.699E-06 0.203E-02
   0.108E+02 0.154E+02 0.287E+01   -.103E+02 -.148E+02 -.245E+01   -.532E+00 -.590E+00 -.378E+00   0.168E-02 -.443E-02 0.552E-03
   0.287E+01 0.154E+02 0.108E+02   -.245E+01 -.148E+02 -.103E+02   -.378E+00 -.590E+00 -.532E+00   0.553E-03 -.443E-02 0.168E-02
   0.121E-03 0.228E-07 0.121E-03   -.172E-03 0.215E-05 -.172E-03   0.847E-21 0.000E+00 0.254E-20   0.622E-05 -.214E-06 0.622E-05
 -----------------------------------------------------------------------------------------------
   0.824E-03 0.412E-03 0.824E-03   -.175E-13 0.835E-14 0.359E-13   0.555E-15 -.333E-15 -.888E-15   -.954E-05 0.109E-05 -.954E-05
 
 
 POSITION                                       TOTAL-FORCE (eV/Angst)
 -----------------------------------------------------------------------------------
      8.01602      0.00000      8.01602         0.039707      0.000000      0.039707
      2.04430      0.00000      2.04430        -0.014868      0.000000     -0.014868
      2.00945      2.00724     -0.01206        -0.044272      0.018826      0.004445
     -0.01206      2.00724      2.00945         0.004445      0.018826     -0.044272
      4.07318      0.00000      7.99570         0.010335      0.000000     -0.065788
      6.15664      0.00000      1.99211         0.065788      0.000000     -0.010335
      6.09150      1.93307      8.06084         0.008418     -0.019533     -0.008418
      4.17473      1.77179      1.89056         0.013050     -0.085353     -0.013050
     -0.05256      4.04353     -0.05256         0.013592      0.000000      0.013592
      2.00945      6.07981     -0.01206        -0.044272     -0.018826      0.004445
     -0.01206      6.07981      2.00945         0.004445     -0.018826     -0.044272
      4.10825      4.04353      0.04618         0.050024      0.000000     -0.080802
      6.01911      4.04353      1.95702         0.080802      0.000000     -0.050024
      6.09150      6.15399      8.06084         0.008418      0.019533     -0.008418
      4.17473      6.31527      1.89056         0.013050      0.085353     -0.013050
      7.99570      0.00000      4.07318        -0.065788      0.000000      0.010335
      1.99211      0.00000      6.15664        -0.010335      0.000000      0.065788
      1.89056      1.77179      4.17473        -0.013050     -0.085353      0.013050
      8.06084      1.93307      6.09150        -0.008418     -0.019533      0.008418
      4.02099      0.00000      4.02099         0.014868      0.000000      0.014868
      6.13632      0.00000      6.13632        -0.039707      0.000000     -0.039707
      6.07735      2.00724      4.05585        -0.004445      0.018826      0.044272
      4.05585      2.00724      6.07735         0.044272      0.018826     -0.004445
      0.04618      4.04353      4.10825        -0.080802      0.000000      0.050024
      1.95702      4.04353      6.01911        -0.050024      0.000000      0.080802
      1.89056      6.31527      4.17473        -0.013050      0.085353      0.013050
      8.06084      6.15399      6.09150        -0.008418      0.019533      0.008418
      6.11785      4.04353      6.11785        -0.013592      0.000000     -0.013592
      6.07735      6.07981      4.05585        -0.004445     -0.018826      0.044272
      4.05585      6.07981      6.07735         0.044272     -0.018826     -0.004445
      3.03268      4.04353      3.03268         0.000000      0.000000      0.000000
 -----------------------------------------------------------------------------------
    total drift:                                0.000814      0.000413      0.000814
 d Force = 0.1584514E-01[ 0.127E-01, 0.190E-01]  d Energy = 0.1588914E-01-0.440E-04
 d Force =-0.2264446E+01[-0.231E+01,-0.221E+01]  d Ewald  =-0.2264466E+01 0.199E-04


--------------------------------------------------------------------------------------------------------


    POTLOK:  cpu time    0.16: real time    0.16


--------------------------------------------------------------------------------------------------------


 NEB: the previous image is higher in energy: F
 NEB: the next image is higher in energy    : F
 NEB: image is at an extrema
 NEB: diff energy (min, max):    97.987806   97.987806

 NEB: Tangent
 ----------------------------------------------
     -0.00187      0.00000     -0.00187
      0.00297      0.00000      0.00297
      0.00457      0.01478      0.01566
      0.01566      0.01478      0.00457
      0.00147      0.00000      0.00146
      0.00147      0.00000      0.00147
     -0.00337      0.00000     -0.00337
     -0.01339      0.00001     -0.01337
      0.01622      0.00000      0.01622
      0.00457     -0.01478      0.01566
      0.01566     -0.01478      0.00457
     -0.01151      0.00000      0.01761
      0.01760      0.00000     -0.01150
     -0.00337      0.00000     -0.00337
     -0.01339     -0.00001     -0.01337
      0.00146      0.00000      0.00147
      0.00147      0.00000      0.00147
     -0.01337      0.00001     -0.01339
     -0.00337      0.00000     -0.00337
      0.00298      0.00000      0.00298
     -0.00188      0.00000     -0.00188
      0.01564     -0.01477      0.00456
      0.00456     -0.01477      0.01564
      0.01761      0.00000     -0.01151
     -0.01150      0.00000      0.01760
     -0.01337     -0.00001     -0.01339
     -0.00337      0.00000     -0.00337
      0.01620      0.00000      0.01620
      0.01564      0.01477      0.00456
      0.00456      0.01477      0.01564
      0.70417      0.00000      0.70417

 NEB: forces: par spring, perp REAL, dneb     0.000276    0.336250    0.000000
 NEB: distance to prev, next image, angle between     1.469580    1.469525  126.392379
 NEB: projections on to tangent (spring, REAL)    -0.000276   -0.000006

  FORCES: max atom, RMS     0.095034    0.060392
  FORCE total and by dimension    0.336250    0.085353
 Quasi-Newton relaxation of ions (Broydens 2nd method)
  g(Force)  = 0.545E-02   g(Stress)= 0.000E+00

 retain information from N=  2 steps
 eigenvalues of (default step * inverse Hessian matrix)
  average eigenvalue of G=   6.2877
 eigenvalue spectrum of G is  6.2877  6.2877


--------------------------------------------------------------------------------------------------------


  
 reached required accuracy - stopping structural energy minimisation
     LOOP+:  cpu time    5.12: real time    5.13
    4ORBIT:  cpu time    0.00: real time    0.00

 total amount of memory used by VASP on root node  59220. kBytes
========================================================================

   base      :    30000. kBytes
   nonl-proj :     3893. kBytes
   fftplans  :     2983. kBytes
   grid      :    21626. kBytes
   one-center:       95. kBytes
   wavefun   :      623. kBytes
 
  
  
 General timing and accounting informations for this job:
 ========================================================
  
                  Total CPU time used (sec):       44.481
                            User time (sec):       44.335
                          System time (sec):        0.146
                         Elapsed time (sec):       44.717
  
                   Maximum memory used (kb):           0.
                   Average memory used (kb):           0.
  
                          Minor page faults:        23042
                          Major page faults:            0
                 Voluntary context switches:         2742
