   31   31  191    1
  0.1645095E+02  0.7989462E-09  0.7989462E-09  0.7989462E-09  0.5000000E-15
  1.000000000000000E-004
  CAR 
 unknown system                          
   93    1   62
 
  0.0000000E+00  0.0000000E+00  0.0000000E+00  0.1000000E+01
   1       -3.230182
   2       -1.156869
   3       -1.006746
   4       -0.977294
   5       -0.883486
   6       -0.792930
   7       -0.676299
   8        1.095077
   9        1.117737
  10        1.155388
  11        1.278521
  12        1.303299
  13        1.306865
  14        1.340142
  15        1.357987
  16        1.472205
  17        1.496865
  18        1.583684
  19        2.165070
  20        3.390494
  21        3.468015
  22        3.472268
  23        3.572839
  24        3.584820
  25        3.666231
  26        4.036393
  27        4.137361
  28        5.175047
  29        5.184017
  30        5.209995
  31        6.402926
  32        6.601910
  33        6.693870
  34        6.993693
  35        7.017430
  36        7.162180
  37        7.216763
  38        7.257716
  39        7.310757
  40        7.327575
  41        7.334655
  42        7.408507
  43        7.560985
  44        7.587581
  45        7.677433
  46        7.803893
  47        8.235521
  48        8.348063
  49        8.418318
  50        8.462605
  51        8.539741
  52        9.037904
  53        9.135703
  54        9.204497
  55        9.262411
  56        9.329807
  57        9.369321
  58        9.389719
  59        9.456708
  60        9.495834
  61        9.533659
  62        9.559517
