       N       E                     dE             d eps       ncg     rms          rms(c)
RMM:   1     0.468755639897E+03    0.46876E+03   -0.22553E+04   336   0.626E+02
RMM:   2     0.402254266451E+02   -0.42853E+03   -0.41539E+03   336   0.143E+02
RMM:   3    -0.661874619621E+02   -0.10641E+03   -0.95307E+02   336   0.621E+01
RMM:   4    -0.102068680047E+03   -0.35881E+02   -0.26268E+02   336   0.533E+01
RMM:   5    -0.115754560821E+03   -0.13686E+02   -0.10874E+02   336   0.402E+01
RMM:   6    -0.122145095109E+03   -0.63905E+01   -0.57117E+01   336   0.269E+01
RMM:   7    -0.125573060554E+03   -0.34280E+01   -0.29512E+01   336   0.200E+01
RMM:   8    -0.127263054484E+03   -0.16900E+01   -0.15567E+01   336   0.134E+01
RMM:   9    -0.128971372683E+03   -0.17083E+01   -0.16213E+01   883   0.980E+00
RMM:  10    -0.129128900820E+03   -0.15753E+00   -0.11003E+00   900   0.126E+00
RMM:  11    -0.129136103113E+03   -0.72023E-02   -0.47850E-02   818   0.714E-01
RMM:  12    -0.129137187654E+03   -0.10845E-02   -0.98102E-03   715   0.109E-01    0.143E+01
RMM:  13    -0.125799005992E+03    0.33382E+01   -0.59723E+01   757   0.228E+01    0.615E+00
RMM:  14    -0.123655511141E+03    0.21435E+01   -0.28793E+00   733   0.620E+00    0.271E+00
RMM:  15    -0.123466625501E+03    0.18889E+00   -0.17027E+00   746   0.387E+00    0.178E+00
RMM:  16    -0.123360434265E+03    0.10619E+00   -0.82583E-02   787   0.961E-01    0.567E-01
RMM:  17    -0.123348086511E+03    0.12348E-01   -0.49412E-02   806   0.718E-01    0.864E-02
RMM:  18    -0.123348411879E+03   -0.32537E-03   -0.74835E-03   833   0.254E-01    0.946E-02
RMM:  19    -0.123348123253E+03    0.28863E-03   -0.75432E-04   729   0.882E-02    0.186E-02
RMM:  20    -0.123348130416E+03   -0.71628E-05   -0.41357E-05   456   0.254E-02
   1 F= -.12334813E+03 E0= -.12334602E+03  d E =-.633874E-02
