/home/usitguest/MAST-structopt_VASP/MAST/structopt_stem/examples/STEM/Au309-rank0/LAMMPSFiles/rank-22/data_lammps0000010EYmSa (written by ASE) 

309 	 atoms 
1  atom types
0.0 500.00000000  xlo xhi
0.0 500.00000000  ylo yhi
0.0 500.00000000  zlo zhi


Atoms 

     1   1 266.84900000 259.09700000 268.66600000
     2   1 269.18600000 268.21000000 264.18500000
     3   1 257.38800000 256.43000000 254.52500000
     4   1 258.86300000 265.51800000 264.14400000
     5   1 262.86000000 256.01600000 257.52700000
     6   1 258.72700000 269.98400000 259.64300000
     7   1 263.07400000 269.59200000 257.49000000
     8   1 261.31300000 266.96800000 267.96600000
     9   1 263.06900000 256.86000000 264.04000000
    10   1 266.22700000 266.46700000 259.72000000
    11   1 252.48100000 267.22700000 262.90800000
    12   1 264.54200000 255.03700000 254.05700000
    13   1 258.52700000 265.37200000 252.31800000
    14   1 259.46800000 267.62400000 265.73900000
    15   1 270.18300000 261.93800000 265.27000000
    16   1 256.71900000 268.68200000 255.50800000
    17   1 260.29000000 269.76300000 263.89600000
    18   1 261.13200000 269.65700000 268.50500000
    19   1 258.14000000 267.99500000 263.48000000
    20   1 255.44200000 252.76800000 261.37800000
    21   1 258.52100000 255.19300000 256.69500000
    22   1 256.26800000 259.31800000 269.15900000
    23   1 255.44700000 261.61600000 264.77600000
    24   1 265.12300000 265.87700000 264.91800000
    25   1 262.87000000 260.87500000 265.78200000
    26   1 265.87400000 252.41900000 258.17200000
    27   1 264.21900000 261.14000000 256.74600000
    28   1 254.95500000 266.78700000 258.68900000
    29   1 256.54900000 266.47000000 265.08900000
    30   1 263.93400000 265.10700000 267.53300000
    31   1 257.30400000 268.08200000 260.88300000
    32   1 260.70400000 255.91100000 264.76800000
    33   1 255.68900000 256.09800000 263.50700000
    34   1 263.44600000 253.69300000 259.25300000
    35   1 268.82000000 262.40700000 260.70300000
    36   1 257.33700000 263.43900000 256.53800000
    37   1 263.47900000 265.65200000 257.10200000
    38   1 263.95500000 267.82600000 255.66000000
    39   1 261.53600000 262.47900000 251.11000000
    40   1 268.24300000 255.56200000 258.42600000
    41   1 258.73900000 268.19700000 268.23200000
    42   1 268.33900000 261.88900000 263.29800000
    43   1 260.55000000 271.13700000 261.27700000
    44   1 261.21600000 261.58800000 268.87900000
    45   1 264.13700000 257.62600000 252.68700000
    46   1 258.39500000 259.13100000 262.74400000
    47   1 255.40500000 263.99300000 258.28100000
    48   1 257.28400000 265.68000000 259.54900000
    49   1 260.99300000 266.79500000 254.58600000
    50   1 252.44900000 264.49500000 262.13700000
    51   1 255.30600000 261.10700000 257.81400000
    52   1 266.47600000 263.85900000 260.49000000
    53   1 265.27300000 256.44600000 256.26300000
    54   1 268.21600000 264.44100000 268.88600000
    55   1 257.11400000 269.02100000 265.86600000
    56   1 265.50400000 256.31600000 265.25400000
    57   1 261.42100000 258.28000000 253.13100000
    58   1 259.02000000 267.59800000 256.35400000
    59   1 256.37700000 266.30100000 254.05900000
    60   1 259.86200000 262.56000000 257.42300000
    61   1 261.60100000 258.41300000 259.37500000
    62   1 259.67000000 258.34700000 264.99800000
    63   1 265.93800000 253.48700000 260.72600000
    64   1 264.97900000 271.43600000 258.06700000
    65   1 268.36900000 263.73200000 266.24300000
    66   1 260.83100000 260.99300000 253.29400000
    67   1 267.56300000 261.83900000 253.70900000
    68   1 262.02800000 255.83600000 260.03700000
    69   1 254.55800000 265.64500000 263.45600000
    70   1 263.07800000 262.93200000 270.49400000
    71   1 263.10000000 259.77200000 268.24200000
    72   1 254.72800000 264.12400000 265.79500000
    73   1 256.98700000 263.45800000 261.14300000
    74   1 261.90200000 254.53000000 255.32700000
    75   1 267.03700000 258.54500000 265.92900000
    76   1 264.71400000 257.80000000 267.36100000
    77   1 263.97800000 254.32400000 264.08700000
    78   1 257.03700000 254.97100000 261.38500000
    79   1 261.59600000 260.15800000 261.39500000
    80   1 266.62100000 256.88100000 253.68000000
    81   1 267.19900000 268.09000000 266.17100000
    82   1 261.27900000 258.10600000 256.74200000
    83   1 262.10000000 258.25600000 266.27500000
    84   1 252.66900000 260.96600000 258.82400000
    85   1 256.10100000 254.05200000 256.22100000
    86   1 260.15500000 256.52500000 254.92300000
    87   1 254.21300000 258.71800000 257.27400000
    88   1 265.77600000 263.92000000 253.62900000
    89   1 258.76600000 265.27600000 254.99400000
    90   1 269.30000000 266.26100000 266.79400000
    91   1 267.93400000 256.91300000 256.06200000
    92   1 259.42100000 265.89700000 261.54600000
    93   1 264.43300000 267.57700000 261.56500000
    94   1 261.85700000 268.74000000 265.96700000
    95   1 254.81000000 264.94500000 260.71500000
    96   1 263.02800000 257.87300000 261.59700000
    97   1 262.32000000 271.65000000 259.14000000
    98   1 259.51000000 270.28200000 266.42900000
    99   1 260.05100000 265.17100000 266.45800000
   100   1 256.86900000 265.89500000 262.28800000
   101   1 259.54600000 267.30300000 259.18300000
   102   1 263.34300000 252.83900000 261.83900000
   103   1 257.54300000 262.08800000 258.90600000
   104   1 258.26300000 258.68100000 267.34400000
   105   1 259.08800000 270.11300000 254.99000000
   106   1 268.26500000 267.04400000 261.82800000
   107   1 261.49400000 267.35300000 257.26300000
   108   1 263.69000000 268.05600000 264.14800000
   109   1 264.04900000 263.56400000 255.66300000
   110   1 263.15400000 262.89400000 253.21300000
   111   1 264.21500000 260.09500000 262.35200000
   112   1 259.41800000 254.03300000 263.16600000
   113   1 255.67200000 259.51700000 266.50100000
   114   1 262.70900000 259.72200000 255.00900000
   115   1 258.96500000 262.66700000 252.14300000
   116   1 262.43700000 266.11200000 265.61300000
   117   1 270.11800000 264.03800000 257.31700000
   118   1 256.77800000 253.62600000 263.74500000
   119   1 265.37400000 262.03300000 251.67300000
   120   1 255.65100000 254.97700000 266.06600000
   121   1 268.88800000 261.56300000 256.14200000
   122   1 264.92300000 270.08100000 262.64300000
   123   1 257.17300000 268.27300000 258.21100000
   124   1 254.41000000 259.34100000 259.99200000
   125   1 262.62000000 260.22700000 270.84000000
   126   1 263.26300000 265.61300000 263.00000000
   127   1 267.80700000 265.96200000 264.54700000
   128   1 263.37100000 268.25200000 269.19800000
   129   1 260.03300000 261.00800000 263.68100000
   130   1 261.53600000 269.08300000 259.61400000
   131   1 259.73900000 272.22300000 258.50300000
   132   1 255.24600000 257.16200000 267.82900000
   133   1 261.03000000 267.12100000 263.57000000
   134   1 256.10100000 256.69600000 256.87800000
   135   1 257.67000000 260.80900000 256.52100000
   136   1 261.66400000 271.78000000 256.44600000
   137   1 262.06000000 259.31400000 263.84000000
   138   1 253.34500000 262.71400000 256.86900000
   139   1 256.78500000 263.91100000 264.09400000
   140   1 252.48500000 261.80500000 261.54200000
   141   1 257.51200000 260.95200000 253.73700000
   142   1 267.37600000 261.82300000 268.33800000
   143   1 254.88800000 262.11000000 260.18900000
   144   1 265.54800000 263.75800000 269.29500000
   145   1 263.32600000 260.25200000 252.37600000
   146   1 266.64100000 268.98100000 260.79300000
   147   1 264.65000000 263.41000000 262.56700000
   148   1 268.84800000 259.93000000 252.16800000
   149   1 268.07700000 257.40900000 262.73400000
   150   1 268.79000000 259.84500000 261.68100000
   151   1 258.63600000 267.77500000 253.64800000
   152   1 262.46800000 262.02000000 263.25200000
   153   1 253.18900000 259.00400000 267.40700000
   154   1 260.22400000 260.57700000 266.48800000
   155   1 252.78000000 263.63600000 259.47900000
   156   1 261.19700000 257.85300000 271.03200000
   157   1 254.94200000 264.48400000 255.56500000
   158   1 261.87900000 266.77200000 261.01300000
   159   1 267.46300000 261.25700000 265.66100000
   160   1 258.57200000 253.95000000 259.11700000
   161   1 257.05700000 257.22600000 265.59200000
   162   1 264.51800000 258.92200000 264.90700000
   163   1 259.89500000 260.30800000 271.05700000
   164   1 258.01000000 270.42400000 262.30700000
   165   1 259.25800000 263.05600000 267.82800000
   166   1 265.30000000 260.50100000 266.97200000
   167   1 261.25100000 264.62800000 256.14600000
   168   1 256.24900000 258.93600000 255.31000000
   169   1 259.16000000 261.18300000 261.01800000
   170   1 268.75600000 257.86400000 259.87800000
   171   1 258.31300000 256.49500000 263.31800000
   172   1 256.76600000 258.91800000 258.41500000
   173   1 252.26800000 265.11200000 264.83700000
   174   1 265.59300000 255.09400000 258.51400000
   175   1 259.01100000 258.29900000 260.33400000
   176   1 256.93400000 263.62600000 253.85000000
   177   1 265.68300000 268.59500000 257.97400000
   178   1 260.86000000 253.34400000 260.60700000
   179   1 258.52400000 260.80000000 268.82400000
   180   1 253.79300000 261.65600000 266.84200000
   181   1 261.55300000 264.33000000 268.68700000
   182   1 265.51200000 264.34100000 258.05400000
   183   1 253.05000000 265.37300000 257.42300000
   184   1 254.69800000 267.53300000 261.28900000
   185   1 257.65800000 270.76600000 257.22000000
   186   1 254.30800000 255.28700000 261.34600000
   187   1 266.01500000 265.64100000 262.37900000
   188   1 266.60300000 263.66000000 264.24300000
   189   1 261.79900000 255.04700000 262.52500000
   190   1 265.06000000 261.05300000 269.67700000
   191   1 268.28300000 264.24300000 255.15000000
   192   1 270.21500000 264.72100000 264.52000000
   193   1 253.96000000 267.16100000 265.62000000
   194   1 268.80200000 265.12900000 259.87100000
   195   1 256.47500000 257.64000000 261.37100000
   196   1 267.79000000 265.70600000 257.46800000
   197   1 269.10000000 259.02600000 257.32700000
   198   1 260.60800000 258.99100000 268.62900000
   199   1 259.40300000 260.05900000 258.44700000
   200   1 265.22100000 258.76700000 254.97700000
   201   1 270.19800000 261.42100000 258.54200000
   202   1 266.69800000 256.24500000 260.65300000
   203   1 266.71700000 259.66700000 263.46100000
   204   1 261.04300000 254.03300000 257.91300000
   205   1 255.41500000 261.77900000 255.23400000
   206   1 257.66100000 256.05900000 268.07900000
   207   1 263.54300000 262.44800000 267.87700000
   208   1 259.53000000 255.69700000 260.96600000
   209   1 269.15800000 259.92100000 267.22700000
   210   1 261.67900000 269.30600000 255.17100000
   211   1 257.87000000 260.32600000 265.22300000
   212   1 254.22400000 257.34200000 265.34400000
   213   1 264.45900000 267.70900000 266.77100000
   214   1 263.95300000 264.95200000 260.30400000
   215   1 261.19600000 264.29000000 264.07400000
   216   1 261.16900000 262.07400000 259.64100000
   217   1 260.07800000 260.20000000 255.74400000
   218   1 267.92200000 259.28000000 254.68700000
   219   1 262.97600000 255.65600000 266.43600000
   220   1 263.57600000 267.35700000 259.05300000
   221   1 266.14400000 259.52400000 252.54300000
   222   1 258.52300000 258.03900000 270.01400000
   223   1 263.87500000 259.81000000 259.61600000
   224   1 257.51800000 256.42900000 259.13000000
   225   1 259.29600000 263.84900000 259.88700000
   226   1 265.78700000 265.70100000 255.66200000
   227   1 252.54300000 266.34500000 260.06600000
   228   1 263.56300000 262.19500000 260.62500000
   229   1 263.03200000 263.12500000 258.09600000
   230   1 258.93400000 262.87300000 265.22200000
   231   1 258.83500000 258.67300000 253.94300000
   232   1 254.68100000 260.52800000 262.37400000
   233   1 259.60400000 263.04500000 270.50600000
   234   1 256.58500000 263.73700000 251.15400000
   235   1 261.48500000 265.15600000 258.92700000
   236   1 266.33600000 261.47200000 261.52200000
   237   1 262.96700000 257.03000000 255.01500000
   238   1 264.18900000 253.84500000 256.55100000
   239   1 268.40900000 264.39600000 262.43200000
   240   1 260.04700000 256.49100000 258.40900000
   241   1 264.33900000 257.17400000 259.48700000
   242   1 257.11500000 263.53700000 269.36100000
   243   1 262.36400000 269.23500000 262.16600000
   244   1 262.48500000 257.04700000 268.75000000
   245   1 260.14700000 256.66600000 267.27000000
   246   1 265.37100000 257.44900000 262.80500000
   247   1 257.38000000 264.63100000 266.76800000
   248   1 257.28800000 261.54200000 262.94100000
   249   1 254.45200000 267.21600000 255.95600000
   250   1 267.77900000 260.39100000 259.24300000
   251   1 253.90700000 257.90000000 262.39800000
   252   1 256.79400000 261.99500000 267.06600000
   253   1 270.03100000 262.47500000 267.98800000
   254   1 256.76300000 266.05900000 256.77600000
   255   1 253.44000000 259.81000000 264.68800000
   256   1 261.43300000 262.95600000 266.34600000
   257   1 265.49300000 266.54300000 269.32400000
   258   1 264.24200000 255.39900000 261.51000000
   259   1 270.77000000 262.86000000 262.58000000
   260   1 266.61200000 260.09300000 256.87300000
   261   1 265.07000000 261.52100000 264.43000000
   262   1 255.46800000 268.46900000 263.64300000
   263   1 261.64200000 264.02900000 261.43900000
   264   1 264.99100000 261.30400000 254.26600000
   265   1 259.86300000 268.51400000 261.56900000
   266   1 260.60100000 257.58500000 262.48200000
   267   1 252.81700000 262.46700000 264.32400000
   268   1 266.91600000 254.29800000 256.21300000
   269   1 266.58300000 257.82700000 258.24900000
   270   1 256.78900000 260.21000000 260.70800000
   271   1 260.86700000 264.26600000 253.42600000
   272   1 267.88700000 263.00600000 258.29600000
   273   1 266.61100000 265.63500000 267.07800000
   274   1 266.50900000 254.96500000 263.06100000
   275   1 262.87600000 270.73000000 264.41600000
   276   1 263.34500000 265.57200000 254.12900000
   277   1 261.92400000 260.50600000 257.70800000
   278   1 266.42000000 262.64800000 256.13100000
   279   1 263.64500000 263.67900000 265.10400000
   280   1 258.39000000 254.88600000 265.64700000
   281   1 256.01000000 258.87900000 263.85700000
   282   1 264.52700000 258.35000000 270.08600000
   283   1 258.19400000 252.46900000 261.36000000
   284   1 270.71500000 265.65400000 261.90200000
   285   1 265.55700000 261.80000000 258.90300000
   286   1 261.86600000 262.16000000 255.54400000
   287   1 270.20600000 291.00800000 274.69300000
   288   1 265.40700000 269.91900000 265.28900000
   289   1 266.18800000 258.89800000 260.75800000
   290   1 257.21800000 261.31600000 271.08000000
   291   1 255.08900000 261.72900000 269.22700000
   292   1 263.57800000 270.32500000 267.28500000
   293   1 259.12800000 265.18700000 257.62500000
   294   1 260.20800000 269.72900000 257.43900000
   295   1 263.11600000 271.87300000 261.77700000
   296   1 254.85400000 256.85500000 259.25300000
   297   1 259.04900000 265.52400000 268.96900000
   298   1 259.23300000 263.37200000 262.56400000
   299   1 259.28200000 262.63500000 254.85500000
   300   1 265.74900000 263.15300000 266.65900000
   301   1 255.81700000 254.29900000 259.00400000
   302   1 269.23200000 259.46400000 264.42800000
   303   1 267.61100000 270.30100000 263.19700000
   304   1 254.75200000 263.13000000 262.64500000
   305   1 264.11700000 269.81700000 260.07100000
   306   1 263.88700000 258.54800000 257.26500000
   307   1 266.33500000 267.98000000 263.56500000
   308   1 258.55400000 258.02500000 256.64600000
   309   1 271.10800000 263.67400000 259.92500000
