    8    8  191    2
  0.9938375E+01  0.4300000E-09  0.4300000E-09  0.4300000E-09  0.5000000E-15
  1.000000000000000E-004
  CAR 
 bulk MgO relaxation                     
   56    1   37
 
  0.2500000E+00  0.2500000E+00  0.2500000E+00  0.1000000E+01
   1      -35.331340    -35.331369
   2      -35.331340    -35.331369
   3      -35.331340    -35.331368
   4      -35.309189    -35.309217
   5      -35.297859    -35.297887
   6      -35.297859    -35.297887
   7      -35.297859    -35.297887
   8      -35.287506    -35.287534
   9      -35.287505    -35.287534
  10      -35.287505    -35.287534
  11      -35.274578    -35.274607
  12      -35.274578    -35.274607
  13      -12.602041    -12.602052
  14      -11.827260    -11.827272
  15      -11.827260    -11.827272
  16      -11.827260    -11.827272
  17        0.202435      0.202426
  18        0.202435      0.202426
  19        0.202435      0.202426
  20        1.302198      1.302189
  21        2.052222      2.052210
  22        2.052222      2.052210
  23        2.052222      2.052210
  24        2.916831      2.916818
  25        2.916832      2.916819
  26        2.916832      2.916819
  27        3.571119      3.571105
  28        3.571119      3.571105
  29       10.785478     10.785477
  30       13.444142     13.444138
  31       13.444143     13.444138
  32       13.444143     13.444138
  33       15.269084     15.269080
  34       15.269084     15.269080
  35       15.269084     15.269080
  36       16.333525     16.333516
  37       16.962747     16.962756
