    7    7  100    2
  0.2544720E+02  0.5626600E-09  0.5626600E-09  0.5626600E-09  0.5000000E-15
  1.000000000000000E-004
  CAR 
 unknown system                          
   59    1   39
 
  0.2500000E+00  0.2500000E+00  0.2500000E+00  0.1000000E+01
   1      -12.514305    -12.500614
   2      -12.486960    -12.474612
   3      -12.486960    -12.474612
   4      -12.455465    -12.445004
   5      -12.429248    -12.420634
   6      -12.429248    -12.420634
   7      -12.403766    -12.396251
   8      -12.403765    -12.396251
   9      -12.398862    -12.391427
  10      -12.384099    -12.377739
  11      -12.384098    -12.377738
  12      -12.371348    -12.365175
  13      -12.368278    -12.363731
  14      -12.354841    -12.350602
  15      -12.354840    -12.350601
  16       -9.304570     -9.135059
  17       -8.150488     -7.964776
  18       -8.150488     -7.964776
  19       -7.886406     -7.680535
  20       -3.661176     -3.566704
  21       -3.661176     -3.566704
  22       -2.253583     -2.103296
  23       -0.638858     -0.524423
  24       -0.638858     -0.524423
  25       -0.550765     -0.333572
  26        0.437398      0.557618
  27        0.577638      0.835063
  28        1.105149      1.282066
  29        1.105149      1.282066
  30        2.299247      2.566170
  31        2.299247      2.566170
  32        4.375503      4.488165
  33        4.830349      4.920807
  34        4.830349      4.920808
  35        6.270260      6.380112
  36        7.109402      7.215974
  37        7.109402      7.215974
  38        7.639701      7.753945
  39        7.639701      7.753945
