       N       E                     dE             d eps       ncg     rms          rms(c)
DAV:   1     0.422989089373E+03    0.42299E+03   -0.20077E+04   170   0.166E+03
DAV:   2     0.364395788447E+02   -0.38655E+03   -0.37149E+03   164   0.461E+02
DAV:   3    -0.236983470348E+02   -0.60138E+02   -0.59435E+02   170   0.142E+02
DAV:   4    -0.264594933401E+02   -0.27611E+01   -0.27413E+01   184   0.364E+01
DAV:   5    -0.265115907485E+02   -0.52097E-01   -0.52061E-01   179   0.458E+00    0.121E+01
DAV:   6    -0.271084665851E+02   -0.59688E+00   -0.92412E-01   200   0.955E+00    0.468E+00
DAV:   7    -0.272391466031E+02   -0.13068E+00   -0.24286E-01   194   0.408E+00    0.167E+00
DAV:   8    -0.272262502151E+02    0.12896E-01   -0.12000E-01   192   0.141E+00    0.661E-01
DAV:   9    -0.272316307596E+02   -0.53805E-02   -0.20880E-02   170   0.680E-01    0.237E-01
DAV:  10    -0.272326500344E+02   -0.10193E-02   -0.27022E-03   184   0.334E-01    0.928E-02
DAV:  11    -0.272328909041E+02   -0.24087E-03   -0.63332E-04   155   0.174E-01    0.357E-02
DAV:  12    -0.272329731919E+02   -0.82288E-04   -0.12811E-04   144   0.762E-02
   1 F= -.27232973E+02 E0= -.27221310E+02  d E =-.272330E+02  mag=     1.1128
       N       E                     dE             d eps       ncg     rms          rms(c)
DAV:   1    -0.272733646236E+02   -0.40474E-01   -0.10922E+00   188   0.302E+00    0.151E-01
DAV:   2    -0.272791453919E+02   -0.57808E-02   -0.60641E-02   184   0.958E-01    0.758E-02
DAV:   3    -0.272791084303E+02    0.36962E-04   -0.76752E-04   171   0.139E-01
   2 F= -.27279108E+02 E0= -.27267645E+02  d E =-.461352E-01  mag=     1.1176
       N       E                     dE             d eps       ncg     rms          rms(c)
DAV:   1    -0.273084918351E+02   -0.29346E-01   -0.96232E+00   188   0.900E+00    0.476E-01
DAV:   2    -0.273641391003E+02   -0.55647E-01   -0.58696E-01   184   0.291E+00    0.237E-01
DAV:   3    -0.273637009454E+02    0.43815E-03   -0.72284E-03   179   0.430E-01    0.150E-01
DAV:   4    -0.273633042268E+02    0.39672E-03   -0.19028E-03   147   0.225E-01    0.578E-02
DAV:   5    -0.273633956377E+02   -0.91411E-04   -0.64630E-04   161   0.138E-01
   3 F= -.27363396E+02 E0= -.27352563E+02  d E =-.130422E+00  mag=     1.1304
       N       E                     dE             d eps       ncg     rms          rms(c)
DAV:   1    -0.270783434367E+02    0.28496E+00   -0.37876E+01   188   0.178E+01    0.107E+00
DAV:   2    -0.273410950727E+02   -0.26275E+00   -0.27909E+00   184   0.592E+00    0.498E-01
DAV:   3    -0.273375367103E+02    0.35584E-02   -0.34632E-02   172   0.931E-01    0.301E-01
DAV:   4    -0.273359424087E+02    0.15943E-02   -0.95410E-03   184   0.449E-01    0.120E-01
DAV:   5    -0.273362988743E+02   -0.35647E-03   -0.25855E-03   156   0.280E-01    0.605E-02
DAV:   6    -0.273363361140E+02   -0.37240E-04   -0.14663E-04   121   0.885E-02
   4 F= -.27336336E+02 E0= -.27325946E+02  d E =-.103363E+00  mag=     1.1399
       N       E                     dE             d eps       ncg     rms          rms(c)
DAV:   1    -0.273131887897E+02    0.23110E-01   -0.12651E+01   188   0.102E+01    0.570E-01
DAV:   2    -0.273802936923E+02   -0.67105E-01   -0.71124E-01   184   0.304E+00    0.272E-01
DAV:   3    -0.273792052742E+02    0.10884E-02   -0.94950E-03   172   0.481E-01    0.159E-01
DAV:   4    -0.273786498929E+02    0.55538E-03   -0.26573E-03   154   0.222E-01    0.655E-02
DAV:   5    -0.273787790540E+02   -0.12916E-03   -0.64328E-04   168   0.121E-01    0.290E-02
DAV:   6    -0.273787947840E+02   -0.15730E-04   -0.34577E-05    78   0.415E-02
   5 F= -.27378795E+02 E0= -.27368364E+02  d E =-.145822E+00  mag=     1.1392
