       N       E                     dE             d eps       ncg     rms          rms(c)
DAV:   1     0.827404011003E+03    0.82740E+03   -0.31580E+04   174   0.293E+03
DAV:   2     0.512825627183E+02   -0.77612E+03   -0.74770E+03   164   0.835E+02
DAV:   3    -0.475443661901E+02   -0.98827E+02   -0.97946E+02   168   0.217E+02
DAV:   4    -0.512872678129E+02   -0.37429E+01   -0.37315E+01   200   0.448E+01
DAV:   5    -0.513386923110E+02   -0.51424E-01   -0.51420E-01   174   0.553E+00    0.250E+01
