 vasp.5.2.2 15Apr09 complex 
 executed on             LinuxIFC date 2013.03.29  16:26:49
 running on    1 nodes
 distr:  one band on    1 nodes,    1 groups


--------------------------------------------------------------------------------------------------------


 INCAR:
 POTCAR:   PAW_GGA Mg_pv 10Feb1998                
 POTCAR:   PAW_GGA O 05Jan2001                    
 POTCAR:   PAW_GGA Mg_pv 10Feb1998                
   VRHFIN =Mg: p6s2                                                             
   LEXCH  = 91                                                                  
   EATOM  =  1058.0899 eV,   77.7674 Ry                                         
                                                                                
   TITEL  = PAW_GGA Mg_pv 10Feb1998                                             
   LULTRA =        F    use ultrasoft PP ?                                      
   IUNSCR =        1    unscreen: 0-lin 1-nonlin 2-no                           
   RPACOR =    1.670    partial core radius                                     
   POMASS =   24.305; ZVAL   =    8.000    mass and valenz                      
   RCORE  =    2.000    outmost cutoff radius                                   
   RWIGS  =    2.000; RWIGS  =    1.058    wigner-seitz radius (au A)           
   ENMAX  =  265.602; ENMIN  =  199.201 eV                                      
   ICORE  =        2    local potential                                         
   LCOR   =        T    correct aug charges                                     
   LPAW   =        T    paw PP                                                  
   EAUG   =  458.128                                                            
   DEXC   =    -.001                                                            
   RMAX   =    2.829    core radius for proj-oper                               
   RDEP   =    2.025    core radius for depl-charge                             
   QCUT   =   -4.418; QGAM   =    8.837    optimization parameters              
                                                                                
   Description                                                                  
     l     E      TYP  RCUT    TYP  RCUT                                        
     1   .000     23  2.000                                                     
     1  -.200     23  2.000                                                     
     0   .000     23  2.000                                                     
     0  1.500     23  2.000                                                     
     2   .000     23  2.000                                                     
  local pseudopotential read in
  partial core-charges read in
  atomic valenz-charges read in
  non local Contribution for L=           1  read in
    real space projection operators read in
  non local Contribution for L=           1  read in
    real space projection operators read in
  non local Contribution for L=           0  read in
    real space projection operators read in
  non local Contribution for L=           0  read in
    real space projection operators read in
    PAW grid and wavefunctions read in
 
   number of l-projection  operators is LMAX  =           4
   number of lm-projection operators is LMMAX =           8
 
 POTCAR:   PAW_GGA O 05Jan2001                    
   VRHFIN =O: s2p4                                                              
   LEXCH  = 91                                                                  
   EATOM  =   433.0277 eV,   31.8266 Ry                                         
                                                                                
   TITEL  = PAW_GGA O 05Jan2001                                                 
   LULTRA =        F    use ultrasoft PP ?                                      
   IUNSCR =        0    unscreen: 0-lin 1-nonlin 2-no                           
   RPACOR =     .000    partial core radius                                     
   POMASS =   16.000; ZVAL   =    6.000    mass and valenz                      
   RCORE  =    1.520    outmost cutoff radius                                   
   RWIGS  =    1.550; RWIGS  =     .820    wigner-seitz radius (au A)           
   ENMAX  =  400.000; ENMIN  =  300.000 eV                                      
   ICORE  =        2    local potential                                         
   LCOR   =        T    correct aug charges                                     
   LPAW   =        T    paw PP                                                  
   EAUG   =  605.392                                                            
   DEXC   =     .000                                                            
   RMAX   =    2.264    core radius for proj-oper                               
   RAUG   =    1.300    factor for augmentation sphere                          
   RDEP   =    1.550    radius for radial grids                                 
   QCUT   =   -5.520; QGAM   =   11.040    optimization parameters              
                                                                                
   Description                                                                  
     l     E      TYP  RCUT    TYP  RCUT                                        
     0   .000     23  1.200                                                     
     0  -.700     23  1.200                                                     
     1   .000     23  1.520                                                     
     1   .600     23  1.520                                                     
     2   .000      7  1.500                                                     
  local pseudopotential read in
  atomic valenz-charges read in
  non local Contribution for L=           0  read in
    real space projection operators read in
  non local Contribution for L=           0  read in
    real space projection operators read in
  non local Contribution for L=           1  read in
    real space projection operators read in
  non local Contribution for L=           1  read in
    real space projection operators read in
    PAW grid and wavefunctions read in
 
   number of l-projection  operators is LMAX  =           4
   number of lm-projection operators is LMMAX =           8
 
 PAW_GGA Mg_pv 10Feb1998                :
 energy of atom  1       EATOM=-1058.0899
 kinetic energy error for atom=    0.0015 (will be added to EATOM!!)
 PAW_GGA O 05Jan2001                    :
 energy of atom  2       EATOM= -433.0277
 kinetic energy error for atom=    0.0167 (will be added to EATOM!!)
 
 
 POSCAR: MgO                                     
  positions in direct lattice
  velocities in cartesian coordinates
 exchange correlation table for  LEXCH =        7
   RHO(1)=    0.500       N(1)  =     2000
   RHO(2)=  100.500       N(2)  =     4000

 VTST: version 2.03d, (02/18/09)

 CHAIN: initializing optimizer
 
 OPT: Using VASP Conjugate-Gradient optimizer
 CHAIN: Read ICHAIN            0
 


--------------------------------------------------------------------------------------------------------


 ion  position               nearest neighbor table
   1  0.000  0.000  0.000-   5 2.15   6 2.15   7 2.15   7 2.15   6 2.15   5 2.15
   2  0.500  0.500  0.000-   5 2.15   6 2.15   8 2.15   8 2.15   5 2.15   6 2.15
   3  0.000  0.500  0.500-   6 2.15   7 2.15   8 2.15   6 2.15   7 2.15   8 2.15
   4  0.500  0.000  0.500-   5 2.15   7 2.15   8 2.15   5 2.15   8 2.15   7 2.15
   5  0.500  0.000  0.000-   1 2.15   2 2.15   4 2.15   4 2.15   2 2.15   1 2.15
   6  0.000  0.500  0.000-   1 2.15   2 2.15   3 2.15   3 2.15   1 2.15   2 2.15
   7  0.000  0.000  0.500-   1 2.15   3 2.15   4 2.15   1 2.15   3 2.15   4 2.15
   8  0.500  0.500  0.500-   2 2.15   3 2.15   4 2.15   2 2.15   4 2.15   3 2.15
 
  LATTYP: Found a simple cubic cell.
 ALAT       =     4.3000000000
  
  Lattice vectors:
  
 A1 = (   4.3000000000,   0.0000000000,   0.0000000000)
 A2 = (   0.0000000000,   4.3000000000,   0.0000000000)
 A3 = (   0.0000000000,   0.0000000000,   4.3000000000)
 Subroutine PRICEL returns following result:
 
  LATTYP: Found a face centered cubic cell.
 ALAT       =     4.3000000000
  
  Lattice vectors:
  
 A1 = (   2.1500000000,   2.1500000000,   0.0000000000)
 A2 = (   2.1500000000,   0.0000000000,  -2.1500000000)
 A3 = (   0.0000000000,   2.1500000000,  -2.1500000000)
 
   4 primitive cells build up your supercell.
 

Analysis of symmetry for initial positions (statically):

 Routine SETGRP: Setting up the symmetry group for a 
 simple cubic supercell.


 Subroutine GETGRP returns: Found 48 space group operations
 (whereof 48 operations were pure point group operations)
 out of a pool of 48 trial point group operations.


The static configuration has the point symmetry O_h .

Analysis of symmetry for dynamics (positions and initial velocities):

 Subroutine DYNSYM returns: Found 48 space group operations
 (whereof 48 operations were pure point group operations)
 out of a pool of 48 trial space group operations
 (whereof 48 operations were pure point group operations)
 and found also     4 'primitive' translations


The dynamic configuration has the point symmetry O_h .

Analysis of magnetic symmetry:

 Subroutine MAGSYM returns: Found 48 space group operations
 (whereof 48 operations were pure point group operations)
 out of a pool of 48 trial space group operations
 (whereof 48 operations were pure point group operations)
 and found also     4 'primitive' translations


The magnetic configuration has the point symmetry O_h .
 
 
 KPOINTS: KPOINTS File, automatically generated by

Automatic generation of k-mesh.
 
 Subroutine IBZKPT returns following result:
 ===========================================
 
 Found      1 irreducible k-points:
 
 Following reciprocal coordinates:
            Coordinates               Weight
  0.250000  0.250000  0.250000      8.000000
 
 Following cartesian coordinates:
            Coordinates               Weight
  0.058140  0.058140  0.058140      8.000000
 


--------------------------------------------------------------------------------------------------------




 Dimension of arrays:
   k-points           NKPTS =      1   k-points in BZ     NKDIM =      1   number of bands    NBANDS=     37
   number of dos      NEDOS =    301   number of ions     NIONS =      8
   non local maximal  LDIM  =      4   non local SUM 2l+1 LMDIM =      8
   total plane-waves  NPLWV =  21952
   max r-space proj   IRMAX =      1   max aug-charges    IRDMAX=   5640
   dimension x,y,z NGX =    28 NGY =   28 NGZ =   28
   dimension x,y,z NGXF=    56 NGYF=   56 NGZF=   56
   support grid    NGXF=    56 NGYF=   56 NGZF=   56
   ions per type =               4   4
 NGX,Y,Z   is equivalent  to a cutoff of  10.83, 10.83, 10.83 a.u.
 NGXF,Y,Z  is equivalent  to a cutoff of  21.65, 21.65, 21.65 a.u.


 I would recommend the setting:
   dimension x,y,z NGX =    26 NGY =   26 NGZ =   26
 SYSTEM =  bulk MgO relaxation                     
 POSCAR =  MgO                                     

 Startparameter for this run:
   NWRITE =      2    write-flag & timer
   PREC   = normal    medium, high low
   ISTART =      0    job   : 0-new  1-cont  2-samecut
   ICHARG =      2    charge: 1-file 2-atom 10-const
   ISPIN  =      2    spin polarized calculation?
   LNONCOLLINEAR =      F non collinear calculations
   LSORBIT =      F    spin-orbit coupling
   INIWAV =      1    electr: 0-lowe 1-rand  2-diag
   LASPH  =      F    aspherical Exc in radial PAW
   METAGGA=      F    non-selfconsistent MetaGGA calc.

 Electronic Relaxation 1
   ENCUT  =  600.0 eV  44.10 Ry    6.64 a.u.   8.59  8.59  8.59*2*pi/ulx,y,z
   ENINI  =  600.0     initial cutoff
   ENAUG  =  605.4 eV  augmentation charge cutoff
   NELM   =     60;   NELMIN=  2; NELMDL=  0     # of ELM steps 
   EDIFF  = 0.1E-03   stopping-criterion for ELM
   LREAL  =      F    real-space projection
   LCOMPAT=      F    compatible to vasp.4.4
   LREAL_COMPAT= F    compatible to vasp.4.5.1-3
   GGA_COMPAT  = T    GGA compatible to vasp.4.4-vasp.4.6
   LMAXPAW     = -100 max onsite density
   LMAXMIX     =    2 max onsite mixed and CHGCAR
   VOSKOWN=      1    Vosko Wilk Nusair interpolation
   ROPT   =    0.00000   0.00000
 Ionic relaxation
   EDIFFG = 0.1E-02   stopping-criterion for IOM
   NSW    =    191    number of steps for IOM
   NBLOCK =      1;   KBLOCK =    191    inner block; outer block 
   IBRION =      2    ionic relax: 0-MD 1-quasi-New 2-CG
   NFREE  =      1    steps in history (QN), initial steepest desc. (CG)
   ISIF   =      3    stress and relaxation
   IWAVPR =     11    prediction:  0-non 1-charg 2-wave 3-comb
   ISYM   =      2    0-nonsym 1-usesym 2-fastsym
   LCORR  =      T    Harris-Foulkes like correction to forces

   POTIM  = 0.5000    time-step for ionic-motion
   TEIN   =    0.0    initial temperature
   TEBEG  =    0.0;   TEEND  =   0.0 temperature during run
   SMASS  =  -3.00    Nose mass-parameter (am)
   estimated Nose-frequenzy (Omega)   =  0.10E-29 period in steps =****** mass=  -0.423E-27a.u.
   NPACO  =    256;   APACO  = 16.0  distance and # of slots for P.C.
   PSTRESS=    0.0 pullay stress

  Mass of Ions in am
   POMASS =  24.30 16.00
  Ionic Valenz
   ZVAL   =   8.00  6.00
  Atomic Wigner-Seitz radii
   RWIGS  =  -1.00 -1.00
   NELECT =      56.0000    total number of electrons
   NUPDOWN=      -1.0000    fix difference up-down

 DOS related values:
   EMIN   =  10.00;   EMAX   =-10.00  energy-range for DOS
   EFERMI =   0.00
   ISMEAR =     0;   SIGMA  =   0.05  broadening in eV -4-tet -1-fermi 0-gaus

 Electronic relaxation 2 (details)
   IALGO  =     38    algorithm
   LDIAG  =      T    sub-space diagonalisation
   IMIX   =      4    mixing-type and parameters
     AMIX     =   0.40;   BMIX     =  1.00
     AMIX_MAG =   1.60;   BMIX_MAG =  1.00
     AMIN     =   0.10
     WC   =   100.;   INIMIX=   1;  MIXPRE=   1

 Intra band minimization:
   WEIMIN = 0.0010     energy-eigenvalue tresh-hold
   EBREAK =  0.68E-06  absolut break condition
   DEPER  =   0.30     relativ break condition  

   TIME   =   0.40     timestep for ELM

  volume/ion in A,a.u.               =       9.94        67.07
  Fermi-wavevector in a.u.,A,eV,Ry     =   1.456585  2.752546 28.866647  2.121639
  Thomas-Fermi vector in A             =   2.573486
 
 Write flags
   LWAVE  =      F    write WAVECAR
   LCHARG =      F    write CHGCAR
   LVTOT  =      F    write LOCPOT, local potential
   LELF   =      F    write electronic localiz. function (ELF)
   LORBIT =      0    0 simple, 1 ext, 2 COOP (PROOUT)


 Dipole corrections
   LMONO  =      F    monopole corrections only (constant potential shift)
   LDIPOL =      F    correct potential (dipole corrections)
   IDIPOL =      0    1-x, 2-y, 3-z, 4-all directions 
   EPSILON=  1.0000000 bulk dielectric constant

 Exchange correlation treatment:
   GGA     =    --    GGA type
   LEXCH   =     7    internal setting for exchange type
   VOSKOWN=      1    Vosko Wilk Nusair interpolation
   LHFCALC =     F    Hartree Fock is set to
   LHFONE  =     F    Hartree Fock one center treatment
   AEXX    =    0.0000 exact exchange contribution

 Linear response parameters
   LEPSILON=     F    determine dielectric tensor
   LRPA    =     F    only Hartree local field effects (RPA)
   LNABLA  =     F    use nabla operator in PAW spheres
   LVEL    =     F    velocity operator in full k-point grid
   LINTERFAST=   F  fast interpolation
   KINTER  =     0    interpolate to denser k-point grid
   CSHIFT  =0.1000    complex shift for real part using Kramers Kronig
   OMEGAMAX=  -1.0    maximum frequency

 Orbital magnetization related:
   ORBITALMAG=     F  switch on orbital magnetization
   LCHIMAG   =     F  perturbation theory with respect to B field



--------------------------------------------------------------------------------------------------------


 conjugate gradient relaxation of ions
 charge density and potential will be updated during run
 spin polarized calculation
 Variant of blocked Davidson
 Davidson routine will perform the subspace rotation
 perform sub-space diagonalisation
    after iterative eigenvector-optimisation
 modified Broyden-mixing scheme, WC =      100.0
 initial mixing is a Kerker type mixing with AMIX =  0.4000 and BMIX =      1.0000
 Hartree-type preconditioning will be used
 using additional bands            9
 reciprocal scheme for non local part
 use partial core corrections
 calculate Harris-corrections to forces 
   (improved forces if not selfconsistent)
 use gradient corrections 
 use of overlap-Matrix (Vanderbilt PP)
 Gauss-broadening in eV      SIGMA  =   0.05


--------------------------------------------------------------------------------------------------------


  energy-cutoff  :      600.00
  volume of cell :       79.51
      direct lattice vectors                 reciprocal lattice vectors
     4.300000000  0.000000000  0.000000000     0.232558140  0.000000000  0.000000000
     0.000000000  4.300000000  0.000000000     0.000000000  0.232558140  0.000000000
     0.000000000  0.000000000  4.300000000     0.000000000  0.000000000  0.232558140

  length of vectors
     4.300000000  4.300000000  4.300000000     0.232558140  0.232558140  0.232558140


 
 k-points in units of 2pi/SCALE and weight: KPOINTS File, automatically generated by
   0.05813953  0.05813953  0.05813953       1.000
 
 k-points in reciprocal lattice and weights: KPOINTS File, automatically generated by
   0.25000000  0.25000000  0.25000000       1.000
 
 position of ions in fractional coordinates (direct lattice) 
   0.00000000  0.00000000  0.00000000
   0.50000000  0.50000000  0.00000000
   0.00000000  0.50000000  0.50000000
   0.50000000  0.00000000  0.50000000
   0.50000000  0.00000000  0.00000000
   0.00000000  0.50000000  0.00000000
   0.00000000  0.00000000  0.50000000
   0.50000000  0.50000000  0.50000000
 
 position of ions in cartesian coordinates  (Angst):
   0.00000000  0.00000000  0.00000000
   2.15000000  2.15000000  0.00000000
   0.00000000  2.15000000  2.15000000
   2.15000000  0.00000000  2.15000000
   2.15000000  0.00000000  0.00000000
   0.00000000  2.15000000  0.00000000
   0.00000000  0.00000000  2.15000000
   2.15000000  2.15000000  2.15000000
 


--------------------------------------------------------------------------------------------------------


 k-point  1 :  0.25000.25000.2500  plane waves:    2671

 maximum and minimum number of plane-waves per node :    2671   2671

 maximum number of plane-waves:    2671
 maximal index in each direction: 
   IXMAX=  8   IYMAX=  8   IZMAX=  8
   IXMIN= -8   IYMIN= -8   IZMIN= -8

 WARNING: aliasing errors must be expected set NGX to  34 to avoid them
 WARNING: aliasing errors must be expected set NGY to  34 to avoid them
 WARNING: aliasing errors must be expected set NGZ to  34 to avoid them
 aliasing errors are usually negligible using standard VASP settings
 and one can safely disregard these warnings

 serial   3D FFT for wavefunctions
 parallel 3D FFT for charge:
    minimum data exchange during FFTs selected (reduces bandwidth)


 total amount of memory used by VASP on root node  56393. kBytes
========================================================================

   base      :    30000. kBytes
   nonl-proj :      683. kBytes
   fftplans  :     6192. kBytes
   grid      :    16231. kBytes
   one-center:       49. kBytes
   wavefun   :     3238. kBytes
 
 Broyden mixing: mesh for mixing (old mesh)
   NGX = 17   NGY = 17   NGZ = 17
  (NGX  = 56   NGY  = 56   NGZ  = 56)
  gives a total of   4913 points

 initial charge density was supplied:
 charge density of overlapping atoms calculated
 number of electron   56.0000000 magnetization    8.0000000
 keeping initial charge density in first step


--------------------------------------------------------------------------------------------------------


 Maximum index for augmentation-charges         5257 (set IRDMAX)


--------------------------------------------------------------------------------------------------------


 First call to EWALD:  gamma=   0.412
 Maximum number of real-space cells 3x 3x 3
 Maximum number of reciprocal cells 3x 3x 3

    FEWALD:  cpu time    0.03: real time    0.01
   RESPFUN:  cpu time    0.01: real time    0.00


----------------------------------------- Iteration    1(   1)  ---------------------------------------


    POTLOK:  cpu time    4.69: real time    4.59
    SETDIJ:  cpu time    0.22: real time    0.22
     EDDAV:  cpu time    7.35: real time    1.87
       DOS:  cpu time    0.00: real time    0.00
    --------------------------------------------
      LOOP:  cpu time   12.26: real time    6.68

 eigenvalue-minimisations  :   174
 total energy-change (2. order) : 0.8274040E+03  (-0.3157952E+04)
 number of electron   56.0000000 magnetization    8.0000000
 augmentation part    56.0000000 magnetization    8.0000000

 Free energy of the ion-electron system (eV)
  ---------------------------------------------------
  alpha Z        PSCENC =       182.54461720
  Ewald energy   TEWEN  =     -3771.40866272
  -1/2 Hartree   DENC   =     -1285.11529407
  -exchange  EXHF       =         0.00000000
  -V(xc)+E(xc)   XCENC  =       248.36971230
  PAW double counting   =      3232.86972264    -3666.78862743
  entropy T*S    EENTRO =         0.00000000
  eigenvalues    EBANDS =       -77.46500798
  atomic energy  EATOM  =      5964.39755105
  ---------------------------------------------------
  free energy    TOTEN  =       827.40401100 eV

  energy without entropy =      827.40401100  energy(sigma->0) =      827.40401100


--------------------------------------------------------------------------------------------------------




----------------------------------------- Iteration    1(   2)  ---------------------------------------


     EDDAV:  cpu time    6.61: real time    1.67
       DOS:  cpu time    0.00: real time    0.00
    --------------------------------------------
      LOOP:  cpu time    6.62: real time    1.67

 eigenvalue-minimisations  :   164
 total energy-change (2. order) :-0.7761214E+03  (-0.7476985E+03)
 number of electron   56.0000000 magnetization    8.0000000
 augmentation part    56.0000000 magnetization    8.0000000

 Free energy of the ion-electron system (eV)
  ---------------------------------------------------
  alpha Z        PSCENC =       182.54461720
  Ewald energy   TEWEN  =     -3771.40866272
  -1/2 Hartree   DENC   =     -1285.11529407
  -exchange  EXHF       =         0.00000000
  -V(xc)+E(xc)   XCENC  =       248.36971230
  PAW double counting   =      3232.86972264    -3666.78862743
  entropy T*S    EENTRO =         0.00000000
  eigenvalues    EBANDS =      -853.58645626
  atomic energy  EATOM  =      5964.39755105
  ---------------------------------------------------
  free energy    TOTEN  =        51.28256272 eV

  energy without entropy =       51.28256272  energy(sigma->0) =       51.28256272


--------------------------------------------------------------------------------------------------------




----------------------------------------- Iteration    1(   3)  ---------------------------------------


     EDDAV:  cpu time    6.79: real time    1.70
       DOS:  cpu time    0.00: real time    0.00
    --------------------------------------------
      LOOP:  cpu time    6.80: real time    1.70

 eigenvalue-minimisations  :   168
 total energy-change (2. order) :-0.9882693E+02  (-0.9794594E+02)
 number of electron   56.0000000 magnetization    8.0000000
 augmentation part    56.0000000 magnetization    8.0000000

 Free energy of the ion-electron system (eV)
  ---------------------------------------------------
  alpha Z        PSCENC =       182.54461720
  Ewald energy   TEWEN  =     -3771.40866272
  -1/2 Hartree   DENC   =     -1285.11529407
  -exchange  EXHF       =         0.00000000
  -V(xc)+E(xc)   XCENC  =       248.36971230
  PAW double counting   =      3232.86972264    -3666.78862743
  entropy T*S    EENTRO =         0.00000000
  eigenvalues    EBANDS =      -952.41338517
  atomic energy  EATOM  =      5964.39755105
  ---------------------------------------------------
  free energy    TOTEN  =       -47.54436619 eV

  energy without entropy =      -47.54436619  energy(sigma->0) =      -47.54436619


--------------------------------------------------------------------------------------------------------




----------------------------------------- Iteration    1(   4)  ---------------------------------------


     EDDAV:  cpu time    7.63: real time    1.94
       DOS:  cpu time    0.00: real time    0.00
    --------------------------------------------
      LOOP:  cpu time    7.64: real time    1.94

 eigenvalue-minimisations  :   200
 total energy-change (2. order) :-0.3742902E+01  (-0.3731462E+01)
 number of electron   56.0000000 magnetization    8.0000000
 augmentation part    56.0000000 magnetization    8.0000000

 Free energy of the ion-electron system (eV)
  ---------------------------------------------------
  alpha Z        PSCENC =       182.54461720
  Ewald energy   TEWEN  =     -3771.40866272
  -1/2 Hartree   DENC   =     -1285.11529407
  -exchange  EXHF       =         0.00000000
  -V(xc)+E(xc)   XCENC  =       248.36971230
  PAW double counting   =      3232.86972264    -3666.78862743
  entropy T*S    EENTRO =         0.00000000
  eigenvalues    EBANDS =      -956.15628679
  atomic energy  EATOM  =      5964.39755105
  ---------------------------------------------------
  free energy    TOTEN  =       -51.28726781 eV

  energy without entropy =      -51.28726781  energy(sigma->0) =      -51.28726781


--------------------------------------------------------------------------------------------------------




----------------------------------------- Iteration    1(   5)  ---------------------------------------


     EDDAV:  cpu time    6.93: real time    1.76
       DOS:  cpu time    0.00: real time    0.00
    CHARGE:  cpu time    0.29: real time    0.19
    MIXING:  cpu time    0.02: real time    0.02
    --------------------------------------------
      LOOP:  cpu time    7.25: real time    1.97

 eigenvalue-minimisations  :   174
 total energy-change (2. order) :-0.5142450E-01  (-0.5142031E-01)
 number of electron   55.9999902 magnetization   -0.7172249
 augmentation part    23.6104737 magnetization   -0.5815265

 Broyden mixing:
  rms(total) = 0.24979E+01    rms(broyden)= 0.24978E+01
  rms(prec ) = 0.39875E+01
  weight for this iteration     100.00

 Free energy of the ion-electron system (eV)
  ---------------------------------------------------
  alpha Z        PSCENC =       182.54461720
  Ewald energy   TEWEN  =     -3771.40866272
  -1/2 Hartree   DENC   =     -1285.11529407
  -exchange  EXHF       =         0.00000000
  -V(xc)+E(xc)   XCENC  =       248.36971230
  PAW double counting   =      3232.86972264    -3666.78862743
  entropy T*S    EENTRO =         0.00000000
  eigenvalues    EBANDS =      -956.20771129
  atomic energy  EATOM  =      5964.39755105
  ---------------------------------------------------
  free energy    TOTEN  =       -51.33869231 eV

  energy without entropy =      -51.33869231  energy(sigma->0) =      -51.33869231

