  31  31   0   0
  0.1706119E+02  0.8087054E-09  0.8087054E-09  0.8087054E-09  0.5000000E-15
  1.000000000000000E-004
  CAR 
 unknown system                          
     12.01073296     -4.95638788  301      7.85292957      1.00000000
     -4.956  0.0000E+00  0.0000E+00
     -4.900  0.0000E+00  0.0000E+00
     -4.843  0.0000E+00  0.0000E+00
     -4.787  0.0000E+00  0.0000E+00
     -4.730  0.0000E+00  0.0000E+00
     -4.674  0.0000E+00  0.0000E+00
     -4.617  0.0000E+00  0.0000E+00
     -4.560 -0.4342E-28 -0.2456E-29
     -4.504 -0.3579E-26 -0.2049E-27
     -4.447 -0.2536E-24 -0.1455E-25
     -4.391 -0.1528E-22 -0.8789E-24
     -4.334 -0.7834E-21 -0.4518E-22
     -4.278 -0.3414E-19 -0.1976E-20
     -4.221 -0.1265E-17 -0.7353E-19
     -4.165 -0.3984E-16 -0.2327E-17
     -4.108 -0.1035E-14 -0.6088E-16
     -4.051 -0.2343E-13 -0.1386E-14
     -3.995 -0.4501E-12 -0.2684E-13
     -3.938 -0.7333E-11 -0.4416E-12
     -3.882 -0.1012E-09 -0.6165E-11
     -3.825 -0.1182E-08 -0.7299E-10
     -3.769 -0.1166E-07 -0.7325E-09
     -3.712 -0.9707E-07 -0.6222E-08
     -3.656 -0.6801E-06 -0.4469E-07
     -3.599 -0.3999E-05 -0.2708E-06
     -3.542 -0.1964E-04 -0.1382E-05
     -3.486 -0.8008E-04 -0.5910E-05
     -3.429 -0.2682E-03 -0.2108E-04
     -3.373 -0.7254E-03 -0.6211E-04
     -3.316 -0.1529E-02 -0.1486E-03
     -3.260 -0.2295E-02 -0.2784E-03
     -3.203 -0.1634E-02 -0.3708E-03
     -3.147  0.2818E-02 -0.2114E-03
     -3.090  0.1283E-01  0.5139E-03
     -3.033  0.2693E-01  0.2037E-02
     -2.977  0.3948E-01  0.4270E-02
     -2.920  0.4374E-01  0.6744E-02
     -2.864  0.3718E-01  0.8847E-02
     -2.807  0.2365E-01  0.1018E-01
     -2.751  0.1010E-01  0.1076E-01
     -2.694  0.1367E-02  0.1083E-01
     -2.638 -0.2021E-02  0.1072E-01
     -2.581 -0.2182E-02  0.1060E-01
     -2.524 -0.1340E-02  0.1052E-01
     -2.468 -0.6553E-03  0.1048E-01
     -2.411 -0.4406E-03  0.1046E-01
     -2.355 -0.7612E-03  0.1041E-01
     -2.298 -0.1720E-02  0.1032E-01
     -2.242 -0.3199E-02  0.1014E-01
     -2.185 -0.4089E-02  0.9905E-02
     -2.129 -0.1568E-02  0.9817E-02
     -2.072  0.8229E-02  0.1028E-01
     -2.015  0.2731E-01  0.1183E-01
     -1.959  0.5245E-01  0.1479E-01
     -1.902  0.7534E-01  0.1905E-01
     -1.846  0.8771E-01  0.2401E-01
     -1.789  0.8699E-01  0.2893E-01
     -1.733  0.7679E-01  0.3328E-01
     -1.676  0.6226E-01  0.3680E-01
     -1.620  0.4630E-01  0.3942E-01
     -1.563  0.3016E-01  0.4112E-01
     -1.506  0.1562E-01  0.4201E-01
     -1.450  0.4951E-02  0.4229E-01
     -1.393 -0.7707E-03  0.4224E-01
     -1.337 -0.2513E-02  0.4210E-01
     -1.280 -0.2321E-02  0.4197E-01
     -1.224 -0.1981E-02  0.4186E-01
     -1.167 -0.2402E-02  0.4172E-01
     -1.111 -0.3449E-02  0.4153E-01
     -1.054 -0.3593E-02  0.4132E-01
     -0.997  0.3081E-03  0.4134E-01
     -0.941  0.1176E-01  0.4201E-01
     -0.884  0.3149E-01  0.4379E-01
     -0.828  0.5465E-01  0.4688E-01
     -0.771  0.7232E-01  0.5097E-01
     -0.715  0.7736E-01  0.5534E-01
     -0.658  0.6987E-01  0.5929E-01
     -0.601  0.5660E-01  0.6250E-01
     -0.545  0.4517E-01  0.6505E-01
     -0.488  0.3870E-01  0.6724E-01
     -0.432  0.3520E-01  0.6923E-01
     -0.375  0.3086E-01  0.7098E-01
     -0.319  0.2364E-01  0.7231E-01
     -0.262  0.1454E-01  0.7313E-01
     -0.206  0.6153E-02  0.7348E-01
     -0.149  0.3633E-03  0.7350E-01
     -0.092 -0.2841E-02  0.7334E-01
     -0.036 -0.4642E-02  0.7308E-01
      0.021 -0.5513E-02  0.7277E-01
      0.077 -0.3640E-02  0.7256E-01
      0.134  0.4913E-02  0.7284E-01
      0.190  0.2348E-01  0.7417E-01
      0.247  0.5079E-01  0.7704E-01
      0.303  0.7937E-01  0.8153E-01
      0.360  0.9918E-01  0.8714E-01
      0.417  0.1042E+00  0.9303E-01
      0.473  0.9612E-01  0.9847E-01
      0.530  0.8191E-01  0.1031E+00
      0.586  0.6790E-01  0.1069E+00
      0.643  0.5577E-01  0.1101E+00
      0.699  0.4369E-01  0.1126E+00
      0.756  0.3020E-01  0.1143E+00
      0.812  0.1658E-01  0.1152E+00
      0.869  0.5649E-02  0.1155E+00
      0.926 -0.1059E-02  0.1155E+00
      0.982 -0.4399E-02  0.1152E+00
      1.039 -0.6317E-02  0.1149E+00
      1.095 -0.7404E-02  0.1144E+00
      1.152 -0.5028E-02  0.1142E+00
      1.208  0.6445E-02  0.1145E+00
      1.265  0.3218E-01  0.1163E+00
      1.321  0.7118E-01  0.1204E+00
      1.378  0.1129E+00  0.1268E+00
      1.435  0.1414E+00  0.1348E+00
      1.491  0.1450E+00  0.1430E+00
      1.548  0.1252E+00  0.1500E+00
      1.604  0.9543E-01  0.1554E+00
      1.661  0.7052E-01  0.1594E+00
      1.717  0.5744E-01  0.1627E+00
      1.774  0.5375E-01  0.1657E+00
      1.830  0.5318E-01  0.1687E+00
      1.887  0.5097E-01  0.1716E+00
      1.944  0.4510E-01  0.1742E+00
      2.000  0.3541E-01  0.1762E+00
      2.057  0.2335E-01  0.1775E+00
      2.113  0.1170E-01  0.1781E+00
      2.170  0.3049E-02  0.1783E+00
      2.226 -0.1892E-02  0.1782E+00
      2.283 -0.4290E-02  0.1780E+00
      2.339 -0.5570E-02  0.1776E+00
      2.396 -0.5357E-02  0.1773E+00
      2.453 -0.5591E-03  0.1773E+00
      2.509  0.1320E-01  0.1781E+00
      2.566  0.3771E-01  0.1802E+00
      2.622  0.6849E-01  0.1841E+00
      2.679  0.9511E-01  0.1894E+00
      2.735  0.1069E+00  0.1955E+00
      2.792  0.9948E-01  0.2011E+00
      2.848  0.7707E-01  0.2055E+00
      2.905  0.4893E-01  0.2082E+00
      2.962  0.2397E-01  0.2096E+00
      3.018  0.7084E-02  0.2100E+00
      3.075 -0.1486E-02  0.2099E+00
      3.131 -0.4509E-02  0.2097E+00
      3.188 -0.5461E-02  0.2093E+00
      3.244 -0.6558E-02  0.2090E+00
      3.301 -0.7417E-02  0.2086E+00
      3.358 -0.4370E-02  0.2083E+00
      3.414  0.8805E-02  0.2088E+00
      3.471  0.3759E-01  0.2109E+00
      3.527  0.8152E-01  0.2155E+00
      3.584  0.1306E+00  0.2229E+00
      3.640  0.1677E+00  0.2324E+00
      3.697  0.1773E+00  0.2424E+00
      3.753  0.1555E+00  0.2512E+00
      3.810  0.1135E+00  0.2577E+00
      3.867  0.7130E-01  0.2617E+00
      3.923  0.4475E-01  0.2642E+00
      3.980  0.3623E-01  0.2663E+00
      4.036  0.3628E-01  0.2683E+00
      4.093  0.3360E-01  0.2702E+00
      4.149  0.2381E-01  0.2716E+00
      4.206  0.1013E-01  0.2721E+00
      4.262 -0.1763E-02  0.2720E+00
      4.319 -0.7505E-02  0.2716E+00
      4.376 -0.3777E-02  0.2714E+00
      4.432  0.1285E-01  0.2721E+00
      4.489  0.4400E-01  0.2746E+00
      4.545  0.8567E-01  0.2795E+00
      4.602  0.1275E+00  0.2867E+00
      4.658  0.1574E+00  0.2956E+00
      4.715  0.1691E+00  0.3051E+00
      4.771  0.1652E+00  0.3145E+00
      4.828  0.1538E+00  0.3232E+00
      4.885  0.1412E+00  0.3312E+00
      4.941  0.1289E+00  0.3385E+00
      4.998  0.1151E+00  0.3450E+00
      5.054  0.9944E-01  0.3506E+00
      5.111  0.8373E-01  0.3553E+00
      5.167  0.6933E-01  0.3592E+00
      5.224  0.5541E-01  0.3624E+00
      5.280  0.4030E-01  0.3647E+00
      5.337  0.2410E-01  0.3660E+00
      5.394  0.9377E-02  0.3666E+00
      5.450 -0.5196E-03  0.3665E+00
      5.507 -0.3028E-02  0.3664E+00
      5.563  0.3123E-02  0.3665E+00
      5.620  0.1738E-01  0.3675E+00
      5.676  0.3622E-01  0.3696E+00
      5.733  0.5336E-01  0.3726E+00
      5.789  0.6271E-01  0.3761E+00
      5.846  0.6188E-01  0.3796E+00
      5.903  0.5273E-01  0.3826E+00
      5.959  0.3917E-01  0.3848E+00
      6.016  0.2529E-01  0.3863E+00
      6.072  0.1522E-01  0.3871E+00
      6.129  0.1263E-01  0.3878E+00
      6.185  0.1859E-01  0.3889E+00
      6.242  0.2941E-01  0.3905E+00
      6.298  0.3775E-01  0.3927E+00
      6.355  0.3720E-01  0.3948E+00
      6.412  0.2686E-01  0.3963E+00
      6.468  0.1235E-01  0.3970E+00
      6.525  0.3103E-02  0.3972E+00
      6.581  0.7957E-02  0.3976E+00
      6.638  0.3046E-01  0.3993E+00
      6.694  0.6521E-01  0.4030E+00
      6.751  0.9946E-01  0.4087E+00
      6.807  0.1219E+00  0.4156E+00
      6.864  0.1322E+00  0.4230E+00
      6.921  0.1397E+00  0.4309E+00
      6.977  0.1512E+00  0.4395E+00
      7.034  0.1609E+00  0.4486E+00
      7.090  0.1554E+00  0.4574E+00
      7.147  0.1275E+00  0.4646E+00
      7.203  0.8429E-01  0.4694E+00
      7.260  0.4129E-01  0.4717E+00
      7.316  0.1091E-01  0.4723E+00
      7.373 -0.4021E-02  0.4721E+00
      7.430 -0.8281E-02  0.4716E+00
      7.486 -0.8323E-02  0.4711E+00
      7.543 -0.7716E-02  0.4707E+00
      7.599 -0.5599E-02  0.4704E+00
      7.656  0.2284E-02  0.4705E+00
      7.712  0.2028E-01  0.4717E+00
      7.769  0.4835E-01  0.4744E+00
      7.826  0.7996E-01  0.4789E+00
      7.882  0.1059E+00  0.4849E+00
      7.939  0.1219E+00  0.4918E+00
      7.995  0.1325E+00  0.4993E+00
      8.052  0.1462E+00  0.5076E+00
      8.108  0.1660E+00  0.5170E+00
      8.165  0.1844E+00  0.5274E+00
      8.221  0.1894E+00  0.5381E+00
      8.278  0.1731E+00  0.5479E+00
      8.335  0.1383E+00  0.5557E+00
      8.391  0.9539E-01  0.5611E+00
      8.448  0.5562E-01  0.5643E+00
      8.504  0.2583E-01  0.5657E+00
      8.561  0.7476E-02  0.5661E+00
      8.617 -0.1538E-02  0.5660E+00
      8.674 -0.4740E-02  0.5658E+00
      8.730 -0.5580E-02  0.5655E+00
      8.787 -0.6262E-02  0.5651E+00
      8.844 -0.6590E-02  0.5647E+00
      8.900 -0.3238E-02  0.5646E+00
      8.957  0.9101E-02  0.5651E+00
      9.013  0.3352E-01  0.5670E+00
      9.070  0.6590E-01  0.5707E+00
      9.126  0.9516E-01  0.5761E+00
      9.183  0.1115E+00  0.5824E+00
      9.239  0.1159E+00  0.5889E+00
      9.296  0.1185E+00  0.5956E+00
      9.353  0.1265E+00  0.6028E+00
      9.409  0.1344E+00  0.6104E+00
      9.466  0.1289E+00  0.6177E+00
      9.522  0.1033E+00  0.6235E+00
      9.579  0.6426E-01  0.6272E+00
      9.635  0.2632E-01  0.6286E+00
      9.692  0.9577E-03  0.6287E+00
      9.748 -0.7485E-02  0.6283E+00
      9.805  0.8492E-03  0.6283E+00
      9.862  0.2354E-01  0.6297E+00
      9.918  0.5381E-01  0.6327E+00
      9.975  0.7911E-01  0.6372E+00
     10.031  0.8660E-01  0.6421E+00
     10.088  0.7249E-01  0.6462E+00
     10.144  0.4530E-01  0.6487E+00
     10.201  0.1884E-01  0.6498E+00
     10.257  0.2167E-02  0.6499E+00
     10.314 -0.4093E-02  0.6497E+00
     10.371 -0.4235E-02  0.6495E+00
     10.427 -0.2539E-02  0.6493E+00
     10.484 -0.1124E-02  0.6492E+00
     10.540 -0.3933E-03  0.6492E+00
     10.597 -0.1118E-03  0.6492E+00
     10.653 -0.2625E-04  0.6492E+00
     10.710 -0.5129E-05  0.6492E+00
     10.766 -0.8395E-06  0.6492E+00
     10.823 -0.1155E-06  0.6492E+00
     10.880 -0.1340E-07  0.6492E+00
     10.936 -0.1314E-08  0.6492E+00
     10.993 -0.1091E-09  0.6492E+00
     11.049 -0.7669E-11  0.6492E+00
     11.106 -0.4575E-12  0.6492E+00
     11.162 -0.2315E-13  0.6492E+00
     11.219 -0.1028E-14  0.6492E+00
     11.275 -0.2056E-16  0.6492E+00
     11.332  0.0000E+00  0.6492E+00
     11.389  0.0000E+00  0.6492E+00
     11.445  0.0000E+00  0.6492E+00
     11.502  0.0000E+00  0.6492E+00
     11.558  0.0000E+00  0.6492E+00
     11.615  0.0000E+00  0.6492E+00
     11.671  0.0000E+00  0.6492E+00
     11.728  0.0000E+00  0.6492E+00
     11.785  0.0000E+00  0.6492E+00
     11.841  0.0000E+00  0.6492E+00
     11.898  0.0000E+00  0.6492E+00
     11.954  0.0000E+00  0.6492E+00
     12.011  0.0000E+00  0.6492E+00
