   31   31  191    1
  0.1706119E+02  0.8087054E-09  0.8087054E-09  0.8087054E-09  0.5000000E-15
  1.000000000000000E-004
  CAR 
 unknown system                          
   92    2   62
 
  0.2500000E+00  0.2500000E+00  0.2500000E+00  0.5000000E+00
   1       -2.953511
   2       -1.923178
   3       -1.873080
   4       -1.639271
   5       -0.802180
   6       -0.749164
   7       -0.384259
   8        0.294149
   9        0.332361
  10        0.504602
  11        0.613147
  12        1.348129
  13        1.401495
  14        1.419465
  15        1.554083
  16        1.728512
  17        1.967470
  18        2.662333
  19        2.678161
  20        2.849605
  21        3.542867
  22        3.613226
  23        3.660112
  24        3.713873
  25        3.751970
  26        4.037937
  27        4.541862
  28        4.595578
  29        4.634195
  30        4.756459
  31        4.813552
  32        4.884003
  33        4.934761
  34        5.057593
  35        5.241635
  36        5.719037
  37        5.832438
  38        6.334986
  39        6.737492
  40        6.762830
  41        6.796489
  42        6.970740
  43        7.014513
  44        7.072443
  45        7.114823
  46        7.814587
  47        7.846006
  48        7.939995
  49        8.080817
  50        8.165550
  51        8.229253
  52        8.258106
  53        8.329884
  54        8.416603
  55        9.091740
  56        9.154438
  57        9.164445
  58        9.395419
  59        9.417369
  60        9.478976
  61        9.982102
  62        9.986640
 
 -0.2500000E+00  0.2500000E+00  0.2500000E+00  0.5000000E+00
   1       -2.956388
   2       -1.916306
   3       -1.816675
   4       -1.706262
   5       -0.800548
   6       -0.667498
   7       -0.519345
   8        0.299589
   9        0.399181
  10        0.433990
  11        0.685605
  12        1.376017
  13        1.460043
  14        1.472689
  15        1.506458
  16        1.727201
  17        1.872309
  18        2.630784
  19        2.735520
  20        2.772991
  21        3.552872
  22        3.625475
  23        3.654106
  24        3.688849
  25        3.764416
  26        4.007982
  27        4.571213
  28        4.653387
  29        4.675333
  30        4.724879
  31        4.743736
  32        4.915155
  33        4.934451
  34        5.056585
  35        5.180621
  36        5.731984
  37        5.950742
  38        6.263356
  39        6.755887
  40        6.775787
  41        6.880320
  42        7.005307
  43        7.023809
  44        7.059210
  45        7.136280
  46        7.846328
  47        7.911425
  48        7.979462
  49        8.069080
  50        8.128290
  51        8.136275
  52        8.182098
  53        8.227674
  54        8.277110
  55        9.134917
  56        9.157991
  57        9.303701
  58        9.396517
  59        9.402920
  60        9.481918
  61        9.991594
  62       10.010733
