       N       E                     dE             d eps       ncg     rms          rms(c)
RMM:   1     0.298549040429E+03    0.29855E+03   -0.16742E+04   124   0.640E+02
RMM:   2    -0.102533226721E+02   -0.30880E+03   -0.30289E+03   124   0.135E+02
RMM:   3    -0.825771853354E+02   -0.72324E+02   -0.74173E+02   124   0.460E+01
RMM:   4    -0.101784377832E+03   -0.19207E+02   -0.18530E+02   124   0.271E+01
RMM:   5    -0.108618787742E+03   -0.68344E+01   -0.58383E+01   124   0.148E+01
RMM:   6    -0.111271836390E+03   -0.26530E+01   -0.21969E+01   124   0.863E+00
RMM:   7    -0.112435499269E+03   -0.11637E+01   -0.95759E+00   124   0.526E+00
RMM:   8    -0.112963567446E+03   -0.52807E+00   -0.44921E+00   124   0.331E+00
RMM:   9    -0.113433869872E+03   -0.47030E+00   -0.44392E+00   299   0.216E+00
RMM:  10    -0.113494880332E+03   -0.61010E-01   -0.34546E-01   305   0.479E-01
RMM:  11    -0.113499170024E+03   -0.42897E-02   -0.20252E-03   285   0.107E-01
RMM:  12    -0.113499298177E+03   -0.12815E-03   -0.17190E-04   240   0.265E-02    0.536E+00
RMM:  13    -0.112861069091E+03    0.63823E+00   -0.89018E-01   248   0.140E+00    0.327E+00
RMM:  14    -0.112615318282E+03    0.24575E+00   -0.23372E-01   254   0.979E-01    0.120E+00
RMM:  15    -0.112574734753E+03    0.40584E-01   -0.39876E-02   259   0.474E-01    0.140E-01
RMM:  16    -0.112573874930E+03    0.85982E-03   -0.49013E-03   266   0.136E-01    0.438E-02
RMM:  17    -0.112573883427E+03   -0.84973E-05   -0.63433E-04   265   0.524E-02    0.134E-02
RMM:  18    -0.112573875009E+03    0.84187E-05   -0.88930E-05   273   0.196E-02    0.562E-03
RMM:  19    -0.112573881057E+03   -0.60487E-05   -0.77557E-06   212   0.677E-03    0.175E-03
RMM:  20    -0.112573882101E+03   -0.10435E-05   -0.87885E-07   144   0.340E-03    0.635E-04
RMM:  21    -0.112573881967E+03    0.13394E-06   -0.29386E-07   132   0.197E-03
   1 F= -.11257388E+03 E0= -.11256092E+03  d E =-.388837E-01
       N       E                     dE             d eps       ncg     rms          rms(c)
RMM:   1    -0.112573362431E+03    0.51967E-03   -0.10943E-02   248   0.344E-01    0.236E-02
RMM:   2    -0.112573347270E+03    0.15160E-04   -0.21941E-04   275   0.428E-02    0.130E-02
RMM:   3    -0.112573344450E+03    0.28203E-05   -0.50109E-05   248   0.174E-02    0.406E-03
RMM:   4    -0.112573344716E+03   -0.26613E-06   -0.53719E-06   220   0.638E-03
   2 F= -.11257334E+03 E0= -.11256042E+03  d E =-.387701E-01
       N       E                     dE             d eps       ncg     rms          rms(c)
RMM:   1    -0.112573456206E+03   -0.11176E-03   -0.43866E-02   248   0.689E-01    0.472E-02
RMM:   2    -0.112573388534E+03    0.67672E-04   -0.86353E-04   275   0.848E-02    0.259E-02
RMM:   3    -0.112573375829E+03    0.12704E-04   -0.20408E-04   248   0.347E-02    0.797E-03
RMM:   4    -0.112573376936E+03   -0.11068E-05   -0.22665E-05   254   0.127E-02    0.514E-03
RMM:   5    -0.112573377645E+03   -0.70853E-06   -0.48623E-06   205   0.589E-03
   3 F= -.11257338E+03 E0= -.11256038E+03  d E =-.389922E-01
       N       E                     dE             d eps       ncg     rms          rms(c)
RMM:   1    -0.112573260018E+03    0.11692E-03   -0.22411E-02   372   0.492E-01    0.326E-02
RMM:   2    -0.112573229628E+03    0.30390E-04   -0.47549E-04   416   0.610E-02    0.182E-02
RMM:   3    -0.112573213255E+03    0.16373E-04   -0.91976E-05   373   0.235E-02    0.635E-03
RMM:   4    -0.112573209751E+03    0.35042E-05   -0.12344E-05   361   0.903E-03    0.353E-03
RMM:   5    -0.112573206835E+03    0.29164E-05   -0.61798E-06   318   0.524E-03    0.114E-03
RMM:   6    -0.112573205815E+03    0.10196E-05   -0.16023E-06   230   0.271E-03    0.394E-04
RMM:   7    -0.112573205388E+03    0.42708E-06   -0.71588E-07   212   0.180E-03
   4 F= -.11257321E+03 E0= -.11256025E+03  d E =-.388698E-01
       N       E                     dE             d eps       ncg     rms          rms(c)
RMM:   1    -0.112573352045E+03   -0.14623E-03   -0.35367E-02   372   0.538E-01    0.518E-02
RMM:   2    -0.112573216985E+03    0.13506E-03   -0.84320E-04   393   0.742E-02    0.262E-02
RMM:   3    -0.112573202354E+03    0.14631E-04   -0.16373E-04   375   0.304E-02    0.966E-03
RMM:   4    -0.112573204613E+03   -0.22596E-05   -0.17827E-05   388   0.112E-02    0.442E-03
RMM:   5    -0.112573205312E+03   -0.69881E-06   -0.18475E-06   228   0.414E-03
   5 F= -.11257321E+03 E0= -.11256025E+03  d E =-.388693E-01
       N       E                     dE             d eps       ncg     rms          rms(c)
RMM:   1    -0.112574198111E+03   -0.99350E-03   -0.22288E-02   248   0.486E-01    0.296E-02
RMM:   2    -0.112573990623E+03    0.20749E-03   -0.47079E-04   286   0.588E-02    0.177E-02
RMM:   3    -0.112573696020E+03    0.29460E-03   -0.88787E-05   248   0.220E-02    0.579E-03
RMM:   4    -0.112573601724E+03    0.94296E-04   -0.10684E-05   234   0.804E-03    0.363E-03
RMM:   5    -0.112573464800E+03    0.13692E-03   -0.82454E-06   224   0.544E-03    0.107E-03
RMM:   6    -0.112573398136E+03    0.66664E-04   -0.28034E-06   182   0.296E-03    0.526E-04
RMM:   7    -0.112573358839E+03    0.39297E-04   -0.13977E-06   148   0.211E-03    0.263E-04
RMM:   8    -0.112573343595E+03    0.15245E-04   -0.75023E-07   132   0.154E-03    0.119E-04
RMM:   9    -0.112573340496E+03    0.30984E-05   -0.30290E-07    96   0.106E-03    0.673E-05
RMM:  10    -0.112573342140E+03   -0.16437E-05   -0.13769E-07    70   0.863E-04    0.320E-05
RMM:  11    -0.112573343545E+03   -0.14047E-05   -0.38058E-08    51   0.775E-04    0.158E-05
RMM:  12    -0.112573344228E+03   -0.68320E-06   -0.66338E-09    36   0.746E-04
   6 F= -.11257334E+03 E0= -.11256042E+03  d E =-.387679E-01
       N       E                     dE             d eps       ncg     rms          rms(c)
RMM:   1    -0.112573444379E+03   -0.10083E-03   -0.43876E-02   248   0.689E-01    0.469E-02
RMM:   2    -0.112573387269E+03    0.57110E-04   -0.88689E-04   276   0.856E-02    0.261E-02
RMM:   3    -0.112573376035E+03    0.11235E-04   -0.21189E-04   248   0.351E-02    0.794E-03
RMM:   4    -0.112573376909E+03   -0.87425E-06   -0.25361E-05   252   0.129E-02    0.542E-03
RMM:   5    -0.112573377568E+03   -0.65942E-06   -0.55424E-06   211   0.612E-03
   7 F= -.11257338E+03 E0= -.11256038E+03  d E =-.389924E-01
