Automatically generated mesh
      12
Reciprocal lattice
    0.12500000000000    0.12500000000000    0.12500000000000             4
    0.37500000000000    0.12500000000000    0.12500000000000             8
   -0.37500000000000    0.12500000000000    0.12500000000000             8
   -0.12500000000000    0.12500000000000    0.12500000000000             4
    0.12500000000000    0.37500000000000    0.12500000000000             4
    0.37500000000000    0.37500000000000    0.12500000000000             8
   -0.37500000000000    0.37500000000000    0.12500000000000             8
   -0.12500000000000    0.37500000000000    0.12500000000000             4
    0.37500000000000    0.12500000000000    0.37500000000000             4
   -0.37500000000000    0.12500000000000    0.37500000000000             4
    0.37500000000000    0.37500000000000    0.37500000000000             4
   -0.37500000000000    0.37500000000000    0.37500000000000             4
Tetrahedra
        95    0.00260416666667
         4         1         2         2         6
         4         1         2         5         6
         4         2         5         6         6
         4         2         2         6         9
         4         2         6         9        11
         4         2         6         6        11
         4         2         3         7         9
         4         2         6         7         9
         4         6         7         9        11
         4         3         7         9        10
         4         7         9        10        12
         4         7         9        11        12
         4         3         4         8        10
         4         3         7         8        10
         4         7         8        10        12
         4         1         3         4         5
         4         3         4         5         8
         4         3         5         7         8
         4         1         2         3         5
         4         2         3         5         6
         4         3         5         6         7
         4         5         6         6         6
         2         5         5         6         6
         4         6         6         6        11
         2         6         6        11        11
         4         6         7         7        11
         4         6         6         7        11
         4         6         7        11        11
         4         7         7        11        12
         4         7        11        12        12
         4         7        11        11        12
         4         7         8         8        12
         4         7         7         8        12
         4         7         8        12        12
         4         5         5         7         8
         4         5         7         8         8
         4         5         7         7         8
         4         5         5         6         7
         4         5         6         6         7
         4         5         6         7         7
         4         3         6         7        11
         4         2         3         6        11
         4         2         3         9        11
         4         3         7        11        12
         4         3        10        11        12
         4         3         9        10        11
         4         4         7         8        12
         4         3         4         7        12
         4         3         4        10        12
         4         1         5         7         8
         4         1         4         7         8
         4         1         3         4         7
         4         1         5         6         7
         4         1         2         6         7
         4         1         2         3         7
         4         1         2         2         2
         2         1         1         2         2
         4         2         2         2         9
         2         2         2         9         9
         4         2         3         3         9
         4         2         2         3         9
         4         2         3         9         9
         4         3         3         9        10
         4         3         9        10        10
         4         3         9         9        10
         4         3         4         4        10
         4         3         3         4        10
         4         3         4        10        10
         4         1         1         3         4
         4         1         3         4         4
         4         1         3         3         4
         4         1         1         2         3
         4         1         2         2         3
         4         1         2         3         3
         4         9        10        10        12
         4         9        10        11        12
         4        10        11        12        12
         8         2         2         3         6
         8         2         3         6         7
         8         2         6         6         7
         4        11        12        12        12
         2        11        11        12        12
         8         6         6         6         7
         4         6         6         7         7
         4         9        10        10        10
         2         9         9        10        10
         8         2         2         2         3
         4         2         2         3         3
         4         1         4         4         8
         4         1         4         5         8
         4         4         5         8         8
         4         5         8         8         8
         2         5         5         8         8
         4         1         4         4         4
         2         1         1         4         4
