unknown system                          
           1
    10.906394    0.000000    0.000000
     0.000000   10.906394    0.000000
     0.000000    0.000000   10.906394
   Al   Mg
   1 106
Direct configuration=     1
   0.00046928  0.00000000  0.00046928
   0.00128637  0.00000000  0.33396498
   0.00036894  0.00000000  0.66566849
   0.00032359  0.33376705  0.00032359
   0.00026998  0.33353224  0.33381213
   0.00033740  0.33345612  0.66589563
   0.00032359  0.66623295  0.00032359
   0.00026998  0.66646776  0.33381213
   0.00033740  0.66654388  0.66589563
   0.33396498  0.00000000  0.00128637
   0.16985983  0.00000000  0.16985983
   0.33371735  0.00000000  0.66513997
   0.33381213  0.33353224  0.00026998
   0.33361387  0.33230530  0.33361387
   0.33365319  0.33325295  0.66601668
   0.33381213  0.66646776  0.00026998
   0.33361387  0.66769470  0.33361387
   0.33365319  0.66674705  0.66601668
   0.66566849  0.00000000  0.00036894
   0.66513997  0.00000000  0.33371735
   0.66576714  0.00000000  0.66576714
   0.66589563  0.33345612  0.00033740
   0.66601668  0.33325295  0.33365319
   0.66605447  0.33330289  0.66605447
   0.66589563  0.66654388  0.00033740
   0.66601668  0.66674705  0.33365319
   0.66605447  0.66669711  0.66605447
   0.00082363  0.16702647  0.16813342
   0.00083536  0.16638707  0.49939616
   0.00041724  0.16728346  0.83246988
   0.00043664  0.50000000  0.16724472
   0.00045752  0.50000000  0.49979436
   0.00016761  0.50000000  0.83298823
   0.00082363  0.83297353  0.16813342
   0.00083536  0.83361293  0.49939616
   0.00041724  0.83271654  0.83246988
   0.33370106  0.16522625  0.16892829
   0.33355567  0.16479921  0.49797697
   0.33374485  0.16663042  0.83293899
   0.33365086  0.50000000  0.16736174
   0.33353181  0.50000000  0.49952802
   0.33367363  0.50000000  0.83304784
   0.33370106  0.83477375  0.16892829
   0.33355567  0.83520079  0.49797697
   0.33374485  0.83336958  0.83293899
   0.66549836  0.16643586  0.16757405
   0.66552631  0.16628551  0.49942682
   0.66588075  0.16679127  0.83297281
   0.66594920  0.50000000  0.16718667
   0.66601979  0.50000000  0.49975622
   0.66624307  0.50000000  0.83308858
   0.66549836  0.83356414  0.16757405
   0.66552631  0.83371449  0.49942682
   0.66588075  0.83320873  0.83297281
   0.16907562  0.00000000  0.49788867
   0.16795337  0.00000000  0.83262467
   0.16760720  0.33291980  0.16760720
   0.16746434  0.33278811  0.49945586
   0.16730934  0.33332059  0.83292710
   0.16760720  0.66708020  0.16760720
   0.16746434  0.66721189  0.49945586
   0.16730934  0.66667941  0.83292710
   0.49788867  0.00000000  0.16907562
   0.49769267  0.00000000  0.49769267
   0.49953841  0.00000000  0.83304880
   0.49945586  0.33278811  0.16746434
   0.49941139  0.33258560  0.49941139
   0.49978328  0.33320723  0.83311045
   0.49945586  0.66721189  0.16746434
   0.49941139  0.66741440  0.49941139
   0.49978328  0.66679277  0.83311045
   0.83262467  0.00000000  0.16795337
   0.83304880  0.00000000  0.49953841
   0.83240867  0.00000000  0.83240867
   0.83292710  0.33332059  0.16730934
   0.83311045  0.33320723  0.49978328
   0.83296446  0.33352675  0.83296446
   0.83292710  0.66667941  0.16730934
   0.83311045  0.66679277  0.49978328
   0.83296446  0.66647325  0.83296446
   0.16813342  0.16702647  0.00082363
   0.16892829  0.16522625  0.33370106
   0.16757405  0.16643586  0.66549836
   0.16724472  0.50000000  0.00043664
   0.16736174  0.50000000  0.33365086
   0.16718667  0.50000000  0.66594920
   0.16813342  0.83297353  0.00082363
   0.16892829  0.83477375  0.33370106
   0.16757405  0.83356414  0.66549836
   0.49939616  0.16638707  0.00083536
   0.49797697  0.16479921  0.33355567
   0.49942682  0.16628551  0.66552631
   0.49979436  0.50000000  0.00045752
   0.49952802  0.50000000  0.33353181
   0.49975622  0.50000000  0.66601979
   0.49939616  0.83361293  0.00083536
   0.49797697  0.83520079  0.33355567
   0.49942682  0.83371449  0.66552631
   0.83246988  0.16728346  0.00041724
   0.83293899  0.16663042  0.33374485
   0.83297281  0.16679127  0.66588075
   0.83298823  0.50000000  0.00016761
   0.83304784  0.50000000  0.33367363
   0.83308858  0.50000000  0.66624307
   0.83246988  0.83271654  0.00041724
   0.83293899  0.83336958  0.33374485
   0.83297281  0.83320873  0.66588075
