    3    3  191    1
  0.1535906E+02  0.3585051E-09  0.3585051E-09  0.3585051E-09  0.5000000E-15
  1.000000000000000E-004
  CAR 
 unknown system                          
   24    1   16
 
  0.0000000E+00  0.0000000E+00  0.0000000E+00  0.1000000E+01
   1       -3.647317
   2        0.069581
   3        1.458262
   4        1.458263
   5        1.458263
   6        1.751865
   7        1.751866
   8        4.504135
   9        4.504135
  10        4.504136
  11        4.867529
  12        4.867530
  13        5.584705
  14        5.584706
  15        5.584706
  16        5.674761
