       N       E                     dE             d eps       ncg     rms          rms(c)
DAV:   1     0.137101933080E+03    0.13710E+03   -0.79556E+03    32   0.124E+03
DAV:   2    -0.175362783474E+02   -0.15464E+03   -0.14886E+03    40   0.317E+02
DAV:   3    -0.245291978345E+02   -0.69929E+01   -0.69089E+01    48   0.931E+01
DAV:   4    -0.246395623834E+02   -0.11036E+00   -0.11035E+00    32   0.116E+01
DAV:   5    -0.246444455029E+02   -0.48831E-02   -0.48831E-02    56   0.149E+00    0.730E+00
DAV:   6    -0.238282465697E+02    0.81620E+00   -0.28911E+00    32   0.264E+01    0.367E+00
DAV:   7    -0.239075889135E+02   -0.79342E-01   -0.46436E-02    32   0.358E+00    0.194E+00
DAV:   8    -0.239538892978E+02   -0.46300E-01   -0.21207E-02    40   0.197E+00    0.907E-02
DAV:   9    -0.239540110208E+02   -0.12172E-03   -0.11588E-03    24   0.464E-01    0.427E-02
DAV:  10    -0.239540889652E+02   -0.77944E-04   -0.15365E-04    16   0.184E-01
   1 F= -.23954089E+02 E0= -.23962828E+02  d E =-.239541E+02
