       N       E                     dE             d eps       ncg     rms          rms(c)
DAV:   1     0.674077951957E+04    0.67408E+04   -0.11727E+05   888   0.254E+03
DAV:   2     0.230030319699E+04   -0.44405E+04   -0.40296E+04   976   0.775E+02
DAV:   3     0.646031076145E+03   -0.16543E+04   -0.14936E+04  1048   0.418E+02
DAV:   4    -0.111132442743E+03   -0.75716E+03   -0.68157E+03  1368   0.221E+02
DAV:   5    -0.365565499154E+03   -0.25443E+03   -0.24877E+03  1400   0.128E+02    0.477E+01
DAV:   6    -0.331530228313E+03    0.34035E+02   -0.30056E+02  1240   0.576E+01    0.141E+01
DAV:   7    -0.339494352848E+03   -0.79641E+01   -0.78652E+01  1528   0.265E+01    0.114E+01
DAV:   8    -0.339296154618E+03    0.19820E+00   -0.12560E+01  1608   0.123E+01    0.507E+00
DAV:   9    -0.339524745981E+03   -0.22859E+00   -0.31407E+00  1568   0.609E+00    0.176E+00
DAV:  10    -0.339516919659E+03    0.78263E-02   -0.59256E-01  1640   0.325E+00    0.903E-01
DAV:  11    -0.339528640504E+03   -0.11721E-01   -0.26605E-01  1664   0.173E+00    0.634E-01
DAV:  12    -0.339530067229E+03   -0.14267E-02   -0.89032E-02  1616   0.126E+00    0.374E-01
DAV:  13    -0.339529127029E+03    0.94020E-03   -0.43436E-02  1616   0.793E-01    0.198E-01
DAV:  14    -0.339527776183E+03    0.13508E-02   -0.12321E-02  1592   0.435E-01    0.844E-02
DAV:  15    -0.339527794807E+03   -0.18624E-04   -0.15077E-03  1352   0.175E-01    0.612E-02
DAV:  16    -0.339527796922E+03   -0.21142E-05   -0.10296E-03  1168   0.116E-01    0.272E-02
DAV:  17    -0.339527786593E+03    0.10328E-04   -0.13714E-04   728   0.838E-02
   1 F= -.33952779E+03 E0= -.33952779E+03  d E =-.339528E+03  mag=    -0.0006
       N       E                     dE             d eps       ncg     rms          rms(c)
DAV:   1    -0.339526728787E+03   -0.33953E+03   -0.12753E-01  1016   0.131E+00    0.765E-02
DAV:   2    -0.339528293090E+03   -0.15643E-02   -0.17554E-02  1536   0.628E-01    0.383E-02
DAV:   3    -0.339528317636E+03   -0.24546E-04   -0.59880E-04  1064   0.119E-01
   2 F= -.33952832E+03 E0= -.33952832E+03  d E =-.531042E-03  mag=    -0.0001
       N       E                     dE             d eps       ncg     rms          rms(c)
DAV:   1    -0.339528322770E+03   -0.33953E+03   -0.75429E-03  1240   0.313E-01    0.189E-02
DAV:   2    -0.339528372095E+03   -0.49326E-04   -0.59810E-04   976   0.132E-01
   3 F= -.33952837E+03 E0= -.33952837E+03  d E =-.585502E-03  mag=     0.0000
