   8   8   0   0
  0.9938375E+01  0.4300000E-09  0.4300000E-09  0.4300000E-09  0.5000000E-15
  1.000000000000000E-004
  CAR 
 bulk MgO relaxation                     
     19.57746218    -37.94607478  301      3.90229836      1.00000000
    -37.946  0.0000E+00  0.0000E+00  0.0000E+00  0.0000E+00
    -37.754  0.0000E+00  0.0000E+00  0.0000E+00  0.0000E+00
    -37.563  0.0000E+00  0.0000E+00  0.0000E+00  0.0000E+00
    -37.371  0.0000E+00  0.0000E+00  0.0000E+00  0.0000E+00
    -37.179  0.0000E+00  0.0000E+00  0.0000E+00  0.0000E+00
    -36.987  0.0000E+00  0.0000E+00  0.0000E+00  0.0000E+00
    -36.796  0.0000E+00  0.0000E+00  0.0000E+00  0.0000E+00
    -36.604  0.0000E+00  0.0000E+00  0.0000E+00  0.0000E+00
    -36.412  0.0000E+00  0.0000E+00  0.0000E+00  0.0000E+00
    -36.220  0.0000E+00  0.0000E+00  0.0000E+00  0.0000E+00
    -36.029  0.0000E+00  0.0000E+00  0.0000E+00  0.0000E+00
    -35.837  0.0000E+00  0.0000E+00  0.0000E+00  0.0000E+00
    -35.645  0.0000E+00  0.0000E+00  0.0000E+00  0.0000E+00
    -35.453  0.2397E-04  0.2405E-04  0.4597E-05  0.4611E-05
    -35.262  0.2722E+00  0.2722E+00  0.5219E-01  0.5220E-01
    -35.070  0.5549E-01  0.5543E-01  0.6283E-01  0.6283E-01
    -34.878  0.1931E-09  0.1921E-09  0.6283E-01  0.6283E-01
    -34.686  0.0000E+00  0.0000E+00  0.6283E-01  0.6283E-01
    -34.495  0.0000E+00  0.0000E+00  0.6283E-01  0.6283E-01
    -34.303  0.0000E+00  0.0000E+00  0.6283E-01  0.6283E-01
    -34.111  0.0000E+00  0.0000E+00  0.6283E-01  0.6283E-01
    -33.919  0.0000E+00  0.0000E+00  0.6283E-01  0.6283E-01
    -33.728  0.0000E+00  0.0000E+00  0.6283E-01  0.6283E-01
    -33.536  0.0000E+00  0.0000E+00  0.6283E-01  0.6283E-01
    -33.344  0.0000E+00  0.0000E+00  0.6283E-01  0.6283E-01
    -33.152  0.0000E+00  0.0000E+00  0.6283E-01  0.6283E-01
    -32.961  0.0000E+00  0.0000E+00  0.6283E-01  0.6283E-01
    -32.769  0.0000E+00  0.0000E+00  0.6283E-01  0.6283E-01
    -32.577  0.0000E+00  0.0000E+00  0.6283E-01  0.6283E-01
    -32.385  0.0000E+00  0.0000E+00  0.6283E-01  0.6283E-01
    -32.194  0.0000E+00  0.0000E+00  0.6283E-01  0.6283E-01
    -32.002  0.0000E+00  0.0000E+00  0.6283E-01  0.6283E-01
    -31.810  0.0000E+00  0.0000E+00  0.6283E-01  0.6283E-01
    -31.618  0.0000E+00  0.0000E+00  0.6283E-01  0.6283E-01
    -31.427  0.0000E+00  0.0000E+00  0.6283E-01  0.6283E-01
    -31.235  0.0000E+00  0.0000E+00  0.6283E-01  0.6283E-01
    -31.043  0.0000E+00  0.0000E+00  0.6283E-01  0.6283E-01
    -30.852  0.0000E+00  0.0000E+00  0.6283E-01  0.6283E-01
    -30.660  0.0000E+00  0.0000E+00  0.6283E-01  0.6283E-01
    -30.468  0.0000E+00  0.0000E+00  0.6283E-01  0.6283E-01
    -30.276  0.0000E+00  0.0000E+00  0.6283E-01  0.6283E-01
    -30.085  0.0000E+00  0.0000E+00  0.6283E-01  0.6283E-01
    -29.893  0.0000E+00  0.0000E+00  0.6283E-01  0.6283E-01
    -29.701  0.0000E+00  0.0000E+00  0.6283E-01  0.6283E-01
    -29.509  0.0000E+00  0.0000E+00  0.6283E-01  0.6283E-01
    -29.318  0.0000E+00  0.0000E+00  0.6283E-01  0.6283E-01
    -29.126  0.0000E+00  0.0000E+00  0.6283E-01  0.6283E-01
    -28.934  0.0000E+00  0.0000E+00  0.6283E-01  0.6283E-01
    -28.742  0.0000E+00  0.0000E+00  0.6283E-01  0.6283E-01
    -28.551  0.0000E+00  0.0000E+00  0.6283E-01  0.6283E-01
    -28.359  0.0000E+00  0.0000E+00  0.6283E-01  0.6283E-01
    -28.167  0.0000E+00  0.0000E+00  0.6283E-01  0.6283E-01
    -27.975  0.0000E+00  0.0000E+00  0.6283E-01  0.6283E-01
    -27.784  0.0000E+00  0.0000E+00  0.6283E-01  0.6283E-01
    -27.592  0.0000E+00  0.0000E+00  0.6283E-01  0.6283E-01
    -27.400  0.0000E+00  0.0000E+00  0.6283E-01  0.6283E-01
    -27.208  0.0000E+00  0.0000E+00  0.6283E-01  0.6283E-01
    -27.017  0.0000E+00  0.0000E+00  0.6283E-01  0.6283E-01
    -26.825  0.0000E+00  0.0000E+00  0.6283E-01  0.6283E-01
    -26.633  0.0000E+00  0.0000E+00  0.6283E-01  0.6283E-01
    -26.441  0.0000E+00  0.0000E+00  0.6283E-01  0.6283E-01
    -26.250  0.0000E+00  0.0000E+00  0.6283E-01  0.6283E-01
    -26.058  0.0000E+00  0.0000E+00  0.6283E-01  0.6283E-01
    -25.866  0.0000E+00  0.0000E+00  0.6283E-01  0.6283E-01
    -25.674  0.0000E+00  0.0000E+00  0.6283E-01  0.6283E-01
    -25.483  0.0000E+00  0.0000E+00  0.6283E-01  0.6283E-01
    -25.291  0.0000E+00  0.0000E+00  0.6283E-01  0.6283E-01
    -25.099  0.0000E+00  0.0000E+00  0.6283E-01  0.6283E-01
    -24.907  0.0000E+00  0.0000E+00  0.6283E-01  0.6283E-01
    -24.716  0.0000E+00  0.0000E+00  0.6283E-01  0.6283E-01
    -24.524  0.0000E+00  0.0000E+00  0.6283E-01  0.6283E-01
    -24.332  0.0000E+00  0.0000E+00  0.6283E-01  0.6283E-01
    -24.140  0.0000E+00  0.0000E+00  0.6283E-01  0.6283E-01
    -23.949  0.0000E+00  0.0000E+00  0.6283E-01  0.6283E-01
    -23.757  0.0000E+00  0.0000E+00  0.6283E-01  0.6283E-01
    -23.565  0.0000E+00  0.0000E+00  0.6283E-01  0.6283E-01
    -23.373  0.0000E+00  0.0000E+00  0.6283E-01  0.6283E-01
    -23.182  0.0000E+00  0.0000E+00  0.6283E-01  0.6283E-01
    -22.990  0.0000E+00  0.0000E+00  0.6283E-01  0.6283E-01
    -22.798  0.0000E+00  0.0000E+00  0.6283E-01  0.6283E-01
    -22.606  0.0000E+00  0.0000E+00  0.6283E-01  0.6283E-01
    -22.415  0.0000E+00  0.0000E+00  0.6283E-01  0.6283E-01
    -22.223  0.0000E+00  0.0000E+00  0.6283E-01  0.6283E-01
    -22.031  0.0000E+00  0.0000E+00  0.6283E-01  0.6283E-01
    -21.839  0.0000E+00  0.0000E+00  0.6283E-01  0.6283E-01
    -21.648  0.0000E+00  0.0000E+00  0.6283E-01  0.6283E-01
    -21.456  0.0000E+00  0.0000E+00  0.6283E-01  0.6283E-01
    -21.264  0.0000E+00  0.0000E+00  0.6283E-01  0.6283E-01
    -21.073  0.0000E+00  0.0000E+00  0.6283E-01  0.6283E-01
    -20.881  0.0000E+00  0.0000E+00  0.6283E-01  0.6283E-01
    -20.689  0.0000E+00  0.0000E+00  0.6283E-01  0.6283E-01
    -20.497  0.0000E+00  0.0000E+00  0.6283E-01  0.6283E-01
    -20.306  0.0000E+00  0.0000E+00  0.6283E-01  0.6283E-01
    -20.114  0.0000E+00  0.0000E+00  0.6283E-01  0.6283E-01
    -19.922  0.0000E+00  0.0000E+00  0.6283E-01  0.6283E-01
    -19.730  0.0000E+00  0.0000E+00  0.6283E-01  0.6283E-01
    -19.539  0.0000E+00  0.0000E+00  0.6283E-01  0.6283E-01
    -19.347  0.0000E+00  0.0000E+00  0.6283E-01  0.6283E-01
    -19.155  0.0000E+00  0.0000E+00  0.6283E-01  0.6283E-01
    -18.963  0.0000E+00  0.0000E+00  0.6283E-01  0.6283E-01
    -18.772  0.0000E+00  0.0000E+00  0.6283E-01  0.6283E-01
    -18.580  0.0000E+00  0.0000E+00  0.6283E-01  0.6283E-01
    -18.388  0.0000E+00  0.0000E+00  0.6283E-01  0.6283E-01
    -18.196  0.0000E+00  0.0000E+00  0.6283E-01  0.6283E-01
    -18.005  0.0000E+00  0.0000E+00  0.6283E-01  0.6283E-01
    -17.813  0.0000E+00  0.0000E+00  0.6283E-01  0.6283E-01
    -17.621  0.0000E+00  0.0000E+00  0.6283E-01  0.6283E-01
    -17.429  0.0000E+00  0.0000E+00  0.6283E-01  0.6283E-01
    -17.238  0.0000E+00  0.0000E+00  0.6283E-01  0.6283E-01
    -17.046  0.0000E+00  0.0000E+00  0.6283E-01  0.6283E-01
    -16.854  0.0000E+00  0.0000E+00  0.6283E-01  0.6283E-01
    -16.662  0.0000E+00  0.0000E+00  0.6283E-01  0.6283E-01
    -16.471  0.0000E+00  0.0000E+00  0.6283E-01  0.6283E-01
    -16.279  0.0000E+00  0.0000E+00  0.6283E-01  0.6283E-01
    -16.087  0.0000E+00  0.0000E+00  0.6283E-01  0.6283E-01
    -15.895  0.0000E+00  0.0000E+00  0.6283E-01  0.6283E-01
    -15.704  0.0000E+00  0.0000E+00  0.6283E-01  0.6283E-01
    -15.512  0.0000E+00  0.0000E+00  0.6283E-01  0.6283E-01
    -15.320  0.0000E+00  0.0000E+00  0.6283E-01  0.6283E-01
    -15.128  0.0000E+00  0.0000E+00  0.6283E-01  0.6283E-01
    -14.937  0.0000E+00  0.0000E+00  0.6283E-01  0.6283E-01
    -14.745  0.0000E+00  0.0000E+00  0.6283E-01  0.6283E-01
    -14.553  0.0000E+00  0.0000E+00  0.6283E-01  0.6283E-01
    -14.361  0.0000E+00  0.0000E+00  0.6283E-01  0.6283E-01
    -14.170  0.0000E+00  0.0000E+00  0.6283E-01  0.6283E-01
    -13.978  0.0000E+00  0.0000E+00  0.6283E-01  0.6283E-01
    -13.786  0.0000E+00  0.0000E+00  0.6283E-01  0.6283E-01
    -13.594  0.0000E+00  0.0000E+00  0.6283E-01  0.6283E-01
    -13.403  0.0000E+00  0.0000E+00  0.6283E-01  0.6283E-01
    -13.211  0.0000E+00  0.0000E+00  0.6283E-01  0.6283E-01
    -13.019  0.0000E+00  0.0000E+00  0.6283E-01  0.6283E-01
    -12.827  0.2483E-11  0.2488E-11  0.6283E-01  0.6283E-01
    -12.636  0.4653E-02  0.4655E-02  0.6372E-01  0.6372E-01
    -12.444  0.2265E-01  0.2265E-01  0.6806E-01  0.6806E-01
    -12.252  0.1064E-06  0.1062E-06  0.6806E-01  0.6806E-01
    -12.060  0.1724E-11  0.1728E-11  0.6806E-01  0.6806E-01
    -11.869  0.9860E-02  0.9865E-02  0.6995E-01  0.6995E-01
    -11.677  0.7205E-01  0.7205E-01  0.8377E-01  0.8377E-01
    -11.485  0.8748E-06  0.8735E-06  0.8377E-01  0.8377E-01
    -11.294  0.0000E+00  0.0000E+00  0.8377E-01  0.8377E-01
    -11.102  0.0000E+00  0.0000E+00  0.8377E-01  0.8377E-01
    -10.910  0.0000E+00  0.0000E+00  0.8377E-01  0.8377E-01
    -10.718  0.0000E+00  0.0000E+00  0.8377E-01  0.8377E-01
    -10.527  0.0000E+00  0.0000E+00  0.8377E-01  0.8377E-01
    -10.335  0.0000E+00  0.0000E+00  0.8377E-01  0.8377E-01
    -10.143  0.0000E+00  0.0000E+00  0.8377E-01  0.8377E-01
     -9.951  0.0000E+00  0.0000E+00  0.8377E-01  0.8377E-01
     -9.760  0.0000E+00  0.0000E+00  0.8377E-01  0.8377E-01
     -9.568  0.0000E+00  0.0000E+00  0.8377E-01  0.8377E-01
     -9.376  0.0000E+00  0.0000E+00  0.8377E-01  0.8377E-01
     -9.184  0.0000E+00  0.0000E+00  0.8377E-01  0.8377E-01
     -8.993  0.0000E+00  0.0000E+00  0.8377E-01  0.8377E-01
     -8.801  0.0000E+00  0.0000E+00  0.8377E-01  0.8377E-01
     -8.609  0.0000E+00  0.0000E+00  0.8377E-01  0.8377E-01
     -8.417  0.0000E+00  0.0000E+00  0.8377E-01  0.8377E-01
     -8.226  0.0000E+00  0.0000E+00  0.8377E-01  0.8377E-01
     -8.034  0.0000E+00  0.0000E+00  0.8377E-01  0.8377E-01
     -7.842  0.0000E+00  0.0000E+00  0.8377E-01  0.8377E-01
     -7.650  0.0000E+00  0.0000E+00  0.8377E-01  0.8377E-01
     -7.459  0.0000E+00  0.0000E+00  0.8377E-01  0.8377E-01
     -7.267  0.0000E+00  0.0000E+00  0.8377E-01  0.8377E-01
     -7.075  0.0000E+00  0.0000E+00  0.8377E-01  0.8377E-01
     -6.883  0.0000E+00  0.0000E+00  0.8377E-01  0.8377E-01
     -6.692  0.0000E+00  0.0000E+00  0.8377E-01  0.8377E-01
     -6.500  0.0000E+00  0.0000E+00  0.8377E-01  0.8377E-01
     -6.308  0.0000E+00  0.0000E+00  0.8377E-01  0.8377E-01
     -6.116  0.0000E+00  0.0000E+00  0.8377E-01  0.8377E-01
     -5.925  0.0000E+00  0.0000E+00  0.8377E-01  0.8377E-01
     -5.733  0.0000E+00  0.0000E+00  0.8377E-01  0.8377E-01
     -5.541  0.0000E+00  0.0000E+00  0.8377E-01  0.8377E-01
     -5.349  0.0000E+00  0.0000E+00  0.8377E-01  0.8377E-01
     -5.158  0.0000E+00  0.0000E+00  0.8377E-01  0.8377E-01
     -4.966  0.0000E+00  0.0000E+00  0.8377E-01  0.8377E-01
     -4.774  0.0000E+00  0.0000E+00  0.8377E-01  0.8377E-01
     -4.582  0.0000E+00  0.0000E+00  0.8377E-01  0.8377E-01
     -4.391  0.0000E+00  0.0000E+00  0.8377E-01  0.8377E-01
     -4.199  0.0000E+00  0.0000E+00  0.8377E-01  0.8377E-01
     -4.007  0.0000E+00  0.0000E+00  0.8377E-01  0.8377E-01
     -3.815  0.0000E+00  0.0000E+00  0.8377E-01  0.8377E-01
     -3.624  0.0000E+00  0.0000E+00  0.8377E-01  0.8377E-01
     -3.432  0.0000E+00  0.0000E+00  0.8377E-01  0.8377E-01
     -3.240  0.0000E+00  0.0000E+00  0.8377E-01  0.8377E-01
     -3.048  0.0000E+00  0.0000E+00  0.8377E-01  0.8377E-01
     -2.857  0.0000E+00  0.0000E+00  0.8377E-01  0.8377E-01
     -2.665  0.0000E+00  0.0000E+00  0.8377E-01  0.8377E-01
     -2.473  0.0000E+00  0.0000E+00  0.8377E-01  0.8377E-01
     -2.281  0.0000E+00  0.0000E+00  0.8377E-01  0.8377E-01
     -2.090  0.0000E+00  0.0000E+00  0.8377E-01  0.8377E-01
     -1.898  0.0000E+00  0.0000E+00  0.8377E-01  0.8377E-01
     -1.706  0.0000E+00  0.0000E+00  0.8377E-01  0.8377E-01
     -1.515  0.0000E+00  0.0000E+00  0.8377E-01  0.8377E-01
     -1.323  0.0000E+00  0.0000E+00  0.8377E-01  0.8377E-01
     -1.131  0.0000E+00  0.0000E+00  0.8377E-01  0.8377E-01
     -0.939  0.0000E+00  0.0000E+00  0.8377E-01  0.8377E-01
     -0.748  0.0000E+00  0.0000E+00  0.8377E-01  0.8377E-01
     -0.556  0.0000E+00  0.0000E+00  0.8377E-01  0.8377E-01
     -0.364  0.0000E+00  0.0000E+00  0.8377E-01  0.8377E-01
     -0.172  0.0000E+00  0.0000E+00  0.8377E-01  0.8377E-01
      0.019  0.9319E-08  0.9332E-08  0.8377E-01  0.8377E-01
      0.211  0.4898E-01  0.4899E-01  0.9316E-01  0.9316E-01
      0.403  0.3293E-01  0.3293E-01  0.9948E-01  0.9948E-01
      0.595  0.5800E-09  0.5791E-09  0.9948E-01  0.9948E-01
      0.786  0.0000E+00  0.0000E+00  0.9948E-01  0.9948E-01
      0.978  0.0000E+00  0.0000E+00  0.9948E-01  0.9948E-01
      1.170  0.2501E-05  0.2504E-05  0.9948E-01  0.9948E-01
      1.362  0.2604E-01  0.2604E-01  0.1045E+00  0.1045E+00
      1.553  0.1263E-02  0.1262E-02  0.1047E+00  0.1047E+00
      1.745  0.0000E+00  0.0000E+00  0.1047E+00  0.1047E+00
      1.937  0.4539E-04  0.4545E-04  0.1047E+00  0.1047E+00
      2.129  0.8062E-01  0.8062E-01  0.1202E+00  0.1202E+00
      2.320  0.1254E-02  0.1253E-02  0.1204E+00  0.1204E+00
      2.512  0.0000E+00  0.0000E+00  0.1204E+00  0.1204E+00
      2.704  0.7019E-10  0.7035E-10  0.1204E+00  0.1204E+00
      2.896  0.2248E-01  0.2249E-01  0.1247E+00  0.1247E+00
      3.087  0.5944E-01  0.5943E-01  0.1361E+00  0.1361E+00
      3.279  0.5766E-07  0.5756E-07  0.1361E+00  0.1361E+00
      3.471  0.1250E-03  0.1251E-03  0.1361E+00  0.1361E+00
      3.663  0.5422E-01  0.5422E-01  0.1465E+00  0.1465E+00
      3.854  0.2636E-03  0.2633E-03  0.1466E+00  0.1466E+00
      4.046  0.0000E+00  0.0000E+00  0.1466E+00  0.1466E+00
      4.238  0.0000E+00  0.0000E+00  0.1466E+00  0.1466E+00
      4.430  0.0000E+00  0.0000E+00  0.1466E+00  0.1466E+00
      4.621  0.0000E+00  0.0000E+00  0.1466E+00  0.1466E+00
      4.813  0.0000E+00  0.0000E+00  0.1466E+00  0.1466E+00
      5.005  0.0000E+00  0.0000E+00  0.1466E+00  0.1466E+00
      5.197  0.0000E+00  0.0000E+00  0.1466E+00  0.1466E+00
      5.388  0.0000E+00  0.0000E+00  0.1466E+00  0.1466E+00
      5.580  0.0000E+00  0.0000E+00  0.1466E+00  0.1466E+00
      5.772  0.0000E+00  0.0000E+00  0.1466E+00  0.1466E+00
      5.964  0.0000E+00  0.0000E+00  0.1466E+00  0.1466E+00
      6.155  0.0000E+00  0.0000E+00  0.1466E+00  0.1466E+00
      6.347  0.0000E+00  0.0000E+00  0.1466E+00  0.1466E+00
      6.539  0.0000E+00  0.0000E+00  0.1466E+00  0.1466E+00
      6.731  0.0000E+00  0.0000E+00  0.1466E+00  0.1466E+00
      6.922  0.0000E+00  0.0000E+00  0.1466E+00  0.1466E+00
      7.114  0.0000E+00  0.0000E+00  0.1466E+00  0.1466E+00
      7.306  0.0000E+00  0.0000E+00  0.1466E+00  0.1466E+00
      7.498  0.0000E+00  0.0000E+00  0.1466E+00  0.1466E+00
      7.689  0.0000E+00  0.0000E+00  0.1466E+00  0.1466E+00
      7.881  0.0000E+00  0.0000E+00  0.1466E+00  0.1466E+00
      8.073  0.0000E+00  0.0000E+00  0.1466E+00  0.1466E+00
      8.264  0.0000E+00  0.0000E+00  0.1466E+00  0.1466E+00
      8.456  0.0000E+00  0.0000E+00  0.1466E+00  0.1466E+00
      8.648  0.0000E+00  0.0000E+00  0.1466E+00  0.1466E+00
      8.840  0.0000E+00  0.0000E+00  0.1466E+00  0.1466E+00
      9.031  0.0000E+00  0.0000E+00  0.1466E+00  0.1466E+00
      9.223  0.0000E+00  0.0000E+00  0.1466E+00  0.1466E+00
      9.415  0.0000E+00  0.0000E+00  0.1466E+00  0.1466E+00
      9.607  0.0000E+00  0.0000E+00  0.1466E+00  0.1466E+00
      9.798  0.0000E+00  0.0000E+00  0.1466E+00  0.1466E+00
      9.990  0.0000E+00  0.0000E+00  0.1466E+00  0.1466E+00
     10.182  0.0000E+00  0.0000E+00  0.1466E+00  0.1466E+00
     10.374  0.0000E+00  0.0000E+00  0.1466E+00  0.1466E+00
     10.565  0.6635E-11  0.6635E-11  0.1466E+00  0.1466E+00
     10.757  0.5783E-02  0.5783E-02  0.1477E+00  0.1477E+00
     10.949  0.2152E-01  0.2152E-01  0.1518E+00  0.1518E+00
     11.141  0.5159E-07  0.5159E-07  0.1518E+00  0.1518E+00
     11.332  0.0000E+00  0.0000E+00  0.1518E+00  0.1518E+00
     11.524  0.0000E+00  0.0000E+00  0.1518E+00  0.1518E+00
     11.716  0.0000E+00  0.0000E+00  0.1518E+00  0.1518E+00
     11.908  0.0000E+00  0.0000E+00  0.1518E+00  0.1518E+00
     12.099  0.0000E+00  0.0000E+00  0.1518E+00  0.1518E+00
     12.291  0.0000E+00  0.0000E+00  0.1518E+00  0.1518E+00
     12.483  0.0000E+00  0.0000E+00  0.1518E+00  0.1518E+00
     12.675  0.0000E+00  0.0000E+00  0.1518E+00  0.1518E+00
     12.866  0.0000E+00  0.0000E+00  0.1518E+00  0.1518E+00
     13.058  0.0000E+00  0.0000E+00  0.1518E+00  0.1518E+00
     13.250  0.1602E-08  0.1603E-08  0.1518E+00  0.1518E+00
     13.442  0.3863E-01  0.3863E-01  0.1592E+00  0.1592E+00
     13.633  0.4329E-01  0.4328E-01  0.1675E+00  0.1675E+00
     13.825  0.3563E-08  0.3561E-08  0.1675E+00  0.1675E+00
     14.017  0.0000E+00  0.0000E+00  0.1675E+00  0.1675E+00
     14.209  0.0000E+00  0.0000E+00  0.1675E+00  0.1675E+00
     14.400  0.0000E+00  0.0000E+00  0.1675E+00  0.1675E+00
     14.592  0.0000E+00  0.0000E+00  0.1675E+00  0.1675E+00
     14.784  0.0000E+00  0.0000E+00  0.1675E+00  0.1675E+00
     14.976  0.4547E-17  0.4547E-17  0.1675E+00  0.1675E+00
     15.167  0.1638E-03  0.1639E-03  0.1676E+00  0.1676E+00
     15.359  0.8130E-01  0.8130E-01  0.1832E+00  0.1832E+00
     15.551  0.4473E-03  0.4472E-03  0.1832E+00  0.1832E+00
     15.743  0.0000E+00  0.0000E+00  0.1832E+00  0.1832E+00
     15.934  0.0000E+00  0.0000E+00  0.1832E+00  0.1832E+00
     16.126  0.6012E-10  0.6021E-10  0.1832E+00  0.1832E+00
     16.318  0.8961E-02  0.8964E-02  0.1850E+00  0.1850E+00
     16.510  0.1834E-01  0.1834E-01  0.1885E+00  0.1885E+00
     16.701  0.8750E-08  0.8738E-08  0.1885E+00  0.1885E+00
     16.893  0.6638E-03  0.6634E-03  0.1886E+00  0.1886E+00
     17.085  0.2663E-01  0.2663E-01  0.1937E+00  0.1937E+00
     17.277  0.7611E-05  0.7618E-05  0.1937E+00  0.1937E+00
     17.468  0.0000E+00  0.0000E+00  0.1937E+00  0.1937E+00
     17.660  0.0000E+00  0.0000E+00  0.1937E+00  0.1937E+00
     17.852  0.0000E+00  0.0000E+00  0.1937E+00  0.1937E+00
     18.044  0.0000E+00  0.0000E+00  0.1937E+00  0.1937E+00
     18.235  0.0000E+00  0.0000E+00  0.1937E+00  0.1937E+00
     18.427  0.0000E+00  0.0000E+00  0.1937E+00  0.1937E+00
     18.619  0.0000E+00  0.0000E+00  0.1937E+00  0.1937E+00
     18.810  0.0000E+00  0.0000E+00  0.1937E+00  0.1937E+00
     19.002  0.0000E+00  0.0000E+00  0.1937E+00  0.1937E+00
     19.194  0.0000E+00  0.0000E+00  0.1937E+00  0.1937E+00
     19.386  0.0000E+00  0.0000E+00  0.1937E+00  0.1937E+00
     19.577  0.0000E+00  0.0000E+00  0.1937E+00  0.1937E+00
