Processors received = 12
script running on host compute-1-25.local
PBS_NODEFILE
compute-1-25
compute-1-25
compute-1-25
compute-1-25
compute-1-25
compute-1-25
compute-1-25
compute-1-25
compute-1-25
compute-1-25
compute-1-25
compute-1-25
 running on   12 nodes
 distr:  one band on    1 nodes,   12 groups
 vasp.5.2.2 15Apr09 complex 
 POSCAR found type information on POSCAR  Al
 POSCAR found :  1 types and   31 ions

 ----------------------------------------------------------------------------- 
|                                                                             |
|  ADVICE TO THIS USER RUNNING 'VASP/VAMP'   (HEAR YOUR MASTER'S VOICE ...):  |
|                                                                             |
|      You have a (more or less) 'large supercell' and for larger cells       |
|      it might be more efficient to use real space projection operators      |
|      So try LREAL= Auto  in the INCAR   file.                               |
|      Mind: If you want to do a very accurate calculations keep the          |
|      reciprocal projection scheme          (i.e. LREAL=.FALSE.)             |
|                                                                             |
 ----------------------------------------------------------------------------- 

 LDA part: xc-table for Pade appr. of Perdew
 POSCAR, INCAR and KPOINTS ok, starting setup
 FFT: planning ...(           1 )
 reading WAVECAR
 entering main loop
       N       E                     dE             d eps       ncg     rms          rms(c)
RMM:   1     0.238738757477E+03    0.23874E+03   -0.15711E+04    72   0.538E+02
RMM:   2    -0.261423347535E+02   -0.26488E+03   -0.25755E+03    72   0.112E+02
RMM:   3    -0.747930594458E+02   -0.48651E+02   -0.48347E+02    72   0.355E+01
RMM:   4    -0.901844025907E+02   -0.15391E+02   -0.11560E+02    72   0.198E+01
RMM:   5    -0.969525879370E+02   -0.67682E+01   -0.44924E+01    72   0.113E+01
RMM:   6    -0.993213120431E+02   -0.23687E+01   -0.17912E+01    72   0.673E+00
RMM:   7    -0.100194546764E+03   -0.87323E+00   -0.73385E+00    72   0.401E+00
RMM:   8    -0.100583408942E+03   -0.38886E+00   -0.33970E+00    72   0.248E+00
RMM:   9    -0.100927341381E+03   -0.34393E+00   -0.31869E+00   167   0.162E+00
RMM:  10    -0.100974099615E+03   -0.46758E-01   -0.29321E-01   153   0.358E-01
RMM:  11    -0.100977397726E+03   -0.32981E-02   -0.17208E-02   131   0.904E-02
RMM:  12    -0.100977502886E+03   -0.10516E-03   -0.46634E-04   102   0.208E-02    0.651E+00
RMM:  13    -0.999042121632E+02    0.10733E+01   -0.21227E+00   144   0.186E+00    0.390E+00
RMM:  14    -0.996430993143E+02    0.26111E+00   -0.21002E-01   144   0.804E-01    0.232E+00
RMM:  15    -0.995138753188E+02    0.12922E+00   -0.11298E-01   146   0.652E-01    0.575E-01
RMM:  16    -0.995032275051E+02    0.10648E-01   -0.10964E-02   144   0.198E-01    0.144E-01
RMM:  17    -0.995024800992E+02    0.74741E-03   -0.22011E-03   144   0.840E-02    0.448E-02
RMM:  18    -0.995025059485E+02   -0.25849E-04   -0.26474E-04   103   0.330E-02
   1 F= -.99502506E+02 E0= -.99452355E+02  d E =-.995025E+02
 curvature:   0.00 expect dE= 0.000E+00 dE for cont linesearch  0.000E+00
 trial: gam= 0.00000 g(F)=  0.398E-01 g(S)=  0.000E+00 ort = 0.000E+00 (trialstep = 0.100E+01)
 search vector abs. value=  0.398E-01
 bond charge predicted
       N       E                     dE             d eps       ncg     rms          rms(c)
RMM:   1    -0.995496735531E+02   -0.47193E-01   -0.25463E-01   144   0.125E+00    0.291E-01
RMM:   2    -0.995421901770E+02    0.74834E-02   -0.17373E-02   144   0.233E-01    0.705E-02
RMM:   3    -0.995418984581E+02    0.29172E-03   -0.70560E-04   131   0.539E-02    0.356E-02
RMM:   4    -0.995418733104E+02    0.25148E-04   -0.77549E-05    90   0.201E-02
   2 F= -.99541873E+02 E0= -.99503281E+02  d E =-.393674E-01
 ZBRENT: can't locate minimum, use default step
 trial-energy change:   -0.039367  1 .order   -0.039383   -0.039837   -0.038929
 step:   4.0000(harm= 43.8521)  dis= 0.03572  next Energy=  -100.375978 (dE=-0.873E+00)
 bond charge predicted
       N       E                     dE             d eps       ncg     rms          rms(c)
RMM:   1    -0.996875040909E+02   -0.14561E+00   -0.22417E+00   144   0.373E+00    0.635E-01
RMM:   2    -0.996479871896E+02    0.39517E-01   -0.10383E-01   144   0.607E-01    0.239E-01
RMM:   3    -0.996432389967E+02    0.47482E-02   -0.10317E-02   147   0.175E-01    0.110E-01
RMM:   4    -0.996428797383E+02    0.35926E-03   -0.96193E-04   140   0.613E-02    0.521E-02
RMM:   5    -0.996428842543E+02   -0.45160E-05   -0.16928E-04    86   0.285E-02
   3 F= -.99642884E+02 E0= -.99631703E+02  d E =-.140378E+00
 curvature:  -2.96 expect dE=-0.488E-01 dE for cont linesearch -0.488E-01
 trial: gam=-0.22943 g(F)=  0.165E-01 g(S)=  0.000E+00 ort = 0.256E-01 (trialstep = 0.160E+01)
 search vector abs. value=  0.683E-02
 bond charge predicted
       N       E                     dE             d eps       ncg     rms          rms(c)
RMM:   1    -0.996598769856E+02   -0.16997E-01   -0.10994E-01   144   0.826E-01    0.124E-01
RMM:   2    -0.996584390737E+02    0.14379E-02   -0.45611E-03   144   0.129E-01    0.448E-02
RMM:   3    -0.996582491449E+02    0.18993E-03   -0.37994E-04   117   0.360E-02    0.188E-02
RMM:   4    -0.996582451062E+02    0.40387E-05   -0.32455E-05    79   0.152E-02
   4 F= -.99658245E+02 E0= -.99650017E+02  d E =-.153609E-01
 ZBRENT: can't locate minimum, use default step
 trial-energy change:   -0.015361  1 .order   -0.015308   -0.016974   -0.013643
 step:   6.4000(harm=  8.1531)  dis= 0.02368  next Energy=   -99.686131 (dE=-0.432E-01)
 bond charge predicted
       N       E                     dE             d eps       ncg     rms          rms(c)
RMM:   1    -0.996929767723E+02   -0.34728E-01   -0.97359E-01   144   0.247E+00    0.344E-01
RMM:   2    -0.996832123096E+02    0.97645E-02   -0.39095E-02   144   0.375E-01    0.139E-01
RMM:   3    -0.996812305463E+02    0.19818E-02   -0.34250E-03   145   0.106E-01    0.571E-02
RMM:   4    -0.996811713288E+02    0.59218E-04   -0.41347E-04   113   0.386E-02
   5 F= -.99681171E+02 E0= -.99673333E+02  d E =-.382871E-01
 curvature:  -2.44 expect dE=-0.159E-01 dE for cont linesearch -0.183E-03
 trial: gam= 0.33234 g(F)=  0.654E-02 g(S)=  0.000E+00 ort = 0.716E-03 (trialstep = 0.225E+01)
 search vector abs. value=  0.777E-02
 reached required accuracy - stopping structural energy minimisation
