  31  31   0   0
  0.1706118E+02  0.8087052E-09  0.8087052E-09  0.8087052E-09  0.5000000E-15
  1.000000000000000E-004
  CAR 
 unknown system                          
     12.43400968     -5.39958951  301      7.87148403      1.00000000
     -5.400  0.0000E+00  0.0000E+00
     -5.340  0.0000E+00  0.0000E+00
     -5.281  0.0000E+00  0.0000E+00
     -5.221  0.0000E+00  0.0000E+00
     -5.162  0.0000E+00  0.0000E+00
     -5.102  0.0000E+00  0.0000E+00
     -5.043 -0.1952E-29 -0.1160E-30
     -4.983 -0.2257E-27 -0.1353E-28
     -4.924 -0.2200E-25 -0.1321E-26
     -4.865 -0.1793E-23 -0.1079E-24
     -4.805 -0.1223E-21 -0.7376E-23
     -4.746 -0.6970E-20 -0.4217E-21
     -4.686 -0.3322E-18 -0.2017E-19
     -4.627 -0.1323E-16 -0.8065E-18
     -4.567 -0.4303E-15 -0.2638E-16
     -4.508 -0.1182E-13 -0.7292E-15
     -4.448 -0.2732E-12 -0.1697E-13
     -4.389 -0.5259E-11 -0.3296E-12
     -4.330 -0.8428E-10 -0.5340E-11
     -4.270 -0.1123E-08 -0.7212E-10
     -4.211 -0.1244E-07 -0.8114E-09
     -4.151 -0.1141E-06 -0.7593E-08
     -4.092 -0.8650E-06 -0.5902E-07
     -4.032 -0.5401E-05 -0.3801E-06
     -3.973 -0.2763E-04 -0.2022E-05
     -3.913 -0.1148E-03 -0.8846E-05
     -3.854 -0.3823E-03 -0.3157E-04
     -3.795 -0.9950E-03 -0.9071E-04
     -3.735 -0.1914E-02 -0.2045E-03
     -3.676 -0.2278E-02 -0.3399E-03
     -3.616  0.1263E-03 -0.3324E-03
     -3.557  0.7993E-02  0.1427E-03
     -3.497  0.2158E-01  0.1426E-02
     -3.438  0.3612E-01  0.3572E-02
     -3.378  0.4364E-01  0.6167E-02
     -3.319  0.3934E-01  0.8505E-02
     -3.260  0.2602E-01  0.1005E-01
     -3.200  0.1144E-01  0.1073E-01
     -3.141  0.1748E-02  0.1084E-01
     -3.081 -0.1996E-02  0.1072E-01
     -3.022 -0.2148E-02  0.1059E-01
     -2.962 -0.1245E-02  0.1052E-01
     -2.903 -0.5176E-03  0.1048E-01
     -2.843 -0.1663E-03  0.1047E-01
     -2.784 -0.4260E-04  0.1047E-01
     -2.725 -0.8835E-05  0.1047E-01
     -2.665 -0.1498E-05  0.1047E-01
     -2.606 -0.2088E-06  0.1047E-01
     -2.546 -0.2404E-07  0.1047E-01
     -2.487 -0.2293E-08  0.1047E-01
     -2.427 -0.1815E-09  0.1047E-01
     -2.368 -0.1223E-10  0.1047E-01
     -2.308 -0.6535E-11  0.1047E-01
     -2.249 -0.9806E-10  0.1047E-01
     -2.190 -0.1361E-08  0.1047E-01
     -2.130 -0.1570E-07  0.1047E-01
     -2.071 -0.1505E-06  0.1047E-01
     -2.011 -0.1196E-05  0.1047E-01
     -1.952 -0.7864E-05  0.1047E-01
     -1.892 -0.4261E-04  0.1047E-01
     -1.833 -0.1894E-03  0.1046E-01
     -1.773 -0.6853E-03  0.1042E-01
     -1.714 -0.1991E-02  0.1030E-01
     -1.655 -0.4522E-02  0.1003E-01
     -1.595 -0.7506E-02  0.9583E-02
     -1.536 -0.7028E-02  0.9165E-02
     -1.476  0.4826E-02  0.9452E-02
     -1.417  0.3653E-01  0.1162E-01
     -1.357  0.8884E-01  0.1690E-01
     -1.298  0.1479E+00  0.2569E-01
     -1.238  0.1882E+00  0.3688E-01
     -1.179  0.1886E+00  0.4810E-01
     -1.120  0.1479E+00  0.5689E-01
     -1.060  0.8672E-01  0.6204E-01
     -1.001  0.3208E-01  0.6395E-01
     -0.941 -0.2908E-03  0.6393E-01
     -0.882 -0.1015E-01  0.6333E-01
     -0.822 -0.4518E-02  0.6306E-01
     -0.763  0.1001E-01  0.6366E-01
     -0.703  0.2755E-01  0.6529E-01
     -0.644  0.4070E-01  0.6771E-01
     -0.585  0.4280E-01  0.7026E-01
     -0.525  0.3323E-01  0.7223E-01
     -0.466  0.1828E-01  0.7332E-01
     -0.406  0.5724E-02  0.7366E-01
     -0.347 -0.7849E-03  0.7361E-01
     -0.287 -0.2338E-02  0.7347E-01
     -0.228 -0.1712E-02  0.7337E-01
     -0.168 -0.8261E-03  0.7332E-01
     -0.109 -0.2998E-03  0.7330E-01
     -0.050 -0.8563E-04  0.7330E-01
      0.010 -0.1969E-04  0.7330E-01
      0.069 -0.3825E-05  0.7330E-01
      0.129 -0.1757E-05  0.7330E-01
      0.188 -0.8201E-05  0.7330E-01
      0.248 -0.4571E-04  0.7330E-01
      0.307 -0.2109E-03  0.7328E-01
      0.367 -0.7936E-03  0.7324E-01
      0.426 -0.2406E-02  0.7309E-01
      0.485 -0.5751E-02  0.7275E-01
      0.545 -0.1028E-01  0.7214E-01
      0.604 -0.1156E-01  0.7145E-01
      0.664  0.6733E-03  0.7149E-01
      0.723  0.3938E-01  0.7383E-01
      0.783  0.1102E+00  0.8038E-01
      0.842  0.2000E+00  0.9227E-01
      0.902  0.2755E+00  0.1086E+00
      0.961  0.2997E+00  0.1265E+00
      1.021  0.2577E+00  0.1418E+00
      1.080  0.1726E+00  0.1520E+00
      1.139  0.9311E-01  0.1576E+00
      1.199  0.5940E-01  0.1611E+00
      1.258  0.7488E-01  0.1656E+00
      1.318  0.1079E+00  0.1720E+00
      1.377  0.1206E+00  0.1791E+00
      1.437  0.9883E-01  0.1850E+00
      1.496  0.5697E-01  0.1884E+00
      1.556  0.1913E-01  0.1895E+00
      1.615 -0.1666E-02  0.1894E+00
      1.674 -0.7443E-02  0.1890E+00
      1.734 -0.6471E-02  0.1886E+00
      1.793 -0.4686E-02  0.1883E+00
      1.853 -0.3168E-02  0.1882E+00
      1.912  0.5123E-03  0.1882E+00
      1.972  0.9425E-02  0.1887E+00
      2.031  0.2358E-01  0.1901E+00
      2.091  0.3766E-01  0.1924E+00
      2.150  0.4377E-01  0.1950E+00
      2.209  0.3797E-01  0.1972E+00
      2.269  0.2401E-01  0.1987E+00
      2.328  0.9816E-02  0.1993E+00
      2.388  0.9451E-03  0.1993E+00
      2.447 -0.2188E-02  0.1992E+00
      2.507 -0.2180E-02  0.1990E+00
      2.566 -0.1556E-02  0.1990E+00
      2.626 -0.1544E-02  0.1989E+00
      2.685 -0.2212E-02  0.1987E+00
      2.744 -0.2563E-02  0.1986E+00
      2.804 -0.5695E-03  0.1985E+00
      2.863  0.5559E-02  0.1989E+00
      2.923  0.1492E-01  0.1998E+00
      2.982  0.2406E-01  0.2012E+00
      3.042  0.3353E-01  0.2032E+00
      3.101  0.5486E-01  0.2064E+00
      3.161  0.1038E+00  0.2126E+00
      3.220  0.1780E+00  0.2232E+00
      3.279  0.2433E+00  0.2377E+00
      3.339  0.2563E+00  0.2529E+00
      3.398  0.2040E+00  0.2650E+00
      3.458  0.1167E+00  0.2720E+00
      3.517  0.3982E-01  0.2743E+00
      3.577 -0.2272E-02  0.2742E+00
      3.636 -0.1376E-01  0.2734E+00
      3.696 -0.1077E-01  0.2727E+00
      3.755 -0.5483E-02  0.2724E+00
      3.814 -0.2330E-02  0.2723E+00
      3.874 -0.1439E-02  0.2722E+00
      3.933 -0.1876E-02  0.2721E+00
      3.993 -0.2364E-02  0.2719E+00
      4.052 -0.6991E-03  0.2719E+00
      4.112  0.5964E-02  0.2722E+00
      4.171  0.1865E-01  0.2734E+00
      4.231  0.3358E-01  0.2754E+00
      4.290  0.4299E-01  0.2779E+00
      4.349  0.4081E-01  0.2803E+00
      4.409  0.2804E-01  0.2820E+00
      4.468  0.1149E-01  0.2827E+00
      4.528 -0.2064E-02  0.2826E+00
      4.587 -0.8654E-02  0.2820E+00
      4.647 -0.4409E-02  0.2818E+00
      4.706  0.1631E-01  0.2828E+00
      4.766  0.5508E-01  0.2860E+00
      4.825  0.1004E+00  0.2920E+00
      4.884  0.1290E+00  0.2997E+00
      4.944  0.1233E+00  0.3070E+00
      5.003  0.8711E-01  0.3122E+00
      5.063  0.4224E-01  0.3147E+00
      5.122  0.9505E-02  0.3152E+00
      5.182 -0.4894E-02  0.3150E+00
      5.241 -0.6799E-02  0.3146E+00
      5.301 -0.4292E-02  0.3143E+00
      5.360 -0.1891E-02  0.3142E+00
      5.419 -0.6386E-03  0.3141E+00
      5.479 -0.1769E-03  0.3141E+00
      5.538 -0.7095E-04  0.3141E+00
      5.598 -0.1577E-03  0.3141E+00
      5.657 -0.5411E-03  0.3141E+00
      5.717 -0.1523E-02  0.3140E+00
      5.776 -0.3250E-02  0.3138E+00
      5.836 -0.4669E-02  0.3135E+00
      5.895 -0.2207E-02  0.3134E+00
      5.954  0.9635E-02  0.3140E+00
      6.014  0.3352E-01  0.3160E+00
      6.073  0.6297E-01  0.3197E+00
      6.133  0.8287E-01  0.3246E+00
      6.192  0.8072E-01  0.3294E+00
      6.252  0.5868E-01  0.3329E+00
      6.311  0.3234E-01  0.3348E+00
      6.371  0.1728E-01  0.3359E+00
      6.430  0.2021E-01  0.3371E+00
      6.489  0.4363E-01  0.3397E+00
      6.549  0.9186E-01  0.3451E+00
      6.608  0.1620E+00  0.3548E+00
      6.668  0.2292E+00  0.3684E+00
      6.727  0.2554E+00  0.3836E+00
      6.787  0.2239E+00  0.3969E+00
      6.846  0.1617E+00  0.4065E+00
      6.906  0.1154E+00  0.4134E+00
      6.965  0.1051E+00  0.4196E+00
      7.024  0.1112E+00  0.4262E+00
      7.084  0.1037E+00  0.4324E+00
      7.143  0.7871E-01  0.4371E+00
      7.203  0.5974E-01  0.4406E+00
      7.262  0.6815E-01  0.4447E+00
      7.322  0.9843E-01  0.4505E+00
      7.381  0.1239E+00  0.4579E+00
      7.441  0.1237E+00  0.4652E+00
      7.500  0.1002E+00  0.4712E+00
      7.559  0.6989E-01  0.4753E+00
      7.619  0.4438E-01  0.4780E+00
      7.678  0.2604E-01  0.4795E+00
      7.738  0.1767E-01  0.4806E+00
      7.797  0.2724E-01  0.4822E+00
      7.857  0.5839E-01  0.4857E+00
      7.916  0.9981E-01  0.4916E+00
      7.976  0.1306E+00  0.4994E+00
      8.035  0.1383E+00  0.5076E+00
      8.095  0.1284E+00  0.5152E+00
      8.154  0.1122E+00  0.5219E+00
      8.213  0.9298E-01  0.5274E+00
      8.273  0.6679E-01  0.5314E+00
      8.332  0.3392E-01  0.5334E+00
      8.392  0.1959E-02  0.5335E+00
      8.451 -0.1884E-01  0.5324E+00
      8.511 -0.1624E-01  0.5314E+00
      8.570  0.2619E-01  0.5330E+00
      8.630  0.1199E+00  0.5401E+00
      8.689  0.2497E+00  0.5550E+00
      8.748  0.3640E+00  0.5766E+00
      8.808  0.4016E+00  0.6005E+00
      8.867  0.3396E+00  0.6207E+00
      8.927  0.2150E+00  0.6334E+00
      8.986  0.9912E-01  0.6393E+00
      9.046  0.4688E-01  0.6421E+00
      9.105  0.6589E-01  0.6460E+00
      9.165  0.1193E+00  0.6531E+00
      9.224  0.1556E+00  0.6624E+00
      9.283  0.1462E+00  0.6711E+00
      9.343  0.1051E+00  0.6773E+00
      9.402  0.7376E-01  0.6817E+00
      9.462  0.8222E-01  0.6866E+00
      9.521  0.1226E+00  0.6939E+00
      9.581  0.1578E+00  0.7033E+00
      9.640  0.1557E+00  0.7125E+00
      9.700  0.1146E+00  0.7193E+00
      9.759  0.5945E-01  0.7229E+00
      9.818  0.1644E-01  0.7238E+00
      9.878 -0.4857E-02  0.7235E+00
      9.937 -0.1043E-01  0.7229E+00
      9.997 -0.1007E-01  0.7223E+00
     10.056 -0.8427E-02  0.7218E+00
     10.116 -0.2941E-02  0.7216E+00
     10.175  0.1302E-01  0.7224E+00
     10.235  0.4325E-01  0.7250E+00
     10.294  0.8159E-01  0.7298E+00
     10.353  0.1119E+00  0.7365E+00
     10.413  0.1182E+00  0.7435E+00
     10.472  0.9727E-01  0.7493E+00
     10.532  0.6094E-01  0.7529E+00
     10.591  0.2642E-01  0.7545E+00
     10.651  0.4527E-02  0.7548E+00
     10.710 -0.4149E-02  0.7545E+00
     10.770 -0.4893E-02  0.7542E+00
     10.829 -0.3048E-02  0.7540E+00
     10.888 -0.1374E-02  0.7540E+00
     10.948 -0.4832E-03  0.7539E+00
     11.007 -0.1366E-03  0.7539E+00
     11.067 -0.3147E-04  0.7539E+00
     11.126 -0.5961E-05  0.7539E+00
     11.186 -0.9324E-06  0.7539E+00
     11.245 -0.1208E-06  0.7539E+00
     11.305 -0.1299E-07  0.7539E+00
     11.364 -0.1162E-08  0.7539E+00
     11.423 -0.8650E-10  0.7539E+00
     11.483 -0.5365E-11  0.7539E+00
     11.542 -0.2775E-12  0.7539E+00
     11.602 -0.1193E-13  0.7539E+00
     11.661 -0.4694E-15  0.7539E+00
     11.721  0.0000E+00  0.7539E+00
     11.780  0.0000E+00  0.7539E+00
     11.840  0.0000E+00  0.7539E+00
     11.899  0.0000E+00  0.7539E+00
     11.958  0.0000E+00  0.7539E+00
     12.018  0.0000E+00  0.7539E+00
     12.077  0.0000E+00  0.7539E+00
     12.137  0.0000E+00  0.7539E+00
     12.196  0.0000E+00  0.7539E+00
     12.256  0.0000E+00  0.7539E+00
     12.315  0.0000E+00  0.7539E+00
     12.375  0.0000E+00  0.7539E+00
     12.434  0.0000E+00  0.7539E+00
