   31   31  191    1
  0.1706118E+02  0.8087052E-09  0.8087052E-09  0.8087052E-09  0.5000000E-15
  1.000000000000000E-004
  CAR 
 unknown system                          
   93    1   72
 
  0.0000000E+00  0.0000000E+00  0.0000000E+00  0.1000000E+01
   1       -3.399590
   2       -1.306922
   3       -1.306922
   4       -1.196328
   5       -1.196328
   6       -1.196328
   7       -0.635817
   8        0.845075
   9        0.845075
  10        0.845075
  11        0.960163
  12        0.960163
  13        0.970901
  14        0.970901
  15        0.970901
  16        1.330672
  17        1.330672
  18        1.330672
  19        2.121054
  20        3.014507
  21        3.281628
  22        3.281628
  23        3.281628
  24        3.303998
  25        3.303998
  26        3.303998
  27        4.280388
  28        4.875167
  29        4.875167
  30        4.875167
  31        6.130056
  32        6.130056
  33        6.470117
  34        6.686253
  35        6.686253
  36        6.686253
  37        6.713180
  38        6.713180
  39        6.713180
  40        7.014476
  41        7.014476
  42        7.014476
  43        7.363873
  44        7.363873
  45        7.363873
  46        7.595494
  47        7.957137
  48        7.957137
  49        7.957137
  50        8.181341
  51        8.181341
  52        8.706252
  53        8.706252
  54        8.762267
  55        8.762267
  56        8.762267
  57        8.766974
  58        8.766974
  59        8.829417
  60        8.829417
  61        8.829417
  62        9.193718
  63        9.211572
  64        9.211576
  65        9.211578
  66        9.558262
  67        9.558262
  68        9.558264
  69        9.621671
  70       10.317594
  71       10.353776
  72       10.434010
