 vasp.5.2.2 15Apr09 complex 
 executed on             LinuxIFC date 2017.03.17  11:23:26
 running on   12 nodes
 distr:  one band on    1 nodes,   12 groups


--------------------------------------------------------------------------------------------------------


 INCAR:
 POTCAR:   PAW_PBE Al 04Jan2001                   
 POTCAR:   PAW_PBE Al 04Jan2001                   
   VRHFIN =Al: s2p1                                                             
   LEXCH  = PE                                                                  
   EATOM  =    53.5387 eV,    3.9350 Ry                                         
                                                                                
   TITEL  = PAW_PBE Al 04Jan2001                                                
   LULTRA =        F    use ultrasoft PP ?                                      
   IUNSCR =        1    unscreen: 0-lin 1-nonlin 2-no                           
   RPACOR =    1.500    partial core radius                                     
   POMASS =   26.982; ZVAL   =    3.000    mass and valenz                      
   RCORE  =    1.900    outmost cutoff radius                                   
   RWIGS  =    2.650; RWIGS  =    1.402    wigner-seitz radius (au A)           
   ENMAX  =  240.300; ENMIN  =  180.225 eV                                      
   ICORE  =        2    local potential                                         
   LCOR   =        T    correct aug charges                                     
   LPAW   =        T    paw PP                                                  
   EAUG   =  291.052                                                            
   DEXC   =    -.041                                                            
   RMAX   =    2.974    core radius for proj-oper                               
   RAUG   =    1.300    factor for augmentation sphere                          
   RDEP   =    1.966    radius for radial grids                                 
   QCUT   =   -4.203; QGAM   =    8.405    optimization parameters              
                                                                                
   Description                                                                  
     l     E      TYP  RCUT    TYP  RCUT                                        
     0   .000     23  1.900                                                     
     0   .000     23  1.900                                                     
     1   .000     23  1.900                                                     
     1  1.000     23  1.900                                                     
     2   .000      7  1.900                                                     
  local pseudopotential read in
  partial core-charges read in
  atomic valenz-charges read in
  non local Contribution for L=           0  read in
    real space projection operators read in
  non local Contribution for L=           0  read in
    real space projection operators read in
  non local Contribution for L=           1  read in
    real space projection operators read in
  non local Contribution for L=           1  read in
    real space projection operators read in
    PAW grid and wavefunctions read in
 
   number of l-projection  operators is LMAX  =           4
   number of lm-projection operators is LMMAX =           8
 

 ----------------------------------------------------------------------------- 
|                                                                             |
|  ADVICE TO THIS USER RUNNING 'VASP/VAMP'   (HEAR YOUR MASTER'S VOICE ...):  |
|                                                                             |
|      You have a (more or less) 'large supercell' and for larger cells       |
|      it might be more efficient to use real space projection operators      |
|      So try LREAL= Auto  in the INCAR   file.                               |
|      Mind: If you want to do a very accurate calculations keep the          |
|      reciprocal projection scheme          (i.e. LREAL=.FALSE.)             |
|                                                                             |
 ----------------------------------------------------------------------------- 

 PAW_PBE Al 04Jan2001                   :
 energy of atom  1       EATOM=  -53.5387
 kinetic energy error for atom=    0.0011 (will be added to EATOM!!)
 
 
 POSCAR: Al31                                    
  positions in direct lattice
  velocities in cartesian coordinates
 exchange correlation table for  LEXCH =        8
   RHO(1)=    0.500       N(1)  =     2000
   RHO(2)=  100.500       N(2)  =     4000

 VTST: version 2.03d, (02/18/09)

 CHAIN: initializing optimizer
 
 OPT: Using VASP Conjugate-Gradient optimizer
 CHAIN: Read ICHAIN            0
 


--------------------------------------------------------------------------------------------------------


 ion  position               nearest neighbor table
   1  0.000  0.000  0.000-   2 2.86   3 2.86   4 2.86   6 2.86   7 2.86  11 2.86  12 2.86  15 2.86
                            18 2.86  20 2.86  22 2.86  28 2.86
   2  0.250  0.000  0.250-   1 2.86   3 2.86   4 2.86   5 2.86   8 2.86  11 2.86  12 2.86  16 2.86
                            17 2.86  19 2.86  21 2.86  27 2.86
   3  0.250  0.250  0.000-   1 2.86   2 2.86   4 2.86   5 2.86   8 2.86   9 2.86  10 2.86  13 2.86
                            18 2.86  20 2.86  24 2.86  26 2.86
   4  0.000  0.250  0.250-   1 2.86   2 2.86   3 2.86   6 2.86   7 2.86   9 2.86  10 2.86  14 2.86
                            17 2.86  19 2.86  23 2.86  25 2.86
   5  0.500  0.000  0.000-   2 2.86   3 2.86   6 2.86   7 2.86   8 2.86  11 2.86  15 2.86  16 2.86
                            18 2.86  22 2.86  24 2.86  31 2.86
   6  0.750  0.000  0.250-   1 2.86   4 2.86   5 2.86   7 2.86   8 2.86  12 2.86  15 2.86  16 2.86
                            17 2.86  21 2.86  23 2.86  30 2.86
   7  0.750  0.250  0.000-   1 2.86   4 2.86   5 2.86   6 2.86   8 2.86   9 2.86  13 2.86  14 2.86
                            20 2.86  22 2.86  24 2.86  29 2.86
   8  0.500  0.250  0.250-   2 2.86   3 2.86   5 2.86   6 2.86   7 2.86  10 2.86  13 2.86  14 2.86
                            19 2.86  21 2.86  23 2.86
   9  0.000  0.500  0.000-   3 2.86   4 2.86   7 2.86  10 2.86  11 2.86  12 2.86  14 2.86  15 2.86
                            20 2.86  26 2.86  28 2.86  29 2.86
  10  0.250  0.500  0.250-   3 2.86   4 2.86   8 2.86   9 2.86  11 2.86  12 2.86  13 2.86  16 2.86
                            19 2.86  25 2.86  27 2.86
  11  0.250  0.750  0.000-   1 2.86   2 2.86   5 2.86   9 2.86  10 2.86  12 2.86  13 2.86  16 2.86
                            18 2.86  26 2.86  28 2.86  31 2.86
  12  0.000  0.750  0.250-   1 2.86   2 2.86   6 2.86   9 2.86  10 2.86  11 2.86  14 2.86  15 2.86
                            17 2.86  25 2.86  27 2.86  30 2.86
  13  0.500  0.500  0.000-   3 2.86   7 2.86   8 2.86  10 2.86  11 2.86  14 2.86  15 2.86  16 2.86
                            24 2.86  26 2.86  29 2.86  31 2.86
  14  0.750  0.500  0.250-   4 2.86   7 2.86   8 2.86   9 2.86  12 2.86  13 2.86  15 2.86  16 2.86
                            23 2.86  25 2.86  30 2.86
  15  0.750  0.750  0.000-   1 2.86   5 2.86   6 2.86   9 2.86  12 2.86  13 2.86  14 2.86  16 2.86
                            22 2.86  28 2.86  29 2.86  31 2.86
  16  0.500  0.750  0.250-   2 2.86   5 2.86   6 2.86  10 2.86  11 2.86  13 2.86  14 2.86  15 2.86
                            21 2.86  27 2.86  30 2.86
  17  0.000  0.000  0.500-   2 2.86   4 2.86   6 2.86  12 2.86  18 2.86  19 2.86  20 2.86  22 2.86
                            23 2.86  27 2.86  28 2.86  30 2.86
  18  0.250  0.000  0.750-   1 2.86   3 2.86   5 2.86  11 2.86  17 2.86  19 2.86  20 2.86  21 2.86
                            24 2.86  27 2.86  28 2.86  31 2.86
  19  0.250  0.250  0.500-   2 2.86   4 2.86   8 2.86  10 2.86  17 2.86  18 2.86  20 2.86  21 2.86
                            24 2.86  25 2.86  26 2.86
  20  0.000  0.250  0.750-   1 2.86   3 2.86   7 2.86   9 2.86  17 2.86  18 2.86  19 2.86  22 2.86
                            23 2.86  25 2.86  26 2.86  29 2.86
  21  0.500  0.000  0.500-   2 2.86   6 2.86   8 2.86  16 2.86  18 2.86  19 2.86  22 2.86  23 2.86
                            24 2.86  27 2.86  30 2.86  31 2.86
  22  0.750  0.000  0.750-   1 2.86   5 2.86   7 2.86  15 2.86  17 2.86  20 2.86  21 2.86  23 2.86
                            24 2.86  28 2.86  30 2.86  31 2.86
  23  0.750  0.250  0.500-   4 2.86   6 2.86   8 2.86  14 2.86  17 2.86  20 2.86  21 2.86  22 2.86
                            24 2.86  25 2.86  29 2.86
  24  0.500  0.250  0.750-   3 2.86   5 2.86   7 2.86  13 2.86  18 2.86  19 2.86  21 2.86  22 2.86
                            23 2.86  26 2.86  29 2.86
  25  0.000  0.500  0.500-   4 2.86  10 2.86  12 2.86  14 2.86  19 2.86  20 2.86  23 2.86  26 2.86
                            27 2.86  28 2.86  29 2.86  30 2.86
  26  0.250  0.500  0.750-   3 2.86   9 2.86  11 2.86  13 2.86  19 2.86  20 2.86  24 2.86  25 2.86
                            27 2.86  28 2.86  31 2.86
  27  0.250  0.750  0.500-   2 2.86  10 2.86  12 2.86  16 2.86  17 2.86  18 2.86  21 2.86  25 2.86
                            26 2.86  28 2.86  31 2.86
  28  0.000  0.750  0.750-   1 2.86   9 2.86  11 2.86  15 2.86  17 2.86  18 2.86  22 2.86  25 2.86
                            26 2.86  27 2.86  29 2.86  30 2.86
  29  0.750  0.500  0.750-   7 2.86   9 2.86  13 2.86  15 2.86  20 2.86  23 2.86  24 2.86  25 2.86
                            28 2.86  30 2.86  31 2.86
  30  0.750  0.750  0.500-   6 2.86  12 2.86  14 2.86  16 2.86  17 2.86  21 2.86  22 2.86  25 2.86
                            28 2.86  29 2.86  31 2.86
  31  0.500  0.750  0.750-   5 2.86  11 2.86  13 2.86  15 2.86  18 2.86  21 2.86  22 2.86  26 2.86
                            27 2.86  29 2.86  30 2.86
 
  LATTYP: Found a simple cubic cell.
 ALAT       =     8.0870520000
  
  Lattice vectors:
  
 A1 = (   8.0870520000,   0.0000000000,   0.0000000000)
 A2 = (   0.0000000000,   8.0870520000,   0.0000000000)
 A3 = (   0.0000000000,   0.0000000000,   8.0870520000)
 Subroutine PRICEL returns:
 Original cell was already a primitive cell.
 

Analysis of symmetry for initial positions (statically):

 Routine SETGRP: Setting up the symmetry group for a 
 simple cubic supercell.


 Subroutine GETGRP returns: Found 48 space group operations
 (whereof 48 operations were pure point group operations)
 out of a pool of 48 trial point group operations.


The static configuration has the point symmetry O_h .

Analysis of symmetry for dynamics (positions and initial velocities):

 Subroutine DYNSYM returns: Found 48 space group operations
 (whereof 48 operations were pure point group operations)
 out of a pool of 48 trial space group operations
 (whereof 48 operations were pure point group operations)
 and found also     1 'primitive' translations


The dynamic configuration has the point symmetry O_h .
 
 
 KPOINTS: Automatic kpoint scheme                 

Automatic generation of k-mesh.
 
 Subroutine IBZKPT returns following result:
 ===========================================
 
 Found      1 irreducible k-points:
 
 Following reciprocal coordinates:
            Coordinates               Weight
  0.000000  0.000000  0.000000      1.000000
 
 Following cartesian coordinates:
            Coordinates               Weight
  0.000000  0.000000  0.000000      1.000000
 


--------------------------------------------------------------------------------------------------------




 Dimension of arrays:
   k-points           NKPTS =      1   k-points in BZ     NKDIM =      1   number of bands    NBANDS=     72
   number of dos      NEDOS =    301   number of ions     NIONS =     31
   non local maximal  LDIM  =      4   non local SUM 2l+1 LMDIM =      8
   total plane-waves  NPLWV = 110592
   max r-space proj   IRMAX =      1   max aug-charges    IRDMAX=   8337
   dimension x,y,z NGX =    48 NGY =   48 NGZ =   48
   dimension x,y,z NGXF=    96 NGYF=   96 NGZF=   96
   support grid    NGXF=    96 NGYF=   96 NGZF=   96
   ions per type =              31
 NGX,Y,Z   is equivalent  to a cutoff of   9.87,  9.87,  9.87 a.u.
 NGXF,Y,Z  is equivalent  to a cutoff of  19.73, 19.73, 19.73 a.u.


 I would recommend the setting:
   dimension x,y,z NGX =    46 NGY =   46 NGZ =   46
 SYSTEM =  unknown system                          
 POSCAR =  Al31                                    

 Startparameter for this run:
   NWRITE =      2    write-flag & timer
   PREC   = accura    medium, high low
   ISTART =      0    job   : 0-new  1-cont  2-samecut
   ICHARG =      2    charge: 1-file 2-atom 10-const
   ISPIN  =      1    spin polarized calculation?
   LNONCOLLINEAR =      F non collinear calculations
   LSORBIT =      F    spin-orbit coupling
   INIWAV =      1    electr: 0-lowe 1-rand  2-diag
   LASPH  =      F    aspherical Exc in radial PAW
   METAGGA=      F    non-selfconsistent MetaGGA calc.

 Electronic Relaxation 1
   ENCUT  =  300.0 eV  22.05 Ry    4.70 a.u.  11.42 11.42 11.42*2*pi/ulx,y,z
   ENINI  =  300.0     initial cutoff
   ENAUG  =  291.1 eV  augmentation charge cutoff
   NELM   =     60;   NELMIN=  2; NELMDL=-12     # of ELM steps 
   EDIFF  = 0.1E-03   stopping-criterion for ELM
   LREAL  =      F    real-space projection
   LCOMPAT=      F    compatible to vasp.4.4
   LREAL_COMPAT= F    compatible to vasp.4.5.1-3
   GGA_COMPAT  = T    GGA compatible to vasp.4.4-vasp.4.6
   LMAXPAW     = -100 max onsite density
   LMAXMIX     =    2 max onsite mixed and CHGCAR
   VOSKOWN=      0    Vosko Wilk Nusair interpolation
   ROPT   =    0.00000
 Ionic relaxation
   EDIFFG = 0.5E-01   stopping-criterion for IOM
   NSW    =    191    number of steps for IOM
   NBLOCK =      1;   KBLOCK =    191    inner block; outer block 
   IBRION =      2    ionic relax: 0-MD 1-quasi-New 2-CG
   NFREE  =      1    steps in history (QN), initial steepest desc. (CG)
   ISIF   =      2    stress and relaxation
   IWAVPR =     11    prediction:  0-non 1-charg 2-wave 3-comb
   ISYM   =      2    0-nonsym 1-usesym 2-fastsym
   LCORR  =      T    Harris-Foulkes like correction to forces

   POTIM  = 0.5000    time-step for ionic-motion
   TEIN   =    0.0    initial temperature
   TEBEG  =    0.0;   TEEND  =   0.0 temperature during run
   SMASS  =  -3.00    Nose mass-parameter (am)
   estimated Nose-frequenzy (Omega)   =  0.10E-29 period in steps =****** mass=  -0.149E-26a.u.
   NPACO  =    256;   APACO  = 16.0  distance and # of slots for P.C.
   PSTRESS=    0.0 pullay stress

  Mass of Ions in am
   POMASS =  26.98
  Ionic Valenz
   ZVAL   =   3.00
  Atomic Wigner-Seitz radii
   RWIGS  =  -1.00
   NELECT =      93.0000    total number of electrons
   NUPDOWN=      -1.0000    fix difference up-down

 DOS related values:
   EMIN   =  10.00;   EMAX   =-10.00  energy-range for DOS
   EFERMI =   0.00
   ISMEAR =     1;   SIGMA  =   0.20  broadening in eV -4-tet -1-fermi 0-gaus

 Electronic relaxation 2 (details)
   IALGO  =     48    algorithm
   LDIAG  =      T    sub-space diagonalisation
   IMIX   =      4    mixing-type and parameters
     AMIX     =   0.40;   BMIX     =  1.00
     AMIX_MAG =   1.60;   BMIX_MAG =  1.00
     AMIN     =   0.10
     WC   =   100.;   INIMIX=   1;  MIXPRE=   1

 Intra band minimization:
   WEIMIN = 0.0010     energy-eigenvalue tresh-hold
   EBREAK =  0.40E-06  absolut break condition
   DEPER  =   0.30     relativ break condition  

   TIME   =   0.40     timestep for ELM

  volume/ion in A,a.u.               =      17.06       115.13
  Fermi-wavevector in a.u.,A,eV,Ry     =   0.917161  1.733183 11.445007  0.841184
  Thomas-Fermi vector in A             =   2.042098
 
 Write flags
   LWAVE  =      F    write WAVECAR
   LCHARG =      F    write CHGCAR
   LVTOT  =      F    write LOCPOT, local potential
   LELF   =      F    write electronic localiz. function (ELF)
   LORBIT =      0    0 simple, 1 ext, 2 COOP (PROOUT)


 Dipole corrections
   LMONO  =      F    monopole corrections only (constant potential shift)
   LDIPOL =      F    correct potential (dipole corrections)
   IDIPOL =      0    1-x, 2-y, 3-z, 4-all directions 
   EPSILON=  1.0000000 bulk dielectric constant

 Exchange correlation treatment:
   GGA     =    --    GGA type
   LEXCH   =     8    internal setting for exchange type
   VOSKOWN=      0    Vosko Wilk Nusair interpolation
   LHFCALC =     F    Hartree Fock is set to
   LHFONE  =     F    Hartree Fock one center treatment
   AEXX    =    0.0000 exact exchange contribution

 Linear response parameters
   LEPSILON=     F    determine dielectric tensor
   LRPA    =     F    only Hartree local field effects (RPA)
   LNABLA  =     F    use nabla operator in PAW spheres
   LVEL    =     F    velocity operator in full k-point grid
   LINTERFAST=   F  fast interpolation
   KINTER  =     0    interpolate to denser k-point grid
   CSHIFT  =0.1000    complex shift for real part using Kramers Kronig
   OMEGAMAX=  -1.0    maximum frequency

 Orbital magnetization related:
   ORBITALMAG=     F  switch on orbital magnetization
   LCHIMAG   =     F  perturbation theory with respect to B field



--------------------------------------------------------------------------------------------------------


 conjugate gradient relaxation of ions
 charge density and potential will be updated during run
 non-spin polarized calculation
 RMM-DIIS sequential band-by-band
 perform sub-space diagonalisation
    before iterative eigenvector-optimisation
 modified Broyden-mixing scheme, WC =      100.0
 initial mixing is a Kerker type mixing with AMIX =  0.4000 and BMIX =      1.0000
 Hartree-type preconditioning will be used
 using additional bands           25
 reciprocal scheme for non local part
 use partial core corrections
 calculate Harris-corrections to forces 
   (improved forces if not selfconsistent)
 use gradient corrections 
 use of overlap-Matrix (Vanderbilt PP)
 Methfessel and Paxton  Order N= 1 SIGMA  =   0.20


--------------------------------------------------------------------------------------------------------


  energy-cutoff  :      300.00
  volume of cell :      528.90
      direct lattice vectors                 reciprocal lattice vectors
     8.087052000  0.000000000  0.000000000     0.123654454  0.000000000  0.000000000
     0.000000000  8.087052000  0.000000000     0.000000000  0.123654454  0.000000000
     0.000000000  0.000000000  8.087052000     0.000000000  0.000000000  0.123654454

  length of vectors
     8.087052000  8.087052000  8.087052000     0.123654454  0.123654454  0.123654454


 
 k-points in units of 2pi/SCALE and weight: Automatic kpoint scheme                 
   0.00000000  0.00000000  0.00000000       1.000
 
 k-points in reciprocal lattice and weights: Automatic kpoint scheme                 
   0.00000000  0.00000000  0.00000000       1.000
 
 position of ions in fractional coordinates (direct lattice) 
   0.00000000  0.00000000  0.00000000
   0.25000000  0.00000000  0.25000000
   0.25000000  0.25000000  0.00000000
   0.00000000  0.25000000  0.25000000
   0.50000000  0.00000000  0.00000000
   0.75000000  0.00000000  0.25000000
   0.75000000  0.25000000  0.00000000
   0.50000000  0.25000000  0.25000000
   0.00000000  0.50000000  0.00000000
   0.25000000  0.50000000  0.25000000
   0.25000000  0.75000000  0.00000000
   0.00000000  0.75000000  0.25000000
   0.50000000  0.50000000  0.00000000
   0.75000000  0.50000000  0.25000000
   0.75000000  0.75000000  0.00000000
   0.50000000  0.75000000  0.25000000
   0.00000000  0.00000000  0.50000000
   0.25000000  0.00000000  0.75000000
   0.25000000  0.25000000  0.50000000
   0.00000000  0.25000000  0.75000000
   0.50000000  0.00000000  0.50000000
   0.75000000  0.00000000  0.75000000
   0.75000000  0.25000000  0.50000000
   0.50000000  0.25000000  0.75000000
   0.00000000  0.50000000  0.50000000
   0.25000000  0.50000000  0.75000000
   0.25000000  0.75000000  0.50000000
   0.00000000  0.75000000  0.75000000
   0.75000000  0.50000000  0.75000000
   0.75000000  0.75000000  0.50000000
   0.50000000  0.75000000  0.75000000
 
 position of ions in cartesian coordinates  (Angst):
   0.00000000  0.00000000  0.00000000
   2.02176300  0.00000000  2.02176300
   2.02176300  2.02176300  0.00000000
   0.00000000  2.02176300  2.02176300
   4.04352600  0.00000000  0.00000000
   6.06528900  0.00000000  2.02176300
   6.06528900  2.02176300  0.00000000
   4.04352600  2.02176300  2.02176300
   0.00000000  4.04352600  0.00000000
   2.02176300  4.04352600  2.02176300
   2.02176300  6.06528900  0.00000000
   0.00000000  6.06528900  2.02176300
   4.04352600  4.04352600  0.00000000
   6.06528900  4.04352600  2.02176300
   6.06528900  6.06528900  0.00000000
   4.04352600  6.06528900  2.02176300
   0.00000000  0.00000000  4.04352600
   2.02176300  0.00000000  6.06528900
   2.02176300  2.02176300  4.04352600
   0.00000000  2.02176300  6.06528900
   4.04352600  0.00000000  4.04352600
   6.06528900  0.00000000  6.06528900
   6.06528900  2.02176300  4.04352600
   4.04352600  2.02176300  6.06528900
   0.00000000  4.04352600  4.04352600
   2.02176300  4.04352600  6.06528900
   2.02176300  6.06528900  4.04352600
   0.00000000  6.06528900  6.06528900
   6.06528900  4.04352600  6.06528900
   6.06528900  6.06528900  4.04352600
   4.04352600  6.06528900  6.06528900
 


--------------------------------------------------------------------------------------------------------


 k-point  1 :  0.00000.00000.0000  plane waves:    6235

 maximum and minimum number of plane-waves per node :    6235   6235

 maximum number of plane-waves:    6235
 maximal index in each direction: 
   IXMAX= 11   IYMAX= 11   IZMAX= 11
   IXMIN=-11   IYMIN=-11   IZMIN=-11

 NGX is ok and might be reduce to  46
 NGY is ok and might be reduce to  46
 NGZ is ok and might be reduce to  46

 serial   3D FFT for wavefunctions
 parallel 3D FFT for charge:
    minimum data exchange during FFTs selected (reduces bandwidth)


 total amount of memory used by VASP on root node  58219. kBytes
========================================================================

   base      :    30000. kBytes
   nonl-proj :     3494. kBytes
   fftplans  :     2983. kBytes
   grid      :    21024. kBytes
   one-center:       95. kBytes
   wavefun   :      623. kBytes
 
 Broyden mixing: mesh for mixing (old mesh)
   NGX = 23   NGY = 23   NGZ = 23
  (NGX  = 96   NGY  = 96   NGZ  = 96)
  gives a total of  12167 points

 initial charge density was supplied:
 charge density of overlapping atoms calculated
 number of electron   93.0000000 magnetization 
 keeping initial charge density in first step


--------------------------------------------------------------------------------------------------------


 Maximum index for augmentation-charges          531 (set IRDMAX)


--------------------------------------------------------------------------------------------------------


 First call to EWALD:  gamma=   0.219
 Maximum number of real-space cells 3x 3x 3
 Maximum number of reciprocal cells 3x 3x 3

    FEWALD:  cpu time    0.01: real time    0.01
   RESPFUN:  cpu time    0.00: real time    0.00


----------------------------------------- Iteration    1(   1)  ---------------------------------------


    POTLOK:  cpu time    0.15: real time    0.15
    SETDIJ:  cpu time    0.01: real time    0.01
    EDDIAG:  cpu time    0.15: real time    0.15
  RMM-DIIS:  cpu time    0.34: real time    0.34
    ORTHCH:  cpu time    0.01: real time    0.01
       DOS:  cpu time    0.00: real time    0.00
    --------------------------------------------
      LOOP:  cpu time    0.66: real time    0.67

 eigenvalue-minimisations  :    72
 total energy-change (2. order) : 0.2387388E+03  (-0.1571088E+04)
 number of electron   93.0000000 magnetization 
 augmentation part    93.0000000 magnetization 

 Free energy of the ion-electron system (eV)
  ---------------------------------------------------
  alpha Z        PSCENC =        -6.10292983
  Ewald energy   TEWEN  =     -2226.95940862
  -1/2 Hartree   DENC   =       -20.94821856
  -exchange  EXHF       =         0.00000000
  -V(xc)+E(xc)   XCENC  =      -814.77440339
  PAW double counting   =      1102.18190231     -111.56847430
  entropy T*S    EENTRO =        -0.05795099
  eigenvalues    EBANDS =       657.30189679
  atomic energy  EATOM  =      1659.66634407
  ---------------------------------------------------
  free energy    TOTEN  =       238.73875748 eV

  energy without entropy =      238.79670846  energy(sigma->0) =      238.75807447


--------------------------------------------------------------------------------------------------------




----------------------------------------- Iteration    1(   2)  ---------------------------------------


    EDDIAG:  cpu time    0.15: real time    0.15
  RMM-DIIS:  cpu time    0.33: real time    0.33
    ORTHCH:  cpu time    0.01: real time    0.01
       DOS:  cpu time    0.00: real time    0.00
    --------------------------------------------
      LOOP:  cpu time    0.49: real time    0.49

 eigenvalue-minimisations  :    72
 total energy-change (2. order) :-0.2648811E+03  (-0.2575529E+03)
 number of electron   93.0000000 magnetization 
 augmentation part    93.0000000 magnetization 

 Free energy of the ion-electron system (eV)
  ---------------------------------------------------
  alpha Z        PSCENC =        -6.10292983
  Ewald energy   TEWEN  =     -2226.95940862
  -1/2 Hartree   DENC   =       -20.94821856
  -exchange  EXHF       =         0.00000000
  -V(xc)+E(xc)   XCENC  =      -814.77440339
  PAW double counting   =      1102.18190231     -111.56847430
  entropy T*S    EENTRO =        -0.04539543
  eigenvalues    EBANDS =       392.40824900
  atomic energy  EATOM  =      1659.66634407
  ---------------------------------------------------
  free energy    TOTEN  =       -26.14233475 eV

  energy without entropy =      -26.09693933  energy(sigma->0) =      -26.12720294


--------------------------------------------------------------------------------------------------------




----------------------------------------- Iteration    1(   3)  ---------------------------------------


    EDDIAG:  cpu time    0.15: real time    0.15
  RMM-DIIS:  cpu time    0.33: real time    0.33
    ORTHCH:  cpu time    0.01: real time    0.01
       DOS:  cpu time    0.00: real time    0.00
    --------------------------------------------
      LOOP:  cpu time    0.49: real time    0.50

 eigenvalue-minimisations  :    72
 total energy-change (2. order) :-0.4865072E+02  (-0.4834726E+02)
 number of electron   93.0000000 magnetization 
 augmentation part    93.0000000 magnetization 

 Free energy of the ion-electron system (eV)
  ---------------------------------------------------
  alpha Z        PSCENC =        -6.10292983
  Ewald energy   TEWEN  =     -2226.95940862
  -1/2 Hartree   DENC   =       -20.94821856
  -exchange  EXHF       =         0.00000000
  -V(xc)+E(xc)   XCENC  =      -814.77440339
  PAW double counting   =      1102.18190231     -111.56847430
  entropy T*S    EENTRO =         0.00623016
  eigenvalues    EBANDS =       343.70589872
  atomic energy  EATOM  =      1659.66634407
  ---------------------------------------------------
  free energy    TOTEN  =       -74.79305945 eV

  energy without entropy =      -74.79928960  energy(sigma->0) =      -74.79513617


--------------------------------------------------------------------------------------------------------




----------------------------------------- Iteration    1(   4)  ---------------------------------------


    EDDIAG:  cpu time    0.15: real time    0.15
  RMM-DIIS:  cpu time    0.34: real time    0.34
    ORTHCH:  cpu time    0.01: real time    0.01
       DOS:  cpu time    0.00: real time    0.00
    --------------------------------------------
      LOOP:  cpu time    0.50: real time    0.50

 eigenvalue-minimisations  :    72
 total energy-change (2. order) :-0.1539134E+02  (-0.1156006E+02)
 number of electron   93.0000000 magnetization 
 augmentation part    93.0000000 magnetization 

 Free energy of the ion-electron system (eV)
  ---------------------------------------------------
  alpha Z        PSCENC =        -6.10292983
  Ewald energy   TEWEN  =     -2226.95940862
  -1/2 Hartree   DENC   =       -20.94821856
  -exchange  EXHF       =         0.00000000
  -V(xc)+E(xc)   XCENC  =      -814.77440339
  PAW double counting   =      1102.18190231     -111.56847430
  entropy T*S    EENTRO =        -0.05860682
  eigenvalues    EBANDS =       328.37939256
  atomic energy  EATOM  =      1659.66634407
  ---------------------------------------------------
  free energy    TOTEN  =       -90.18440259 eV

  energy without entropy =      -90.12579577  energy(sigma->0) =      -90.16486698


--------------------------------------------------------------------------------------------------------




----------------------------------------- Iteration    1(   5)  ---------------------------------------


    EDDIAG:  cpu time    0.15: real time    0.15
  RMM-DIIS:  cpu time    0.34: real time    0.34
    ORTHCH:  cpu time    0.01: real time    0.01
       DOS:  cpu time    0.00: real time    0.00
    --------------------------------------------
      LOOP:  cpu time    0.50: real time    0.50

 eigenvalue-minimisations  :    72
 total energy-change (2. order) :-0.6768185E+01  (-0.4492362E+01)
 number of electron   93.0000000 magnetization 
 augmentation part    93.0000000 magnetization 

 Free energy of the ion-electron system (eV)
  ---------------------------------------------------
  alpha Z        PSCENC =        -6.10292983
  Ewald energy   TEWEN  =     -2226.95940862
  -1/2 Hartree   DENC   =       -20.94821856
  -exchange  EXHF       =         0.00000000
  -V(xc)+E(xc)   XCENC  =      -814.77440339
  PAW double counting   =      1102.18190231     -111.56847430
  entropy T*S    EENTRO =        -0.00621116
  eigenvalues    EBANDS =       321.55881155
  atomic energy  EATOM  =      1659.66634407
  ---------------------------------------------------
  free energy    TOTEN  =       -96.95258794 eV

  energy without entropy =      -96.94637677  energy(sigma->0) =      -96.95051755


--------------------------------------------------------------------------------------------------------




----------------------------------------- Iteration    1(   6)  ---------------------------------------


    EDDIAG:  cpu time    0.15: real time    0.15
  RMM-DIIS:  cpu time    0.34: real time    0.34
    ORTHCH:  cpu time    0.01: real time    0.01
       DOS:  cpu time    0.00: real time    0.00
    --------------------------------------------
      LOOP:  cpu time    0.49: real time    0.50

 eigenvalue-minimisations  :    72
 total energy-change (2. order) :-0.2368724E+01  (-0.1791233E+01)
 number of electron   93.0000000 magnetization 
 augmentation part    93.0000000 magnetization 

 Free energy of the ion-electron system (eV)
  ---------------------------------------------------
  alpha Z        PSCENC =        -6.10292983
  Ewald energy   TEWEN  =     -2226.95940862
  -1/2 Hartree   DENC   =       -20.94821856
  -exchange  EXHF       =         0.00000000
  -V(xc)+E(xc)   XCENC  =      -814.77440339
  PAW double counting   =      1102.18190231     -111.56847430
  entropy T*S    EENTRO =        -0.00591346
  eigenvalues    EBANDS =       319.18978974
  atomic energy  EATOM  =      1659.66634407
  ---------------------------------------------------
  free energy    TOTEN  =       -99.32131204 eV

  energy without entropy =      -99.31539858  energy(sigma->0) =      -99.31934089


--------------------------------------------------------------------------------------------------------




----------------------------------------- Iteration    1(   7)  ---------------------------------------


    EDDIAG:  cpu time    0.15: real time    0.15
  RMM-DIIS:  cpu time    0.34: real time    0.34
    ORTHCH:  cpu time    0.01: real time    0.01
       DOS:  cpu time    0.00: real time    0.00
    --------------------------------------------
      LOOP:  cpu time    0.50: real time    0.50

 eigenvalue-minimisations  :    72
 total energy-change (2. order) :-0.8732347E+00  (-0.7338493E+00)
 number of electron   93.0000000 magnetization 
 augmentation part    93.0000000 magnetization 

 Free energy of the ion-electron system (eV)
  ---------------------------------------------------
  alpha Z        PSCENC =        -6.10292983
  Ewald energy   TEWEN  =     -2226.95940862
  -1/2 Hartree   DENC   =       -20.94821856
  -exchange  EXHF       =         0.00000000
  -V(xc)+E(xc)   XCENC  =      -814.77440339
  PAW double counting   =      1102.18190231     -111.56847430
  entropy T*S    EENTRO =        -0.01203306
  eigenvalues    EBANDS =       318.32267462
  atomic energy  EATOM  =      1659.66634407
  ---------------------------------------------------
  free energy    TOTEN  =      -100.19454676 eV

  energy without entropy =     -100.18251371  energy(sigma->0) =     -100.19053574


--------------------------------------------------------------------------------------------------------




----------------------------------------- Iteration    1(   8)  ---------------------------------------


    EDDIAG:  cpu time    0.15: real time    0.15
  RMM-DIIS:  cpu time    0.33: real time    0.33
    ORTHCH:  cpu time    0.01: real time    0.01
       DOS:  cpu time    0.00: real time    0.00
    --------------------------------------------
      LOOP:  cpu time    0.49: real time    0.50

 eigenvalue-minimisations  :    72
 total energy-change (2. order) :-0.3888622E+00  (-0.3396960E+00)
 number of electron   93.0000000 magnetization 
 augmentation part    93.0000000 magnetization 

 Free energy of the ion-electron system (eV)
  ---------------------------------------------------
  alpha Z        PSCENC =        -6.10292983
  Ewald energy   TEWEN  =     -2226.95940862
  -1/2 Hartree   DENC   =       -20.94821856
  -exchange  EXHF       =         0.00000000
  -V(xc)+E(xc)   XCENC  =      -814.77440339
  PAW double counting   =      1102.18190231     -111.56847430
  entropy T*S    EENTRO =        -0.02058457
  eigenvalues    EBANDS =       317.94236395
  atomic energy  EATOM  =      1659.66634407
  ---------------------------------------------------
  free energy    TOTEN  =      -100.58340894 eV

  energy without entropy =     -100.56282437  energy(sigma->0) =     -100.57654742


--------------------------------------------------------------------------------------------------------




----------------------------------------- Iteration    1(   9)  ---------------------------------------


    EDDIAG:  cpu time    0.15: real time    0.15
  RMM-DIIS:  cpu time    0.70: real time    0.70
    ORTHCH:  cpu time    0.01: real time    0.01
       DOS:  cpu time    0.00: real time    0.00
    --------------------------------------------
      LOOP:  cpu time    0.86: real time    0.86

 eigenvalue-minimisations  :   167
 total energy-change (2. order) :-0.3439324E+00  (-0.3186881E+00)
 number of electron   93.0000000 magnetization 
 augmentation part    93.0000000 magnetization 

 Free energy of the ion-electron system (eV)
  ---------------------------------------------------
  alpha Z        PSCENC =        -6.10292983
  Ewald energy   TEWEN  =     -2226.95940862
  -1/2 Hartree   DENC   =       -20.94821856
  -exchange  EXHF       =         0.00000000
  -V(xc)+E(xc)   XCENC  =      -814.77440339
  PAW double counting   =      1102.18190231     -111.56847430
  entropy T*S    EENTRO =        -0.03137280
  eigenvalues    EBANDS =       317.60921974
  atomic energy  EATOM  =      1659.66634407
  ---------------------------------------------------
  free energy    TOTEN  =      -100.92734138 eV

  energy without entropy =     -100.89596858  energy(sigma->0) =     -100.91688378


--------------------------------------------------------------------------------------------------------




----------------------------------------- Iteration    1(  10)  ---------------------------------------


    EDDIAG:  cpu time    0.15: real time    0.15
  RMM-DIIS:  cpu time    0.65: real time    0.65
    ORTHCH:  cpu time    0.01: real time    0.01
       DOS:  cpu time    0.00: real time    0.00
    --------------------------------------------
      LOOP:  cpu time    0.81: real time    0.82

 eigenvalue-minimisations  :   153
 total energy-change (2. order) :-0.4675823E-01  (-0.2932074E-01)
 number of electron   93.0000000 magnetization 
 augmentation part    93.0000000 magnetization 

 Free energy of the ion-electron system (eV)
  ---------------------------------------------------
  alpha Z        PSCENC =        -6.10292983
  Ewald energy   TEWEN  =     -2226.95940862
  -1/2 Hartree   DENC   =       -20.94821856
  -exchange  EXHF       =         0.00000000
  -V(xc)+E(xc)   XCENC  =      -814.77440339
  PAW double counting   =      1102.18190231     -111.56847430
  entropy T*S    EENTRO =        -0.03224041
  eigenvalues    EBANDS =       317.56332912
  atomic energy  EATOM  =      1659.66634407
  ---------------------------------------------------
  free energy    TOTEN  =      -100.97409962 eV

  energy without entropy =     -100.94185921  energy(sigma->0) =     -100.96335281


--------------------------------------------------------------------------------------------------------




----------------------------------------- Iteration    1(  11)  ---------------------------------------


    EDDIAG:  cpu time    0.16: real time    0.17
  RMM-DIIS:  cpu time    0.56: real time    0.56
    ORTHCH:  cpu time    0.01: real time    0.01
       DOS:  cpu time    0.00: real time    0.00
    --------------------------------------------
      LOOP:  cpu time    0.73: real time    0.74

 eigenvalue-minimisations  :   131
 total energy-change (2. order) :-0.3298111E-02  (-0.1720756E-02)
 number of electron   93.0000000 magnetization 
 augmentation part    93.0000000 magnetization 

 Free energy of the ion-electron system (eV)
  ---------------------------------------------------
  alpha Z        PSCENC =        -6.10292983
  Ewald energy   TEWEN  =     -2226.95940862
  -1/2 Hartree   DENC   =       -20.94821856
  -exchange  EXHF       =         0.00000000
  -V(xc)+E(xc)   XCENC  =      -814.77440339
  PAW double counting   =      1102.18190231     -111.56847430
  entropy T*S    EENTRO =        -0.03248922
  eigenvalues    EBANDS =       317.56027981
  atomic energy  EATOM  =      1659.66634407
  ---------------------------------------------------
  free energy    TOTEN  =      -100.97739773 eV

  energy without entropy =     -100.94490851  energy(sigma->0) =     -100.96656799


--------------------------------------------------------------------------------------------------------




----------------------------------------- Iteration    1(  12)  ---------------------------------------


    EDDIAG:  cpu time    0.15: real time    0.15
  RMM-DIIS:  cpu time    0.50: real time    0.50
    ORTHCH:  cpu time    0.01: real time    0.01
       DOS:  cpu time    0.00: real time    0.00
    CHARGE:  cpu time    0.13: real time    0.13
    MIXING:  cpu time    0.00: real time    0.00
    --------------------------------------------
      LOOP:  cpu time    0.79: real time    0.79

 eigenvalue-minimisations  :   102
 total energy-change (2. order) :-0.1051605E-03  (-0.4663395E-04)
 number of electron   92.9999993 magnetization 
 augmentation part    -0.9391335 magnetization 

 Broyden mixing:
  rms(total) = 0.65131E+00    rms(broyden)= 0.65129E+00
  rms(prec ) = 0.11843E+01
  weight for this iteration     100.00

 Free energy of the ion-electron system (eV)
  ---------------------------------------------------
  alpha Z        PSCENC =        -6.10292983
  Ewald energy   TEWEN  =     -2226.95940862
  -1/2 Hartree   DENC   =       -20.94821856
  -exchange  EXHF       =         0.00000000
  -V(xc)+E(xc)   XCENC  =      -814.77440339
  PAW double counting   =      1102.18190231     -111.56847430
  entropy T*S    EENTRO =        -0.03250481
  eigenvalues    EBANDS =       317.56019025
  atomic energy  EATOM  =      1659.66634407
  ---------------------------------------------------
  free energy    TOTEN  =      -100.97750289 eV

  energy without entropy =     -100.94499807  energy(sigma->0) =     -100.96666795


--------------------------------------------------------------------------------------------------------




----------------------------------------- Iteration    1(  13)  ---------------------------------------


    POTLOK:  cpu time    0.14: real time    0.14
    SETDIJ:  cpu time    0.01: real time    0.01
    EDDIAG:  cpu time    0.15: real time    0.15
  RMM-DIIS:  cpu time    0.59: real time    0.59
    ORTHCH:  cpu time    0.01: real time    0.01
       DOS:  cpu time    0.00: real time    0.00
    CHARGE:  cpu time    0.13: real time    0.13
    MIXING:  cpu time    0.00: real time    0.00
    --------------------------------------------
      LOOP:  cpu time    1.04: real time    1.04

 eigenvalue-minimisations  :   144
 total energy-change (2. order) : 0.1073291E+01  (-0.2122722E+00)
 number of electron   92.9999993 magnetization 
 augmentation part    -0.9558685 magnetization 

 Broyden mixing:
  rms(total) = 0.38963E+00    rms(broyden)= 0.38962E+00
  rms(prec ) = 0.60118E+00
  weight for this iteration     100.00

 eigenvalues of (default mixing * dielectric matrix)
  average eigenvalue GAMMA=   1.9660
  1.9660

 Free energy of the ion-electron system (eV)
  ---------------------------------------------------
  alpha Z        PSCENC =        -6.10292983
  Ewald energy   TEWEN  =     -2226.95940862
  -1/2 Hartree   DENC   =       -23.06911389
  -exchange  EXHF       =         0.00000000
  -V(xc)+E(xc)   XCENC  =      -813.55654687
  PAW double counting   =      1101.09784345     -110.49712142
  entropy T*S    EENTRO =        -0.13265352
  eigenvalues    EBANDS =       319.64937447
  atomic energy  EATOM  =      1659.66634407
  ---------------------------------------------------
  free energy    TOTEN  =       -99.90421216 eV

  energy without entropy =      -99.77155864  energy(sigma->0) =      -99.85999432


--------------------------------------------------------------------------------------------------------




----------------------------------------- Iteration    1(  14)  ---------------------------------------


    POTLOK:  cpu time    0.14: real time    0.14
    SETDIJ:  cpu time    0.01: real time    0.01
    EDDIAG:  cpu time    0.15: real time    0.15
  RMM-DIIS:  cpu time    0.61: real time    0.62
    ORTHCH:  cpu time    0.01: real time    0.01
       DOS:  cpu time    0.00: real time    0.00
    CHARGE:  cpu time    0.13: real time    0.13
    MIXING:  cpu time    0.00: real time    0.00
    --------------------------------------------
      LOOP:  cpu time    1.06: real time    1.07

 eigenvalue-minimisations  :   144
 total energy-change (2. order) : 0.2611128E+00  (-0.2100212E-01)
 number of electron   92.9999993 magnetization 
 augmentation part    -0.9664672 magnetization 

 Broyden mixing:
  rms(total) = 0.23244E+00    rms(broyden)= 0.23244E+00
  rms(prec ) = 0.35120E+00
  weight for this iteration     100.00

 eigenvalues of (default mixing * dielectric matrix)
  average eigenvalue GAMMA=   1.6600
  2.5109  0.8091

 Free energy of the ion-electron system (eV)
  ---------------------------------------------------
  alpha Z        PSCENC =        -6.10292983
  Ewald energy   TEWEN  =     -2226.95940862
  -1/2 Hartree   DENC   =       -23.40931333
  -exchange  EXHF       =         0.00000000
  -V(xc)+E(xc)   XCENC  =      -812.61536254
  PAW double counting   =      1100.38069466     -109.80788563
  entropy T*S    EENTRO =        -0.15897013
  eigenvalues    EBANDS =       319.36373205
  atomic energy  EATOM  =      1659.66634407
  ---------------------------------------------------
  free energy    TOTEN  =       -99.64309931 eV

  energy without entropy =      -99.48412918  energy(sigma->0) =      -99.59010927


--------------------------------------------------------------------------------------------------------




----------------------------------------- Iteration    1(  15)  ---------------------------------------


    POTLOK:  cpu time    0.14: real time    0.14
    SETDIJ:  cpu time    0.01: real time    0.01
    EDDIAG:  cpu time    0.15: real time    0.15
  RMM-DIIS:  cpu time    0.65: real time    0.65
    ORTHCH:  cpu time    0.01: real time    0.01
       DOS:  cpu time    0.00: real time    0.00
    CHARGE:  cpu time    0.13: real time    0.13
    MIXING:  cpu time    0.00: real time    0.00
    --------------------------------------------
      LOOP:  cpu time    1.10: real time    1.10

 eigenvalue-minimisations  :   146
 total energy-change (2. order) : 0.1292240E+00  (-0.1129843E-01)
 number of electron   92.9999993 magnetization 
 augmentation part    -0.9807527 magnetization 

 Broyden mixing:
  rms(total) = 0.57533E-01    rms(broyden)= 0.57533E-01
  rms(prec ) = 0.98208E-01
  weight for this iteration     100.00

 eigenvalues of (default mixing * dielectric matrix)
  average eigenvalue GAMMA=   1.4069
  2.5930  0.8951  0.7327

 Free energy of the ion-electron system (eV)
  ---------------------------------------------------
  alpha Z        PSCENC =        -6.10292983
  Ewald energy   TEWEN  =     -2226.95940862
  -1/2 Hartree   DENC   =       -24.62329541
  -exchange  EXHF       =         0.00000000
  -V(xc)+E(xc)   XCENC  =      -811.35432650
  PAW double counting   =      1099.57275415     -109.05438508
  entropy T*S    EENTRO =        -0.14161424
  eigenvalues    EBANDS =       319.48298615
  atomic energy  EATOM  =      1659.66634407
  ---------------------------------------------------
  free energy    TOTEN  =       -99.51387532 eV

  energy without entropy =      -99.37226108  energy(sigma->0) =      -99.46667057


--------------------------------------------------------------------------------------------------------




----------------------------------------- Iteration    1(  16)  ---------------------------------------


    POTLOK:  cpu time    0.14: real time    0.14
    SETDIJ:  cpu time    0.01: real time    0.01
    EDDIAG:  cpu time    0.15: real time    0.15
  RMM-DIIS:  cpu time    0.61: real time    0.61
    ORTHCH:  cpu time    0.01: real time    0.01
       DOS:  cpu time    0.00: real time    0.00
    CHARGE:  cpu time    0.13: real time    0.13
    MIXING:  cpu time    0.00: real time    0.00
    --------------------------------------------
      LOOP:  cpu time    1.06: real time    1.07

 eigenvalue-minimisations  :   144
 total energy-change (2. order) : 0.1064781E-01  (-0.1096449E-02)
 number of electron   92.9999993 magnetization 
 augmentation part    -0.9860800 magnetization 

 Broyden mixing:
  rms(total) = 0.14391E-01    rms(broyden)= 0.14391E-01
  rms(prec ) = 0.24906E-01
  weight for this iteration     100.00

 eigenvalues of (default mixing * dielectric matrix)
  average eigenvalue GAMMA=   1.4674
  2.6150  1.6881  0.8827  0.6837

 Free energy of the ion-electron system (eV)
  ---------------------------------------------------
  alpha Z        PSCENC =        -6.10292983
  Ewald energy   TEWEN  =     -2226.95940862
  -1/2 Hartree   DENC   =       -24.92821483
  -exchange  EXHF       =         0.00000000
  -V(xc)+E(xc)   XCENC  =      -810.98674221
  PAW double counting   =      1099.56878429     -109.08149803
  entropy T*S    EENTRO =        -0.15295011
  eigenvalues    EBANDS =       319.47338779
  atomic energy  EATOM  =      1659.66634407
  ---------------------------------------------------
  free energy    TOTEN  =       -99.50322751 eV

  energy without entropy =      -99.35027739  energy(sigma->0) =      -99.45224413


--------------------------------------------------------------------------------------------------------




----------------------------------------- Iteration    1(  17)  ---------------------------------------


    POTLOK:  cpu time    0.14: real time    0.14
    SETDIJ:  cpu time    0.01: real time    0.01
    EDDIAG:  cpu time    0.15: real time    0.15
  RMM-DIIS:  cpu time    0.62: real time    0.62
    ORTHCH:  cpu time    0.01: real time    0.01
       DOS:  cpu time    0.00: real time    0.00
    CHARGE:  cpu time    0.13: real time    0.13
    MIXING:  cpu time    0.00: real time    0.00
    --------------------------------------------
      LOOP:  cpu time    1.07: real time    1.07

 eigenvalue-minimisations  :   144
 total energy-change (2. order) : 0.7474059E-03  (-0.2201059E-03)
 number of electron   92.9999993 magnetization 
 augmentation part    -0.9876465 magnetization 

 Broyden mixing:
  rms(total) = 0.44780E-02    rms(broyden)= 0.44779E-02
  rms(prec ) = 0.70425E-02
  weight for this iteration     100.00

 eigenvalues of (default mixing * dielectric matrix)
  average eigenvalue GAMMA=   1.5514
  2.6682  2.0928  0.6844  0.9045  1.4070

 Free energy of the ion-electron system (eV)
  ---------------------------------------------------
  alpha Z        PSCENC =        -6.10292983
  Ewald energy   TEWEN  =     -2226.95940862
  -1/2 Hartree   DENC   =       -24.93269230
  -exchange  EXHF       =         0.00000000
  -V(xc)+E(xc)   XCENC  =      -810.90915457
  PAW double counting   =      1099.83816090     -109.37629487
  entropy T*S    EENTRO =        -0.15053468
  eigenvalues    EBANDS =       319.42402982
  atomic energy  EATOM  =      1659.66634407
  ---------------------------------------------------
  free energy    TOTEN  =       -99.50248010 eV

  energy without entropy =      -99.35194542  energy(sigma->0) =      -99.45230187


--------------------------------------------------------------------------------------------------------




----------------------------------------- Iteration    1(  18)  ---------------------------------------


    POTLOK:  cpu time    0.14: real time    0.15
    SETDIJ:  cpu time    0.01: real time    0.01
    EDDIAG:  cpu time    0.15: real time    0.15
  RMM-DIIS:  cpu time    0.48: real time    0.48
    ORTHCH:  cpu time    0.01: real time    0.01
       DOS:  cpu time    0.00: real time    0.00
    --------------------------------------------
      LOOP:  cpu time    0.80: real time    0.81

 eigenvalue-minimisations  :   103
 total energy-change (2. order) :-0.2584926E-04  (-0.2647351E-04)
 number of electron   92.9999993 magnetization 
 augmentation part    -0.9876465 magnetization 

 Free energy of the ion-electron system (eV)
  ---------------------------------------------------
  alpha Z        PSCENC =        -6.10292983
  Ewald energy   TEWEN  =     -2226.95940862
  -1/2 Hartree   DENC   =       -24.94483458
  -exchange  EXHF       =         0.00000000
  -V(xc)+E(xc)   XCENC  =      -810.88746383
  PAW double counting   =      1099.95877532     -109.50876449
  entropy T*S    EENTRO =        -0.15045386
  eigenvalues    EBANDS =       319.42622989
  atomic energy  EATOM  =      1659.66634407
  ---------------------------------------------------
  free energy    TOTEN  =       -99.50250595 eV

  energy without entropy =      -99.35205209  energy(sigma->0) =      -99.45235466


--------------------------------------------------------------------------------------------------------




 average (electrostatic) potential at core
  the test charge radii are     1.0406
  (the norm of the test charge is              1.0000)
       1 -72.9594       2 -73.1142       3 -73.1142       4 -73.1142       5 -72.7374
       6 -73.1142       7 -73.1142       8 -73.1861       9 -72.7374      10 -73.1861
      11 -73.1142      12 -73.1142      13 -73.1461      14 -73.1861      15 -73.1142
      16 -73.1861      17 -72.7374      18 -73.1142      19 -73.1861      20 -73.1142
      21 -73.1461      22 -73.1142      23 -73.1861      24 -73.1861      25 -73.1461
      26 -73.1861      27 -73.1861      28 -73.1142      29 -73.1861      30 -73.1861
      31 -73.1861
 
 
 
 E-fermi :   7.9265     XC(G=0): -10.0446     alpha+bet :-14.3870
   add alpha+bet to get absolut eigen values

 k-point   1 :       0.0000    0.0000    0.0000
  band No.  band energies     occupation 
      1      -3.3521      2.00000
      2      -1.1971      2.00000
      3      -1.1971      2.00000
      4      -1.1595      2.00000
      5      -1.1595      2.00000
      6      -1.1595      2.00000
      7      -0.7458      2.00000
      8       0.9971      2.00000
      9       0.9971      2.00000
     10       0.9971      2.00000
     11       0.9977      2.00000
     12       0.9977      2.00000
     13       0.9977      2.00000
     14       1.0328      2.00000
     15       1.0328      2.00000
     16       1.2324      2.00000
     17       1.2324      2.00000
     18       1.2324      2.00000
     19       2.0299      2.00000
     20       3.0425      2.00000
     21       3.2779      2.00000
     22       3.2779      2.00000
     23       3.2779      2.00000
     24       3.3262      2.00000
     25       3.3262      2.00000
     26       3.3262      2.00000
     27       4.1329      2.00000
     28       4.9040      2.00000
     29       4.9040      2.00000
     30       4.9040      2.00000
     31       6.1583      2.00000
     32       6.1583      2.00000
     33       6.4532      2.00000
     34       6.7893      2.00000
     35       6.7893      2.00000
     36       6.7893      2.00000
     37       6.8392      2.00000
     38       6.8392      2.00000
     39       6.8392      2.00000
     40       6.9468      2.00000
     41       6.9468      2.00000
     42       6.9468      2.00000
     43       7.2716      2.00004
     44       7.2716      2.00004
     45       7.2716      2.00004
     46       7.8625      1.51197
     47       7.9946      0.45900
     48       7.9946      0.45900
     49       7.9946      0.45900
     50       8.0740      0.05546
     51       8.0740      0.05546
     52       8.7693      0.00000
     53       8.7693      0.00000
     54       8.7693      0.00000
     55       8.8095      0.00000
     56       8.8096      0.00000
     57       8.8592      0.00000
     58       8.8593      0.00000
     59       8.8859      0.00000
     60       8.8859      0.00000
     61       8.8863      0.00000
     62       8.9452      0.00000
     63       9.1797      0.00000
     64       9.1798      0.00000
     65       9.1804      0.00000
     66       9.5002      0.00000
     67       9.5011      0.00000
     68       9.5042      0.00000
     69       9.5446      0.00000
     70      10.4615      0.00000
     71      10.5018      0.00000
     72      10.5272      0.00000


--------------------------------------------------------------------------------------------------------


 soft charge-density along one line, spin component           1
         0         1         2         3         4         5         6         7         8         9
 total charge-density along one line
 
 pseudopotential strength for first ion, spin component:           1
  8.455  -0.006   0.000   0.000   0.000   0.000   0.000   0.000
 -0.006   0.000   0.000   0.000   0.000   0.000   0.000   0.000
  0.000   0.000   1.987   0.000   0.000  -0.026   0.000   0.000
  0.000   0.000   0.000   1.987   0.000   0.000  -0.026   0.000
  0.000   0.000   0.000   0.000   1.987   0.000   0.000  -0.026
  0.000   0.000  -0.026   0.000   0.000  -0.012   0.000   0.000
  0.000   0.000   0.000  -0.026   0.000   0.000  -0.012   0.000
  0.000   0.000   0.000   0.000  -0.026   0.000   0.000  -0.012
 total augmentation occupancy for first ion, spin component:           1
  1.174  -0.562   0.000   0.000   0.000   0.000   0.000   0.000
 -0.562   0.494   0.000   0.000   0.000   0.000   0.000   0.000
  0.000   0.000   0.813   0.000   0.000  -0.178   0.000   0.000
  0.000   0.000   0.000   0.813   0.000   0.000  -0.178   0.000
  0.000   0.000   0.000   0.000   0.813   0.000   0.000  -0.178
  0.000   0.000  -0.178   0.000   0.000   0.048   0.000   0.000
  0.000   0.000   0.000  -0.178   0.000   0.000   0.048   0.000
  0.000   0.000   0.000   0.000  -0.178   0.000   0.000   0.048


------------------------ aborting loop because EDIFF is reached ----------------------------------------




--------------------------------------------------------------------------------------------------------



  FREE ENERGIE OF THE ION-ELECTRON SYSTEM (eV)
  ---------------------------------------------------
  free  energy   TOTEN  =       -99.502506 eV

  energy  without entropy=      -99.352052  energy(sigma->0) =      -99.452355
 
    CHARGE:  cpu time    0.12: real time    0.12
    FORLOC:  cpu time    0.03: real time    0.03
    FORNL :  cpu time    0.23: real time    0.24
    STRESS:  cpu time    0.39: real time    0.39
    FORCOR:  cpu time    0.17: real time    0.17
    FORHAR:  cpu time    0.07: real time    0.07
    MIXING:  cpu time    0.00: real time    0.00

  FORCE on cell =-STRESS in cart. coord.  units (eV):
  Direction    XX          YY          ZZ          XY          YZ          ZX
  --------------------------------------------------------------------------------------
  Alpha Z    -6.10293    -6.10293    -6.10293
  Ewald    -742.32286  -742.32286  -742.32286     0.00000     0.00000     0.00000
  Hartree     8.32619     8.32619     8.32619     0.00000     0.00000     0.00000
  E(xc)    -262.94469  -262.94469  -262.94469     0.00000     0.00000     0.00000
  Local      -6.76287    -6.76287    -6.76287     0.00000     0.00000     0.00000
  n-local   553.30207   553.30228   553.30217    -0.00006     0.00005     0.00007
  augment   -26.39170   -26.39170   -26.39170     0.00001     0.00000    -0.00001
  Kinetic   474.40561   474.40560   474.40525    -0.00019     0.00032     0.00053
  Fock        0.00000     0.00000     0.00000     0.00000     0.00000     0.00000
  -------------------------------------------------------------------------------------
  Total      -8.49119    -8.49119    -8.49119     0.00000     0.00000     0.00000
  in kB     -25.72222   -25.72222   -25.72222     0.00000     0.00000     0.00000
  external pressure =      -25.72 kB  Pullay stress =        0.00 kB


 VOLUME and BASIS-vectors are now :
 -----------------------------------------------------------------------------
  energy-cutoff  :      300.00
  volume of cell :      528.90
      direct lattice vectors                 reciprocal lattice vectors
     8.087052000  0.000000000  0.000000000     0.123654454  0.000000000  0.000000000
     0.000000000  8.087052000  0.000000000     0.000000000  0.123654454  0.000000000
     0.000000000  0.000000000  8.087052000     0.000000000  0.000000000  0.123654454

  length of vectors
     8.087052000  8.087052000  8.087052000     0.123654454  0.123654454  0.123654454


 FORCES acting on ions
    electron-ion (+dipol)            ewald-force                    non-local-force                 convergence-correction
 -----------------------------------------------------------------------------------------------
   -.383E-14 0.399E-14 0.485E-14   0.443E-14 0.239E-14 0.141E-13   0.000E+00 0.000E+00 0.000E+00   0.121E-13 -.323E-14 -.168E-13
   -.215E+01 -.616E-13 -.215E+01   0.211E+01 -.999E-15 0.211E+01   0.475E-01 0.339E-20 0.475E-01   0.148E-02 -.105E-13 0.148E-02
   -.215E+01 -.215E+01 -.203E-13   0.211E+01 0.211E+01 0.855E-14   0.475E-01 0.475E-01 -.114E-20   0.148E-02 0.148E-02 -.329E-13
   -.202E-14 -.215E+01 -.215E+01   0.515E-14 0.211E+01 0.211E+01   0.254E-20 0.475E-01 0.475E-01   -.622E-14 0.148E-02 0.148E-02
   -.138E-13 -.146E-12 -.370E-12   0.762E-14 -.111E-14 0.239E-14   0.000E+00 0.000E+00 0.000E+00   -.139E-13 -.664E-14 -.401E-13
   0.215E+01 -.785E-13 -.215E+01   -.211E+01 0.255E-14 0.211E+01   -.475E-01 0.847E-21 0.475E-01   -.148E-02 -.206E-13 0.148E-02
   0.215E+01 -.215E+01 -.790E-13   -.211E+01 0.211E+01 -.877E-14   -.475E-01 0.475E-01 0.371E-21   -.148E-02 0.148E-02 -.221E-13
   -.109E-13 -.961E+01 -.961E+01   0.344E-14 0.936E+01 0.936E+01   0.678E-20 0.629E-01 0.629E-01   0.482E-14 0.636E-02 0.636E-02
   -.500E-14 -.100E-13 -.223E-14   0.234E-14 -.167E-15 -.144E-14   0.000E+00 0.000E+00 0.000E+00   -.821E-14 0.155E-14 -.341E-14
   -.961E+01 0.102E-13 -.961E+01   0.936E+01 -.777E-15 0.936E+01   0.629E-01 0.593E-20 0.629E-01   0.636E-02 0.912E-14 0.636E-02
   -.215E+01 0.215E+01 0.152E-13   0.211E+01 -.211E+01 0.594E-14   0.475E-01 -.475E-01 -.847E-21   0.148E-02 -.148E-02 -.131E-13
   -.301E-14 0.215E+01 -.215E+01   0.582E-14 -.211E+01 0.211E+01   0.233E-20 -.475E-01 0.475E-01   -.160E-13 -.148E-02 0.148E-02
   -.115E-13 0.128E-12 0.678E-13   0.545E-14 -.422E-14 0.611E-15   0.000E+00 0.000E+00 0.000E+00   0.651E-14 0.417E-14 -.736E-14
   0.961E+01 -.566E-13 -.961E+01   -.936E+01 -.389E-14 0.936E+01   -.629E-01 0.169E-20 0.629E-01   -.636E-02 0.182E-13 0.636E-02
   0.215E+01 0.215E+01 0.390E-13   -.211E+01 -.211E+01 0.594E-14   -.475E-01 -.475E-01 0.847E-21   -.148E-02 -.148E-02 0.263E-14
   -.120E-13 0.961E+01 -.961E+01   -.601E-15 -.936E+01 0.936E+01   -.128E-20 -.629E-01 0.629E-01   0.143E-13 -.636E-02 0.636E-02
   -.934E-15 -.455E-15 -.585E-14   0.211E-14 0.216E-14 -.833E-14   0.000E+00 0.000E+00 0.000E+00   -.836E-14 -.237E-14 0.153E-13
   -.215E+01 0.200E-13 0.215E+01   0.211E+01 0.611E-15 -.211E+01   0.475E-01 -.169E-20 -.475E-01   0.148E-02 0.941E-14 -.148E-02
   -.961E+01 -.961E+01 0.208E-13   0.936E+01 0.936E+01 -.966E-14   0.629E-01 0.629E-01 -.508E-20   0.636E-02 0.636E-02 0.306E-13
   -.164E-14 -.215E+01 0.215E+01   0.183E-14 0.211E+01 -.211E+01   0.199E-21 0.475E-01 -.475E-01   0.434E-14 0.148E-02 -.148E-02
   -.107E-13 -.336E-13 0.171E-12   0.116E-14 0.244E-14 -.611E-15   0.000E+00 0.000E+00 0.000E+00   0.654E-14 -.593E-14 0.363E-13
   0.215E+01 0.526E-13 0.215E+01   -.211E+01 0.239E-14 -.211E+01   -.475E-01 -.339E-20 -.475E-01   -.148E-02 0.425E-14 -.148E-02
   0.961E+01 -.961E+01 -.607E-13   -.936E+01 0.936E+01 -.141E-13   -.629E-01 0.629E-01 -.169E-20   -.636E-02 0.636E-02 0.199E-13
   -.131E-13 -.961E+01 0.961E+01   -.566E-14 0.936E+01 -.936E+01   0.296E-20 0.629E-01 -.629E-01   -.594E-14 0.636E-02 -.636E-02
   -.163E-14 -.689E-14 -.441E-14   -.853E-15 0.183E-14 -.722E-14   0.000E+00 0.000E+00 0.000E+00   -.146E-13 0.158E-14 0.281E-14
   -.961E+01 -.769E-13 0.961E+01   0.936E+01 -.611E-15 -.936E+01   0.629E-01 -.339E-20 -.629E-01   0.636E-02 -.102E-13 -.636E-02
   -.961E+01 0.961E+01 -.440E-13   0.936E+01 -.936E+01 -.594E-14   0.629E-01 -.629E-01 0.508E-20   0.636E-02 -.636E-02 0.112E-13
   -.231E-14 0.215E+01 0.215E+01   -.914E-15 -.211E+01 -.211E+01   -.678E-20 -.475E-01 -.475E-01   -.783E-15 -.148E-02 -.148E-02
   0.961E+01 0.524E-13 0.961E+01   -.936E+01 -.239E-14 -.936E+01   -.629E-01 -.508E-20 -.629E-01   -.636E-02 -.554E-14 -.636E-02
   0.961E+01 0.961E+01 0.457E-13   -.936E+01 -.936E+01 -.594E-14   -.629E-01 -.629E-01 0.111E-19   -.636E-02 -.636E-02 -.387E-14
   -.117E-13 0.961E+01 0.961E+01   -.594E-14 -.936E+01 -.936E+01   -.254E-20 -.629E-01 -.629E-01   -.119E-14 -.636E-02 -.636E-02
 -----------------------------------------------------------------------------------------------
   -.131E-12 -.241E-12 -.519E-12   0.294E-14 0.533E-14 -.320E-13   0.278E-16 0.416E-16 0.278E-16   -.130E-13 -.507E-14 -.585E-14
 
 
 POSITION                                       TOTAL-FORCE (eV/Angst)
 -----------------------------------------------------------------------------------
      0.00000      0.00000      0.00000         0.000000      0.000000      0.000000
      2.02176      0.00000      2.02176         0.011931      0.000000      0.011931
      2.02176      2.02176      0.00000         0.011931      0.011931      0.000000
      0.00000      2.02176      2.02176         0.000000      0.011931      0.011931
      4.04353      0.00000      0.00000         0.000000      0.000000      0.000000
      6.06529      0.00000      2.02176        -0.011931      0.000000      0.011931
      6.06529      2.02176      0.00000        -0.011931      0.011931      0.000000
      4.04353      2.02176      2.02176         0.000000     -0.185107     -0.185107
      0.00000      4.04353      0.00000         0.000000      0.000000      0.000000
      2.02176      4.04353      2.02176        -0.185107      0.000000     -0.185107
      2.02176      6.06529      0.00000         0.011931     -0.011931      0.000000
      0.00000      6.06529      2.02176         0.000000     -0.011931      0.011931
      4.04353      4.04353      0.00000         0.000000      0.000000      0.000000
      6.06529      4.04353      2.02176         0.185107      0.000000     -0.185107
      6.06529      6.06529      0.00000        -0.011931     -0.011931      0.000000
      4.04353      6.06529      2.02176         0.000000      0.185107     -0.185107
      0.00000      0.00000      4.04353         0.000000      0.000000      0.000000
      2.02176      0.00000      6.06529         0.011931      0.000000     -0.011931
      2.02176      2.02176      4.04353        -0.185107     -0.185107      0.000000
      0.00000      2.02176      6.06529         0.000000      0.011931     -0.011931
      4.04353      0.00000      4.04353         0.000000      0.000000      0.000000
      6.06529      0.00000      6.06529        -0.011931      0.000000     -0.011931
      6.06529      2.02176      4.04353         0.185107     -0.185107      0.000000
      4.04353      2.02176      6.06529         0.000000     -0.185107      0.185107
      0.00000      4.04353      4.04353         0.000000      0.000000      0.000000
      2.02176      4.04353      6.06529        -0.185107      0.000000      0.185107
      2.02176      6.06529      4.04353        -0.185107      0.185107      0.000000
      0.00000      6.06529      6.06529         0.000000     -0.011931     -0.011931
      6.06529      4.04353      6.06529         0.185107      0.000000      0.185107
      6.06529      6.06529      4.04353         0.185107      0.185107      0.000000
      4.04353      6.06529      6.06529         0.000000      0.185107      0.185107
 -----------------------------------------------------------------------------------
    total drift:                                0.000000      0.000000      0.000000


--------------------------------------------------------------------------------------------------------


    POTLOK:  cpu time    0.16: real time    0.16


--------------------------------------------------------------------------------------------------------


  FORCES: max atom, RMS     0.261781    0.163210
  FORCE total and by dimension    0.908717    0.185107


--------------------------------------------------------------------------------------------------------


    WAVPRE:  cpu time    0.04: real time    0.04
    FEWALD:  cpu time    0.01: real time    0.01
    ORTHCH:  cpu time    0.05: real time    0.05
     LOOP+:  cpu time   14.78: real time   14.83
   RESPFUN:  cpu time    0.00: real time    0.00


----------------------------------------- Iteration    2(   1)  ---------------------------------------


    POTLOK:  cpu time    0.15: real time    0.15
    SETDIJ:  cpu time    0.01: real time    0.01
    EDDIAG:  cpu time    0.15: real time    0.15
  RMM-DIIS:  cpu time    0.62: real time    0.62
    ORTHCH:  cpu time    0.01: real time    0.01
       DOS:  cpu time    0.00: real time    0.00
    CHARGE:  cpu time    0.13: real time    0.13
    MIXING:  cpu time    0.00: real time    0.00
    --------------------------------------------
      LOOP:  cpu time    1.08: real time    1.08

 eigenvalue-minimisations  :   144
 total energy-change (2. order) :-0.4719345E-01  (-0.2546281E-01)
 number of electron   92.9999993 magnetization 
 augmentation part    -0.9876848 magnetization 

 Broyden mixing:
  rms(total) = 0.29116E-01    rms(broyden)= 0.29115E-01
  rms(prec ) = 0.83443E-01
  weight for this iteration     100.00

 Free energy of the ion-electron system (eV)
  ---------------------------------------------------
  alpha Z        PSCENC =        -6.10292983
  Ewald energy   TEWEN  =     -2224.92121121
  -1/2 Hartree   DENC   =       -26.63728482
  -exchange  EXHF       =         0.00000000
  -V(xc)+E(xc)   XCENC  =      -810.84565049
  PAW double counting   =      1099.98348365     -109.53630755
  entropy T*S    EENTRO =        -0.09251632
  eigenvalues    EBANDS =       318.93639896
  atomic energy  EATOM  =      1659.66634407
  ---------------------------------------------------
  free energy    TOTEN  =       -99.54967355 eV

  energy without entropy =      -99.45715724  energy(sigma->0) =      -99.51883478


--------------------------------------------------------------------------------------------------------




----------------------------------------- Iteration    2(   2)  ---------------------------------------


    POTLOK:  cpu time    0.14: real time    0.14
    SETDIJ:  cpu time    0.01: real time    0.01
    EDDIAG:  cpu time    0.15: real time    0.15
  RMM-DIIS:  cpu time    0.62: real time    0.62
    ORTHCH:  cpu time    0.01: real time    0.01
       DOS:  cpu time    0.00: real time    0.00
    CHARGE:  cpu time    0.13: real time    0.13
    MIXING:  cpu time    0.00: real time    0.00
    --------------------------------------------
      LOOP:  cpu time    1.07: real time    1.07

 eigenvalue-minimisations  :   144
 total energy-change (2. order) : 0.7483376E-02  (-0.1737259E-02)
 number of electron   92.9999993 magnetization 
 augmentation part    -0.9879386 magnetization 

 Broyden mixing:
  rms(total) = 0.70479E-02    rms(broyden)= 0.70476E-02
  rms(prec ) = 0.18350E-01
  weight for this iteration     100.00

 eigenvalues of (default mixing * dielectric matrix)
  average eigenvalue GAMMA=   0.9813
  0.9813

 Free energy of the ion-electron system (eV)
  ---------------------------------------------------
  alpha Z        PSCENC =        -6.10292983
  Ewald energy   TEWEN  =     -2224.92121121
  -1/2 Hartree   DENC   =       -26.85295715
  -exchange  EXHF       =         0.00000000
  -V(xc)+E(xc)   XCENC  =      -810.84220036
  PAW double counting   =      1099.98544240     -109.53911085
  entropy T*S    EENTRO =        -0.11562157
  eigenvalues    EBANDS =       319.18005433
  atomic energy  EATOM  =      1659.66634407
  ---------------------------------------------------
  free energy    TOTEN  =       -99.54219018 eV

  energy without entropy =      -99.42656861  energy(sigma->0) =      -99.50364965


--------------------------------------------------------------------------------------------------------




----------------------------------------- Iteration    2(   3)  ---------------------------------------


    POTLOK:  cpu time    0.14: real time    0.15
    SETDIJ:  cpu time    0.01: real time    0.01
    EDDIAG:  cpu time    0.15: real time    0.15
  RMM-DIIS:  cpu time    0.56: real time    0.56
    ORTHCH:  cpu time    0.01: real time    0.01
       DOS:  cpu time    0.00: real time    0.00
    CHARGE:  cpu time    0.13: real time    0.13
    MIXING:  cpu time    0.00: real time    0.00
    --------------------------------------------
      LOOP:  cpu time    1.01: real time    1.02

 eigenvalue-minimisations  :   131
 total energy-change (2. order) : 0.2917189E-03  (-0.7056035E-04)
 number of electron   92.9999993 magnetization 
 augmentation part    -0.9879481 magnetization 

 Broyden mixing:
  rms(total) = 0.35581E-02    rms(broyden)= 0.35581E-02
  rms(prec ) = 0.66439E-02
  weight for this iteration     100.00

 eigenvalues of (default mixing * dielectric matrix)
  average eigenvalue GAMMA=   1.1898
  0.8770  1.5027

 Free energy of the ion-electron system (eV)
  ---------------------------------------------------
  alpha Z        PSCENC =        -6.10292983
  Ewald energy   TEWEN  =     -2224.92121121
  -1/2 Hartree   DENC   =       -26.82959548
  -exchange  EXHF       =         0.00000000
  -V(xc)+E(xc)   XCENC  =      -810.84190370
  PAW double counting   =      1099.99449787     -109.54902798
  entropy T*S    EENTRO =        -0.11602892
  eigenvalues    EBANDS =       319.15795671
  atomic energy  EATOM  =      1659.66634407
  ---------------------------------------------------
  free energy    TOTEN  =       -99.54189846 eV

  energy without entropy =      -99.42586954  energy(sigma->0) =      -99.50322215


--------------------------------------------------------------------------------------------------------




----------------------------------------- Iteration    2(   4)  ---------------------------------------


    POTLOK:  cpu time    0.14: real time    0.14
    SETDIJ:  cpu time    0.01: real time    0.01
    EDDIAG:  cpu time    0.15: real time    0.15
  RMM-DIIS:  cpu time    0.41: real time    0.41
    ORTHCH:  cpu time    0.01: real time    0.01
       DOS:  cpu time    0.00: real time    0.00
    --------------------------------------------
      LOOP:  cpu time    0.73: real time    0.73

 eigenvalue-minimisations  :    90
 total energy-change (2. order) : 0.2514777E-04  (-0.7754890E-05)
 number of electron   92.9999993 magnetization 
 augmentation part    -0.9879481 magnetization 

 Free energy of the ion-electron system (eV)
  ---------------------------------------------------
  alpha Z        PSCENC =        -6.10292983
  Ewald energy   TEWEN  =     -2224.92121121
  -1/2 Hartree   DENC   =       -26.83388281
  -exchange  EXHF       =         0.00000000
  -V(xc)+E(xc)   XCENC  =      -810.84160074
  PAW double counting   =      1100.00007335     -109.55523253
  entropy T*S    EENTRO =        -0.11577641
  eigenvalues    EBANDS =       319.16234281
  atomic energy  EATOM  =      1659.66634407
  ---------------------------------------------------
  free energy    TOTEN  =       -99.54187331 eV

  energy without entropy =      -99.42609690  energy(sigma->0) =      -99.50328117


--------------------------------------------------------------------------------------------------------




 average (electrostatic) potential at core
  the test charge radii are     1.0406
  (the norm of the test charge is              1.0000)
       1 -72.9624       2 -73.1090       3 -73.1090       4 -73.1090       5 -72.7152
       6 -73.1090       7 -73.1090       8 -73.1932       9 -72.7152      10 -73.1932
      11 -73.1090      12 -73.1090      13 -73.1573      14 -73.1932      15 -73.1090
      16 -73.1932      17 -72.7152      18 -73.1090      19 -73.1932      20 -73.1090
      21 -73.1573      22 -73.1090      23 -73.1932      24 -73.1932      25 -73.1573
      26 -73.1932      27 -73.1932      28 -73.1090      29 -73.1932      30 -73.1932
      31 -73.1932
 
 
 
 E-fermi :   7.9184     XC(G=0): -10.0429     alpha+bet :-14.3870
   add alpha+bet to get absolut eigen values

 k-point   1 :       0.0000    0.0000    0.0000
  band No.  band energies     occupation 
      1      -3.3577      2.00000
      2      -1.2098      2.00000
      3      -1.2098      2.00000
      4      -1.1639      2.00000
      5      -1.1639      2.00000
      6      -1.1639      2.00000
      7      -0.7325      2.00000
      8       0.9787      2.00000
      9       0.9787      2.00000
     10       0.9787      2.00000
     11       0.9941      2.00000
     12       0.9941      2.00000
     13       0.9941      2.00000
     14       1.0248      2.00000
     15       1.0248      2.00000
     16       1.2452      2.00000
     17       1.2452      2.00000
     18       1.2452      2.00000
     19       2.0440      2.00000
     20       3.0383      2.00000
     21       3.2787      2.00000
     22       3.2787      2.00000
     23       3.2787      2.00000
     24       3.3237      2.00000
     25       3.3237      2.00000
     26       3.3237      2.00000
     27       4.1535      2.00000
     28       4.9006      2.00000
     29       4.9006      2.00000
     30       4.9006      2.00000
     31       6.1554      2.00000
     32       6.1554      2.00000
     33       6.4558      2.00000
     34       6.7752      2.00000
     35       6.7752      2.00000
     36       6.7752      2.00000
     37       6.8238      2.00000
     38       6.8238      2.00000
     39       6.8238      2.00000
     40       6.9556      2.00000
     41       6.9556      2.00000
     42       6.9556      2.00000
     43       7.2849      2.00007
     44       7.2849      2.00007
     45       7.2849      2.00007
     46       7.8297      1.67543
     47       7.9886      0.44508
     48       7.9886      0.44508
     49       7.9886      0.44508
     50       8.0894     -0.00544
     51       8.0894     -0.00544
     52       8.7687      0.00000
     53       8.7687      0.00000
     54       8.7687      0.00000
     55       8.8051      0.00000
     56       8.8051      0.00000
     57       8.8376      0.00000
     58       8.8376      0.00000
     59       8.8782      0.00000
     60       8.8782      0.00000
     61       8.8782      0.00000
     62       8.9793      0.00000
     63       9.1848      0.00000
     64       9.1849      0.00000
     65       9.1849      0.00000
     66       9.5082      0.00000
     67       9.5083      0.00000
     68       9.5086      0.00000
     69       9.5543      0.00000
     70      10.4456      0.00000
     71      10.4655      0.00000
     72      10.4883      0.00000


--------------------------------------------------------------------------------------------------------


 soft charge-density along one line, spin component           1
         0         1         2         3         4         5         6         7         8         9
 total charge-density along one line
 
 pseudopotential strength for first ion, spin component:           1
  8.456  -0.006   0.000   0.000   0.000   0.000   0.000   0.000
 -0.006   0.000   0.000   0.000   0.000   0.000   0.000   0.000
  0.000   0.000   1.987   0.000   0.000  -0.026   0.000   0.000
  0.000   0.000   0.000   1.987   0.000   0.000  -0.026   0.000
  0.000   0.000   0.000   0.000   1.987   0.000   0.000  -0.026
  0.000   0.000  -0.026   0.000   0.000  -0.012   0.000   0.000
  0.000   0.000   0.000  -0.026   0.000   0.000  -0.012   0.000
  0.000   0.000   0.000   0.000  -0.026   0.000   0.000  -0.012
 total augmentation occupancy for first ion, spin component:           1
  1.178  -0.554   0.000   0.000   0.000   0.000   0.000   0.000
 -0.554   0.487   0.000   0.000   0.000   0.000   0.000   0.000
  0.000   0.000   0.814   0.000   0.000  -0.177   0.000   0.000
  0.000   0.000   0.000   0.814   0.000   0.000  -0.177   0.000
  0.000   0.000   0.000   0.000   0.814   0.000   0.000  -0.177
  0.000   0.000  -0.177   0.000   0.000   0.048   0.000   0.000
  0.000   0.000   0.000  -0.177   0.000   0.000   0.048   0.000
  0.000   0.000   0.000   0.000  -0.177   0.000   0.000   0.048


------------------------ aborting loop because EDIFF is reached ----------------------------------------




--------------------------------------------------------------------------------------------------------



  FREE ENERGIE OF THE ION-ELECTRON SYSTEM (eV)
  ---------------------------------------------------
  free  energy   TOTEN  =       -99.541873 eV

  energy  without entropy=      -99.426097  energy(sigma->0) =      -99.503281
 
    CHARGE:  cpu time    0.13: real time    0.13
    FORLOC:  cpu time    0.03: real time    0.03
    FORNL :  cpu time    0.23: real time    0.24
    STRESS:  cpu time    0.39: real time    0.39
    FORCOR:  cpu time    0.17: real time    0.17
    FORHAR:  cpu time    0.06: real time    0.07
    MIXING:  cpu time    0.00: real time    0.00

  FORCE on cell =-STRESS in cart. coord.  units (eV):
  Direction    XX          YY          ZZ          XY          YZ          ZX
  --------------------------------------------------------------------------------------
  Alpha Z    -6.10293    -6.10293    -6.10293
  Ewald    -741.64346  -741.64346  -741.64346     0.00000     0.00000     0.00000
[...]


    POTLOK:  cpu time    0.14: real time    0.14
    SETDIJ:  cpu time    0.01: real time    0.01
    EDDIAG:  cpu time    0.15: real time    0.15
  RMM-DIIS:  cpu time    0.62: real time    0.62
    ORTHCH:  cpu time    0.01: real time    0.01
       DOS:  cpu time    0.00: real time    0.00
    CHARGE:  cpu time    0.13: real time    0.13
    MIXING:  cpu time    0.00: real time    0.00
    --------------------------------------------
      LOOP:  cpu time    1.07: real time    1.07

 eigenvalue-minimisations  :   145
 total energy-change (2. order) : 0.1981763E-02  (-0.3424962E-03)
 number of electron   92.9999995 magnetization 
 augmentation part    -0.9860914 magnetization 

 Broyden mixing:
  rms(total) = 0.57074E-02    rms(broyden)= 0.57073E-02
  rms(prec ) = 0.97649E-02
  weight for this iteration     100.00

 eigenvalues of (default mixing * dielectric matrix)
  average eigenvalue GAMMA=   1.1272
  0.6991  1.5553

 Free energy of the ion-electron system (eV)
  ---------------------------------------------------
  alpha Z        PSCENC =        -6.10292983
  Ewald energy   TEWEN  =     -2211.09709986
  -1/2 Hartree   DENC   =       -39.02266570
  -exchange  EXHF       =         0.00000000
  -V(xc)+E(xc)   XCENC  =      -810.56837227
  PAW double counting   =      1100.48373079     -110.06479975
  entropy T*S    EENTRO =        -0.02400110
  eigenvalues    EBANDS =       317.04856312
  atomic energy  EATOM  =      1659.66634407
  ---------------------------------------------------
  free energy    TOTEN  =       -99.68123055 eV

  energy without entropy =      -99.65722944  energy(sigma->0) =      -99.67323018


--------------------------------------------------------------------------------------------------------




----------------------------------------- Iteration    5(   4)  ---------------------------------------


    POTLOK:  cpu time    0.14: real time    0.14
    SETDIJ:  cpu time    0.01: real time    0.01
    EDDIAG:  cpu time    0.15: real time    0.15
  RMM-DIIS:  cpu time    0.51: real time    0.51
    ORTHCH:  cpu time    0.01: real time    0.01
       DOS:  cpu time    0.00: real time    0.00
    --------------------------------------------
      LOOP:  cpu time    0.83: real time    0.83

 eigenvalue-minimisations  :   113
 total energy-change (2. order) : 0.5921758E-04  (-0.4134653E-04)
 number of electron   92.9999995 magnetization 
 augmentation part    -0.9860914 magnetization 

 Free energy of the ion-electron system (eV)
  ---------------------------------------------------
  alpha Z        PSCENC =        -6.10292983
  Ewald energy   TEWEN  =     -2211.09709986
  -1/2 Hartree   DENC   =       -39.03912344
  -exchange  EXHF       =         0.00000000
  -V(xc)+E(xc)   XCENC  =      -810.56661313
  PAW double counting   =      1100.55472158     -110.13920726
  entropy T*S    EENTRO =        -0.02351380
  eigenvalues    EBANDS =       317.06625036
  atomic energy  EATOM  =      1659.66634407
  ---------------------------------------------------
  free energy    TOTEN  =       -99.68117133 eV

  energy without entropy =      -99.65765753  energy(sigma->0) =      -99.67333340


--------------------------------------------------------------------------------------------------------




 average (electrostatic) potential at core
  the test charge radii are     1.0406
  (the norm of the test charge is              1.0000)
       1 -72.9770       2 -73.0804       3 -73.0804       4 -73.0804       5 -72.6025
       6 -73.0804       7 -73.0804       8 -73.2295       9 -72.6025      10 -73.2295
      11 -73.0804      12 -73.0804      13 -73.2325      14 -73.2295      15 -73.0804
      16 -73.2295      17 -72.6025      18 -73.0804      19 -73.2295      20 -73.0804
      21 -73.2325      22 -73.0804      23 -73.2295      24 -73.2295      25 -73.2325
      26 -73.2295      27 -73.2295      28 -73.0804      29 -73.2295      30 -73.2295
      31 -73.2295
 
 
 
 E-fermi :   7.8715     XC(G=0): -10.0323     alpha+bet :-14.3870
   add alpha+bet to get absolut eigen values

 k-point   1 :       0.0000    0.0000    0.0000
  band No.  band energies     occupation 
      1      -3.3996      2.00000
      2      -1.3069      2.00000
      3      -1.3069      2.00000
      4      -1.1963      2.00000
      5      -1.1963      2.00000
      6      -1.1963      2.00000
      7      -0.6358      2.00000
      8       0.8451      2.00000
      9       0.8451      2.00000
     10       0.8451      2.00000
     11       0.9602      2.00000
     12       0.9602      2.00000
     13       0.9709      2.00000
     14       0.9709      2.00000
     15       0.9709      2.00000
     16       1.3307      2.00000
     17       1.3307      2.00000
     18       1.3307      2.00000
     19       2.1211      2.00000
     20       3.0145      2.00000
     21       3.2816      2.00000
     22       3.2816      2.00000
     23       3.2816      2.00000
     24       3.3040      2.00000
     25       3.3040      2.00000
     26       3.3040      2.00000
     27       4.2804      2.00000
     28       4.8752      2.00000
     29       4.8752      2.00000
     30       4.8752      2.00000
     31       6.1301      2.00000
     32       6.1301      2.00000
     33       6.4701      2.00000
     34       6.6863      2.00000
     35       6.6863      2.00000
     36       6.6863      2.00000
     37       6.7132      2.00000
     38       6.7132      2.00000
     39       6.7132      2.00000
     40       7.0145      2.00000
     41       7.0145      2.00000
     42       7.0145      2.00000
     43       7.3639      2.00195
     44       7.3639      2.00195
     45       7.3639      2.00195
     46       7.5955      2.06496
     47       7.9571      0.34361
     48       7.9571      0.34361
     49       7.9571      0.34361
     50       8.1813     -0.05082
     51       8.1813     -0.05082
     52       8.7063      0.00000
     53       8.7063      0.00000
     54       8.7623      0.00000
     55       8.7623      0.00000
     56       8.7623      0.00000
     57       8.7670      0.00000
     58       8.7670      0.00000
     59       8.8294      0.00000
     60       8.8294      0.00000
     61       8.8294      0.00000
     62       9.1937      0.00000
     63       9.2116      0.00000
     64       9.2116      0.00000
     65       9.2116      0.00000
     66       9.5583      0.00000
     67       9.5583      0.00000
     68       9.5583      0.00000
     69       9.6217      0.00000
     70      10.3176      0.00000
     71      10.3538      0.00000
     72      10.4340      0.00000


--------------------------------------------------------------------------------------------------------


 soft charge-density along one line, spin component           1
         0         1         2         3         4         5         6         7         8         9
 total charge-density along one line
 
 pseudopotential strength for first ion, spin component:           1
  8.455  -0.005   0.000   0.000   0.000   0.000   0.000   0.000
 -0.005   0.000   0.000   0.000   0.000   0.000   0.000   0.000
  0.000   0.000   1.987   0.000   0.000  -0.026   0.000   0.000
  0.000   0.000   0.000   1.987   0.000   0.000  -0.026   0.000
  0.000   0.000   0.000   0.000   1.987   0.000   0.000  -0.026
  0.000   0.000  -0.026   0.000   0.000  -0.012   0.000   0.000
  0.000   0.000   0.000  -0.026   0.000   0.000  -0.012   0.000
  0.000   0.000   0.000   0.000  -0.026   0.000   0.000  -0.012
 total augmentation occupancy for first ion, spin component:           1
  1.192  -0.542   0.000   0.000   0.000   0.000   0.000   0.000
 -0.542   0.481   0.000   0.000   0.000   0.000   0.000   0.000
  0.000   0.000   0.793   0.000   0.000  -0.173   0.000   0.000
  0.000   0.000   0.000   0.793   0.000   0.000  -0.173   0.000
  0.000   0.000   0.000   0.000   0.793   0.000   0.000  -0.173
  0.000   0.000  -0.173   0.000   0.000   0.047   0.000   0.000
  0.000   0.000   0.000  -0.173   0.000   0.000   0.047   0.000
  0.000   0.000   0.000   0.000  -0.173   0.000   0.000   0.047


------------------------ aborting loop because EDIFF is reached ----------------------------------------




--------------------------------------------------------------------------------------------------------



  FREE ENERGIE OF THE ION-ELECTRON SYSTEM (eV)
  ---------------------------------------------------
  free  energy   TOTEN  =       -99.681171 eV

  energy  without entropy=      -99.657658  energy(sigma->0) =      -99.673333
 
    CHARGE:  cpu time    0.13: real time    0.13
    FORLOC:  cpu time    0.03: real time    0.03
    FORNL :  cpu time    0.24: real time    0.24
    STRESS:  cpu time    0.39: real time    0.39
    FORCOR:  cpu time    0.17: real time    0.17
    FORHAR:  cpu time    0.06: real time    0.07
    MIXING:  cpu time    0.01: real time    0.00

  FORCE on cell =-STRESS in cart. coord.  units (eV):
  Direction    XX          YY          ZZ          XY          YZ          ZX
  --------------------------------------------------------------------------------------
  Alpha Z    -6.10293    -6.10293    -6.10293
  Ewald    -737.03535  -737.03535  -737.03535     0.00000     0.00000     0.00000
  Hartree    13.01091    13.01091    13.01091     0.00000     0.00000     0.00000
  E(xc)    -263.43373  -263.43373  -263.43373     0.00000     0.00000     0.00000
  Local     -17.45485   -17.45485   -17.45485     0.00000     0.00000     0.00000
  n-local   554.46447   554.46448   554.46445     0.00001    -0.00005     0.00000
  augment   -26.33338   -26.33338   -26.33338    -0.00001     0.00000     0.00000
  Kinetic   475.66496   475.66500   475.66496     0.00002    -0.00001    -0.00002
  Fock        0.00000     0.00000     0.00000     0.00000     0.00000     0.00000
  -------------------------------------------------------------------------------------
  Total      -7.21989    -7.21989    -7.21989     0.00000     0.00000     0.00000
  in kB     -21.87108   -21.87108   -21.87108     0.00000     0.00000     0.00000
  external pressure =      -21.87 kB  Pullay stress =        0.00 kB


 VOLUME and BASIS-vectors are now :
 -----------------------------------------------------------------------------
  energy-cutoff  :      300.00
  volume of cell :      528.90
      direct lattice vectors                 reciprocal lattice vectors
     8.087052000  0.000000000  0.000000000     0.123654454  0.000000000  0.000000000
     0.000000000  8.087052000  0.000000000     0.000000000  0.123654454  0.000000000
     0.000000000  0.000000000  8.087052000     0.000000000  0.000000000  0.123654454

  length of vectors
     8.087052000  8.087052000  8.087052000     0.123654454  0.123654454  0.123654454


 FORCES acting on ions
    electron-ion (+dipol)            ewald-force                    non-local-force                 convergence-correction
 -----------------------------------------------------------------------------------------------
   -.317E-14 0.140E-13 0.173E-13   0.163E-13 0.389E-14 0.722E-15   0.000E+00 0.000E+00 0.000E+00   -.131E-12 0.228E-13 -.113E-12
   -.215E+01 -.827E-13 -.215E+01   0.222E+01 0.605E-14 0.222E+01   -.148E+00 0.635E-21 -.148E+00   0.286E-02 0.569E-13 0.286E-02
   -.215E+01 -.215E+01 -.881E-07   0.222E+01 0.222E+01 0.105E-13   -.148E+00 -.148E+00 -.126E-21   0.286E-02 0.286E-02 0.603E-13
   -.251E-14 -.215E+01 -.215E+01   0.157E-13 0.222E+01 0.222E+01   0.132E-20 -.148E+00 -.148E+00   0.160E-12 0.286E-02 0.286E-02
   -.113E-13 0.241E-13 -.280E-12   0.871E-14 -.422E-14 0.289E-14   0.000E+00 0.000E+00 0.000E+00   0.129E-12 0.461E-13 -.120E-12
   0.215E+01 0.349E-13 -.215E+01   -.222E+01 -.372E-14 0.222E+01   0.148E+00 0.164E-20 -.148E+00   -.286E-02 0.469E-15 0.286E-02
   0.215E+01 -.215E+01 0.432E-13   -.222E+01 0.222E+01 0.250E-14   0.148E+00 -.148E+00 -.529E-22   -.286E-02 0.286E-02 -.255E-12
   -.123E-13 -.141E+02 -.141E+02   -.258E-14 0.131E+02 0.131E+02   -.675E-21 0.102E+01 0.102E+01   -.156E-12 0.157E-02 0.157E-02
   -.206E-14 -.883E-14 -.720E-15   0.463E-14 -.550E-14 0.133E-13   0.000E+00 0.000E+00 0.000E+00   0.129E-13 -.132E-13 -.978E-13
   -.141E+02 0.342E-13 -.141E+02   0.131E+02 -.527E-14 0.131E+02   0.102E+01 -.106E-21 0.102E+01   0.157E-02 -.414E-13 0.157E-02
   -.215E+01 0.215E+01 -.247E-13   0.222E+01 -.222E+01 0.422E-14   -.148E+00 0.148E+00 -.127E-20   0.286E-02 -.286E-02 -.104E-13
   -.279E-14 0.215E+01 -.215E+01   0.204E-14 -.222E+01 0.222E+01   0.212E-20 0.148E+00 -.148E+00   0.103E-12 -.286E-02 0.286E-02
   -.129E-13 0.144E-12 0.552E-13   0.578E-14 0.722E-15 0.205E-14   0.000E+00 0.000E+00 0.000E+00   -.161E-13 -.200E-13 -.719E-13
   0.141E+02 -.734E-13 -.141E+02   -.131E+02 -.305E-14 0.131E+02   -.102E+01 -.953E-21 0.102E+01   -.157E-02 0.149E-13 0.157E-02
   0.215E+01 0.215E+01 0.881E-07   -.222E+01 -.222E+01 0.666E-15   0.148E+00 0.148E+00 0.143E-20   -.286E-02 -.286E-02 -.229E-12
   -.127E-13 0.141E+02 -.141E+02   0.466E-14 -.131E+02 0.131E+02   -.116E-20 -.102E+01 0.102E+01   -.100E-12 -.157E-02 0.157E-02
   -.274E-14 -.138E-14 -.746E-14   0.290E-14 -.139E-14 0.699E-14   0.000E+00 0.000E+00 0.000E+00   0.934E-13 0.997E-14 0.120E-12
   -.215E+01 -.121E-12 0.215E+01   0.222E+01 0.422E-14 -.222E+01   -.148E+00 0.169E-20 0.148E+00   0.286E-02 -.190E-13 -.286E-02
   -.141E+02 -.141E+02 -.228E-06   0.131E+02 0.131E+02 -.855E-14   0.102E+01 0.102E+01 -.127E-20   0.157E-02 0.157E-02 -.524E-13
   -.183E-14 -.215E+01 0.215E+01   0.108E-13 0.222E+01 -.222E+01   0.847E-21 -.148E+00 0.148E+00   -.155E-12 0.286E-02 -.286E-02
   -.136E-13 -.425E-14 0.149E-12   0.244E-14 0.205E-14 -.153E-13   0.000E+00 0.000E+00 0.000E+00   -.959E-13 -.134E-14 0.131E-12
   0.215E+01 -.627E-13 0.215E+01   -.222E+01 0.666E-15 -.222E+01   0.148E+00 -.212E-21 0.148E+00   -.286E-02 0.194E-13 -.286E-02
   0.141E+02 -.141E+02 0.733E-12   -.131E+02 0.131E+02 0.214E-13   -.102E+01 0.102E+01 0.106E-21   -.157E-02 0.157E-02 0.261E-12
   -.145E-13 -.141E+02 0.141E+02   -.299E-14 0.131E+02 -.131E+02   -.424E-21 0.102E+01 -.102E+01   0.153E-12 0.157E-02 -.157E-02
   -.165E-14 0.290E-14 0.546E-14   0.347E-14 0.533E-14 0.722E-15   0.000E+00 0.000E+00 0.000E+00   0.633E-14 -.440E-14 0.888E-13
   -.141E+02 0.282E-13 0.141E+02   0.131E+02 -.244E-14 -.131E+02   0.102E+01 0.138E-20 -.102E+01   0.157E-02 0.217E-13 -.157E-02
   -.141E+02 0.141E+02 -.138E-12   0.131E+02 -.131E+02 -.416E-14   0.102E+01 -.102E+01 -.106E-21   0.157E-02 -.157E-02 0.157E-13
   -.223E-14 0.215E+01 0.215E+01   -.117E-13 -.222E+01 -.222E+01   0.212E-21 0.148E+00 0.148E+00   -.122E-12 -.286E-02 -.286E-02
   0.141E+02 0.182E-12 0.141E+02   -.131E+02 -.666E-15 -.131E+02   -.102E+01 0.847E-21 -.102E+01   -.157E-02 -.623E-14 -.157E-02
   0.141E+02 0.141E+02 0.228E-06   -.131E+02 -.131E+02 0.649E-14   -.102E+01 -.102E+01 -.529E-21   -.157E-02 -.157E-02 0.246E-12
   -.148E-13 0.141E+02 0.141E+02   0.294E-14 -.131E+02 -.131E+02   -.596E-21 -.102E+01 -.102E+01   0.119E-12 -.157E-02 -.157E-02
 -----------------------------------------------------------------------------------------------
   0.375E-12 0.140E-13 0.192E-11   -.148E-13 0.178E-13 0.924E-13   -.444E-15 -.444E-15 0.888E-15   0.351E-13 -.209E-13 -.992E-13
 
 
 POSITION                                       TOTAL-FORCE (eV/Angst)
 -----------------------------------------------------------------------------------
      0.00000      0.00000      0.00000         0.000000      0.000000      0.000000
      2.02527      0.00000      2.02527        -0.074236      0.000000     -0.074236
      2.02527      2.02527      0.00000        -0.074236     -0.074236      0.000000
      0.00000      2.02527      2.02527         0.000000     -0.074236     -0.074236
      4.04353      0.00000      0.00000         0.000000      0.000000      0.000000
      6.06178      0.00000      2.02527         0.074236      0.000000     -0.074236
      6.06178      2.02527      0.00000         0.074236     -0.074236      0.000000
      4.04353      1.96237      1.96237         0.000000     -0.011851     -0.011851
      0.00000      4.04353      0.00000         0.000000      0.000000      0.000000
      1.96237      4.04353      1.96237        -0.011851      0.000000     -0.011851
      2.02527      6.06178      0.00000        -0.074236      0.074236      0.000000
      0.00000      6.06178      2.02527         0.000000      0.074236     -0.074236
      4.04353      4.04353      0.00000         0.000000      0.000000      0.000000
      6.12468      4.04353      1.96237         0.011851      0.000000     -0.011851
      6.06178      6.06178      0.00000         0.074236      0.074236      0.000000
      4.04353      6.12468      1.96237         0.000000      0.011851     -0.011851
      0.00000      0.00000      4.04353         0.000000      0.000000      0.000000
      2.02527      0.00000      6.06178        -0.074236      0.000000      0.074236
      1.96237      1.96237      4.04353        -0.011851     -0.011851      0.000000
      0.00000      2.02527      6.06178         0.000000     -0.074236      0.074236
      4.04353      0.00000      4.04353         0.000000      0.000000      0.000000
      6.06178      0.00000      6.06178         0.074236      0.000000      0.074236
      6.12468      1.96237      4.04353         0.011851     -0.011851      0.000000
      4.04353      1.96237      6.12468         0.000000     -0.011851      0.011851
      0.00000      4.04353      4.04353         0.000000      0.000000      0.000000
      1.96237      4.04353      6.12468        -0.011851      0.000000      0.011851
      1.96237      6.12468      4.04353        -0.011851      0.011851      0.000000
      0.00000      6.06178      6.06178         0.000000      0.074236      0.074236
      6.12468      4.04353      6.12468         0.011851      0.000000      0.011851
      6.12468      6.12468      4.04353         0.011851      0.011851      0.000000
      4.04353      6.12468      6.12468         0.000000      0.011851      0.011851
 -----------------------------------------------------------------------------------
    total drift:                                0.000000      0.000000      0.000000
 d Force = 0.2218305E-01[ 0.344E-02, 0.409E-01]  d Energy = 0.2292622E-01-0.743E-03
 d Force =-0.5307502E+01[-0.554E+01,-0.507E+01]  d Ewald  =-0.5308179E+01 0.676E-03


--------------------------------------------------------------------------------------------------------


    POTLOK:  cpu time    0.16: real time    0.16


--------------------------------------------------------------------------------------------------------


  FORCES: max atom, RMS     0.104986    0.066146
  FORCE total and by dimension    0.368286    0.074236


--------------------------------------------------------------------------------------------------------


  
 reached required accuracy - stopping structural energy minimisation
     LOOP+:  cpu time    5.18: real time    5.19
    4ORBIT:  cpu time    0.00: real time    0.00

 total amount of memory used by VASP on root node  58219. kBytes
========================================================================

   base      :    30000. kBytes
   nonl-proj :     3494. kBytes
   fftplans  :     2983. kBytes
   grid      :    21024. kBytes
   one-center:       95. kBytes
   wavefun   :      623. kBytes
 
  
  
 General timing and accounting informations for this job:
 ========================================================
  
                  Total CPU time used (sec):       37.460
                            User time (sec):       37.341
                          System time (sec):        0.119
                         Elapsed time (sec):       37.736
  
                   Maximum memory used (kb):           0.
                   Average memory used (kb):           0.
  
                          Minor page faults:        22454
                          Major page faults:           25
                 Voluntary context switches:         2671
