 vasp.5.2.2 15Apr09 complex 
 executed on             LinuxIFC date 2016.12.16  16:07:17
 running on   32 nodes
 distr:  one band on    1 nodes,   32 groups


--------------------------------------------------------------------------------------------------------


 INCAR:
 POTCAR:   PAW_PBE Al 04Jan2001                   
 POTCAR:   PAW_PBE Mg 05Jan2001                   
 POTCAR:   PAW_PBE Al 04Jan2001                   
   VRHFIN =Al: s2p1                                                             
   LEXCH  = PE                                                                  
   EATOM  =    53.5387 eV,    3.9350 Ry                                         
                                                                                
   TITEL  = PAW_PBE Al 04Jan2001                                                
   LULTRA =        F    use ultrasoft PP ?                                      
   IUNSCR =        1    unscreen: 0-lin 1-nonlin 2-no                           
   RPACOR =    1.500    partial core radius                                     
   POMASS =   26.982; ZVAL   =    3.000    mass and valenz                      
   RCORE  =    1.900    outmost cutoff radius                                   
   RWIGS  =    2.650; RWIGS  =    1.402    wigner-seitz radius (au A)           
   ENMAX  =  240.300; ENMIN  =  180.225 eV                                      
   ICORE  =        2    local potential                                         
   LCOR   =        T    correct aug charges                                     
   LPAW   =        T    paw PP                                                  
   EAUG   =  291.052                                                            
   DEXC   =    -.041                                                            
   RMAX   =    2.974    core radius for proj-oper                               
   RAUG   =    1.300    factor for augmentation sphere                          
   RDEP   =    1.966    radius for radial grids                                 
   QCUT   =   -4.203; QGAM   =    8.405    optimization parameters              
                                                                                
   Description                                                                  
     l     E      TYP  RCUT    TYP  RCUT                                        
     0   .000     23  1.900                                                     
     0   .000     23  1.900                                                     
     1   .000     23  1.900                                                     
     1  1.000     23  1.900                                                     
     2   .000      7  1.900                                                     
  local pseudopotential read in
  partial core-charges read in
  atomic valenz-charges read in
  non local Contribution for L=           0  read in
    real space projection operators read in
  non local Contribution for L=           0  read in
    real space projection operators read in
  non local Contribution for L=           1  read in
    real space projection operators read in
  non local Contribution for L=           1  read in
    real space projection operators read in
    PAW grid and wavefunctions read in
 
   number of l-projection  operators is LMAX  =           4
   number of lm-projection operators is LMMAX =           8
 
 POTCAR:   PAW_PBE Mg 05Jan2001                   
   VRHFIN =Mg: s2p0                                                             
   LEXCH  = PE                                                                  
   EATOM  =    23.0029 eV,    1.6907 Ry                                         
                                                                                
   TITEL  = PAW_PBE Mg 05Jan2001                                                
   LULTRA =        F    use ultrasoft PP ?                                      
   IUNSCR =        1    unscreen: 0-lin 1-nonlin 2-no                           
   RPACOR =    2.000    partial core radius                                     
   POMASS =   24.305; ZVAL   =    2.000    mass and valenz                      
   RCORE  =    2.000    outmost cutoff radius                                   
   RWIGS  =    2.880; RWIGS  =    1.524    wigner-seitz radius (au A)           
   ENMAX  =  210.012; ENMIN  =  157.509 eV                                      
   ICORE  =        2    local potential                                         
   LCOR   =        T    correct aug charges                                     
   LPAW   =        T    paw PP                                                  
   EAUG   =  274.554                                                            
   DEXC   =    -.136                                                            
   RMAX   =    3.182    core radius for proj-oper                               
   RAUG   =    1.300    factor for augmentation sphere                          
   RDEP   =    2.025    radius for radial grids                                 
   QCUT   =   -3.929; QGAM   =    7.858    optimization parameters              
                                                                                
   Description                                                                  
     l     E      TYP  RCUT    TYP  RCUT                                        
     0   .000     23  2.000                                                     
     0  2.000     23  2.000                                                     
     1   .000     23  2.000                                                     
     1  2.000     23  2.000                                                     
     2   .000     23  2.000                                                     
  local pseudopotential read in
  partial core-charges read in
  atomic valenz-charges read in
  non local Contribution for L=           0  read in
    real space projection operators read in
  non local Contribution for L=           0  read in
    real space projection operators read in
  non local Contribution for L=           1  read in
    real space projection operators read in
  non local Contribution for L=           1  read in
    real space projection operators read in
    PAW grid and wavefunctions read in
 
   number of l-projection  operators is LMAX  =           4
   number of lm-projection operators is LMMAX =           8
 

 ----------------------------------------------------------------------------- 
|                                                                             |
|  ADVICE TO THIS USER RUNNING 'VASP/VAMP'   (HEAR YOUR MASTER'S VOICE ...):  |
|                                                                             |
|      You have a (more or less) 'large supercell' and for larger cells       |
|      it might be more efficient to use real space projection operators      |
|      So try LREAL= Auto  in the INCAR   file.                               |
|      Mind: If you want to do a very accurate calculations keep the          |
|      reciprocal projection scheme          (i.e. LREAL=.FALSE.)             |
|                                                                             |
 ----------------------------------------------------------------------------- 

 PAW_PBE Al 04Jan2001                   :
 energy of atom  1       EATOM=  -53.5387
 kinetic energy error for atom=    0.0011 (will be added to EATOM!!)
 PAW_PBE Mg 05Jan2001                   :
 energy of atom  2       EATOM=  -23.0029
 kinetic energy error for atom=    0.0002 (will be added to EATOM!!)
 
 
 POSCAR: Mg1 Al32                                
  positions in direct lattice
  velocities in cartesian coordinates
 exchange correlation table for  LEXCH =        8
   RHO(1)=    0.500       N(1)  =     2000
   RHO(2)=  100.500       N(2)  =     4000

 VTST: version 2.03d, (02/18/09)

 CHAIN: initializing optimizer
 
 OPT: Using VASP Dynamics algorithm
 CHAIN: Read ICHAIN            0
 


--------------------------------------------------------------------------------------------------------


 ion  position               nearest neighbor table
   1  0.002  0.002  0.002-  15 2.81  22 2.81  28 2.81   2 2.85   3 2.85   4 2.85  12 2.89   6 2.89
                            18 2.89  20 2.89   7 2.89  11 2.89
   2  0.251  0.001  0.251-   8 2.80  19 2.80  16 2.80  27 2.80  12 2.83  11 2.83   1 2.85   3 2.86
                             4 2.86   5 2.89  17 2.89  21 2.92
   3  0.251  0.251  0.001-   8 2.80  10 2.80  24 2.80  26 2.80  18 2.83  20 2.83   1 2.85   2 2.86
                             4 2.86   9 2.89   5 2.89  13 2.92
   4  0.001  0.251  0.251-  10 2.80  19 2.80  14 2.80  23 2.80   6 2.83   7 2.83   1 2.85   2 2.86
                             3 2.86   9 2.89  17 2.89  25 2.92
   5  0.497  0.992  0.992-  32 2.81  24 2.83  16 2.83   7 2.85   6 2.85  22 2.88  15 2.88  11 2.89
                            18 2.89   3 2.89   2 2.89   8 2.96
   6  0.740  0.018  0.245-  31 2.54   7 2.59  15 2.63  23 2.66   8 2.76   4 2.83   5 2.85  21 2.85
                            17 2.89   1 2.89  16 3.01  12 3.18
   7  0.740  0.245  0.018-  30 2.54   6 2.59  22 2.63  14 2.66   8 2.76   4 2.83   5 2.85  13 2.85
                             9 2.89   1 2.89  24 3.01  20 3.18
   8  0.490  0.251  0.251-  10 2.74  19 2.74   6 2.76   7 2.76   2 2.80   3 2.80  14 2.82  23 2.82
                            29 2.96   5 2.96  13 2.98  21 2.98
   9  0.992  0.497  0.992-  30 2.81  26 2.83  14 2.83  11 2.85  12 2.85  28 2.88  15 2.88   7 2.89
                            20 2.89   4 2.89   3 2.89  10 2.96
  10  0.251  0.490  0.251-   8 2.74  19 2.74  12 2.76  11 2.76   3 2.80   4 2.80  16 2.82  27 2.82
                            29 2.96   9 2.96  13 2.98  25 2.98
  11  0.245  0.740  0.018-  32 2.54  12 2.59  28 2.63  16 2.66  10 2.76   2 2.83   9 2.85  13 2.85
                             5 2.89   1 2.89  26 3.01  18 3.18
  12  0.018  0.740  0.245-  31 2.54  11 2.59  15 2.63  27 2.66  10 2.76   2 2.83   9 2.85  25 2.85
                            17 2.89   1 2.89  14 3.01   6 3.18
  13  0.506  0.506  0.986-  14 2.85  16 2.85  30 2.85  32 2.85   7 2.85  11 2.85  24 2.89  26 2.89
                             3 2.92  15 2.93   8 2.98  10 2.98  33 3.28
  14  0.747  0.486  0.242-  31 2.58   7 2.66  15 2.70  23 2.79   4 2.80   8 2.82   9 2.83  13 2.85
                            25 2.89  29 2.90  16 2.99  12 3.01
  15  0.758  0.758  0.050-   6 2.63  12 2.63  33 2.64  16 2.70  14 2.70   1 2.81   5 2.88   9 2.88
                            13 2.93  31 2.95  22 3.34  28 3.34
  16  0.486  0.747  0.242-  31 2.58  11 2.66  15 2.70  27 2.79   2 2.80  10 2.82   5 2.83  13 2.85
                            21 2.89  29 2.90  14 2.99   6 3.01
  17  0.992  0.992  0.497-  31 2.81  27 2.83  23 2.83  20 2.85  18 2.85  28 2.88  22 2.88  12 2.89
                             6 2.89   4 2.89   2 2.89  19 2.96
  18  0.245  0.018  0.740-  32 2.54  20 2.59  28 2.63  24 2.66  19 2.76   3 2.83  17 2.85  21 2.85
                             5 2.89   1 2.89  27 3.01  11 3.18
  19  0.251  0.251  0.490-   8 2.74  10 2.74  18 2.76  20 2.76   2 2.80   4 2.80  24 2.82  26 2.82
                            29 2.96  17 2.96  21 2.98  25 2.98
  20  0.018  0.245  0.740-  30 2.54  18 2.59  22 2.63  26 2.66  19 2.76   3 2.83  17 2.85  25 2.85
                             9 2.89   1 2.89  23 3.01   7 3.18
  21  0.506  0.986  0.506-  23 2.85  24 2.85  31 2.85  32 2.85   6 2.85  18 2.85  16 2.89  27 2.89
                             2 2.92  22 2.93   8 2.98  19 2.98  33 3.28
  22  0.758  0.050  0.758-   7 2.63  20 2.63  33 2.64  24 2.70  23 2.70   1 2.81   5 2.88  17 2.88
                            21 2.93  30 2.95  15 3.34  28 3.34
  23  0.747  0.242  0.486-  30 2.58   6 2.66  22 2.70  14 2.79   4 2.80   8 2.82  17 2.83  21 2.85
                            25 2.89  29 2.90  24 2.99  20 3.01
  24  0.486  0.242  0.747-  30 2.58  18 2.66  22 2.70  26 2.79   3 2.80  19 2.82   5 2.83  21 2.85
                            13 2.89  29 2.90  23 2.99   7 3.01
  25  0.986  0.506  0.506-  26 2.85  27 2.85  31 2.85  30 2.85  12 2.85  20 2.85  14 2.89  23 2.89
                             4 2.92  28 2.93  19 2.98  10 2.98  33 3.28
  26  0.242  0.486  0.747-  32 2.58  20 2.66  28 2.70  24 2.79   3 2.80  19 2.82   9 2.83  25 2.85
                            13 2.89  29 2.90  27 2.99  11 3.01
  27  0.242  0.747  0.486-  32 2.58  12 2.66  28 2.70  16 2.79   2 2.80  10 2.82  17 2.83  25 2.85
                            21 2.89  29 2.90  26 2.99  18 3.01
  28  0.050  0.758  0.758-  11 2.63  18 2.63  33 2.64  27 2.70  26 2.70   1 2.81   9 2.88  17 2.88
                            25 2.93  32 2.95  22 3.34  15 3.34
  29  0.509  0.509  0.509-  14 2.90  16 2.90  23 2.90  24 2.90  26 2.90  27 2.90  30 2.90  31 2.90
                            32 2.90  10 2.96   8 2.96  19 2.96  33 3.04
  30  0.754  0.414  0.754-   7 2.54  20 2.54  33 2.54  23 2.58  24 2.58   9 2.81  25 2.85  13 2.85
                            29 2.90  22 2.95
  31  0.754  0.754  0.414-   6 2.54  12 2.54  33 2.54  16 2.58  14 2.58  17 2.81  25 2.85  21 2.85
                            29 2.90  15 2.95
  32  0.414  0.754  0.754-  11 2.54  18 2.54  33 2.54  27 2.58  26 2.58   5 2.81  21 2.85  13 2.85
                            29 2.90  28 2.95
  33  0.726  0.726  0.726-  30 2.54  31 2.54  32 2.54  15 2.64  22 2.64  28 2.64  29 3.04  25 3.28
                            21 3.28  13 3.28
 
  LATTYP: Found a simple cubic cell.
 ALAT       =     8.0870400000
  
  Lattice vectors:
  
 A1 = (   8.0870400000,   0.0000000000,   0.0000000000)
 A2 = (   0.0000000000,   8.0870400000,   0.0000000000)
 A3 = (   0.0000000000,   0.0000000000,   8.0870400000)
 Subroutine PRICEL returns:
 Original cell was already a primitive cell.
 

Analysis of symmetry for initial positions (statically):

 Routine SETGRP: Setting up the symmetry group for a 
 simple cubic supercell.


 Subroutine GETGRP returns: Found  6 space group operations
 (whereof  6 operations were pure point group operations)
 out of a pool of 48 trial point group operations.


The static configuration has the point symmetry C_3v.

Analysis of symmetry for dynamics (positions and initial velocities):

 Subroutine DYNSYM returns: Found  6 space group operations
 (whereof  6 operations were pure point group operations)
 out of a pool of  6 trial space group operations
 (whereof  6 operations were pure point group operations)
 and found also     1 'primitive' translations


The dynamic configuration has the point symmetry C_3v.
 
 
 KPOINTS: Automatic kpoint scheme                 

Automatic generation of k-mesh.
 
 Subroutine IBZKPT returns following result:
 ===========================================
 
 Found      2 irreducible k-points:
 
 Following reciprocal coordinates:
            Coordinates               Weight
  0.250000  0.250000  0.250000      2.000000
 -0.250000  0.250000  0.250000      6.000000
 
 Following cartesian coordinates:
            Coordinates               Weight
  0.030914  0.030914  0.030914      2.000000
 -0.030914  0.030914  0.030914      6.000000
 


--------------------------------------------------------------------------------------------------------




 Dimension of arrays:
   k-points           NKPTS =      2   k-points in BZ     NKDIM =      2   number of bands    NBANDS=     96
   number of dos      NEDOS =    301   number of ions     NIONS =     33
   non local maximal  LDIM  =      4   non local SUM 2l+1 LMDIM =      8
   total plane-waves  NPLWV = 110592
   max r-space proj   IRMAX =      1   max aug-charges    IRDMAX=   9081
   dimension x,y,z NGX =    48 NGY =   48 NGZ =   48
   dimension x,y,z NGXF=    96 NGYF=   96 NGZF=   96
   support grid    NGXF=    96 NGYF=   96 NGZF=   96
   ions per type =              32   1
 NGX,Y,Z   is equivalent  to a cutoff of   9.87,  9.87,  9.87 a.u.
 NGXF,Y,Z  is equivalent  to a cutoff of  19.73, 19.73, 19.73 a.u.


 I would recommend the setting:
   dimension x,y,z NGX =    46 NGY =   46 NGZ =   46
 SYSTEM =  unknown system                          
 POSCAR =  Mg1 Al32                                

 Startparameter for this run:
   NWRITE =      2    write-flag & timer
   PREC   = accura    medium, high low
   ISTART =      0    job   : 0-new  1-cont  2-samecut
   ICHARG =      2    charge: 1-file 2-atom 10-const
   ISPIN  =      1    spin polarized calculation?
   LNONCOLLINEAR =      F non collinear calculations
   LSORBIT =      F    spin-orbit coupling
   INIWAV =      1    electr: 0-lowe 1-rand  2-diag
   LASPH  =      F    aspherical Exc in radial PAW
   METAGGA=      F    non-selfconsistent MetaGGA calc.

 Electronic Relaxation 1
   ENCUT  =  300.0 eV  22.05 Ry    4.70 a.u.  11.42 11.42 11.42*2*pi/ulx,y,z
   ENINI  =  300.0     initial cutoff
   ENAUG  =  291.1 eV  augmentation charge cutoff
   NELM   =     60;   NELMIN=  2; NELMDL=-12     # of ELM steps 
   EDIFF  = 0.1E-03   stopping-criterion for ELM
   LREAL  =      F    real-space projection
   LCOMPAT=      F    compatible to vasp.4.4
   LREAL_COMPAT= F    compatible to vasp.4.5.1-3
   GGA_COMPAT  = T    GGA compatible to vasp.4.4-vasp.4.6
   LMAXPAW     = -100 max onsite density
   LMAXMIX     =    2 max onsite mixed and CHGCAR
   VOSKOWN=      0    Vosko Wilk Nusair interpolation
   ROPT   =    0.00000   0.00000
 Ionic relaxation
   EDIFFG = 0.5E-01   stopping-criterion for IOM
   NSW    =      0    number of steps for IOM
   NBLOCK =      1;   KBLOCK =      1    inner block; outer block 
   IBRION =     -1    ionic relax: 0-MD 1-quasi-New 2-CG
   NFREE  =      0    steps in history (QN), initial steepest desc. (CG)
   ISIF   =      2    stress and relaxation
   IWAVPR =     10    prediction:  0-non 1-charg 2-wave 3-comb
   ISYM   =      2    0-nonsym 1-usesym 2-fastsym
   LCORR  =      T    Harris-Foulkes like correction to forces

   POTIM  = 0.5000    time-step for ionic-motion
   TEIN   =    0.0    initial temperature
   TEBEG  =    0.0;   TEEND  =   0.0 temperature during run
   SMASS  =  -3.00    Nose mass-parameter (am)
   estimated Nose-frequenzy (Omega)   =  0.10E-29 period in steps =****** mass=  -0.149E-26a.u.
   NPACO  =    256;   APACO  = 16.0  distance and # of slots for P.C.
   PSTRESS=    0.0 pullay stress

  Mass of Ions in am
   POMASS =  26.98 24.30
  Ionic Valenz
   ZVAL   =   3.00  2.00
  Atomic Wigner-Seitz radii
   RWIGS  =  -1.00 -1.00
   NELECT =      98.0000    total number of electrons
   NUPDOWN=      -1.0000    fix difference up-down

 DOS related values:
   EMIN   =  10.00;   EMAX   =-10.00  energy-range for DOS
   EFERMI =   0.00
   ISMEAR =     1;   SIGMA  =   0.20  broadening in eV -4-tet -1-fermi 0-gaus

 Electronic relaxation 2 (details)
   IALGO  =     48    algorithm
   LDIAG  =      T    sub-space diagonalisation
   IMIX   =      4    mixing-type and parameters
     AMIX     =   0.40;   BMIX     =  1.00
     AMIX_MAG =   1.60;   BMIX_MAG =  1.00
     AMIN     =   0.10
     WC   =   100.;   INIMIX=   1;  MIXPRE=   1

 Intra band minimization:
   WEIMIN = 0.0000     energy-eigenvalue tresh-hold
   EBREAK =  0.38E-06  absolut break condition
   DEPER  =   0.30     relativ break condition  

   TIME   =   0.40     timestep for ELM

  volume/ion in A,a.u.               =      16.03       108.16
  Fermi-wavevector in a.u.,A,eV,Ry     =   0.933313  1.763706 11.851667  0.871073
  Thomas-Fermi vector in A             =   2.060001
 
 Write flags
   LWAVE  =      F    write WAVECAR
   LCHARG =      F    write CHGCAR
   LVTOT  =      F    write LOCPOT, local potential
   LELF   =      F    write electronic localiz. function (ELF)
   LORBIT =      0    0 simple, 1 ext, 2 COOP (PROOUT)


 Dipole corrections
   LMONO  =      F    monopole corrections only (constant potential shift)
   LDIPOL =      F    correct potential (dipole corrections)
   IDIPOL =      0    1-x, 2-y, 3-z, 4-all directions 
   EPSILON=  1.0000000 bulk dielectric constant

 Exchange correlation treatment:
   GGA     =    --    GGA type
   LEXCH   =     8    internal setting for exchange type
   VOSKOWN=      0    Vosko Wilk Nusair interpolation
   LHFCALC =     F    Hartree Fock is set to
   LHFONE  =     F    Hartree Fock one center treatment
   AEXX    =    0.0000 exact exchange contribution

 Linear response parameters
   LEPSILON=     F    determine dielectric tensor
   LRPA    =     F    only Hartree local field effects (RPA)
   LNABLA  =     F    use nabla operator in PAW spheres
   LVEL    =     F    velocity operator in full k-point grid
   LINTERFAST=   F  fast interpolation
   KINTER  =     0    interpolate to denser k-point grid
   CSHIFT  =0.1000    complex shift for real part using Kramers Kronig
   OMEGAMAX=  -1.0    maximum frequency

 Orbital magnetization related:
   ORBITALMAG=     F  switch on orbital magnetization
   LCHIMAG   =     F  perturbation theory with respect to B field



--------------------------------------------------------------------------------------------------------


 Static calculation
 charge density and potential will be updated during run
 non-spin polarized calculation
 RMM-DIIS sequential band-by-band
 perform sub-space diagonalisation
    before iterative eigenvector-optimisation
 modified Broyden-mixing scheme, WC =      100.0
 initial mixing is a Kerker type mixing with AMIX =  0.4000 and BMIX =      1.0000
 Hartree-type preconditioning will be used
 using additional bands           47
 reciprocal scheme for non local part
 use partial core corrections
 calculate Harris-corrections to forces 
   (improved forces if not selfconsistent)
 use gradient corrections 
 use of overlap-Matrix (Vanderbilt PP)
 Methfessel and Paxton  Order N= 1 SIGMA  =   0.20


--------------------------------------------------------------------------------------------------------


  energy-cutoff  :      300.00
  volume of cell :      528.89
      direct lattice vectors                 reciprocal lattice vectors
     8.087040000  0.000000000  0.000000000     0.123654638  0.000000000  0.000000000
     0.000000000  8.087040000  0.000000000     0.000000000  0.123654638  0.000000000
     0.000000000  0.000000000  8.087040000     0.000000000  0.000000000  0.123654638

  length of vectors
     8.087040000  8.087040000  8.087040000     0.123654638  0.123654638  0.123654638


 
 k-points in units of 2pi/SCALE and weight: Automatic kpoint scheme                 
   0.03091366  0.03091366  0.03091366       0.250
  -0.03091366  0.03091366  0.03091366       0.750
 
 k-points in reciprocal lattice and weights: Automatic kpoint scheme                 
   0.25000000  0.25000000  0.25000000       0.250
  -0.25000000  0.25000000  0.25000000       0.750
 
 position of ions in fractional coordinates (direct lattice) 
   0.00180700  0.00180700  0.00180700
   0.25134800  0.00132500  0.25134800
   0.25134800  0.25134800  0.00132500
   0.00132500  0.25134800  0.25134800
   0.49673600  0.99205100  0.99205100
   0.74037400  0.01822100  0.24491800
   0.74037400  0.24491800  0.01822100
   0.49041100  0.25104900  0.25104900
   0.99205100  0.49673600  0.99205100
   0.25104900  0.49041100  0.25104900
   0.24491800  0.74037400  0.01822100
   0.01822100  0.74037400  0.24491800
   0.50632000  0.50632000  0.98647700
   0.74724400  0.48585800  0.24219100
   0.75826100  0.75826100  0.04990000
   0.48585800  0.74724400  0.24219100
   0.99205100  0.99205100  0.49673600
   0.24491800  0.01822100  0.74037400
   0.25104900  0.25104900  0.49041100
   0.01822100  0.24491800  0.74037400
   0.50632000  0.98647700  0.50632000
   0.75826100  0.04990000  0.75826100
   0.74724400  0.24219100  0.48585800
   0.48585800  0.24219100  0.74724400
   0.98647700  0.50632000  0.50632000
   0.24219100  0.48585800  0.74724400
   0.24219100  0.74724400  0.48585800
   0.04990000  0.75826100  0.75826100
   0.50936600  0.50936600  0.50936600
   0.75381800  0.41423700  0.75381800
   0.75381800  0.75381800  0.41423700
   0.41423700  0.75381800  0.75381800
   0.72643500  0.72643500  0.72643500
 
 position of ions in cartesian coordinates  (Angst):
   0.01461328  0.01461328  0.01461328
   2.03266133  0.01071533  2.03266133
   2.03266133  2.03266133  0.01071533
   0.01071533  2.03266133  2.03266133
   4.01712390  8.02275612  8.02275612
   5.98743415  0.14735396  1.98066166
   5.98743415  1.98066166  0.14735396
   3.96597337  2.03024330  2.03024330
   8.02275612  4.01712390  8.02275612
   2.03024330  3.96597337  2.03024330
   1.98066166  5.98743415  0.14735396
   0.14735396  5.98743415  1.98066166
   4.09463009  4.09463009  7.97767896
   6.04299212  3.92915308  1.95860830
   6.13208704  6.13208704  0.40354330
   3.92915308  6.04299212  1.95860830
   8.02275612  8.02275612  4.01712390
   1.98066166  0.14735396  5.98743415
   2.03024330  2.03024330  3.96597337
   0.14735396  1.98066166  5.98743415
   4.09463009  7.97767896  4.09463009
   6.13208704  0.40354330  6.13208704
   6.04299212  1.95860830  3.92915308
   3.92915308  1.95860830  6.04299212
   7.97767896  4.09463009  4.09463009
   1.95860830  3.92915308  6.04299212
   1.95860830  6.04299212  3.92915308
   0.40354330  6.13208704  6.13208704
   4.11926322  4.11926322  4.11926322
   6.09615632  3.34995119  6.09615632
   6.09615632  6.09615632  3.34995119
   3.34995119  6.09615632  6.09615632
   5.87470890  5.87470890  5.87470890
 


--------------------------------------------------------------------------------------------------------


 k-point  1 :  0.25000.25000.2500  plane waves:    6238
 k-point  2 :  -.25000.25000.2500  plane waves:    6238

 maximum and minimum number of plane-waves per node :    6238   6238

 maximum number of plane-waves:    6238
 maximal index in each direction: 
   IXMAX= 11   IYMAX= 11   IZMAX= 11
   IXMIN=-11   IYMIN=-11   IZMIN=-11

 NGX is ok and might be reduce to  46
 NGY is ok and might be reduce to  46
 NGZ is ok and might be reduce to  46

 serial   3D FFT for wavefunctions
 parallel 3D FFT for charge:
    minimum data exchange during FFTs selected (reduces bandwidth)


 total amount of memory used by VASP on root node  56777. kBytes
========================================================================

   base      :    30000. kBytes
   nonl-proj :     4892. kBytes
   fftplans  :     1413. kBytes
   grid      :    19745. kBytes
   one-center:      101. kBytes
   wavefun   :      626. kBytes
 
 Broyden mixing: mesh for mixing (old mesh)
   NGX = 23   NGY = 23   NGZ = 23
  (NGX  = 96   NGY  = 96   NGZ  = 96)
  gives a total of  12167 points

 initial charge density was supplied:
 charge density of overlapping atoms calculated
 number of electron   98.0000000 magnetization 
 keeping initial charge density in first step


--------------------------------------------------------------------------------------------------------


 Maximum index for augmentation-charges          483 (set IRDMAX)


--------------------------------------------------------------------------------------------------------


 First call to EWALD:  gamma=   0.219
 Maximum number of real-space cells 3x 3x 3
 Maximum number of reciprocal cells 3x 3x 3

    FEWALD:  cpu time    0.02: real time    0.02
   RESPFUN:  cpu time    0.00: real time    0.00


----------------------------------------- Iteration    1(   1)  ---------------------------------------


    POTLOK:  cpu time    0.08: real time    0.08
    SETDIJ:  cpu time    0.01: real time    0.01
    EDDIAG:  cpu time    0.18: real time    0.18
  RMM-DIIS:  cpu time    0.37: real time    0.37
    ORTHCH:  cpu time    0.02: real time    0.02
       DOS:  cpu time    0.00: real time    0.00
    --------------------------------------------
      LOOP:  cpu time    0.67: real time    0.69

 eigenvalue-minimisations  :   192
 total energy-change (2. order) : 0.1601466E+03  (-0.1453661E+04)
 number of electron   98.0000000 magnetization 
 augmentation part    98.0000000 magnetization 

 Free energy of the ion-electron system (eV)
  ---------------------------------------------------
  alpha Z        PSCENC =        -8.27958290
  Ewald energy   TEWEN  =     -2387.85976763
  -1/2 Hartree   DENC   =       -12.02496379
  -exchange  EXHF       =         0.00000000
  -V(xc)+E(xc)   XCENC  =      -845.57817049
  PAW double counting   =      1149.32568210     -115.70169129
  entropy T*S    EENTRO =         0.00599992
  eigenvalues    EBANDS =       644.05235680
  atomic energy  EATOM  =      1736.20668909
  ---------------------------------------------------
  free energy    TOTEN  =       160.14655181 eV

  energy without entropy =      160.14055189  energy(sigma->0) =      160.14455183


--------------------------------------------------------------------------------------------------------




----------------------------------------- Iteration    1(   2)  ---------------------------------------


    EDDIAG:  cpu time    0.18: real time    0.18
  RMM-DIIS:  cpu time    0.37: real time    0.37
    ORTHCH:  cpu time    0.02: real time    0.02
       DOS:  cpu time    0.00: real time    0.00
    --------------------------------------------
      LOOP:  cpu time    0.56: real time    0.57

 eigenvalue-minimisations  :   192
 total energy-change (2. order) :-0.2271787E+03  (-0.2097359E+03)
 number of electron   98.0000000 magnetization 
 augmentation part    98.0000000 magnetization 

 Free energy of the ion-electron system (eV)
  ---------------------------------------------------
  alpha Z        PSCENC =        -8.27958290
  Ewald energy   TEWEN  =     -2387.85976763
  -1/2 Hartree   DENC   =       -12.02496379
  -exchange  EXHF       =         0.00000000
  -V(xc)+E(xc)   XCENC  =      -845.57817049
  PAW double counting   =      1149.32568210     -115.70169129
  entropy T*S    EENTRO =        -0.01764713
  eigenvalues    EBANDS =       416.89728394
  atomic energy  EATOM  =      1736.20668909
  ---------------------------------------------------
  free energy    TOTEN  =       -67.03216810 eV

  energy without entropy =      -67.01452097  energy(sigma->0) =      -67.02628573


--------------------------------------------------------------------------------------------------------




----------------------------------------- Iteration    1(   3)  ---------------------------------------


    EDDIAG:  cpu time    0.18: real time    0.18
  RMM-DIIS:  cpu time    0.37: real time    0.37
    ORTHCH:  cpu time    0.02: real time    0.02
       DOS:  cpu time    0.00: real time    0.00
    --------------------------------------------
      LOOP:  cpu time    0.57: real time    0.57

 eigenvalue-minimisations  :   192
 total energy-change (2. order) :-0.3869746E+02  (-0.3373635E+02)
 number of electron   98.0000000 magnetization 
 augmentation part    98.0000000 magnetization 

 Free energy of the ion-electron system (eV)
  ---------------------------------------------------
  alpha Z        PSCENC =        -8.27958290
  Ewald energy   TEWEN  =     -2387.85976763
  -1/2 Hartree   DENC   =       -12.02496379
  -exchange  EXHF       =         0.00000000
  -V(xc)+E(xc)   XCENC  =      -845.57817049
  PAW double counting   =      1149.32568210     -115.70169129
  entropy T*S    EENTRO =         0.06689235
  eigenvalues    EBANDS =       378.11527974
  atomic energy  EATOM  =      1736.20668909
  ---------------------------------------------------
  free energy    TOTEN  =      -105.72963282 eV

  energy without entropy =     -105.79652517  energy(sigma->0) =     -105.75193027


--------------------------------------------------------------------------------------------------------




----------------------------------------- Iteration    1(   4)  ---------------------------------------


    EDDIAG:  cpu time    0.17: real time    0.17
  RMM-DIIS:  cpu time    0.37: real time    0.37
    ORTHCH:  cpu time    0.02: real time    0.02
       DOS:  cpu time    0.00: real time    0.00
    --------------------------------------------
      LOOP:  cpu time    0.56: real time    0.56

 eigenvalue-minimisations  :   192
 total energy-change (2. order) :-0.8882197E+01  (-0.5783439E+01)
 number of electron   98.0000000 magnetization 
 augmentation part    98.0000000 magnetization 

 Free energy of the ion-electron system (eV)
  ---------------------------------------------------
  alpha Z        PSCENC =        -8.27958290
  Ewald energy   TEWEN  =     -2387.85976763
  -1/2 Hartree   DENC   =       -12.02496379
  -exchange  EXHF       =         0.00000000
  -V(xc)+E(xc)   XCENC  =      -845.57817049
  PAW double counting   =      1149.32568210     -115.70169129
  entropy T*S    EENTRO =        -0.09916391
  eigenvalues    EBANDS =       369.39913887
  atomic energy  EATOM  =      1736.20668909
  ---------------------------------------------------
  free energy    TOTEN  =      -114.61182996 eV

  energy without entropy =     -114.51266604  energy(sigma->0) =     -114.57877532


--------------------------------------------------------------------------------------------------------




----------------------------------------- Iteration    1(   5)  ---------------------------------------


    EDDIAG:  cpu time    0.18: real time    0.18
  RMM-DIIS:  cpu time    0.37: real time    0.37
    ORTHCH:  cpu time    0.02: real time    0.02
       DOS:  cpu time    0.00: real time    0.00
    --------------------------------------------
      LOOP:  cpu time    0.56: real time    0.57

 eigenvalue-minimisations  :   192
 total energy-change (2. order) :-0.2300793E+01  (-0.1310670E+01)
 number of electron   98.0000000 magnetization 
 augmentation part    98.0000000 magnetization 

 Free energy of the ion-electron system (eV)
  ---------------------------------------------------
  alpha Z        PSCENC =        -8.27958290
  Ewald energy   TEWEN  =     -2387.85976763
  -1/2 Hartree   DENC   =       -12.02496379
  -exchange  EXHF       =         0.00000000
  -V(xc)+E(xc)   XCENC  =      -845.57817049
  PAW double counting   =      1149.32568210     -115.70169129
  entropy T*S    EENTRO =        -0.01881719
  eigenvalues    EBANDS =       367.01799941
  atomic energy  EATOM  =      1736.20668909
  ---------------------------------------------------
  free energy    TOTEN  =      -116.91262269 eV

  energy without entropy =     -116.89380550  energy(sigma->0) =     -116.90635029


--------------------------------------------------------------------------------------------------------




----------------------------------------- Iteration    1(   6)  ---------------------------------------


    EDDIAG:  cpu time    0.17: real time    0.18
  RMM-DIIS:  cpu time    0.37: real time    0.37
    ORTHCH:  cpu time    0.02: real time    0.02
       DOS:  cpu time    0.00: real time    0.00
    --------------------------------------------
      LOOP:  cpu time    0.56: real time    0.57

 eigenvalue-minimisations  :   192
 total energy-change (2. order) :-0.4448601E+00  (-0.2939478E+00)
 number of electron   98.0000000 magnetization 
 augmentation part    98.0000000 magnetization 

 Free energy of the ion-electron system (eV)
  ---------------------------------------------------
  alpha Z        PSCENC =        -8.27958290
  Ewald energy   TEWEN  =     -2387.85976763
  -1/2 Hartree   DENC   =       -12.02496379
  -exchange  EXHF       =         0.00000000
  -V(xc)+E(xc)   XCENC  =      -845.57817049
  PAW double counting   =      1149.32568210     -115.70169129
  entropy T*S    EENTRO =        -0.01440670
  eigenvalues    EBANDS =       366.56872882
  atomic energy  EATOM  =      1736.20668909
  ---------------------------------------------------
  free energy    TOTEN  =      -117.35748279 eV

  energy without entropy =     -117.34307609  energy(sigma->0) =     -117.35268055


--------------------------------------------------------------------------------------------------------




----------------------------------------- Iteration    1(   7)  ---------------------------------------


    EDDIAG:  cpu time    0.18: real time    0.18
  RMM-DIIS:  cpu time    0.37: real time    0.37
    ORTHCH:  cpu time    0.02: real time    0.02
       DOS:  cpu time    0.00: real time    0.00
    --------------------------------------------
      LOOP:  cpu time    0.57: real time    0.58

 eigenvalue-minimisations  :   192
 total energy-change (2. order) :-0.8072477E-01  (-0.6472254E-01)
 number of electron   98.0000000 magnetization 
 augmentation part    98.0000000 magnetization 

 Free energy of the ion-electron system (eV)
  ---------------------------------------------------
  alpha Z        PSCENC =        -8.27958290
  Ewald energy   TEWEN  =     -2387.85976763
  -1/2 Hartree   DENC   =       -12.02496379
  -exchange  EXHF       =         0.00000000
  -V(xc)+E(xc)   XCENC  =      -845.57817049
  PAW double counting   =      1149.32568210     -115.70169129
  entropy T*S    EENTRO =        -0.01376788
  eigenvalues    EBANDS =       366.48736524
  atomic energy  EATOM  =      1736.20668909
  ---------------------------------------------------
  free energy    TOTEN  =      -117.43820755 eV

  energy without entropy =     -117.42443968  energy(sigma->0) =     -117.43361826


--------------------------------------------------------------------------------------------------------




----------------------------------------- Iteration    1(   8)  ---------------------------------------


    EDDIAG:  cpu time    0.17: real time    0.17
  RMM-DIIS:  cpu time    0.37: real time    0.37
    ORTHCH:  cpu time    0.02: real time    0.02
       DOS:  cpu time    0.00: real time    0.00
    --------------------------------------------
      LOOP:  cpu time    0.56: real time    0.57

 eigenvalue-minimisations  :   192
 total energy-change (2. order) :-0.1797779E-01  (-0.1553544E-01)
 number of electron   98.0000000 magnetization 
 augmentation part    98.0000000 magnetization 

 Free energy of the ion-electron system (eV)
  ---------------------------------------------------
  alpha Z        PSCENC =        -8.27958290
  Ewald energy   TEWEN  =     -2387.85976763
  -1/2 Hartree   DENC   =       -12.02496379
  -exchange  EXHF       =         0.00000000
  -V(xc)+E(xc)   XCENC  =      -845.57817049
  PAW double counting   =      1149.32568210     -115.70169129
  entropy T*S    EENTRO =        -0.01352108
  eigenvalues    EBANDS =       366.46914065
  atomic energy  EATOM  =      1736.20668909
  ---------------------------------------------------
  free energy    TOTEN  =      -117.45618534 eV

  energy without entropy =     -117.44266426  energy(sigma->0) =     -117.45167831


--------------------------------------------------------------------------------------------------------




----------------------------------------- Iteration    1(   9)  ---------------------------------------


    EDDIAG:  cpu time    0.17: real time    0.17
  RMM-DIIS:  cpu time    0.88: real time    0.88
    ORTHCH:  cpu time    0.02: real time    0.02
       DOS:  cpu time    0.00: real time    0.00
    --------------------------------------------
      LOOP:  cpu time    1.08: real time    1.08

 eigenvalue-minimisations  :   484
 total energy-change (2. order) :-0.5584898E-02  (-0.5215902E-02)
 number of electron   98.0000000 magnetization 
 augmentation part    98.0000000 magnetization 

 Free energy of the ion-electron system (eV)
  ---------------------------------------------------
  alpha Z        PSCENC =        -8.27958290
  Ewald energy   TEWEN  =     -2387.85976763
  -1/2 Hartree   DENC   =       -12.02496379
  -exchange  EXHF       =         0.00000000
  -V(xc)+E(xc)   XCENC  =      -845.57817049
  PAW double counting   =      1149.32568210     -115.70169129
  entropy T*S    EENTRO =        -0.01341268
  eigenvalues    EBANDS =       366.46344735
  atomic energy  EATOM  =      1736.20668909
  ---------------------------------------------------
  free energy    TOTEN  =      -117.46177024 eV

  energy without entropy =     -117.44835756  energy(sigma->0) =     -117.45729934


--------------------------------------------------------------------------------------------------------




----------------------------------------- Iteration    1(  10)  ---------------------------------------


    EDDIAG:  cpu time    0.17: real time    0.17
  RMM-DIIS:  cpu time    0.94: real time    0.94
    ORTHCH:  cpu time    0.02: real time    0.02
       DOS:  cpu time    0.00: real time    0.00
    --------------------------------------------
      LOOP:  cpu time    1.14: real time    1.14

 eigenvalue-minimisations  :   464
 total energy-change (2. order) :-0.5427069E-03  (-0.4487593E-03)
 number of electron   98.0000000 magnetization 
 augmentation part    98.0000000 magnetization 

 Free energy of the ion-electron system (eV)
  ---------------------------------------------------
  alpha Z        PSCENC =        -8.27958290
  Ewald energy   TEWEN  =     -2387.85976763
  -1/2 Hartree   DENC   =       -12.02496379
  -exchange  EXHF       =         0.00000000
  -V(xc)+E(xc)   XCENC  =      -845.57817049
  PAW double counting   =      1149.32568210     -115.70169129
  entropy T*S    EENTRO =        -0.01339737
  eigenvalues    EBANDS =       366.46288934
  atomic energy  EATOM  =      1736.20668909
  ---------------------------------------------------
  free energy    TOTEN  =      -117.46231294 eV

  energy without entropy =     -117.44891557  energy(sigma->0) =     -117.45784715


--------------------------------------------------------------------------------------------------------




----------------------------------------- Iteration    1(  11)  ---------------------------------------


    EDDIAG:  cpu time    0.17: real time    0.18
  RMM-DIIS:  cpu time    0.84: real time    0.84
    ORTHCH:  cpu time    0.02: real time    0.02
       DOS:  cpu time    0.00: real time    0.00
    --------------------------------------------
      LOOP:  cpu time    1.03: real time    1.04

 eigenvalue-minimisations  :   364
 total energy-change (2. order) :-0.2002390E-04  (-0.1846726E-04)
 number of electron   98.0000000 magnetization 
 augmentation part    98.0000000 magnetization 

 Free energy of the ion-electron system (eV)
  ---------------------------------------------------
  alpha Z        PSCENC =        -8.27958290
  Ewald energy   TEWEN  =     -2387.85976763
  -1/2 Hartree   DENC   =       -12.02496379
  -exchange  EXHF       =         0.00000000
  -V(xc)+E(xc)   XCENC  =      -845.57817049
  PAW double counting   =      1149.32568210     -115.70169129
  entropy T*S    EENTRO =        -0.01339684
  eigenvalues    EBANDS =       366.46286878
  atomic energy  EATOM  =      1736.20668909
  ---------------------------------------------------
  free energy    TOTEN  =      -117.46233297 eV

  energy without entropy =     -117.44893613  energy(sigma->0) =     -117.45786735


--------------------------------------------------------------------------------------------------------




----------------------------------------- Iteration    1(  12)  ---------------------------------------


    EDDIAG:  cpu time    0.18: real time    0.18
  RMM-DIIS:  cpu time    0.73: real time    0.73
    ORTHCH:  cpu time    0.02: real time    0.02
       DOS:  cpu time    0.00: real time    0.00
    CHARGE:  cpu time    0.15: real time    0.15
    MIXING:  cpu time    0.00: real time    0.00
    --------------------------------------------
      LOOP:  cpu time    1.08: real time    1.09

 eigenvalue-minimisations  :   274
 total energy-change (2. order) :-0.2961667E-05  (-0.2876445E-05)
 number of electron   98.0000000 magnetization 
 augmentation part    -1.1413026 magnetization 

 Broyden mixing:
  rms(total) = 0.58889E+00    rms(broyden)= 0.58887E+00
  rms(prec ) = 0.95184E+00
  weight for this iteration     100.00

 Free energy of the ion-electron system (eV)
  ---------------------------------------------------
  alpha Z        PSCENC =        -8.27958290
  Ewald energy   TEWEN  =     -2387.85976763
  -1/2 Hartree   DENC   =       -12.02496379
  -exchange  EXHF       =         0.00000000
  -V(xc)+E(xc)   XCENC  =      -845.57817049
  PAW double counting   =      1149.32568210     -115.70169129
  entropy T*S    EENTRO =        -0.01339679
  eigenvalues    EBANDS =       366.46286578
  atomic energy  EATOM  =      1736.20668909
  ---------------------------------------------------
  free energy    TOTEN  =      -117.46233593 eV

  energy without entropy =     -117.44893913  energy(sigma->0) =     -117.45787033


--------------------------------------------------------------------------------------------------------




----------------------------------------- Iteration    1(  13)  ---------------------------------------


    POTLOK:  cpu time    0.06: real time    0.06
    SETDIJ:  cpu time    0.01: real time    0.01
    EDDIAG:  cpu time    0.18: real time    0.18
  RMM-DIIS:  cpu time    0.88: real time    0.88
    ORTHCH:  cpu time    0.02: real time    0.02
       DOS:  cpu time    0.00: real time    0.00
    CHARGE:  cpu time    0.12: real time    0.12
    MIXING:  cpu time    0.00: real time    0.00
    --------------------------------------------
      LOOP:  cpu time    1.27: real time    1.28

 eigenvalue-minimisations  :   414
 total energy-change (2. order) : 0.9236254E+00  (-0.7503144E-01)
 number of electron   97.9999999 magnetization 
 augmentation part    -1.1520108 magnetization 

 Broyden mixing:
  rms(total) = 0.34752E+00    rms(broyden)= 0.34752E+00
  rms(prec ) = 0.50761E+00
  weight for this iteration     100.00

 eigenvalues of (default mixing * dielectric matrix)
  average eigenvalue GAMMA=   2.2632
  2.2632

 Free energy of the ion-electron system (eV)
  ---------------------------------------------------
  alpha Z        PSCENC =        -8.27958290
  Ewald energy   TEWEN  =     -2387.85976763
  -1/2 Hartree   DENC   =       -13.70953613
  -exchange  EXHF       =         0.00000000
  -V(xc)+E(xc)   XCENC  =      -844.23177501
  PAW double counting   =      1155.06461440     -121.76288584
  entropy T*S    EENTRO =        -0.00545218
  eigenvalues    EBANDS =       368.03898561
  atomic energy  EATOM  =      1736.20668909
  ---------------------------------------------------
  free energy    TOTEN  =      -116.53871057 eV

  energy without entropy =     -116.53325839  energy(sigma->0) =     -116.53689318


--------------------------------------------------------------------------------------------------------




----------------------------------------- Iteration    1(  14)  ---------------------------------------


    POTLOK:  cpu time    0.06: real time    0.06
    SETDIJ:  cpu time    0.01: real time    0.01
    EDDIAG:  cpu time    0.17: real time    0.17
  RMM-DIIS:  cpu time    0.86: real time    0.86
    ORTHCH:  cpu time    0.02: real time    0.02
       DOS:  cpu time    0.00: real time    0.00
    CHARGE:  cpu time    0.12: real time    0.12
    MIXING:  cpu time    0.00: real time    0.00
    --------------------------------------------
      LOOP:  cpu time    1.25: real time    1.25

 eigenvalue-minimisations  :   430
 total energy-change (2. order) : 0.2968040E+00  (-0.2116091E-01)
 number of electron   97.9999999 magnetization 
 augmentation part    -1.1697036 magnetization 

 Broyden mixing:
  rms(total) = 0.11946E+00    rms(broyden)= 0.11946E+00
  rms(prec ) = 0.17603E+00
  weight for this iteration     100.00

 eigenvalues of (default mixing * dielectric matrix)
  average eigenvalue GAMMA=   1.9313
  2.5940  1.2687

 Free energy of the ion-electron system (eV)
  ---------------------------------------------------
  alpha Z        PSCENC =        -8.27958290
  Ewald energy   TEWEN  =     -2387.85976763
  -1/2 Hartree   DENC   =       -15.08548814
  -exchange  EXHF       =         0.00000000
  -V(xc)+E(xc)   XCENC  =      -842.58355217
  PAW double counting   =      1160.44959637     -127.52136564
  entropy T*S    EENTRO =        -0.00623434
  eigenvalues    EBANDS =       368.43779874
  atomic energy  EATOM  =      1736.20668909
  ---------------------------------------------------
  free energy    TOTEN  =      -116.24190661 eV

  energy without entropy =     -116.23567228  energy(sigma->0) =     -116.23982850


--------------------------------------------------------------------------------------------------------




----------------------------------------- Iteration    1(  15)  ---------------------------------------


    POTLOK:  cpu time    0.06: real time    0.06
    SETDIJ:  cpu time    0.01: real time    0.01
    EDDIAG:  cpu time    0.17: real time    0.18
  RMM-DIIS:  cpu time    0.89: real time    0.89
    ORTHCH:  cpu time    0.02: real time    0.02
       DOS:  cpu time    0.00: real time    0.00
    CHARGE:  cpu time    0.12: real time    0.12
    MIXING:  cpu time    0.00: real time    0.00
    --------------------------------------------
      LOOP:  cpu time    1.27: real time    1.28

 eigenvalue-minimisations  :   442
 total energy-change (2. order) : 0.4418717E-01  (-0.2442103E-02)
 number of electron   97.9999999 magnetization 
 augmentation part    -1.1821354 magnetization 

 Broyden mixing:
  rms(total) = 0.12474E-01    rms(broyden)= 0.12474E-01
  rms(prec ) = 0.21392E-01
  weight for this iteration     100.00

 eigenvalues of (default mixing * dielectric matrix)
  average eigenvalue GAMMA=   1.8051
  2.6299  1.2178  1.5675

 Free energy of the ion-electron system (eV)
  ---------------------------------------------------
  alpha Z        PSCENC =        -8.27958290
  Ewald energy   TEWEN  =     -2387.85976763
  -1/2 Hartree   DENC   =       -15.53967004
  -exchange  EXHF       =         0.00000000
  -V(xc)+E(xc)   XCENC  =      -841.65666221
  PAW double counting   =      1163.01490620     -130.29456056
  entropy T*S    EENTRO =        -0.00714322
  eigenvalues    EBANDS =       368.21807182
  atomic energy  EATOM  =      1736.20668909
  ---------------------------------------------------
  free energy    TOTEN  =      -116.19771945 eV

  energy without entropy =     -116.19057623  energy(sigma->0) =     -116.19533837


--------------------------------------------------------------------------------------------------------




----------------------------------------- Iteration    1(  16)  ---------------------------------------


    POTLOK:  cpu time    0.06: real time    0.06
    SETDIJ:  cpu time    0.01: real time    0.01
    EDDIAG:  cpu time    0.17: real time    0.17
  RMM-DIIS:  cpu time    0.88: real time    0.88
    ORTHCH:  cpu time    0.02: real time    0.02
       DOS:  cpu time    0.00: real time    0.00
    CHARGE:  cpu time    0.12: real time    0.12
    MIXING:  cpu time    0.00: real time    0.00
    --------------------------------------------
      LOOP:  cpu time    1.26: real time    1.27

 eigenvalue-minimisations  :   452
 total energy-change (2. order) : 0.7757612E-03  (-0.1204861E-03)
 number of electron   97.9999999 magnetization 
 augmentation part    -1.1847870 magnetization 

 Broyden mixing:
  rms(total) = 0.49797E-02    rms(broyden)= 0.49797E-02
  rms(prec ) = 0.75345E-02
  weight for this iteration     100.00

 eigenvalues of (default mixing * dielectric matrix)
  average eigenvalue GAMMA=   1.7254
  2.6401  1.9810  1.0539  1.2267

 Free energy of the ion-electron system (eV)
  ---------------------------------------------------
  alpha Z        PSCENC =        -8.27958290
  Ewald energy   TEWEN  =     -2387.85976763
  -1/2 Hartree   DENC   =       -15.56892597
  -exchange  EXHF       =         0.00000000
  -V(xc)+E(xc)   XCENC  =      -841.58025818
  PAW double counting   =      1163.23294596     -130.53385715
  entropy T*S    EENTRO =        -0.00705998
  eigenvalues    EBANDS =       368.19287306
  atomic energy  EATOM  =      1736.20668909
  ---------------------------------------------------
  free energy    TOTEN  =      -116.19694368 eV

  energy without entropy =     -116.18988370  energy(sigma->0) =     -116.19459036


--------------------------------------------------------------------------------------------------------




----------------------------------------- Iteration    1(  17)  ---------------------------------------


    POTLOK:  cpu time    0.06: real time    0.06
    SETDIJ:  cpu time    0.01: real time    0.01
    EDDIAG:  cpu time    0.17: real time    0.17
  RMM-DIIS:  cpu time    0.78: real time    0.78
    ORTHCH:  cpu time    0.02: real time    0.02
       DOS:  cpu time    0.00: real time    0.00
    --------------------------------------------
      LOOP:  cpu time    1.04: real time    1.04

 eigenvalue-minimisations  :   304
 total energy-change (2. order) : 0.5015153E-04  (-0.1969485E-04)
 number of electron   97.9999999 magnetization 
 augmentation part    -1.1847870 magnetization 

 Free energy of the ion-electron system (eV)
  ---------------------------------------------------
  alpha Z        PSCENC =        -8.27958290
  Ewald energy   TEWEN  =     -2387.85976763
  -1/2 Hartree   DENC   =       -15.57457056
  -exchange  EXHF       =         0.00000000
  -V(xc)+E(xc)   XCENC  =      -841.55656355
  PAW double counting   =      1163.26700931     -130.57647115
  entropy T*S    EENTRO =        -0.00692838
  eigenvalues    EBANDS =       368.18329223
  atomic energy  EATOM  =      1736.20668909
  ---------------------------------------------------
  free energy    TOTEN  =      -116.19689353 eV

  energy without entropy =     -116.18996516  energy(sigma->0) =     -116.19458407


--------------------------------------------------------------------------------------------------------




 average (electrostatic) potential at core
  the test charge radii are     1.0406  1.0714
  (the norm of the test charge is              1.0000)
       1 -72.3290       2 -72.4122       3 -72.4122       4 -72.4122       5 -72.3441
       6 -72.2995       7 -72.2995       8 -72.3875       9 -72.3441      10 -72.3875
      11 -72.2995      12 -72.2995      13 -72.3697      14 -72.3731      15 -72.2302
      16 -72.3731      17 -72.3441      18 -72.2995      19 -72.3875      20 -72.2995
      21 -72.3697      22 -72.2302      23 -72.3731      24 -72.3731      25 -72.3697
      26 -72.3731      27 -72.3731      28 -72.2302      29 -72.3932      30 -71.9669
      31 -71.9669      32 -71.9669      33 -49.6648
 
 
 
 E-fermi :   8.2839     XC(G=0): -10.2556     alpha+bet :-15.2356
   add alpha+bet to get absolut eigen values

 k-point   1 :       0.2500    0.2500    0.2500
  band No.  band energies     occupation 
      1      -2.6719      2.00000
      2      -1.6768      2.00000
      3      -1.6768      2.00000
      4      -1.3073      2.00000
      5      -0.5750      2.00000
      6      -0.5750      2.00000
      7      -0.1053      2.00000
      8       0.6073      2.00000
      9       0.6073      2.00000
     10       0.6751      2.00000
     11       0.9855      2.00000
     12       1.6052      2.00000
     13       1.6202      2.00000
     14       1.6202      2.00000
     15       1.9962      2.00000
     16       1.9962      2.00000
     17       2.1304      2.00000
     18       2.8171      2.00000
     19       2.9535      2.00000
     20       2.9535      2.00000
     21       3.8365      2.00000
     22       3.8365      2.00000
     23       3.8961      2.00000
     24       4.0423      2.00000
     25       4.0423      2.00000
     26       4.2761      2.00000
     27       4.7615      2.00000
     28       4.7776      2.00000
     29       4.7776      2.00000
     30       5.0237      2.00000
     31       5.1164      2.00000
     32       5.1164      2.00000
     33       5.2640      2.00000
     34       5.2640      2.00000
     35       5.2790      2.00000
     36       5.9741      2.00000
     37       5.9741      2.00000
     38       6.4546      2.00000
     39       6.9502      2.00000
     40       6.9949      2.00000
     41       6.9949      2.00000
     42       7.1953      2.00000
     43       7.3069      2.00000
     44       7.3069      2.00000
     45       7.4354      2.00000
     46       7.9506      2.04004
     47       7.9506      2.04004
     48       8.0259      2.06971
     49       8.2815      1.02064
     50       8.3729      0.32301
     51       8.3729      0.32301
     52       8.5337     -0.07074
     53       8.5337     -0.07074
     54       8.5417     -0.06975
     55       9.2252      0.00000
     56       9.2252      0.00000
     57       9.4553      0.00000
     58       9.6566      0.00000
     59       9.6566      0.00000
     60       9.7308      0.00000
     61      10.1468      0.00000
     62      10.1468      0.00000
     63      10.2153      0.00000
     64      10.3273      0.00000
     65      10.3273      0.00000
     66      10.4798      0.00000
     67      10.4798      0.00000
     68      10.5817      0.00000
     69      10.9777      0.00000
     70      11.1333      0.00000
     71      11.1333      0.00000
     72      11.4250      0.00000
     73      11.5420      0.00000
     74      11.5420      0.00000
     75      11.6513      0.00000
     76      11.8280      0.00000
     77      11.8280      0.00000
     78      11.9521      0.00000
     79      12.4465      0.00000
     80      12.4465      0.00000
     81      12.4666      0.00000
     82      12.7554      0.00000
     83      12.7554      0.00000
     84      13.2569      0.00000
     85      13.2901      0.00000
     86      13.2901      0.00000
     87      13.4668      0.00000
     88      13.4668      0.00000
     89      13.6559      0.00000
     90      13.8373      0.00000
     91      14.0768      0.00000
     92      14.0882      0.00000
     93      14.3018      0.00000
     94      14.3813      0.00000
     95      14.4996      0.00000
     96      14.7472      0.00000

 k-point   2 :      -0.2500    0.2500    0.2500
  band No.  band energies     occupation 
      1      -2.6723      2.00000
      2      -1.6770      2.00000
      3      -1.6627      2.00000
      4      -1.3344      2.00000
      5      -0.5730      2.00000
      6      -0.5508      2.00000
      7      -0.1172      2.00000
      8       0.5975      2.00000
      9       0.6157      2.00000
     10       0.7105      2.00000
     11       0.9364      2.00000
     12       1.5881      2.00000
     13       1.6238      2.00000
     14       1.6848      2.00000
     15       1.9493      2.00000
     16       1.9535      2.00000
     17       2.1759      2.00000
     18       2.8119      2.00000
     19       2.9497      2.00000
     20       2.9568      2.00000
     21       3.8458      2.00000
     22       3.8773      2.00000
     23       3.9229      2.00000
     24       4.0188      2.00000
     25       4.0416      2.00000
     26       4.2523      2.00000
     27       4.7390      2.00000
     28       4.7813      2.00000
     29       4.8268      2.00000
     30       5.0275      2.00000
     31       5.0970      2.00000
     32       5.1318      2.00000
     33       5.1930      2.00000
     34       5.2041      2.00000
     35       5.3303      2.00000
     36       5.9874      2.00000
     37       6.0003      2.00000
     38       6.4423      2.00000
     39       6.9690      2.00000
     40       6.9941      2.00000
     41       7.0068      2.00000
     42       7.1999      2.00000
     43       7.2727      2.00000
     44       7.2795      2.00000
     45       7.4417      2.00000
     46       7.9474      2.03864
     47       7.9723      2.05004
     48       8.0688      2.06258
     49       8.2666      1.14578
     50       8.3265      0.64840
     51       8.3700      0.34064
     52       8.4828     -0.04906
     53       8.5365     -0.07049
     54       8.6289     -0.03495
     55       9.2151      0.00000
     56       9.2202      0.00000
     57       9.4617      0.00000
     58       9.6365      0.00000
     59       9.6534      0.00000
     60       9.7360      0.00000
     61      10.1315      0.00000
     62      10.1429      0.00000
     63      10.2068      0.00000
     64      10.3722      0.00000
     65      10.3791      0.00000
     66      10.4606      0.00000
     67      10.4998      0.00000
     68      10.5780      0.00000
     69      10.9827      0.00000
     70      11.1151      0.00000
     71      11.1619      0.00000
     72      11.4822      0.00000
     73      11.5132      0.00000
     74      11.5363      0.00000
     75      11.6287      0.00000
     76      11.7777      0.00000
     77      11.7790      0.00000
     78      11.9756      0.00000
     79      12.4292      0.00000
     80      12.4640      0.00000
     81      12.5122      0.00000
     82      12.7140      0.00000
     83      12.7225      0.00000
     84      13.2413      0.00000
     85      13.2873      0.00000
     86      13.3114      0.00000
     87      13.4626      0.00000
     88      13.4726      0.00000
     89      13.6005      0.00000
     90      13.8275      0.00000
     91      14.0955      0.00000
     92      14.1361      0.00000
     93      14.1908      0.00000
     94      14.4100      0.00000
     95      14.4291      0.00000
     96      14.6273      0.00000


--------------------------------------------------------------------------------------------------------


 soft charge-density along one line, spin component           1
         0         1         2         3         4         5         6         7         8         9
 total charge-density along one line
 
 pseudopotential strength for first ion, spin component:           1
  8.436  -0.006   0.000   0.000   0.000   0.000   0.000   0.000
 -0.006   0.000   0.000   0.000   0.000   0.000   0.000   0.000
  0.000   0.000   1.990   0.000   0.000  -0.028   0.000   0.000
  0.000   0.000   0.000   1.990   0.000   0.000  -0.028   0.000
  0.000   0.000   0.000   0.000   1.990   0.000   0.000  -0.028
  0.000   0.000  -0.028   0.000   0.000  -0.012   0.000   0.000
  0.000   0.000   0.000  -0.028   0.000   0.000  -0.012   0.000
  0.000   0.000   0.000   0.000  -0.028   0.000   0.000  -0.012
 total augmentation occupancy for first ion, spin component:           1
  1.347  -0.501  -0.010  -0.010  -0.010   0.004   0.004   0.004
 -0.501   0.503  -0.006  -0.006  -0.006   0.001   0.001   0.001
 -0.010  -0.006   0.737  -0.018  -0.018  -0.181   0.003   0.003
 -0.010  -0.006  -0.018   0.737  -0.018   0.003  -0.181   0.003
 -0.010  -0.006  -0.018  -0.018   0.737   0.003   0.003  -0.181
  0.004   0.001  -0.181   0.003   0.003   0.050  -0.001  -0.001
  0.004   0.001   0.003  -0.181   0.003  -0.001   0.050  -0.001
  0.004   0.001   0.003   0.003  -0.181  -0.001  -0.001   0.050


------------------------ aborting loop because EDIFF is reached ----------------------------------------




--------------------------------------------------------------------------------------------------------



  FREE ENERGIE OF THE ION-ELECTRON SYSTEM (eV)
  ---------------------------------------------------
  free  energy   TOTEN  =      -116.196894 eV

  energy  without entropy=     -116.189965  energy(sigma->0) =     -116.194584
 
    CHARGE:  cpu time    0.12: real time    0.12
    FORLOC:  cpu time    0.01: real time    0.02
    FORNL :  cpu time    0.30: real time    0.30
    STRESS:  cpu time    0.76: real time    0.76
    FORCOR:  cpu time    0.07: real time    0.07
    FORHAR:  cpu time    0.03: real time    0.03
    MIXING:  cpu time    0.00: real time    0.00

  FORCE on cell =-STRESS in cart. coord.  units (eV):
  Direction    XX          YY          ZZ          XY          YZ          ZX
  --------------------------------------------------------------------------------------
  Alpha Z    -8.27958    -8.27958    -8.27958
  Ewald    -795.95637  -795.95637  -795.95637     0.00184     0.00184     0.00184
  Hartree     5.19503     5.19503     5.19503    -0.01797    -0.01797    -0.01797
  E(xc)    -283.48997  -283.48997  -283.48997    -0.01988    -0.01988    -0.01988
  Local       2.41250     2.41250     2.41250    -0.22496    -0.22496    -0.22496
  n-local   629.96257   630.09970   630.09971     0.72616    -0.77057     0.72615
  augment   -31.69996   -31.69996   -31.69996    -0.01909    -0.01908    -0.01908
  Kinetic   501.92556   502.36810   502.36811     4.58772    -8.70800     4.58772
  Fock        0.00000     0.00000     0.00000     0.00000     0.00000     0.00000
  -------------------------------------------------------------------------------------
  Total      20.45624    20.45624    20.45624     0.10300     0.10300     0.10300
  in kB      61.96801    61.96801    61.96801     0.31200     0.31200     0.31200
  external pressure =       61.97 kB  Pullay stress =        0.00 kB


 VOLUME and BASIS-vectors are now :
 -----------------------------------------------------------------------------
  energy-cutoff  :      300.00
  volume of cell :      528.89
      direct lattice vectors                 reciprocal lattice vectors
     8.087040000  0.000000000  0.000000000     0.123654638  0.000000000  0.000000000
     0.000000000  8.087040000  0.000000000     0.000000000  0.123654638  0.000000000
     0.000000000  0.000000000  8.087040000     0.000000000  0.000000000  0.123654638

  length of vectors
     8.087040000  8.087040000  8.087040000     0.123654638  0.123654638  0.123654638


 FORCES acting on ions
    electron-ion (+dipol)            ewald-force                    non-local-force                 convergence-correction
 -----------------------------------------------------------------------------------------------
   0.995E+00 0.995E+00 0.995E+00   -.119E+01 -.119E+01 -.119E+01   0.212E+00 0.212E+00 0.212E+00   0.309E-03 0.309E-03 0.309E-03
   -.203E+00 -.185E+01 -.203E+00   0.294E+00 0.199E+01 0.294E+00   -.127E+00 -.186E+00 -.127E+00   0.648E-04 -.177E-02 0.648E-04
   -.203E+00 -.203E+00 -.185E+01   0.294E+00 0.294E+00 0.199E+01   -.127E+00 -.127E+00 -.186E+00   0.648E-04 0.648E-04 -.177E-02
   -.185E+01 -.203E+00 -.203E+00   0.199E+01 0.294E+00 0.294E+00   -.186E+00 -.127E+00 -.127E+00   -.177E-02 0.648E-04 0.648E-04
   -.156E+01 0.220E+01 0.220E+01   0.170E+01 -.220E+01 -.220E+01   -.126E+00 -.122E-01 -.122E-01   -.265E-03 0.195E-03 0.195E-03
   -.402E+00 0.188E+00 -.366E+00   0.190E+00 0.229E+00 0.400E+00   0.255E+00 -.348E+00 -.188E-01   -.335E-03 0.895E-03 0.364E-03
   -.402E+00 -.366E+00 0.188E+00   0.190E+00 0.400E+00 0.229E+00   0.255E+00 -.188E-01 -.348E+00   -.335E-03 0.364E-03 0.894E-03
   0.961E+00 -.837E+00 -.837E+00   -.143E+01 0.876E+00 0.876E+00   0.562E+00 -.147E-01 -.147E-01   0.204E-02 0.956E-06 0.107E-05
   0.220E+01 -.156E+01 0.220E+01   -.220E+01 0.170E+01 -.220E+01   -.122E-01 -.126E+00 -.122E-01   0.195E-03 -.265E-03 0.195E-03
   -.837E+00 0.961E+00 -.837E+00   0.876E+00 -.143E+01 0.876E+00   -.147E-01 0.562E+00 -.147E-01   0.956E-06 0.204E-02 0.107E-05
   -.366E+00 -.402E+00 0.188E+00   0.400E+00 0.190E+00 0.229E+00   -.188E-01 0.255E+00 -.348E+00   0.364E-03 -.335E-03 0.894E-03
   0.188E+00 -.402E+00 -.366E+00   0.229E+00 0.190E+00 0.400E+00   -.348E+00 0.255E+00 -.188E-01   0.895E-03 -.335E-03 0.364E-03
   -.230E+01 -.230E+01 0.243E+01   0.232E+01 0.232E+01 -.227E+01   -.302E-01 -.302E-01 -.180E+00   -.110E-03 -.110E-03 0.373E-03
   0.115E+01 0.605E+00 -.104E+01   -.108E+01 -.885E+00 0.926E+00   -.993E-01 0.165E+00 0.152E+00   -.653E-04 -.105E-02 -.272E-03
   0.137E+01 0.137E+01 0.147E+02   -.123E+01 -.123E+01 -.141E+02   -.201E+00 -.201E+00 -.539E+00   -.104E-03 -.104E-03 0.698E-03
   0.605E+00 0.115E+01 -.104E+01   -.885E+00 -.108E+01 0.926E+00   0.165E+00 -.993E-01 0.152E+00   -.105E-02 -.653E-04 -.272E-03
   0.220E+01 0.220E+01 -.156E+01   -.220E+01 -.220E+01 0.170E+01   -.122E-01 -.122E-01 -.126E+00   0.195E-03 0.195E-03 -.265E-03
   -.366E+00 0.188E+00 -.402E+00   0.400E+00 0.229E+00 0.190E+00   -.188E-01 -.348E+00 0.255E+00   0.364E-03 0.894E-03 -.335E-03
   -.837E+00 -.837E+00 0.961E+00   0.876E+00 0.876E+00 -.143E+01   -.147E-01 -.147E-01 0.562E+00   0.989E-06 0.989E-06 0.204E-02
   0.188E+00 -.366E+00 -.402E+00   0.229E+00 0.400E+00 0.190E+00   -.348E+00 -.188E-01 0.255E+00   0.894E-03 0.364E-03 -.335E-03
   -.230E+01 0.243E+01 -.230E+01   0.232E+01 -.227E+01 0.232E+01   -.302E-01 -.180E+00 -.302E-01   -.110E-03 0.373E-03 -.110E-03
   0.137E+01 0.147E+02 0.137E+01   -.123E+01 -.141E+02 -.123E+01   -.201E+00 -.539E+00 -.201E+00   -.104E-03 0.698E-03 -.104E-03
   0.115E+01 -.104E+01 0.605E+00   -.108E+01 0.926E+00 -.885E+00   -.993E-01 0.152E+00 0.165E+00   -.654E-04 -.272E-03 -.104E-02
   0.605E+00 -.104E+01 0.115E+01   -.885E+00 0.926E+00 -.108E+01   0.165E+00 0.152E+00 -.993E-01   -.104E-02 -.272E-03 -.654E-04
   0.243E+01 -.230E+01 -.230E+01   -.227E+01 0.232E+01 0.232E+01   -.180E+00 -.302E-01 -.302E-01   0.373E-03 -.110E-03 -.110E-03
   -.104E+01 0.605E+00 0.115E+01   0.926E+00 -.885E+00 -.108E+01   0.152E+00 0.165E+00 -.993E-01   -.272E-03 -.104E-02 -.654E-04
   -.104E+01 0.115E+01 0.605E+00   0.926E+00 -.108E+01 -.885E+00   0.152E+00 -.993E-01 0.165E+00   -.272E-03 -.654E-04 -.104E-02
   0.147E+02 0.137E+01 0.137E+01   -.141E+02 -.123E+01 -.123E+01   -.539E+00 -.201E+00 -.201E+00   0.698E-03 -.104E-03 -.104E-03
   -.221E+01 -.221E+01 -.221E+01   0.217E+01 0.217E+01 0.217E+01   -.803E-02 -.803E-02 -.803E-02   -.182E-03 -.182E-03 -.182E-03
   0.913E+00 -.153E+02 0.913E+00   -.839E+00 0.146E+02 -.839E+00   -.127E+00 0.855E+00 -.127E+00   0.314E-03 0.117E-03 0.314E-03
   0.913E+00 0.913E+00 -.153E+02   -.839E+00 -.839E+00 0.146E+02   -.127E+00 -.127E+00 0.855E+00   0.314E-03 0.314E-03 0.118E-03
   -.153E+02 0.913E+00 0.913E+00   0.146E+02 -.839E+00 -.839E+00   0.855E+00 -.127E+00 -.127E+00   0.117E-03 0.314E-03 0.314E-03
   -.584E+00 -.584E+00 -.584E+00   0.511E+00 0.511E+00 0.511E+00   0.107E+00 0.107E+00 0.107E+00   -.490E-03 -.490E-03 -.490E-03
 -----------------------------------------------------------------------------------------------
   0.114E+00 0.114E+00 0.114E+00   -.218E-13 0.444E-15 -.322E-13   -.115E+00 -.115E+00 -.115E+00   0.630E-03 0.630E-03 0.630E-03
 
 
 POSITION                                       TOTAL-FORCE (eV/Angst)
 -----------------------------------------------------------------------------------
      0.01461      0.01461      0.01461         0.017214      0.017214      0.017214
      2.03266      0.01072      2.03266        -0.035458     -0.054387     -0.035458
      2.03266      2.03266      0.01072        -0.035458     -0.035458     -0.054387
      0.01072      2.03266      2.03266        -0.054387     -0.035458     -0.035458
      4.01712      8.02276      8.02276         0.008303     -0.005338     -0.005338
      5.98743      0.14735      1.98066         0.042544      0.069465      0.016514
      5.98743      1.98066      0.14735         0.042544      0.016514      0.069465
      3.96597      2.03024      2.03024         0.092019      0.024825      0.024825
      8.02276      4.01712      8.02276        -0.005338      0.008303     -0.005338
      2.03024      3.96597      2.03024         0.024825      0.092019      0.024825
      1.98066      5.98743      0.14735         0.016514      0.042544      0.069465
      0.14735      5.98743      1.98066         0.069465      0.042544      0.016514
      4.09463      4.09463      7.97768        -0.006790     -0.006790     -0.020650
      6.04299      3.92915      1.95861        -0.029909     -0.115697      0.041693
      6.13209      6.13209      0.40354        -0.063642     -0.063642      0.013291
      3.92915      6.04299      1.95861        -0.115697     -0.029909      0.041693
      8.02276      8.02276      4.01712        -0.005338     -0.005338      0.008303
      1.98066      0.14735      5.98743         0.016514      0.069465      0.042544
      2.03024      2.03024      3.96597         0.024825      0.024825      0.092019
      0.14735      1.98066      5.98743         0.069465      0.016514      0.042544
      4.09463      7.97768      4.09463        -0.006790     -0.020650     -0.006790
      6.13209      0.40354      6.13209        -0.063642      0.013291     -0.063642
      6.04299      1.95861      3.92915        -0.029909      0.041693     -0.115697
      3.92915      1.95861      6.04299        -0.115697      0.041693     -0.029909
      7.97768      4.09463      4.09463        -0.020650     -0.006790     -0.006790
      1.95861      3.92915      6.04299         0.041693     -0.115697     -0.029909
      1.95861      6.04299      3.92915         0.041693     -0.029909     -0.115697
      0.40354      6.13209      6.13209         0.013291     -0.063642     -0.063642
      4.11926      4.11926      4.11926        -0.045362     -0.045362     -0.045362
      6.09616      3.34995      6.09616        -0.052141      0.183122     -0.052141
      6.09616      6.09616      3.34995        -0.052141     -0.052141      0.183122
      3.34995      6.09616      6.09616         0.183122     -0.052141     -0.052141
      5.87471      5.87471      5.87471         0.034318      0.034318      0.034318
 -----------------------------------------------------------------------------------
    total drift:                               -0.000403     -0.000403     -0.000403


--------------------------------------------------------------------------------------------------------


    POTLOK:  cpu time    0.07: real time    0.07


--------------------------------------------------------------------------------------------------------


  FORCES: max atom, RMS     0.197410    0.101108
  FORCE total and by dimension    0.580820    0.183122
     LOOP+:  cpu time   16.43: real time   16.59
    4ORBIT:  cpu time    0.00: real time    0.00

 total amount of memory used by VASP on root node  56777. kBytes
========================================================================

   base      :    30000. kBytes
   nonl-proj :     4892. kBytes
   fftplans  :     1413. kBytes
   grid      :    19745. kBytes
   one-center:      101. kBytes
   wavefun   :      626. kBytes
 
  
  
 General timing and accounting informations for this job:
 ========================================================
  
                  Total CPU time used (sec):       18.163
                            User time (sec):       17.871
                          System time (sec):        0.292
                         Elapsed time (sec):       19.908
  
                   Maximum memory used (kb):           0.
                   Average memory used (kb):           0.
  
                          Minor page faults:        27153
                          Major page faults:            0
                 Voluntary context switches:         2514
