   3   3   0   0
  0.1429167E+02  0.3500000E-09  0.3500000E-09  0.3500000E-09  0.1000000E-16
  1.000000000000000E-004
  CAR 
 unknown system                          
     18.28402191     -2.84258361  301     10.45978963      1.00000000
     -2.843  0.0000E+00  0.0000E+00
     -2.772  0.0000E+00  0.0000E+00
     -2.702  0.0000E+00  0.0000E+00
     -2.631  0.0000E+00  0.0000E+00
     -2.561  0.0000E+00  0.0000E+00
     -2.490 -0.2168E-27 -0.1527E-28
     -2.420 -0.6048E-25 -0.4274E-26
     -2.350 -0.1317E-22 -0.9320E-24
     -2.279 -0.2234E-20 -0.1583E-21
     -2.209 -0.2948E-18 -0.2092E-19
     -2.138 -0.3027E-16 -0.2152E-17
     -2.068 -0.2416E-14 -0.1723E-15
     -1.998 -0.1452E-12 -0.1040E-13
     -1.927 -0.6981E-11 -0.5020E-12
     -1.857 -0.2598E-09 -0.1880E-10
     -1.786 -0.7484E-08 -0.5458E-09
     -1.716 -0.1667E-06 -0.1228E-07
     -1.645 -0.2862E-05 -0.2139E-06
     -1.575 -0.3779E-04 -0.2875E-05
     -1.505 -0.3817E-03 -0.2975E-04
     -1.434 -0.2929E-02 -0.2360E-03
     -1.364 -0.1689E-01 -0.1426E-02
     -1.293 -0.7180E-01 -0.6482E-02
     -1.223 -0.2160E+00 -0.2169E-01
     -1.152 -0.4135E+00 -0.5082E-01
     -1.082 -0.2820E+00 -0.7067E-01
     -1.012  0.9834E+00 -0.1422E-02
     -0.941  0.3819E+01  0.2675E+00
     -0.871  0.7052E+01  0.7641E+00
     -0.800  0.8302E+01  0.1349E+01
     -0.730  0.6489E+01  0.1806E+01
     -0.660  0.3156E+01  0.2028E+01
     -0.589  0.6025E+00  0.2070E+01
     -0.519 -0.3701E+00  0.2044E+01
     -0.448 -0.3809E+00  0.2017E+01
     -0.378 -0.1788E+00  0.2005E+01
     -0.307 -0.5520E-01  0.2001E+01
     -0.237 -0.1219E-01  0.2000E+01
     -0.167 -0.1995E-02  0.2000E+01
     -0.096 -0.2458E-03  0.2000E+01
     -0.026 -0.2306E-04  0.2000E+01
      0.045 -0.1657E-05  0.2000E+01
      0.115 -0.9159E-07  0.2000E+01
      0.186 -0.3906E-08  0.2000E+01
      0.256 -0.1288E-09  0.2000E+01
      0.326 -0.3285E-11  0.2000E+01
      0.397 -0.6937E-13  0.2000E+01
      0.467  0.0000E+00  0.2000E+01
      0.538  0.0000E+00  0.2000E+01
      0.608  0.0000E+00  0.2000E+01
      0.679  0.0000E+00  0.2000E+01
      0.749  0.0000E+00  0.2000E+01
      0.819  0.0000E+00  0.2000E+01
      0.890  0.0000E+00  0.2000E+01
      0.960  0.0000E+00  0.2000E+01
      1.031  0.0000E+00  0.2000E+01
      1.101  0.0000E+00  0.2000E+01
      1.171  0.0000E+00  0.2000E+01
      1.242  0.0000E+00  0.2000E+01
      1.312  0.0000E+00  0.2000E+01
      1.383  0.0000E+00  0.2000E+01
      1.453  0.0000E+00  0.2000E+01
      1.524  0.0000E+00  0.2000E+01
      1.594  0.0000E+00  0.2000E+01
      1.664  0.0000E+00  0.2000E+01
      1.735  0.0000E+00  0.2000E+01
      1.805  0.0000E+00  0.2000E+01
      1.876  0.0000E+00  0.2000E+01
      1.946  0.0000E+00  0.2000E+01
      2.017  0.0000E+00  0.2000E+01
      2.087  0.0000E+00  0.2000E+01
      2.157  0.0000E+00  0.2000E+01
      2.228  0.0000E+00  0.2000E+01
      2.298  0.0000E+00  0.2000E+01
      2.369  0.0000E+00  0.2000E+01
      2.439  0.0000E+00  0.2000E+01
      2.509  0.0000E+00  0.2000E+01
      2.580  0.0000E+00  0.2000E+01
      2.650  0.0000E+00  0.2000E+01
      2.721  0.0000E+00  0.2000E+01
      2.791  0.0000E+00  0.2000E+01
      2.862  0.0000E+00  0.2000E+01
      2.932  0.0000E+00  0.2000E+01
      3.002  0.0000E+00  0.2000E+01
      3.073  0.0000E+00  0.2000E+01
      3.143  0.0000E+00  0.2000E+01
      3.214  0.0000E+00  0.2000E+01
      3.284 -0.9126E-27  0.2000E+01
      3.355 -0.2391E-24  0.2000E+01
      3.425 -0.4891E-22  0.2000E+01
      3.495 -0.7788E-20  0.2000E+01
      3.566 -0.9651E-18  0.2000E+01
      3.636 -0.9302E-16  0.2000E+01
      3.707 -0.6971E-14  0.2000E+01
      3.777 -0.3933E-12  0.2000E+01
      3.848 -0.1772E-10  0.2000E+01
      3.918 -0.6185E-09  0.2000E+01
      3.988 -0.1671E-07  0.2000E+01
      4.059 -0.3487E-06  0.2000E+01
      4.129 -0.5607E-05  0.2000E+01
      4.200 -0.6926E-04  0.2000E+01
      4.270 -0.6536E-03  0.2000E+01
      4.340 -0.4678E-02  0.2000E+01
      4.411 -0.2508E-01  0.1998E+01
      4.481 -0.9862E-01  0.1991E+01
      4.552 -0.2720E+00  0.1972E+01
      4.622 -0.4662E+00  0.1939E+01
      4.693 -0.2298E+00  0.1923E+01
      4.763  0.1168E+01  0.2005E+01
      4.833  0.3887E+01  0.2279E+01
      4.904  0.6968E+01  0.2769E+01
      4.974  0.9652E+01  0.3449E+01
      5.045  0.1261E+02  0.4337E+01
      5.115  0.1589E+02  0.5456E+01
      5.186  0.1686E+02  0.6643E+01
      5.256  0.1318E+02  0.7571E+01
      5.326  0.6693E+01  0.8042E+01
      5.397  0.1463E+01  0.8145E+01
      5.467 -0.6940E+00  0.8096E+01
      5.538 -0.8073E+00  0.8039E+01
      5.608 -0.3983E+00  0.8011E+01
      5.678 -0.1277E+00  0.8002E+01
      5.749 -0.2916E-01  0.8000E+01
      5.819 -0.4921E-02  0.8000E+01
      5.890 -0.6251E-03  0.8000E+01
      5.960 -0.6037E-04  0.8000E+01
      6.031 -0.4464E-05  0.8000E+01
      6.101 -0.2538E-06  0.8000E+01
      6.171 -0.1113E-07  0.8000E+01
      6.242 -0.3774E-09  0.8000E+01
      6.312 -0.9913E-11  0.8000E+01
      6.383 -0.2018E-12  0.8000E+01
      6.453  0.0000E+00  0.8000E+01
      6.524  0.0000E+00  0.8000E+01
      6.594  0.0000E+00  0.8000E+01
      6.664  0.0000E+00  0.8000E+01
      6.735  0.0000E+00  0.8000E+01
      6.805  0.0000E+00  0.8000E+01
      6.876  0.0000E+00  0.8000E+01
      6.946  0.0000E+00  0.8000E+01
      7.016  0.0000E+00  0.8000E+01
      7.087  0.0000E+00  0.8000E+01
      7.157  0.0000E+00  0.8000E+01
      7.228  0.0000E+00  0.8000E+01
      7.298  0.0000E+00  0.8000E+01
      7.369  0.0000E+00  0.8000E+01
      7.439  0.0000E+00  0.8000E+01
      7.509  0.0000E+00  0.8000E+01
      7.580  0.0000E+00  0.8000E+01
      7.650  0.0000E+00  0.8000E+01
      7.721  0.0000E+00  0.8000E+01
      7.791  0.0000E+00  0.8000E+01
      7.862  0.0000E+00  0.8000E+01
      7.932  0.0000E+00  0.8000E+01
      8.002  0.0000E+00  0.8000E+01
      8.073  0.0000E+00  0.8000E+01
      8.143  0.0000E+00  0.8000E+01
      8.214  0.0000E+00  0.8000E+01
      8.284  0.0000E+00  0.8000E+01
      8.355  0.0000E+00  0.8000E+01
      8.425  0.0000E+00  0.8000E+01
      8.495  0.0000E+00  0.8000E+01
      8.566  0.0000E+00  0.8000E+01
      8.636  0.0000E+00  0.8000E+01
      8.707  0.0000E+00  0.8000E+01
      8.777  0.0000E+00  0.8000E+01
      8.847  0.0000E+00  0.8000E+01
      8.918 -0.1472E-25  0.8000E+01
      8.988 -0.3514E-23  0.8000E+01
      9.059 -0.6554E-21  0.8000E+01
      9.129 -0.9514E-19  0.8000E+01
      9.200 -0.1074E-16  0.8000E+01
      9.270 -0.9438E-15  0.8000E+01
      9.340 -0.6129E-13  0.8000E+01
      9.411 -0.3311E-11  0.8000E+01
      9.481 -0.1356E-09  0.8000E+01
      9.552 -0.4307E-08  0.8000E+01
      9.622 -0.1058E-06  0.8000E+01
      9.693 -0.2006E-05  0.8000E+01
      9.763 -0.2927E-04  0.8000E+01
      9.833 -0.3275E-03  0.8000E+01
      9.904 -0.2793E-02  0.8000E+01
      9.974 -0.1798E-01  0.7999E+01
     10.045 -0.8610E-01  0.7992E+01
     10.115 -0.2974E+00  0.7972E+01
     10.185 -0.6911E+00  0.7923E+01
     10.256 -0.8331E+00  0.7864E+01
     10.326  0.6346E+00  0.7909E+01
     10.397  0.5177E+01  0.8273E+01
     10.467  0.1185E+02  0.9108E+01
     10.538  0.1638E+02  0.1026E+02
     10.608  0.1498E+02  0.1132E+02
     10.678  0.8872E+01  0.1194E+02
     10.749  0.2771E+01  0.1214E+02
     10.819 -0.3287E+00  0.1211E+02
     10.890 -0.8801E+00  0.1205E+02
     10.960 -0.5636E+00  0.1201E+02
     11.031 -0.3673E+00  0.1199E+02
     11.101 -0.4343E+00  0.1195E+02
     11.171 -0.3611E+00  0.1193E+02
     11.242  0.6860E+00  0.1198E+02
     11.312  0.3311E+01  0.1221E+02
     11.383  0.6630E+01  0.1268E+02
     11.453  0.8314E+01  0.1326E+02
     11.524  0.6924E+01  0.1375E+02
     11.594  0.3658E+01  0.1401E+02
     11.664  0.8864E+00  0.1407E+02
     11.735 -0.3069E+00  0.1405E+02
     11.805 -0.4066E+00  0.1402E+02
     11.876 -0.2068E+00  0.1401E+02
     11.946 -0.6752E-01  0.1400E+02
     12.016 -0.1565E-01  0.1400E+02
     12.087 -0.2676E-02  0.1400E+02
     12.157 -0.3440E-03  0.1400E+02
     12.228 -0.3362E-04  0.1400E+02
     12.298 -0.2515E-05  0.1400E+02
     12.369 -0.1446E-06  0.1400E+02
     12.439 -0.6415E-08  0.1400E+02
     12.509 -0.2200E-09  0.1400E+02
     12.580 -0.5846E-11  0.1400E+02
     12.650 -0.1198E-12  0.1400E+02
     12.721  0.0000E+00  0.1400E+02
     12.791  0.0000E+00  0.1400E+02
     12.862  0.0000E+00  0.1400E+02
     12.932  0.0000E+00  0.1400E+02
     13.002  0.0000E+00  0.1400E+02
     13.073  0.0000E+00  0.1400E+02
     13.143  0.0000E+00  0.1400E+02
     13.214  0.0000E+00  0.1400E+02
     13.284  0.0000E+00  0.1400E+02
     13.354  0.0000E+00  0.1400E+02
     13.425  0.0000E+00  0.1400E+02
     13.495  0.0000E+00  0.1400E+02
     13.566  0.0000E+00  0.1400E+02
     13.636  0.0000E+00  0.1400E+02
     13.707  0.0000E+00  0.1400E+02
     13.777  0.0000E+00  0.1400E+02
     13.847  0.0000E+00  0.1400E+02
     13.918  0.0000E+00  0.1400E+02
     13.988  0.0000E+00  0.1400E+02
     14.059  0.0000E+00  0.1400E+02
     14.129  0.0000E+00  0.1400E+02
     14.200  0.0000E+00  0.1400E+02
     14.270  0.0000E+00  0.1400E+02
     14.340  0.0000E+00  0.1400E+02
     14.411  0.0000E+00  0.1400E+02
     14.481  0.0000E+00  0.1400E+02
     14.552  0.0000E+00  0.1400E+02
     14.622 -0.6833E-28  0.1400E+02
     14.692 -0.2004E-25  0.1400E+02
     14.763 -0.4589E-23  0.1400E+02
     14.833 -0.8182E-21  0.1400E+02
     14.904 -0.1135E-18  0.1400E+02
     14.974 -0.1225E-16  0.1400E+02
     15.045 -0.1029E-14  0.1400E+02
     15.115 -0.6554E-13  0.1400E+02
     15.185 -0.3289E-11  0.1400E+02
     15.256 -0.1288E-09  0.1400E+02
     15.326 -0.3906E-08  0.1400E+02
     15.397 -0.9159E-07  0.1400E+02
     15.467 -0.1657E-05  0.1400E+02
     15.538 -0.2306E-04  0.1400E+02
     15.608 -0.2458E-03  0.1400E+02
     15.678 -0.1995E-02  0.1400E+02
     15.749 -0.1219E-01  0.1400E+02
     15.819 -0.5520E-01  0.1400E+02
     15.890 -0.1788E+00  0.1398E+02
     15.960 -0.3809E+00  0.1396E+02
     16.031 -0.3701E+00  0.1393E+02
     16.101  0.6025E+00  0.1397E+02
     16.171  0.3156E+01  0.1419E+02
     16.242  0.6489E+01  0.1465E+02
     16.312  0.8302E+01  0.1524E+02
     16.383  0.7052E+01  0.1573E+02
     16.453  0.3819E+01  0.1600E+02
     16.523  0.9834E+00  0.1607E+02
     16.594 -0.2820E+00  0.1605E+02
     16.664 -0.4135E+00  0.1602E+02
     16.735 -0.2160E+00  0.1601E+02
     16.805 -0.7180E-01  0.1600E+02
     16.876 -0.1689E-01  0.1600E+02
     16.946 -0.2929E-02  0.1600E+02
     17.016 -0.3817E-03  0.1600E+02
     17.087 -0.3779E-04  0.1600E+02
     17.157 -0.2862E-05  0.1600E+02
     17.228 -0.1667E-06  0.1600E+02
     17.298 -0.7484E-08  0.1600E+02
     17.369 -0.2598E-09  0.1600E+02
     17.439 -0.6987E-11  0.1600E+02
     17.509 -0.1450E-12  0.1600E+02
     17.580  0.0000E+00  0.1600E+02
     17.650  0.0000E+00  0.1600E+02
     17.721  0.0000E+00  0.1600E+02
     17.791  0.0000E+00  0.1600E+02
     17.861  0.0000E+00  0.1600E+02
     17.932  0.0000E+00  0.1600E+02
     18.002  0.0000E+00  0.1600E+02
     18.073  0.0000E+00  0.1600E+02
     18.143  0.0000E+00  0.1600E+02
     18.214  0.0000E+00  0.1600E+02
     18.284  0.0000E+00  0.1600E+02
