ITEM: TIMESTEP
232
ITEM: NUMBER OF ATOMS
309
ITEM: BOX BOUNDS pp pp pp
0 500
0 500
0 500
ITEM: ATOMS id type x y z c_pea 
1 1 266.895 259.109 268.711 -1.83623 
2 1 269.014 268.371 264.356 -1.48567 
3 1 256.982 257.091 254.63 -1.46367 
4 1 258.761 265.493 264.335 -3.12045 
5 1 263.06 255.78 257.55 -2.81937 
6 1 257.625 268.948 260.227 -2.65073 
7 1 262.193 269.728 257.427 -2.32372 
8 1 262.049 266.762 268.222 -2.49117 
9 1 263.135 256.865 264.051 -2.86385 
10 1 266.552 266.531 259.907 -2.59369 
11 1 253.064 267.364 262.688 -1.55935 
12 1 264.706 254.705 254.67 -1.38644 
13 1 259.454 265.518 252.472 -1.83972 
14 1 261.071 267.131 263.655 -3.1531 
15 1 270.07 261.992 265.309 -1.99234 
16 1 252.423 290.101 251.599 0 
17 1 260.586 269.898 264.122 -2.32618 
18 1 260.687 269.094 268.629 -1.48328 
19 1 257.457 267.151 262.663 -2.87845 
20 1 255.605 252.777 260.901 -1.18701 
21 1 257.973 255.257 256.75 -1.99633 
22 1 256.314 259.28 269.304 -1.98013 
23 1 255.244 261.651 264.812 -2.94663 
24 1 265.197 265.981 265.015 -3.0991 
25 1 262.93 260.923 265.768 -3.10834 
26 1 265.733 251.983 258.428 -1.21154 
27 1 264.323 260.944 256.935 -2.92363 
28 1 254.945 266.177 258.287 -2.57988 
29 1 256.517 266.715 265.362 -2.34711 
30 1 263.837 264.848 267.395 -2.83758 
31 1 257.37 266.173 260.27 -2.802 
32 1 260.852 255.799 264.814 -2.46725 
33 1 255.746 256.18 263.382 -2.43343 
34 1 263.41 253.14 259.565 -2.20917 
35 1 268.887 262.48 260.767 -2.67556 
36 1 257.145 262.899 256.498 -3.09764 
37 1 263.421 265.574 257.213 -2.93475 
38 1 263.378 267.821 255.774 -2.19946 
39 1 261.508 262.486 251.466 -1.38863 
40 1 267.756 255.972 258.134 -1.88709 
41 1 258.61 267.517 267.356 -2.07139 
42 1 268.283 261.914 263.284 -2.66894 
43 1 260.262 271.075 261.707 -2.01451 
44 1 261.213 261.531 268.954 -2.85623 
45 1 267.285 262.424 270.885 -1.12893 
46 1 258.424 258.96 262.991 -2.97977 
47 1 254.568 263.609 257.363 -2.85509 
48 1 256.693 264.211 258.728 -2.74589 
49 1 260.96 266.481 254.531 -2.45744 
50 1 252.805 264.626 262.224 -2.15924 
51 1 255.405 260.978 257.625 -2.98444 
52 1 266.577 263.919 260.544 -3.02926 
53 1 265.477 256.404 256.715 -2.69574 
54 1 268.2 264.378 268.985 -1.73062 
55 1 258.693 268.166 264.727 -2.51397 
56 1 265.602 256.325 265.282 -2.10847 
57 1 261.341 258.159 253.668 -2.02634 
58 1 258.715 267.266 255.791 -2.93066 
59 1 257.041 266.469 253.749 -2.07787 
60 1 259.782 262.6 257.719 -3.20459 
61 1 261.713 258.087 259.12 -3.18971 
62 1 259.843 258.299 265.14 -3.15485 
63 1 265.92 253.071 261.018 -1.62729 
64 1 264.875 269.839 257.465 -1.29324 
65 1 268.199 263.763 266.252 -2.80216 
66 1 260.878 260.863 253.582 -2.54208 
67 1 268.001 262.4 253.598 -1.80725 
68 1 262.181 255.535 259.969 -2.85211 
69 1 255.221 265.783 263.168 -2.89975 
70 1 263.26 262.899 270.631 -1.7269 
71 1 263.107 259.708 268.312 -2.83686 
72 1 255.168 264.142 267.193 -2.01177 
73 1 263.847 278.163 253.137 -0.00163485 
74 1 261.921 254.906 255.312 -1.82949 
75 1 267.099 258.538 265.972 -2.38507 
76 1 264.78 257.771 267.412 -2.48438 
77 1 264.08 254.357 264.151 -1.91944 
78 1 257.079 255.028 261.247 -2.74573 
79 1 261.552 259.88 261.22 -3.34351 
80 1 265.674 258.883 255.632 -2.69999 
81 1 266.986 268.005 266.213 -2.04453 
82 1 261.38 257.448 256.331 -2.70278 
83 1 262.247 258.253 266.28 -3.12241 
84 1 252.859 261.575 258.281 -2.15126 
85 1 256.101 257.236 257.138 -2.23263 
86 1 259.569 256.308 254.758 -1.82407 
87 1 253.857 258.695 257.552 -1.76158 
88 1 265.588 263.831 253.48 -2.00841 
89 1 258.839 264.718 254.995 -2.97276 
90 1 269.115 266.252 266.921 -1.61877 
91 1 267.875 257.306 255.77 -1.64857 
92 1 259.68 265.69 261.842 -3.21638 
93 1 264.458 267.714 261.379 -3.04692 
94 1 260.989 268.105 266.128 -2.66626 
95 1 254.999 264.977 260.671 -2.86849 
96 1 263.047 257.631 261.467 -3.077 
97 1 261.713 271.811 259.176 -1.7037 
98 1 259.234 270.177 266.521 -1.38779 
99 1 260.287 265.456 266.557 -3.03784 
100 1 257.319 264.298 262.134 -3.14388 
101 1 259.673 267.076 259.483 -3.05572 
102 1 263.289 252.662 262.192 -1.57002 
103 1 257.574 261.748 259.1 -3.09101 
104 1 258.205 258.5 267.435 -2.8342 
105 1 258.188 269.88 255.286 -1.74545 
106 1 268.325 267.118 261.978 -2.31351 
107 1 261.137 267.075 257.209 -3.14346 
108 1 263.541 268.293 264.357 -3.1276 
109 1 264.326 263.369 255.929 -2.93282 
110 1 263.293 262.291 253.622 -2.67959 
111 1 264.264 259.846 262.276 -3.1945 
112 1 259.675 253.851 263.304 -2.07171 
113 1 255.773 259.697 266.575 -2.87561 
114 1 263.109 259.832 254.859 -3.08148 
115 1 258.821 262.811 252.629 -2.10313 
116 1 262.606 266.115 265.555 -2.77236 
117 1 270.272 264.157 257.568 -1.7265 
118 1 256.958 253.774 263.66 -1.86878 
119 1 265.169 261.591 251.823 -1.60173 
120 1 255.784 255.128 265.94 -1.65383 
121 1 269.301 261.976 256.091 -2.15902 
122 1 264.835 270.179 262.575 -2.32781 
123 1 257.295 267.47 258.019 -2.82547 
124 1 254.172 259.802 259.962 -2.45858 
125 1 262.64 260.254 270.907 -1.90595 
126 1 263.398 265.854 263.008 -3.21884 
127 1 267.794 265.999 264.562 -2.75784 
128 1 263.437 268.9 269.242 -1.27779 
129 1 260.087 260.839 263.776 -2.99163 
130 1 261.145 269.256 259.798 -2.88465 
131 1 259.032 271.143 259.323 -1.83907 
132 1 255.564 257.256 267.699 -1.90059 
133 1 252.859 260.401 255.747 -1.35704 
134 1 255.573 259.361 255.453 -2.14238 
135 1 257.847 260.36 256.644 -3.00945 
136 1 260.125 271.464 256.745 -1.52381 
137 1 262.182 259.314 263.804 -2.92129 
138 1 252.308 263.116 255.995 -1.51657 
139 1 256.565 263.98 264.695 -3.05774 
140 1 252.564 262.102 261.037 -1.93282 
141 1 257.116 261.133 254.059 -2.08224 
142 1 267.327 261.84 268.233 -2.64572 
143 1 255.025 262.4 259.889 -3.00469 
144 1 265.525 263.734 269.228 -2.46005 
145 1 262.848 260.035 252.001 -1.69726 
146 1 266.721 269.114 260.917 -1.82296 
147 1 264.565 263.499 262.305 -3.06598 
148 1 267.414 260.099 252.153 -1.17345 
149 1 268.137 257.386 262.73 -2.02531 
150 1 268.913 259.853 261.715 -2.30427 
151 1 259.141 268.176 253.244 -1.54124 
152 1 262.42 261.99 263.187 -3.32721 
153 1 253.56 259.445 267.989 -1.43283 
154 1 260.346 260.698 266.511 -3.23134 
155 1 252.818 264.149 259.328 -2.17219 
156 1 261.256 257.918 271.036 -1.61226 
157 1 254.261 264.919 254.972 -1.76274 
158 1 261.903 266.853 261.013 -3.16996 
159 1 267.382 261.239 265.605 -2.8992 
160 1 258.633 253.931 259.085 -2.22661 
161 1 257.18 257.431 265.318 -2.95177 
162 1 264.603 258.905 264.915 -3.12986 
163 1 259.794 260.27 270.927 -1.99669 
164 1 257.762 269.977 262.863 -1.82584 
165 1 259.438 263.138 267.767 -2.85557 
166 1 265.294 260.444 266.995 -3.01041 
167 1 261.17 264.507 256.386 -2.97703 
168 1 254.898 268.815 258.647 -1.60354 
169 1 258.993 260.817 261.188 -2.97664 
170 1 268.731 257.942 259.766 -2.00704 
171 1 258.436 256.265 263.273 -3.00711 
172 1 256.936 259.119 258.979 -3.18667 
173 1 253.871 264.149 264.823 -2.24594 
174 1 265.433 254.653 258.804 -2.5662 
175 1 259.324 258.19 260.529 -2.9998 
176 1 256.563 263.792 253.984 -2.28887 
177 1 265.563 267.261 257.587 -2.09737 
178 1 260.899 253.18 260.705 -2.19272 
179 1 258.474 260.845 268.599 -2.91257 
180 1 253.358 262.095 266.688 -1.80281 
181 1 261.664 264.199 268.879 -2.53623 
182 1 265.653 264.491 258.061 -3.01996 
183 1 252.597 265.681 257.077 -1.47581 
184 1 255.296 267.68 261.082 -2.47757 
185 1 257.004 270.213 257.71 -1.76814 
186 1 254.346 255.197 261.256 -1.58422 
187 1 266.013 265.727 262.408 -3.01954 
188 1 266.488 263.703 264.137 -3.01147 
189 1 261.935 255.02 262.521 -2.66032 
190 1 265.138 260.996 269.746 -2.42927 
191 1 269.174 264.598 255.03 -1.35269 
192 1 270.18 264.748 264.648 -1.90024 
193 1 253.804 266.834 265.312 -1.40206 
194 1 268.936 265.167 259.881 -2.49668 
195 1 256.753 257.73 261.422 -2.97483 
196 1 267.92 265.681 257.324 -2.17036 
197 1 269.047 259.278 257.323 -2.06181 
198 1 260.579 258.947 268.576 -2.89754 
199 1 259.588 260.002 258.676 -3.04985 
200 1 260.198 255.716 269.77 -1.3441 
201 1 270.221 261.473 258.628 -1.88595 
202 1 266.824 256.101 260.676 -2.46724 
203 1 266.762 259.607 263.458 -3.01679 
204 1 261.286 253.653 257.914 -2.01875 
205 1 254.834 262.106 255.169 -2.23347 
206 1 257.82 255.888 268.219 -1.79387 
207 1 263.558 262.302 268 -2.84967 
208 1 259.689 255.573 260.986 -2.99833 
209 1 269.145 259.998 267.217 -1.73662 
210 1 260.809 269.079 255.251 -2.10266 
211 1 257.993 260.221 265.327 -2.9954 
212 1 254.381 257.466 265.29 -1.94097 
213 1 264.378 267.633 266.966 -2.68884 
214 1 264.062 265.241 260.123 -3.3612 
215 1 261.225 264.444 264.033 -3.16297 
216 1 260.926 262.224 260.042 -2.92311 
217 1 260.567 259.913 256.193 -2.93895 
218 1 268.091 259.862 254.754 -2.03177 
219 1 263.089 255.655 266.473 -2.00984 
220 1 263.235 267.65 258.865 -2.927 
221 1 265.072 258.965 253.054 -1.86525 
222 1 258.565 257.927 270.075 -1.95959 
223 1 264.273 259.643 259.553 -3.07853 
224 1 257.738 256.562 259.168 -2.88074 
225 1 258.974 263.954 259.984 -3.01057 
226 1 265.712 265.734 255.452 -2.13316 
227 1 252.938 266.782 259.995 -1.76475 
228 1 263.431 261.852 260.667 -2.95343 
229 1 263.089 263.134 258.332 -3.25252 
230 1 259.147 262.956 265.128 -3.28533 
231 1 258.833 259.061 254.38 -2.29174 
232 1 253.995 260.509 262.584 -2.30624 
233 1 259.534 263.01 270.478 -1.94927 
234 1 257.034 264.736 251.49 -1.05842 
235 1 261.336 265.008 259.053 -3.2771 
236 1 266.271 261.47 261.561 -3.22499 
237 1 263.634 257.17 254.825 -2.40949 
238 1 263.882 253.324 256.856 -1.93155 
239 1 268.437 264.457 262.477 -2.79558 
240 1 260.187 256.048 258.266 -2.7733 
241 1 264.58 257.037 259.419 -3.02429 
242 1 257.155 263.562 269.178 -2.10913 
243 1 262.319 269.243 262.191 -2.97807 
244 1 262.506 257.021 268.776 -2.21019 
245 1 260.241 256.629 267.242 -2.5056 
246 1 265.402 257.324 262.788 -2.90549 
247 1 257.721 264.947 266.907 -2.58571 
248 1 257.467 261.809 263.271 -3.15548 
249 1 255.985 268.163 255.807 -1.85905 
250 1 267.75 260.528 259.396 -2.79213 
251 1 254.089 257.884 262.092 -2.05958 
252 1 257.07 262.248 266.736 -2.96823 
253 1 269.979 262.549 267.987 -1.39828 
254 1 256.563 265.496 256.263 -2.92174 
255 1 253.26 259.861 265.144 -1.92336 
256 1 261.646 263.16 266.343 -3.04088 
257 1 264.622 266.37 269.451 -1.66295 
258 1 264.376 255.196 261.463 -2.93634 
259 1 270.763 262.883 262.72 -1.8257 
260 1 266.939 260.931 256.922 -2.86051 
261 1 265.036 261.5 264.222 -3.20446 
262 1 255.404 268.584 263.7 -1.81199 
263 1 262.021 264.138 261.492 -3.15639 
264 1 265.648 261.302 254.525 -3.00085 
265 1 259.691 268.416 261.863 -2.94668 
266 1 260.713 257.471 262.664 -3.00993 
267 1 252.38 262.2 263.853 -1.74485 
268 1 266.656 253.921 256.5 -1.49955 
269 1 266.468 258.495 258.16 -3.10732 
270 1 256.371 260.428 261.308 -2.95619 
271 1 261.068 263.728 253.841 -2.64397 
272 1 267.953 263.056 258.336 -2.98265 
273 1 266.431 265.606 267.353 -2.63791 
274 1 266.609 254.888 263.113 -1.76033 
275 1 262.984 271.076 264.301 -1.78026 
276 1 263.28 265.216 254.367 -2.21382 
277 1 262.119 260.613 258.316 -3.05232 
278 1 266.952 263.388 255.891 -2.70637 
279 1 263.723 263.747 264.826 -3.17388 
280 1 258.475 255.005 265.696 -2.10018 
281 1 255.908 259.185 263.788 -3.03501 
282 1 264.541 258.318 270.149 -1.63461 
283 1 258.283 252.558 261.413 -1.58818 
284 1 270.767 265.675 262.016 -1.5472 
285 1 265.523 261.997 259.015 -2.99752 
286 1 261.995 262.073 255.975 -3.07062 
287 1 270.206 291.008 274.693 0 
288 1 265.349 270.023 265.364 -1.92273 
289 1 266.412 258.791 260.88 -3.01394 
290 1 257.181 261.397 270.89 -1.50157 
291 1 255.26 261.65 268.619 -2.03813 
292 1 262.85 269.887 266.731 -1.90034 
293 1 258.921 265.266 257.642 -3.24092 
294 1 259.445 269.058 257.685 -2.81335 
295 1 262.86 271.932 261.697 -1.57268 
296 1 254.965 257.188 259.55 -2.28099 
297 1 259.298 265.527 269.141 -1.97124 
298 1 259.717 263.062 262.406 -3.03612 
299 1 259.325 262.128 255.206 -2.76959 
300 1 265.632 263.081 266.55 -2.98814 
301 1 255.881 254.67 258.765 -1.8524 
302 1 269.262 259.492 264.448 -1.96479 
303 1 267.446 270.453 263.392 -1.32018 
304 1 254.986 263.001 262.531 -3.05472 
305 1 263.814 270.026 259.986 -2.36546 
306 1 263.643 258.42 257.272 -3.03998 
307 1 266.207 268.073 263.578 -2.89016 
308 1 258.754 257.909 256.967 -3.01409 
309 1 271.241 263.662 260.105 -1.54884 
