    4    4  191    1
  0.1071875E+02  0.3500000E-09  0.3500000E-09  0.3500000E-09  0.5000000E-15
  1.000000000000000E-004
  CAR 
 unknown system                          
   12    1   10
 
  0.2500000E+00  0.2500000E+00  0.2500000E+00  0.1000000E+01
   1       -1.584378
   2        2.746772
   3        2.746772
   4        2.746772
   5        6.966177
   6        6.966177
   7        6.966177
   8       11.097206
   9       11.301014
  10       11.301014
