   33   33    1    1
  0.1602710E+02  0.8087040E-09  0.8087040E-09  0.8087040E-09  0.5000000E-15
  1.000000000000000E-004
  CAR 
 unknown system                          
   98    1   96
 
  0.2500000E+00  0.2500000E+00  0.2500000E+00  0.1000000E+01
   1       -2.670003
   2       -1.664850
   3       -1.664850
   4       -1.329692
   5       -0.563448
   6       -0.563448
   7       -0.113443
   8        0.615096
   9        0.615096
  10        0.699736
  11        0.945668
  12        1.610311
  13        1.610311
  14        1.667400
  15        1.962372
  16        1.962372
  17        2.156935
  18        2.831661
  19        2.957375
  20        2.957375
  21        3.859067
  22        3.859067
  23        3.910323
  24        4.030212
  25        4.030212
  26        4.252202
  27        4.771155
  28        4.771155
  29        4.825935
  30        5.046267
  31        5.109765
  32        5.109765
  33        5.217788
  34        5.217788
  35        5.287504
  36        5.987992
  37        5.987992
  38        6.444348
  39        6.981987
  40        6.992959
  41        6.992959
  42        7.200685
  43        7.282169
  44        7.282169
  45        7.437983
  46        7.965553
  47        7.965553
  48        8.052189
  49        8.293737
  50        8.347941
  51        8.347941
  52        8.521759
  53        8.521759
  54        8.581205
  55        9.222118
  56        9.222119
  57        9.476527
  58        9.651880
  59        9.651880
  60        9.730496
  61       10.134303
  62       10.134303
  63       10.228523
  64       10.368006
  65       10.368006
  66       10.459485
  67       10.459486
  68       10.578045
  69       10.993724
  70       11.142718
  71       11.142718
  72       11.470734
  73       11.549791
  74       11.549790
  75       11.607814
  76       11.791537
  77       11.791537
  78       11.959818
  79       12.445996
  80       12.445996
  81       12.507053
  82       12.730433
  83       12.730433
  84       13.276406
  85       13.299977
  86       13.299977
  87       13.452440
  88       13.452444
  89       13.620194
  90       13.835537
  91       14.096513
  92       14.130884
  93       14.266314
  94       14.374675
  95       14.444634
  96       14.661662
