   33   33  191    1
  0.1602710E+02  0.8087040E-09  0.8087040E-09  0.8087040E-09  0.5000000E-15
  1.000000000000000E-004
  CAR 
 unknown system                          
   98    1   96
 
  0.2500000E+00  0.2500000E+00  0.2500000E+00  0.1000000E+01
   1       -2.669931
   2       -1.664755
   3       -1.664754
   4       -1.329620
   5       -0.563341
   6       -0.563341
   7       -0.113430
   8        0.615130
   9        0.615130
  10        0.699802
  11        0.945718
  12        1.610348
  13        1.610348
  14        1.667482
  15        1.962422
  16        1.962422
  17        2.156947
  18        2.831692
  19        2.957428
  20        2.957428
  21        3.859085
  22        3.859085
  23        3.910345
  24        4.030295
  25        4.030295
  26        4.252234
  27        4.771230
  28        4.771230
  29        4.826032
  30        5.046249
  31        5.109823
  32        5.109823
  33        5.217848
  34        5.217848
  35        5.287570
  36        5.988048
  37        5.988048
  38        6.444366
  39        6.982058
  40        6.992962
  41        6.992962
  42        7.200673
  43        7.282244
  44        7.282244
  45        7.438014
  46        7.965582
  47        7.965582
  48        8.052254
  49        8.293706
  50        8.348010
  51        8.348010
  52        8.521817
  53        8.521817
  54        8.581216
  55        9.222175
  56        9.222175
  57        9.476603
  58        9.651908
  59        9.651908
  60        9.730489
  61       10.134329
  62       10.134329
  63       10.228525
  64       10.368067
  65       10.368067
  66       10.459576
  67       10.459576
  68       10.578078
  69       10.993674
  70       11.142766
  71       11.142766
  72       11.470828
  73       11.549761
  74       11.549761
  75       11.607821
  76       11.791592
  77       11.791592
  78       11.959838
  79       12.445998
  80       12.445998
  81       12.507123
  82       12.730475
  83       12.730475
  84       13.276359
  85       13.300018
  86       13.300021
  87       13.452500
  88       13.452501
  89       13.620193
  90       13.835229
  91       14.095781
  92       14.095834
  93       14.258146
  94       14.364515
  95       14.366172
  96       14.531723
