       N       E                     dE             d eps       ncg     rms          rms(c)
RMM:   1     0.171889425281E+03    0.17189E+03   -0.14716E+04    96   0.402E+02
RMM:   2    -0.605489431608E+02   -0.23244E+03   -0.21749E+03    96   0.813E+01
RMM:   3    -0.103710509835E+03   -0.43162E+02   -0.36833E+02    96   0.258E+01
RMM:   4    -0.113853857042E+03   -0.10143E+02   -0.66574E+01    96   0.134E+01
RMM:   5    -0.116103050258E+03   -0.22492E+01   -0.13558E+01    96   0.592E+00
RMM:   6    -0.116593735205E+03   -0.49068E+00   -0.33245E+00    96   0.296E+00
RMM:   7    -0.116698611505E+03   -0.10488E+00   -0.80995E-01    96   0.149E+00
RMM:   8    -0.116723149743E+03   -0.24538E-01   -0.20975E-01    96   0.784E-01
RMM:   9    -0.116731121504E+03   -0.79718E-02   -0.74085E-02   201   0.426E-01
RMM:  10    -0.116732007615E+03   -0.88611E-03   -0.79457E-03   193   0.127E-01
RMM:  11    -0.116732032192E+03   -0.24577E-04   -0.19526E-04   144   0.257E-02
RMM:  12    -0.116732035502E+03   -0.33094E-05   -0.31500E-05   123   0.132E-02    0.646E+00
RMM:  13    -0.115082155219E+03    0.16499E+01   -0.22154E+00   192   0.154E+00    0.372E+00
RMM:  14    -0.114706768356E+03    0.37539E+00   -0.26374E-01   192   0.636E-01    0.238E+00
RMM:  15    -0.114559454678E+03    0.14731E+00   -0.90904E-02   192   0.490E-01    0.671E-01
RMM:  16    -0.114543985752E+03    0.15469E-01   -0.11702E-02   192   0.179E-01    0.101E-01
RMM:  17    -0.114543306484E+03    0.67927E-03   -0.91605E-04   183   0.492E-02    0.363E-02
RMM:  18    -0.114543277680E+03    0.28804E-04   -0.10746E-04   125   0.212E-02
   1 F= -.11454328E+03 E0= -.11454710E+03  d E =-.114543E+03
       N       E                     dE             d eps       ncg     rms          rms(c)
RMM:   1    -0.115516109468E+03   -0.97280E+00   -0.55055E+00   192   0.510E+00    0.958E-01
RMM:   2    -0.115411954116E+03    0.10416E+00   -0.17126E-01   192   0.698E-01    0.297E-01
RMM:   3    -0.115406918719E+03    0.50354E-02   -0.68564E-03   193   0.155E-01    0.162E-01
RMM:   4    -0.115406541565E+03    0.37715E-03   -0.84058E-04   190   0.544E-02    0.701E-02
RMM:   5    -0.115406509269E+03    0.32296E-04   -0.11647E-04   124   0.236E-02
   2 F= -.11540651E+03 E0= -.11542710E+03  d E =-.863232E+00
       N       E                     dE             d eps       ncg     rms          rms(c)
RMM:   1    -0.116326945032E+03   -0.92040E+00   -0.23812E+01   192   0.106E+01    0.151E+00
RMM:   2    -0.116068334699E+03    0.25861E+00   -0.41014E-01   192   0.132E+00    0.491E-01
RMM:   3    -0.116062753359E+03    0.55813E-02   -0.19123E-02   193   0.300E-01    0.274E-01
RMM:   4    -0.116062185374E+03    0.56798E-03   -0.27236E-03   192   0.103E-01    0.110E-01
RMM:   5    -0.116062222747E+03   -0.37373E-04   -0.31245E-04   146   0.398E-02
   3 F= -.11606222E+03 E0= -.11606435E+03  d E =-.151895E+01
       N       E                     dE             d eps       ncg     rms          rms(c)
RMM:   1    -0.116251112270E+03   -0.18893E+00   -0.26636E+00   192   0.344E+00    0.582E-01
RMM:   2    -0.116213560546E+03    0.37552E-01   -0.53640E-02   193   0.457E-01    0.136E-01
RMM:   3    -0.116212787009E+03    0.77354E-03   -0.28208E-03   189   0.105E-01    0.621E-02
RMM:   4    -0.116212791912E+03   -0.49031E-05   -0.15502E-04   131   0.290E-02
   4 F= -.11621279E+03 E0= -.11620694E+03  d E =-.150569E+00
       N       E                     dE             d eps       ncg     rms          rms(c)
RMM:   1    -0.116222572741E+03   -0.97857E-02   -0.19132E-01   192   0.917E-01    0.159E-01
RMM:   2    -0.116219785709E+03    0.27870E-02   -0.40114E-03   192   0.125E-01    0.386E-02
RMM:   3    -0.116219726247E+03    0.59462E-04   -0.19863E-04   139   0.295E-02
   5 F= -.11621973E+03 E0= -.11621219E+03  d E =-.157504E+00
       N       E                     dE             d eps       ncg     rms          rms(c)
RMM:   1    -0.116264135360E+03   -0.44350E-01   -0.45047E-01   192   0.147E+00    0.153E-01
RMM:   2    -0.116262240684E+03    0.18947E-02   -0.50272E-03   192   0.170E-01    0.667E-02
RMM:   3    -0.116262069471E+03    0.17121E-03   -0.46770E-04   165   0.411E-02    0.288E-02
RMM:   4    -0.116262062982E+03    0.64889E-05   -0.55025E-05   119   0.162E-02
   6 F= -.11626206E+03 E0= -.11625665E+03  d E =-.423367E-01
       N       E                     dE             d eps       ncg     rms          rms(c)
RMM:   1    -0.116276153469E+03   -0.14084E-01   -0.40237E-01   192   0.138E+00    0.149E-01
RMM:   2    -0.116274289031E+03    0.18644E-02   -0.46651E-03   192   0.161E-01    0.634E-02
RMM:   3    -0.116274135498E+03    0.15353E-03   -0.40907E-04   161   0.390E-02    0.280E-02
RMM:   4    -0.116274128645E+03    0.68532E-05   -0.53490E-05   119   0.161E-02
   7 F= -.11627413E+03 E0= -.11627021E+03  d E =-.544024E-01
