<?xml version="1.0" encoding="ISO-8859-1"?>
<modeling>
 <generator>
  <i name="program" type="string">vasp </i>
  <i name="version" type="string">5.2.2  </i>
  <i name="subversion" type="string">15Apr09 complex  parallel </i>
  <i name="platform" type="string">LinuxIFC </i>
  <i name="date" type="string">2016 12 16 </i>
  <i name="time" type="string">16:02:10 </i>
 </generator>
 <incar>
  <i type="string" name="PREC">accurate</i>
  <i type="int" name="IALGO">    48</i>
  <i type="int" name="IBRION">     2</i>
  <i name="EDIFFG">      0.05000000</i>
  <i type="int" name="NSW">   191</i>
  <i type="int" name="ISIF">     2</i>
  <i name="ENCUT">    300.00000000</i>
  <i name="NELECT">     98.00000000</i>
  <i type="int" name="ISMEAR">     1</i>
  <i name="SIGMA">      0.20000000</i>
  <i type="logical" name="LWAVE"> F  </i>
  <i type="logical" name="LCHARG"> F  </i>
  <i type="logical" name="LPEAD"> F  </i>
  <i type="logical" name="LCALCPOL"> F  </i>
  <i type="logical" name="LCALCEPS"> F  </i>
  <v name="EFIELD_PEAD">      0.00000000      0.00000000      0.00000000</v>
  <i type="logical" name="LEFG"> F  </i>
 </incar>
 <kpoints>
  <generation param="Monkhorst-Pack">
   <v type="int" name="divisions">       2        2        2 </v>
   <v name="usershift">      0.00000000       0.00000000       0.00000000 </v>
   <v name="genvec1">      0.50000000       0.00000000       0.00000000 </v>
   <v name="genvec2">      0.00000000       0.50000000       0.00000000 </v>
   <v name="genvec3">      0.00000000       0.00000000       0.50000000 </v>
   <v name="shift">      0.50000000       0.50000000       0.50000000 </v>
  </generation>
  <varray name="kpointlist" >
   <v>       0.25000000       0.25000000       0.25000000 </v>
  </varray>
  <varray name="weights" >
   <v>       1.00000000 </v>
  </varray>
 </kpoints>
 <parameters>
  <separator name="general" >
   <i type="string" name="SYSTEM">unknown system</i>
   <i type="logical" name="LCOMPAT"> F  </i>
  </separator>
  <separator name="electronic" >
   <i type="string" name="PREC">accura</i>
   <i name="ENMAX">    300.00000000</i>
   <i name="ENAUG">    291.05200000</i>
   <i name="EDIFF">      0.00010000</i>
   <i type="int" name="IALGO">    48</i>
   <i type="int" name="IWAVPR">    11</i>
   <i type="int" name="NBANDS">    96</i>
   <i name="NELECT">     98.00000000</i>
   <separator name="electronic smearing" >
    <i type="int" name="ISMEAR">     1</i>
    <i name="SIGMA">      0.20000000</i>
   </separator>
   <separator name="electronic projectors" >
    <i type="logical" name="LREAL"> F  </i>
    <v name="ROPT">      0.00000000      0.00000000</v>
    <i type="int" name="LMAXPAW">  -100</i>
    <i type="int" name="LMAXMIX">     2</i>
   </separator>
   <separator name="electronic startup" >
    <i type="int" name="ISTART">     0</i>
    <i type="int" name="ICHARG">     2</i>
    <i type="int" name="INIWAV">     1</i>
   </separator>
   <separator name="electronic spin" >
    <i type="int" name="ISPIN">     1</i>
    <i type="logical" name="LNONCOLLINEAR"> F  </i>
    <v name="MAGMOM">      1.00000000      1.00000000      1.00000000      1.00000000      1.00000000      1.00000000      1.00000000      1.00000000      1.00000000      1.00000000      1.00000000      1.00000000      1.00000000      1.00000000      1.00000000      1.00000000      1.00000000      1.00000000      1.00000000      1.00000000
      1.00000000      1.00000000      1.00000000      1.00000000      1.00000000      1.00000000      1.00000000      1.00000000      1.00000000      1.00000000      1.00000000      1.00000000      1.00000000</v>
    <i name="NUPDOWN">     -1.00000000</i>
    <i type="logical" name="LSORBIT"> F  </i>
    <v name="SAXIS">      0.00000000      0.00000000      1.00000000</v>
    <i type="logical" name="LSPIRAL"> F  </i>
    <v name="QSPIRAL">      0.00000000      0.00000000      0.00000000</v>
    <i type="logical" name="LZEROZ"> F  </i>
   </separator>
   <separator name="electronic exchange-correlation" >
    <i type="logical" name="LASPH"> F  </i>
    <i type="logical" name="LMETAGGA"> F  </i>
   </separator>
   <separator name="electronic convergence" >
    <i type="int" name="NELM">    60</i>
    <i type="int" name="NELMDL">   -12</i>
    <i type="int" name="NELMIN">     2</i>
    <i name="ENINI">    300.00000000</i>
    <separator name="electronic convergence detail" >
     <i type="logical" name="LDIAG"> T  </i>
     <i name="WEIMIN">      0.00100000</i>
     <i name="EBREAK">      0.00000038</i>
     <i name="DEPER">      0.30000000</i>
     <i type="int" name="NRMM">     4</i>
     <i name="TIME">      0.40000000</i>
    </separator>
   </separator>
   <separator name="electronic mixer" >
    <i name="AMIX">      0.40000000</i>
    <i name="BMIX">      1.00000000</i>
    <i name="AMIN">      0.10000000</i>
    <i name="AMIX_MAG">      1.60000000</i>
    <i name="BMIX_MAG">      1.00000000</i>
    <separator name="electronic mixer details" >
     <i type="int" name="IMIX">     4</i>
     <i type="int" name="MAXMIX">   -45</i>
     <i name="WC">    100.00000000</i>
     <i type="int" name="INIMIX">     1</i>
     <i type="int" name="MIXPRE">     1</i>
     <i type="int" name="MREMOVE">     5</i>
    </separator>
   </separator>
   <separator name="electronic dipolcorrection" >
    <i type="logical" name="LDIPOL"> F  </i>
    <i type="logical" name="LMONO"> F  </i>
    <i type="int" name="IDIPOL">     0</i>
    <i name="EPSILON">      1.00000000</i>
    <v name="DIPOL">   -100.00000000   -100.00000000   -100.00000000</v>
    <i name="EFIELD">      0.00000000</i>
   </separator>
  </separator>
  <separator name="grids" >
   <i type="int" name="NGX">    48</i>
   <i type="int" name="NGY">    48</i>
   <i type="int" name="NGZ">    48</i>
   <i type="int" name="NGXF">    96</i>
   <i type="int" name="NGYF">    96</i>
   <i type="int" name="NGZF">    96</i>
   <i type="logical" name="ADDGRID"> F  </i>
  </separator>
  <separator name="ionic" >
   <i type="int" name="NSW">   191</i>
   <i type="int" name="IBRION">     2</i>
   <i type="int" name="ISIF">     2</i>
   <i name="PSTRESS">      0.00000000</i>
   <i name="EDIFFG">      0.05000000</i>
   <i type="int" name="NFREE">     1</i>
   <i name="POTIM">      0.50000000</i>
   <i name="SMASS">     -3.00000000</i>
  </separator>
  <separator name="ionic md" >
   <i name="TEBEG">      0.00010000</i>
   <i name="TEEND">      0.00010000</i>
   <i type="int" name="NBLOCK">     1</i>
   <i type="int" name="KBLOCK">   191</i>
   <i type="int" name="NPACO">   256</i>
   <i name="APACO">     16.00000000</i>
  </separator>
  <separator name="symmetry" >
   <i type="int" name="ISYM">     2</i>
   <i name="SYMPREC">      0.00001000</i>
  </separator>
  <separator name="dos" >
   <i type="logical" name="LORBIT"> F  </i>
   <v name="RWIGS">     -1.00000000     -1.00000000</v>
   <i type="int" name="NEDOS">   301</i>
   <i name="EMIN">     10.00000000</i>
   <i name="EMAX">    -10.00000000</i>
   <i name="EFERMI">      0.00000000</i>
  </separator>
  <separator name="writing" >
   <i type="int" name="NWRITE">     2</i>
   <i type="logical" name="LWAVE"> F  </i>
   <i type="logical" name="LCHARG"> F  </i>
   <i type="logical" name="LPARD"> F  </i>
   <i type="logical" name="LVTOT"> F  </i>
   <i type="logical" name="LELF"> F  </i>
   <i type="logical" name="LOPTICS"> F  </i>
   <v name="STM">      0.00000000      0.00000000      0.00000000      0.00000000      0.00000000</v>
  </separator>
  <separator name="performance" >
   <i type="int" name="NPAR">    32</i>
   <i type="int" name="NSIM">     4</i>
   <i type="int" name="NBLK">    32</i>
   <i type="logical" name="LPLANE"> T  </i>
   <i type="logical" name="LSCALAPACK"> F  </i>
   <i type="logical" name="LSCAAWARE"> F  </i>
   <i type="logical" name="LSCALU"> F  </i>
   <i type="logical" name="LASYNC"> F  </i>
  </separator>
  <separator name="miscellaneous" >
   <i type="int" name="IDIOT">     3</i>
   <i type="logical" name="LMUSIC"> F  </i>
   <v name="POMASS">     26.98200000     24.30500000</v>
   <i type="logical" name="LCORR"> T  </i>
  </separator>
  <i type="logical" name="LREAL_COMPAT"> F  </i>
  <i type="logical" name="GGA_COMPAT"> T  </i>
  <i type="logical" name="LBERRY"> F  </i>
  <i type="int" name="ICORELEVEL">     0</i>
  <i type="logical" name="LDAU"> F  </i>
  <i type="int" name="I_CONSTRAINED_M">     0</i>
  <separator name="electronic exchange-correlation" >
   <i type="string" name="GGA">--</i>
   <i type="int" name="VOSKOWN">     0</i>
   <i type="logical" name="LHFCALC"> F  </i>
   <i type="logical" name="LHFONE"> F  </i>
   <i type="logical" name="LRHFCALC"> F  </i>
   <i type="logical" name="LTHOMAS"> F  </i>
   <i type="logical" name="LMODELHF"> F  </i>
   <i name="ENCUTFOCK">      0.00000000</i>
   <i name="ENCUT4O">     -1.00000000</i>
   <i type="int" name="EXXOEP">     0</i>
   <i type="int" name="FOURORBIT">     0</i>
   <i name="AEXX">      0.00000000</i>
   <i name="HFALPHA">      0.00000000</i>
   <i name="ALDAX">      1.00000000</i>
   <i name="AGGAX">      1.00000000</i>
   <i name="ALDAC">      1.00000000</i>
   <i name="AGGAC">      1.00000000</i>
   <i type="int" name="NKREDX">     1</i>
   <i type="int" name="NKREDY">     1</i>
   <i type="int" name="NKREDZ">     1</i>
   <i type="logical" name="SHIFTRED"> F  </i>
   <i type="logical" name="ODDONLY"> F  </i>
   <i type="logical" name="EVENONLY"> F  </i>
   <i type="int" name="LMAXFOCK">     0</i>
   <i type="int" name="NMAXFOCKAE">     0</i>
   <i name="HFSCREEN">      0.00000000</i>
   <i name="HFSCREENC">      0.00000000</i>
  </separator>
  <separator name="model GW" >
   <i type="int" name="MODEL_GW">     0</i>
   <i name="MODEL_EPS0">      9.61625750</i>
   <i name="MODEL_ALPHA">      1.00000000</i>
  </separator>
  <separator name="linear response parameters" >
   <i type="logical" name="LEPSILON"> F  </i>
   <i type="logical" name="LRPA"> F  </i>
   <i type="logical" name="LNABLA"> F  </i>
   <i type="logical" name="LVEL"> F  </i>
   <i type="int" name="KINTER">     0</i>
   <i name="CSHIFT">      0.10000000</i>
   <i name="OMEGAMAX">     -1.00000000</i>
  </separator>
  <separator name="orbital magnetization" >
   <i type="logical" name="ORBITALMAG"> F  </i>
   <i type="logical" name="LMAGBLOCH"> F  </i>
   <i type="logical" name="LCHIMAG"> F  </i>
   <i type="logical" name="LGAUGE"> T  </i>
   <i type="int" name="MAGATOM">     0</i>
   <v name="MAGDIPOL">      0.00000000      0.00000000      0.00000000</v>
   <v name="AVECCONST">      0.00000000      0.00000000      0.00000000</v>
  </separator>
  <separator name="response functions" >
   <i type="logical" name="LRPA"> T  </i>
   <i type="logical" name="LTCTE"> F  </i>
   <i type="logical" name="LTETE"> F  </i>
   <i type="logical" name="L2ORDER"> F  </i>
   <i type="logical" name="LGWLF"> F  </i>
   <i name="ENCUTGW">    200.00000000</i>
   <i name="ENCUTGWSOFT">     -2.00000000</i>
   <i name="ENCUTLF">     -1.00000000</i>
   <i type="int" name="LMAXMP2">    -1</i>
   <i name="SCISSOR">      0.00000000</i>
   <i type="int" name="NOMEGA">     0</i>
   <i type="int" name="NOMEGAR">     0</i>
   <i type="int" name="NBANDSGW">    -1</i>
   <i type="int" name="NBANDSLF">    -1</i>
   <i type="int" name="NELM">     1</i>
   <i type="int" name="DIM">     3</i>
   <i type="int" name="ANTIRES">     0</i>
   <i type="logical" name="LUSEW"> F  </i>
   <i name="OMEGAMAX">    -30.00000000</i>
   <i name="OMEGATL">   -200.00000000</i>
   <i type="int" name="OMEGAGRID">     0</i>
   <i name="CSHIFT">     -0.10000000</i>
   <i type="logical" name="SELFENERGY"> F  </i>
   <i type="logical" name="LSPECTRAL"> F  </i>
   <i type="logical" name="ODDONLYGW"> F  </i>
   <i type="logical" name="EVENONLYGW"> F  </i>
   <i type="int" name="NKREDLFX">     1</i>
   <i type="int" name="NKREDLFY">     1</i>
   <i type="int" name="NKREDLFZ">     1</i>
   <i type="int" name="MAXMEM">  1024</i>
   <i type="int" name="TELESCOPE">     0</i>
  </separator>
 </parameters>
 <atominfo>
  <atoms>      33 </atoms>
  <types>       2 </types>
  <array name="atoms" >
   <dimension dim="1">ion</dimension>
   <field type="string">element</field>
   <field type="int">atomtype</field>
   <set>
    <rc><c>Al</c><c>   1</c></rc>
    <rc><c>Al</c><c>   1</c></rc>
    <rc><c>Al</c><c>   1</c></rc>
    <rc><c>Al</c><c>   1</c></rc>
    <rc><c>Al</c><c>   1</c></rc>
    <rc><c>Al</c><c>   1</c></rc>
    <rc><c>Al</c><c>   1</c></rc>
    <rc><c>Al</c><c>   1</c></rc>
    <rc><c>Al</c><c>   1</c></rc>
    <rc><c>Al</c><c>   1</c></rc>
    <rc><c>Al</c><c>   1</c></rc>
    <rc><c>Al</c><c>   1</c></rc>
    <rc><c>Al</c><c>   1</c></rc>
    <rc><c>Al</c><c>   1</c></rc>
    <rc><c>Al</c><c>   1</c></rc>
    <rc><c>Al</c><c>   1</c></rc>
    <rc><c>Al</c><c>   1</c></rc>
    <rc><c>Al</c><c>   1</c></rc>
    <rc><c>Al</c><c>   1</c></rc>
    <rc><c>Al</c><c>   1</c></rc>
    <rc><c>Al</c><c>   1</c></rc>
    <rc><c>Al</c><c>   1</c></rc>
    <rc><c>Al</c><c>   1</c></rc>
    <rc><c>Al</c><c>   1</c></rc>
    <rc><c>Al</c><c>   1</c></rc>
    <rc><c>Al</c><c>   1</c></rc>
    <rc><c>Al</c><c>   1</c></rc>
    <rc><c>Al</c><c>   1</c></rc>
    <rc><c>Al</c><c>   1</c></rc>
    <rc><c>Al</c><c>   1</c></rc>
    <rc><c>Al</c><c>   1</c></rc>
    <rc><c>Al</c><c>   1</c></rc>
    <rc><c>Mg</c><c>   2</c></rc>
   </set>
  </array>
  <array name="atomtypes" >
   <dimension dim="1">type</dimension>
   <field type="int">atomspertype</field>
   <field type="string">element</field>
   <field>mass</field>
   <field>valence</field>
   <field type="string">pseudopotential</field>
   <set>
    <rc><c>  32</c><c>Al</c><c>     26.98200000</c><c>      3.00000000</c><c> PAW_PBE Al 04Jan2001                   </c></rc>
    <rc><c>   1</c><c>Mg</c><c>     24.30500000</c><c>      2.00000000</c><c> PAW_PBE Mg 05Jan2001                   </c></rc>
   </set>
  </array>
 </atominfo>
 <structure name="initialpos" >
  <crystal>
   <varray name="basis" >
    <v>       8.08704000       0.00000000       0.00000000 </v>
    <v>       0.00000000       8.08704000       0.00000000 </v>
    <v>       0.00000000       0.00000000       8.08704000 </v>
   </varray>
   <i name="volume">    528.89416249 </i>
   <varray name="rec_basis" >
    <v>       0.12365464       0.00000000       0.00000000 </v>
    <v>       0.00000000       0.12365464       0.00000000 </v>
    <v>       0.00000000       0.00000000       0.12365464 </v>
   </varray>
  </crystal>
  <varray name="positions" >
   <v>       0.00000000       0.00000000       0.02138700 </v>
   <v>       0.22861300       0.00000000       0.25000000 </v>
   <v>       0.24055100       0.24055100       0.00944900 </v>
   <v>       0.00000000       0.22861300       0.25000000 </v>
   <v>       0.50000000       0.00000000       0.02564500 </v>
   <v>       0.77138700       0.00000000       0.25000000 </v>
   <v>       0.75944900       0.24055100       0.00944900 </v>
   <v>       0.50000000       0.22435500       0.25000000 </v>
   <v>       0.00000000       0.50000000       0.02564500 </v>
   <v>       0.22435500       0.50000000       0.25000000 </v>
   <v>       0.24055100       0.75944900       0.00944900 </v>
   <v>       0.00000000       0.77138700       0.25000000 </v>
   <v>       0.50000000       0.50000000       0.08301600 </v>
   <v>       0.77564500       0.50000000       0.25000000 </v>
   <v>       0.75944900       0.75944900       0.00944900 </v>
   <v>       0.50000000       0.77564500       0.25000000 </v>
   <v>       0.00000000       0.00000000       0.47861300 </v>
   <v>       0.22435500       0.00000000       0.75000000 </v>
   <v>       0.24055100       0.24055100       0.49055100 </v>
   <v>       0.00000000       0.22435500       0.75000000 </v>
   <v>       0.50000000       0.00000000       0.47435500 </v>
   <v>       0.77564500       0.00000000       0.75000000 </v>
   <v>       0.75944900       0.24055100       0.49055100 </v>
   <v>       0.50000000       0.16698400       0.75000000 </v>
   <v>       0.00000000       0.50000000       0.47435500 </v>
   <v>       0.16698400       0.50000000       0.75000000 </v>
   <v>       0.24055100       0.75944900       0.49055100 </v>
   <v>       0.00000000       0.77564500       0.75000000 </v>
   <v>       0.50000000       0.50000000       0.41698400 </v>
   <v>       0.83301600       0.50000000       0.75000000 </v>
   <v>       0.75944900       0.75944900       0.49055100 </v>
   <v>       0.50000000       0.83301600       0.75000000 </v>
   <v>       0.50000000       0.50000000       0.75000000 </v>
  </varray>
 </structure>
 <calculation>
  <scstep>
   <time name="diag">    0.09    0.09</time>
   <time name="diis">    0.18    0.18</time>
   <time name="orth">    0.01    0.01</time>
   <time name="total">    0.38    0.40</time>
   <energy>
    <i name="alphaZ">     -8.27958290 </i>
    <i name="ewald">  -2349.00126995 </i>
    <i name="hartreedc">    -39.58108495 </i>
    <i name="XCdc">   -845.08457720 </i>
    <i name="pawpsdc">   1149.32568210 </i>
    <i name="pawaedc">   -115.70169129 </i>
    <i name="eentropy">      0.04128778 </i>
    <i name="bandstr">    643.96397260 </i>
    <i name="atom">   1736.20668909 </i>
    <i name="e_fr_energy">    171.88942528 </i>
    <i name="e_wo_entrp">    171.84813750 </i>
    <i name="e_0_energy">    171.87566269 </i>
   </energy>
  </scstep>
  <scstep>
   <time name="diag">    0.09    0.09</time>
   <time name="diis">    0.17    0.17</time>
   <time name="orth">    0.01    0.01</time>
   <time name="total">    0.27    0.28</time>
   <energy>
    <i name="e_fr_energy">    -60.54894316 </i>
    <i name="e_wo_entrp">    -60.58420044 </i>
    <i name="e_0_energy">    -60.56069559 </i>
   </energy>
  </scstep>
  <scstep>
   <time name="diag">    0.09    0.09</time>
   <time name="diis">    0.17    0.17</time>
   <time name="orth">    0.01    0.01</time>
   <time name="total">    0.27    0.28</time>
   <energy>
    <i name="e_fr_energy">   -103.71050983 </i>
    <i name="e_wo_entrp">   -103.58851692 </i>
    <i name="e_0_energy">   -103.66984553 </i>
   </energy>
  </scstep>
  <scstep>
   <time name="diag">    0.09    0.09</time>
   <time name="diis">    0.17    0.17</time>
   <time name="orth">    0.01    0.01</time>
   <time name="total">    0.27    0.28</time>
   <energy>
    <i name="e_fr_energy">   -113.85385704 </i>
    <i name="e_wo_entrp">   -113.88007990 </i>
    <i name="e_0_energy">   -113.86259800 </i>
   </energy>
  </scstep>
  <scstep>
   <time name="diag">    0.09    0.09</time>
   <time name="diis">    0.17    0.17</time>
   <time name="orth">    0.01    0.01</time>
   <time name="total">    0.27    0.28</time>
   <energy>
    <i name="e_fr_energy">   -116.10305026 </i>
    <i name="e_wo_entrp">   -115.94646137 </i>
    <i name="e_0_energy">   -116.05085396 </i>
   </energy>
  </scstep>
  <scstep>
   <time name="diag">    0.09    0.09</time>
   <time name="diis">    0.17    0.17</time>
   <time name="orth">    0.01    0.01</time>
   <time name="total">    0.27    0.28</time>
   <energy>
    <i name="e_fr_energy">   -116.59373520 </i>
    <i name="e_wo_entrp">   -116.42782462 </i>
    <i name="e_0_energy">   -116.53843168 </i>
   </energy>
  </scstep>
  <scstep>
   <time name="diag">    0.09    0.09</time>
   <time name="diis">    0.17    0.17</time>
   <time name="orth">    0.01    0.01</time>
   <time name="total">    0.27    0.28</time>
   <energy>
    <i name="e_fr_energy">   -116.69861150 </i>
    <i name="e_wo_entrp">   -116.53558270 </i>
    <i name="e_0_energy">   -116.64426857 </i>
   </energy>
  </scstep>
  <scstep>
   <time name="diag">    0.09    0.09</time>
   <time name="diis">    0.17    0.17</time>
   <time name="orth">    0.01    0.01</time>
   <time name="total">    0.27    0.28</time>
   <energy>
    <i name="e_fr_energy">   -116.72314974 </i>
    <i name="e_wo_entrp">   -116.56062039 </i>
    <i name="e_0_energy">   -116.66897329 </i>
   </energy>
  </scstep>
  <scstep>
   <time name="diag">    0.09    0.09</time>
   <time name="diis">    0.36    0.36</time>
   <time name="orth">    0.01    0.01</time>
   <time name="total">    0.46    0.46</time>
   <energy>
    <i name="e_fr_energy">   -116.73112150 </i>
    <i name="e_wo_entrp">   -116.56874322 </i>
    <i name="e_0_energy">   -116.67699541 </i>
   </energy>
  </scstep>
  <scstep>
   <time name="diag">    0.09    0.09</time>
   <time name="diis">    0.36    0.36</time>
   <time name="orth">    0.01    0.01</time>
   <time name="total">    0.46    0.47</time>
   <energy>
    <i name="e_fr_energy">   -116.73200762 </i>
    <i name="e_wo_entrp">   -116.56966233 </i>
    <i name="e_0_energy">   -116.67789252 </i>
   </energy>
  </scstep>
  <scstep>
   <time name="diag">    0.09    0.09</time>
   <time name="diis">    0.31    0.31</time>
   <time name="orth">    0.01    0.01</time>
   <time name="total">    0.40    0.41</time>
   <energy>
    <i name="e_fr_energy">   -116.73203219 </i>
    <i name="e_wo_entrp">   -116.56968789 </i>
    <i name="e_0_energy">   -116.67791742 </i>
   </energy>
  </scstep>
  <scstep>
   <time name="diag">    0.09    0.11</time>
   <time name="diis">    0.26    0.26</time>
   <time name="orth">    0.01    0.01</time>
   <time name="total">    0.49    0.51</time>
   <energy>
    <i name="e_fr_energy">   -116.73203550 </i>
    <i name="e_wo_entrp">   -116.56969134 </i>
    <i name="e_0_energy">   -116.67792078 </i>
   </energy>
  </scstep>
  <scstep>
   <time name="diag">    0.09    0.09</time>
   <time name="diis">    0.31    0.31</time>
   <time name="orth">    0.01    0.01</time>
   <time name="total">    0.59    0.59</time>
   <energy>
    <i name="e_fr_energy">   -115.08215522 </i>
    <i name="e_wo_entrp">   -115.14794218 </i>
    <i name="e_0_energy">   -115.10408420 </i>
   </energy>
  </scstep>
  <scstep>
   <time name="diag">    0.09    0.09</time>
   <time name="diis">    0.30    0.37</time>
   <time name="orth">    0.01    0.01</time>
   <time name="total">    0.59    0.67</time>
   <energy>
    <i name="e_fr_energy">   -114.70676836 </i>
    <i name="e_wo_entrp">   -114.71674074 </i>
    <i name="e_0_energy">   -114.71009248 </i>
   </energy>
  </scstep>
  <scstep>
   <time name="diag">    0.10    0.12</time>
   <time name="diis">    0.30    0.32</time>
   <time name="orth">    0.01    0.01</time>
   <time name="total">    0.58    0.62</time>
   <energy>
    <i name="e_fr_energy">   -114.55945468 </i>
    <i name="e_wo_entrp">   -114.56494371 </i>
    <i name="e_0_energy">   -114.56128435 </i>
   </energy>
  </scstep>
  <scstep>
   <time name="diag">    0.09    0.09</time>
   <time name="diis">    0.31    0.31</time>
   <time name="orth">    0.01    0.01</time>
   <time name="total">    0.58    0.59</time>
   <energy>
    <i name="e_fr_energy">   -114.54398575 </i>
    <i name="e_wo_entrp">   -114.55825903 </i>
    <i name="e_0_energy">   -114.54874351 </i>
   </energy>
  </scstep>
  <scstep>
   <time name="diag">    0.09    0.09</time>
   <time name="diis">    0.31    0.31</time>
   <time name="orth">    0.01    0.01</time>
   <time name="total">    0.58    0.58</time>
   <energy>
    <i name="e_fr_energy">   -114.54330648 </i>
    <i name="e_wo_entrp">   -114.55424897 </i>
    <i name="e_0_energy">   -114.54695398 </i>
   </energy>
  </scstep>
  <scstep>
   <time name="diag">    0.09    0.09</time>
   <time name="diis">    0.23    0.23</time>
   <time name="orth">    0.01    0.01</time>
   <time name="total">    0.40    0.40</time>
   <energy>
    <i name="alphaZ">     -8.27958290 </i>
    <i name="ewald">  -2349.00126995 </i>
    <i name="hartreedc">    -47.30413701 </i>
    <i name="XCdc">   -840.86656777 </i>
    <i name="pawpsdc">   1166.88788320 </i>
    <i name="pawaedc">   -134.35682876 </i>
    <i name="eentropy">      0.01145864 </i>
    <i name="bandstr">    362.15907778 </i>
    <i name="atom">   1736.20668909 </i>
    <i name="e_fr_energy">   -114.54327768 </i>
    <i name="e_wo_entrp">   -114.55473632 </i>
    <i name="e_0_energy">   -114.54709723 </i>
   </energy>
  </scstep>
  <structure>
   <crystal>
    <varray name="basis" >
     <v>       8.08704000       0.00000000       0.00000000 </v>
     <v>       0.00000000       8.08704000       0.00000000 </v>
     <v>       0.00000000       0.00000000       8.08704000 </v>
    </varray>
    <i name="volume">    528.89416249 </i>
    <varray name="rec_basis" >
     <v>       0.12365464       0.00000000       0.00000000 </v>
     <v>       0.00000000       0.12365464       0.00000000 </v>
     <v>       0.00000000       0.00000000       0.12365464 </v>
    </varray>
   </crystal>
   <varray name="positions" >
    <v>       0.00000000       0.00000000       0.02138700 </v>
    <v>       0.22861300       0.00000000       0.25000000 </v>
    <v>       0.24055100       0.24055100       0.00944900 </v>
    <v>       0.00000000       0.22861300       0.25000000 </v>
    <v>       0.50000000       0.00000000       0.02564500 </v>
    <v>       0.77138700       0.00000000       0.25000000 </v>
    <v>       0.75944900       0.24055100       0.00944900 </v>
    <v>       0.50000000       0.22435500       0.25000000 </v>
    <v>       0.00000000       0.50000000       0.02564500 </v>
    <v>       0.22435500       0.50000000       0.25000000 </v>
    <v>       0.24055100       0.75944900       0.00944900 </v>
    <v>       0.00000000       0.77138700       0.25000000 </v>
    <v>       0.50000000       0.50000000       0.08301600 </v>
    <v>       0.77564500       0.50000000       0.25000000 </v>
    <v>       0.75944900       0.75944900       0.00944900 </v>
    <v>       0.50000000       0.77564500       0.25000000 </v>
    <v>       0.00000000       0.00000000       0.47861300 </v>
    <v>       0.22435500       0.00000000       0.75000000 </v>
    <v>       0.24055100       0.24055100       0.49055100 </v>
    <v>       0.00000000       0.22435500       0.75000000 </v>
    <v>       0.50000000       0.00000000       0.47435500 </v>
    <v>       0.77564500       0.00000000       0.75000000 </v>
    <v>       0.75944900       0.24055100       0.49055100 </v>
    <v>       0.50000000       0.16698400       0.75000000 </v>
    <v>       0.00000000       0.50000000       0.47435500 </v>
    <v>       0.16698400       0.50000000       0.75000000 </v>
    <v>       0.24055100       0.75944900       0.49055100 </v>
    <v>       0.00000000       0.77564500       0.75000000 </v>
    <v>       0.50000000       0.50000000       0.41698400 </v>
    <v>       0.83301600       0.50000000       0.75000000 </v>
    <v>       0.75944900       0.75944900       0.49055100 </v>
    <v>       0.50000000       0.83301600       0.75000000 </v>
    <v>       0.50000000       0.50000000       0.75000000 </v>
   </varray>
  </structure>
  <varray name="forces" >
   <v>       0.00000000       0.00000000      -1.23543971 </v>
   <v>       1.23543971       0.00000000       0.00000000 </v>
   <v>       0.54203407       0.54203407      -0.54203407 </v>
   <v>       0.00000000       1.23543971       0.00000000 </v>
   <v>       0.00000000       0.00000000      -0.32987348 </v>
   <v>      -1.23543971       0.00000000       0.00000000 </v>
   <v>      -0.54203407       0.54203407      -0.54203407 </v>
   <v>       0.00000000       0.32987348       0.00000000 </v>
   <v>       0.00000000       0.00000000      -0.32987348 </v>
   <v>       0.32987348       0.00000000       0.00000000 </v>
   <v>       0.54203407      -0.54203407      -0.54203407 </v>
   <v>       0.00000000      -1.23543971       0.00000000 </v>
   <v>       0.00000000       0.00000000      -0.85577772 </v>
   <v>      -0.32987348       0.00000000       0.00000000 </v>
   <v>      -0.54203407      -0.54203407      -0.54203407 </v>
   <v>       0.00000000      -0.32987348       0.00000000 </v>
   <v>       0.00000000       0.00000000       1.23543971 </v>
   <v>       0.32987348       0.00000000       0.00000000 </v>
   <v>       0.54203407       0.54203407       0.54203407 </v>
   <v>       0.00000000       0.32987348       0.00000000 </v>
   <v>       0.00000000       0.00000000       0.32987348 </v>
   <v>      -0.32987348       0.00000000       0.00000000 </v>
   <v>      -0.54203407       0.54203407       0.54203407 </v>
   <v>       0.00000000       0.85577772       0.00000000 </v>
   <v>       0.00000000       0.00000000       0.32987348 </v>
   <v>       0.85577772       0.00000000       0.00000000 </v>
   <v>       0.54203407      -0.54203407       0.54203407 </v>
   <v>       0.00000000      -0.32987348       0.00000000 </v>
   <v>       0.00000000       0.00000000       0.85577772 </v>
   <v>      -0.85577772       0.00000000       0.00000000 </v>
   <v>      -0.54203407      -0.54203407       0.54203407 </v>
   <v>       0.00000000      -0.85577772       0.00000000 </v>
   <v>       0.00000000       0.00000000       0.00000000 </v>
  </varray>
  <varray name="stress" >
   <v>      84.27103569       0.00000000       0.00000000 </v>
   <v>       0.00000000      84.27103569       0.00000000 </v>
   <v>       0.00000000       0.00000000      84.27103569 </v>
  </varray>
  <energy>
   <i name="e_fr_energy">   -114.54327768 </i>
   <i name="e_wo_entrp">   -114.54709723 </i>
   <i name="e_0_energy">      0.01145864 </i>
  </energy>
  <time name="totalsc">    8.20    8.44</time>
 </calculation>
 <calculation>
  <scstep>
   <time name="diag">    0.09    0.09</time>
   <time name="diis">    0.31    0.31</time>
   <time name="orth">    0.01    0.01</time>
   <time name="total">    0.58    0.59</time>
   <energy>
    <i name="alphaZ">     -8.27958290 </i>
    <i name="ewald">  -2364.81803282 </i>
    <i name="hartreedc">    -35.46308546 </i>
    <i name="XCdc">   -841.06865168 </i>
    <i name="pawpsdc">   1166.87073826 </i>
    <i name="pawaedc">   -134.34098267 </i>
    <i name="eentropy">      0.06557685 </i>
    <i name="bandstr">    365.31122186 </i>
    <i name="atom">   1736.20668909 </i>
    <i name="e_fr_energy">   -115.51610947 </i>
    <i name="e_wo_entrp">   -115.58168632 </i>
    <i name="e_0_energy">   -115.53796842 </i>
   </energy>
  </scstep>
  <scstep>
   <time name="diag">    0.09    0.09</time>
   <time name="diis">    0.31    0.31</time>
   <time name="orth">    0.01    0.01</time>
   <time name="total">    0.58    0.58</time>
   <energy>
    <i name="e_fr_energy">   -115.41195412 </i>
    <i name="e_wo_entrp">   -115.47318882 </i>
    <i name="e_0_energy">   -115.43236568 </i>
   </energy>
  </scstep>
  <scstep>
   <time name="diag">    0.09    0.09</time>
   <time name="diis">    0.35    0.35</time>
   <time name="orth">    0.01    0.01</time>
   <time name="total">    0.62    0.62</time>
   <energy>
    <i name="e_fr_energy">   -115.40691872 </i>
    <i name="e_wo_entrp">   -115.47013481 </i>
    <i name="e_0_energy">   -115.42799075 </i>
   </energy>
  </scstep>
  <scstep>
   <time name="diag">    0.09    0.09</time>
   <time name="diis">    0.31    0.31</time>
   <time name="orth">    0.01    0.01</time>
   <time name="total">    0.58    0.59</time>
   <energy>
    <i name="e_fr_energy">   -115.40654157 </i>
    <i name="e_wo_entrp">   -115.46882346 </i>
    <i name="e_0_energy">   -115.42730220 </i>
   </energy>
  </scstep>
  <scstep>
   <time name="diag">    0.09    0.09</time>
   <time name="diis">    0.23    0.23</time>
   <time name="orth">    0.01    0.01</time>
   <time name="total">    0.40    0.40</time>
   <energy>
    <i name="alphaZ">     -8.27958290 </i>
    <i name="ewald">  -2364.81803282 </i>
    <i name="hartreedc">    -34.54347615 </i>
    <i name="XCdc">   -841.13811214 </i>
    <i name="pawpsdc">   1165.11305164 </i>
    <i name="pawaedc">   -132.50790343 </i>
    <i name="eentropy">      0.06176720 </i>
    <i name="bandstr">    364.49909024 </i>
    <i name="atom">   1736.20668909 </i>
    <i name="e_fr_energy">   -115.40650927 </i>
    <i name="e_wo_entrp">   -115.46827647 </i>
    <i name="e_0_energy">   -115.42709833 </i>
   </energy>
  </scstep>
  <structure>
   <crystal>
    <varray name="basis" >
     <v>       8.08704000       0.00000000       0.00000000 </v>
     <v>       0.00000000       8.08704000       0.00000000 </v>
     <v>       0.00000000       0.00000000       8.08704000 </v>
    </varray>
    <i name="volume">    528.89416249 </i>
    <varray name="rec_basis" >
     <v>       0.12365464       0.00000000       0.00000000 </v>
     <v>       0.00000000       0.12365464       0.00000000 </v>
     <v>       0.00000000       0.00000000       0.12365464 </v>
    </varray>
   </crystal>
   <varray name="positions" >
    <v>       0.00000000       0.00000000       0.01401707 </v>
    <v>       0.23598293       0.00000000       0.25000000 </v>
    <v>       0.24378447       0.24378447       0.00621553 </v>
    <v>       0.00000000       0.23598293       0.25000000 </v>
    <v>       0.50000000       0.00000000       0.02367716 </v>
    <v>       0.76401707       0.00000000       0.25000000 </v>
    <v>       0.75621553       0.24378447       0.00621553 </v>
    <v>       0.50000000       0.22632284       0.25000000 </v>
    <v>       0.00000000       0.50000000       0.02367716 </v>
    <v>       0.22632284       0.50000000       0.25000000 </v>
    <v>       0.24378447       0.75621553       0.00621553 </v>
    <v>       0.00000000       0.76401707       0.25000000 </v>
    <v>       0.50000000       0.50000000       0.07791092 </v>
    <v>       0.77367716       0.50000000       0.25000000 </v>
    <v>       0.75621553       0.75621553       0.00621553 </v>
    <v>       0.50000000       0.77367716       0.25000000 </v>
    <v>       0.00000000       0.00000000       0.48598293 </v>
    <v>       0.22632284       0.00000000       0.75000000 </v>
    <v>       0.24378447       0.24378447       0.49378447 </v>
    <v>       0.00000000       0.22632284       0.75000000 </v>
    <v>       0.50000000       0.00000000       0.47632284 </v>
    <v>       0.77367716       0.00000000       0.75000000 </v>
    <v>       0.75621553       0.24378447       0.49378447 </v>
    <v>       0.50000000       0.17208908       0.75000000 </v>
    <v>       0.00000000       0.50000000       0.47632284 </v>
    <v>       0.17208908       0.50000000       0.75000000 </v>
    <v>       0.24378447       0.75621553       0.49378447 </v>
    <v>       0.00000000       0.77367716       0.75000000 </v>
    <v>       0.50000000       0.50000000       0.42208908 </v>
    <v>       0.82791092       0.50000000       0.75000000 </v>
    <v>       0.75621553       0.75621553       0.49378447 </v>
    <v>       0.50000000       0.82791092       0.75000000 </v>
    <v>       0.50000000       0.50000000       0.75000000 </v>
   </varray>
  </structure>
  <varray name="forces" >
   <v>       0.00000000       0.00000000      -0.57196839 </v>
   <v>       0.57196839       0.00000000       0.00000000 </v>
   <v>       0.45859264       0.45859264      -0.45859264 </v>
   <v>       0.00000000       0.57196839       0.00000000 </v>
   <v>       0.00000000       0.00000000      -0.33605721 </v>
   <v>      -0.57196839       0.00000000       0.00000000 </v>
   <v>      -0.45859264       0.45859264      -0.45859264 </v>
   <v>       0.00000000       0.33605721       0.00000000 </v>
   <v>       0.00000000       0.00000000      -0.33605721 </v>
   <v>       0.33605721       0.00000000       0.00000000 </v>
   <v>       0.45859264      -0.45859264      -0.45859264 </v>
   <v>       0.00000000      -0.57196839       0.00000000 </v>
   <v>       0.00000000       0.00000000      -0.48488799 </v>
   <v>      -0.33605721       0.00000000       0.00000000 </v>
   <v>      -0.45859264      -0.45859264      -0.45859264 </v>
   <v>       0.00000000      -0.33605721       0.00000000 </v>
   <v>       0.00000000       0.00000000       0.57196839 </v>
   <v>       0.33605721       0.00000000       0.00000000 </v>
   <v>       0.45859264       0.45859264       0.45859264 </v>
   <v>       0.00000000       0.33605721       0.00000000 </v>
   <v>       0.00000000       0.00000000       0.33605721 </v>
   <v>      -0.33605721       0.00000000       0.00000000 </v>
   <v>      -0.45859264       0.45859264       0.45859264 </v>
   <v>       0.00000000       0.48488799       0.00000000 </v>
   <v>       0.00000000       0.00000000       0.33605721 </v>
   <v>       0.48488799       0.00000000       0.00000000 </v>
   <v>       0.45859264      -0.45859264       0.45859264 </v>
   <v>       0.00000000      -0.33605721       0.00000000 </v>
   <v>       0.00000000       0.00000000       0.48488799 </v>
   <v>      -0.48488799       0.00000000       0.00000000 </v>
   <v>      -0.45859264      -0.45859264       0.45859264 </v>
   <v>       0.00000000      -0.48488799       0.00000000 </v>
   <v>       0.00000000       0.00000000       0.00000000 </v>
  </varray>
  <varray name="stress" >
   <v>      73.84396850       0.00000000       0.00000000 </v>
   <v>       0.00000000      73.84396850       0.00000000 </v>
   <v>       0.00000000       0.00000000      73.84396850 </v>
  </varray>
  <energy>
   <i name="e_fr_energy">   -115.40650927 </i>
   <i name="e_wo_entrp">   -115.42709833 </i>
   <i name="e_0_energy">      0.06176720 </i>
  </energy>
  <time name="totalsc">    3.58    3.71</time>
 </calculation>
 <calculation>
  <scstep>
   <time name="diag">    0.09    0.09</time>
   <time name="diis">    0.32    0.32</time>
   <time name="orth">    0.01    0.01</time>
   <time name="total">    0.58    0.59</time>
   <energy>
    <i name="alphaZ">     -8.27958290 </i>
    <i name="ewald">  -2384.49403878 </i>
    <i name="hartreedc">    -18.88950592 </i>
    <i name="XCdc">   -841.43781735 </i>
    <i name="pawpsdc">   1165.08237925 </i>
    <i name="pawaedc">   -132.47578879 </i>
    <i name="eentropy">     -0.02302050 </i>
    <i name="bandstr">    367.98374087 </i>
    <i name="atom">   1736.20668909 </i>
    <i name="e_fr_energy">   -116.32694503 </i>
    <i name="e_wo_entrp">   -116.30392453 </i>
    <i name="e_0_energy">   -116.31927153 </i>
   </energy>
  </scstep>
  <scstep>
   <time name="diag">    0.09    0.09</time>
   <time name="diis">    0.31    0.31</time>
   <time name="orth">    0.01    0.01</time>
   <time name="total">    0.58    0.58</time>
   <energy>
    <i name="e_fr_energy">   -116.06833470 </i>
    <i name="e_wo_entrp">   -116.07294067 </i>
    <i name="e_0_energy">   -116.06987002 </i>
   </energy>
  </scstep>
  <scstep>
   <time name="diag">    0.09    0.09</time>
   <time name="diis">    0.35    0.35</time>
   <time name="orth">    0.01    0.01</time>
   <time name="total">    0.61    0.62</time>
   <energy>
    <i name="e_fr_energy">   -116.06275336 </i>
    <i name="e_wo_entrp">   -116.06734886 </i>
    <i name="e_0_energy">   -116.06428519 </i>
   </energy>
  </scstep>
  <scstep>
   <time name="diag">    0.09    0.09</time>
   <time name="diis">    0.31    0.31</time>
   <time name="orth">    0.01    0.01</time>
   <time name="total">    0.58    0.58</time>
   <energy>
    <i name="e_fr_energy">   -116.06218537 </i>
    <i name="e_wo_entrp">   -116.06791383 </i>
    <i name="e_0_energy">   -116.06409486 </i>
   </energy>
  </scstep>
  <scstep>
   <time name="diag">    0.09    0.09</time>
   <time name="diis">    0.29    0.29</time>
   <time name="orth">    0.01    0.01</time>
   <time name="total">    0.45    0.46</time>
   <energy>
    <i name="alphaZ">     -8.27958290 </i>
    <i name="ewald">  -2384.49403878 </i>
    <i name="hartreedc">    -18.33074347 </i>
    <i name="XCdc">   -841.50824651 </i>
    <i name="pawpsdc">   1163.19808410 </i>
    <i name="pawaedc">   -130.51696345 </i>
    <i name="eentropy">      0.00638048 </i>
    <i name="bandstr">    367.65619868 </i>
    <i name="atom">   1736.20668909 </i>
    <i name="e_fr_energy">   -116.06222275 </i>
    <i name="e_wo_entrp">   -116.06860323 </i>
    <i name="e_0_energy">   -116.06434958 </i>
   </energy>
  </scstep>
  <structure>
   <crystal>
    <varray name="basis" >
     <v>       8.08704000       0.00000000       0.00000000 </v>
     <v>       0.00000000       8.08704000       0.00000000 </v>
     <v>       0.00000000       0.00000000       8.08704000 </v>
    </varray>
    <i name="volume">    528.89416249 </i>
    <varray name="rec_basis" >
     <v>       0.12365464       0.00000000       0.00000000 </v>
     <v>       0.00000000       0.12365464       0.00000000 </v>
     <v>       0.00000000       0.00000000       0.12365464 </v>
    </varray>
   </crystal>
   <varray name="positions" >
    <v>       0.00000000       0.00000000      -0.00192570 </v>
    <v>       0.25192570       0.00000000       0.25000000 </v>
    <v>       0.25077916       0.25077916      -0.00077916 </v>
    <v>       0.00000000       0.25192570       0.25000000 </v>
    <v>       0.50000000       0.00000000       0.01942030 </v>
    <v>       0.74807430       0.00000000       0.25000000 </v>
    <v>       0.74922084       0.25077916      -0.00077916 </v>
    <v>       0.50000000       0.23057970       0.25000000 </v>
    <v>       0.00000000       0.50000000       0.01942030 </v>
    <v>       0.23057970       0.50000000       0.25000000 </v>
    <v>       0.25077916       0.74922084      -0.00077916 </v>
    <v>       0.00000000       0.74807430       0.25000000 </v>
    <v>       0.50000000       0.50000000       0.06686751 </v>
    <v>       0.76942030       0.50000000       0.25000000 </v>
    <v>       0.74922084       0.74922084      -0.00077916 </v>
    <v>       0.50000000       0.76942030       0.25000000 </v>
    <v>       0.00000000       0.00000000       0.50192570 </v>
    <v>       0.23057970       0.00000000       0.75000000 </v>
    <v>       0.25077916       0.25077916       0.50077916 </v>
    <v>       0.00000000       0.23057970       0.75000000 </v>
    <v>       0.50000000       0.00000000       0.48057970 </v>
    <v>       0.76942030       0.00000000       0.75000000 </v>
    <v>       0.74922084       0.25077916       0.50077916 </v>
    <v>       0.50000000       0.18313249       0.75000000 </v>
    <v>       0.00000000       0.50000000       0.48057970 </v>
    <v>       0.18313249       0.50000000       0.75000000 </v>
    <v>       0.25077916       0.74922084       0.50077916 </v>
    <v>       0.00000000       0.76942030       0.75000000 </v>
    <v>       0.50000000       0.50000000       0.43313249 </v>
    <v>       0.81686751       0.50000000       0.75000000 </v>
    <v>       0.74922084       0.74922084       0.50077916 </v>
    <v>       0.50000000       0.81686751       0.75000000 </v>
    <v>       0.50000000       0.50000000       0.75000000 </v>
   </varray>
  </structure>
  <varray name="forces" >
   <v>       0.00000000       0.00000000       0.53015587 </v>
   <v>      -0.53015587       0.00000000       0.00000000 </v>
   <v>       0.17268850       0.17268850      -0.17268850 </v>
   <v>       0.00000000      -0.53015587       0.00000000 </v>
   <v>       0.00000000       0.00000000      -0.33545858 </v>
   <v>       0.53015587       0.00000000       0.00000000 </v>
   <v>      -0.17268850       0.17268850      -0.17268850 </v>
   <v>       0.00000000       0.33545858       0.00000000 </v>
   <v>       0.00000000       0.00000000      -0.33545858 </v>
   <v>       0.33545858       0.00000000       0.00000000 </v>
   <v>       0.17268850      -0.17268850      -0.17268850 </v>
   <v>       0.00000000       0.53015587       0.00000000 </v>
   <v>       0.00000000       0.00000000       0.19118980 </v>
   <v>      -0.33545858       0.00000000       0.00000000 </v>
   <v>      -0.17268850      -0.17268850      -0.17268850 </v>
   <v>       0.00000000      -0.33545858       0.00000000 </v>
   <v>       0.00000000       0.00000000      -0.53015587 </v>
   <v>       0.33545858       0.00000000       0.00000000 </v>
   <v>       0.17268850       0.17268850       0.17268850 </v>
   <v>       0.00000000       0.33545858       0.00000000 </v>
   <v>       0.00000000       0.00000000       0.33545858 </v>
   <v>      -0.33545858       0.00000000       0.00000000 </v>
   <v>      -0.17268850       0.17268850       0.17268850 </v>
   <v>       0.00000000      -0.19118980       0.00000000 </v>
   <v>       0.00000000       0.00000000       0.33545858 </v>
   <v>      -0.19118980       0.00000000       0.00000000 </v>
   <v>       0.17268850      -0.17268850       0.17268850 </v>
   <v>       0.00000000      -0.33545858       0.00000000 </v>
   <v>       0.00000000       0.00000000      -0.19118980 </v>
   <v>       0.19118980       0.00000000       0.00000000 </v>
   <v>      -0.17268850      -0.17268850       0.17268850 </v>
   <v>       0.00000000       0.19118980       0.00000000 </v>
   <v>       0.00000000       0.00000000       0.00000000 </v>
  </varray>
  <varray name="stress" >
   <v>      63.10871559       0.00000000       0.00000000 </v>
   <v>       0.00000000      63.10871559       0.00000000 </v>
   <v>       0.00000000       0.00000000      63.10871559 </v>
  </varray>
  <energy>
   <i name="e_fr_energy">   -116.06222275 </i>
   <i name="e_wo_entrp">   -116.06434958 </i>
   <i name="e_0_energy">      0.00638048 </i>
  </energy>
  <time name="totalsc">    3.60    3.64</time>
 </calculation>
 <calculation>
  <scstep>
   <time name="diag">    0.09    0.09</time>
   <time name="diis">    0.31    0.31</time>
   <time name="orth">    0.01    0.01</time>
   <time name="total">    0.58    0.59</time>
   <energy>
    <i name="alphaZ">     -8.27958290 </i>
    <i name="ewald">  -2387.34829237 </i>
    <i name="hartreedc">    -16.09932328 </i>
    <i name="XCdc">   -841.54196070 </i>
    <i name="pawpsdc">   1163.19414729 </i>
    <i name="pawaedc">   -130.51238791 </i>
    <i name="eentropy">     -0.02772604 </i>
    <i name="bandstr">    368.15732456 </i>
    <i name="atom">   1736.20668909 </i>
    <i name="e_fr_energy">   -116.25111227 </i>
    <i name="e_wo_entrp">   -116.22338623 </i>
    <i name="e_0_energy">   -116.24187026 </i>
   </energy>
  </scstep>
  <scstep>
   <time name="diag">    0.09    0.09</time>
   <time name="diis">    0.35    0.35</time>
   <time name="orth">    0.01    0.01</time>
   <time name="total">    0.61    0.62</time>
   <energy>
    <i name="e_fr_energy">   -116.21356055 </i>
    <i name="e_wo_entrp">   -116.19476021 </i>
    <i name="e_0_energy">   -116.20729377 </i>
   </energy>
  </scstep>
  <scstep>
   <time name="diag">    0.09    0.09</time>
   <time name="diis">    0.31    0.31</time>
   <time name="orth">    0.01    0.01</time>
   <time name="total">    0.57    0.58</time>
   <energy>
    <i name="e_fr_energy">   -116.21278701 </i>
    <i name="e_wo_entrp">   -116.19494761 </i>
    <i name="e_0_energy">   -116.20684054 </i>
   </energy>
  </scstep>
  <scstep>
   <time name="diag">    0.09    0.09</time>
   <time name="diis">    0.26    0.26</time>
   <time name="orth">    0.01    0.01</time>
   <time name="total">    0.43    0.43</time>
   <energy>
    <i name="alphaZ">     -8.27958290 </i>
    <i name="ewald">  -2387.34829237 </i>
    <i name="hartreedc">    -16.05580711 </i>
    <i name="XCdc">   -841.55269910 </i>
    <i name="pawpsdc">   1162.99198979 </i>
    <i name="pawaedc">   -130.29996759 </i>
    <i name="eentropy">     -0.01755941 </i>
    <i name="bandstr">    368.14243770 </i>
    <i name="atom">   1736.20668909 </i>
    <i name="e_fr_energy">   -116.21279191 </i>
    <i name="e_wo_entrp">   -116.19523250 </i>
    <i name="e_0_energy">   -116.20693877 </i>
   </energy>
  </scstep>
  <structure>
   <crystal>
    <varray name="basis" >
     <v>       8.08704000       0.00000000       0.00000000 </v>
     <v>       0.00000000       8.08704000       0.00000000 </v>
     <v>       0.00000000       0.00000000       8.08704000 </v>
    </varray>
    <i name="volume">    528.89416249 </i>
    <varray name="rec_basis" >
     <v>       0.12365464       0.00000000       0.00000000 </v>
     <v>       0.00000000       0.12365464       0.00000000 </v>
     <v>       0.00000000       0.00000000       0.12365464 </v>
    </varray>
   </crystal>
   <varray name="positions" >
    <v>       0.00000000       0.00000000       0.00004667 </v>
    <v>       0.24995333       0.00000000       0.25000000 </v>
    <v>       0.25337754       0.25337754      -0.00337754 </v>
    <v>       0.00000000       0.24995333       0.25000000 </v>
    <v>       0.50000000       0.00000000       0.01587021 </v>
    <v>       0.75004667       0.00000000       0.25000000 </v>
    <v>       0.74662246       0.25337754      -0.00337754 </v>
    <v>       0.50000000       0.23412979       0.25000000 </v>
    <v>       0.00000000       0.50000000       0.01587021 </v>
    <v>       0.23412979       0.50000000       0.25000000 </v>
    <v>       0.25337754       0.74662246      -0.00337754 </v>
    <v>       0.00000000       0.75004667       0.25000000 </v>
    <v>       0.50000000       0.50000000       0.06672921 </v>
    <v>       0.76587021       0.50000000       0.25000000 </v>
    <v>       0.74662246       0.74662246      -0.00337754 </v>
    <v>       0.50000000       0.76587021       0.25000000 </v>
    <v>       0.00000000       0.00000000       0.49995333 </v>
    <v>       0.23412979       0.00000000       0.75000000 </v>
    <v>       0.25337754       0.25337754       0.50337754 </v>
    <v>       0.00000000       0.23412979       0.75000000 </v>
    <v>       0.50000000       0.00000000       0.48412979 </v>
    <v>       0.76587021       0.00000000       0.75000000 </v>
    <v>       0.74662246       0.25337754       0.50337754 </v>
    <v>       0.50000000       0.18327079       0.75000000 </v>
    <v>       0.00000000       0.50000000       0.48412979 </v>
    <v>       0.18327079       0.50000000       0.75000000 </v>
    <v>       0.25337754       0.74662246       0.50337754 </v>
    <v>       0.00000000       0.76587021       0.75000000 </v>
    <v>       0.50000000       0.50000000       0.43327079 </v>
    <v>       0.81672921       0.50000000       0.75000000 </v>
    <v>       0.74662246       0.74662246       0.50337754 </v>
    <v>       0.50000000       0.81672921       0.75000000 </v>
    <v>       0.50000000       0.50000000       0.75000000 </v>
   </varray>
  </structure>
  <varray name="forces" >
   <v>       0.00000000       0.00000000       0.33213881 </v>
   <v>      -0.33213881       0.00000000       0.00000000 </v>
   <v>       0.07021999       0.07021999      -0.07021999 </v>
   <v>       0.00000000      -0.33213881       0.00000000 </v>
   <v>       0.00000000       0.00000000       0.04460794 </v>
   <v>       0.33213881       0.00000000       0.00000000 </v>
   <v>      -0.07021999       0.07021999      -0.07021999 </v>
   <v>       0.00000000      -0.04460794       0.00000000 </v>
   <v>       0.00000000       0.00000000       0.04460794 </v>
   <v>      -0.04460794       0.00000000       0.00000000 </v>
   <v>       0.07021999      -0.07021999      -0.07021999 </v>
   <v>       0.00000000       0.33213881       0.00000000 </v>
   <v>       0.00000000       0.00000000       0.07831472 </v>
   <v>       0.04460794       0.00000000       0.00000000 </v>
   <v>      -0.07021999      -0.07021999      -0.07021999 </v>
   <v>       0.00000000       0.04460794       0.00000000 </v>
   <v>       0.00000000       0.00000000      -0.33213881 </v>
   <v>      -0.04460794       0.00000000       0.00000000 </v>
   <v>       0.07021999       0.07021999       0.07021999 </v>
   <v>       0.00000000      -0.04460794       0.00000000 </v>
   <v>       0.00000000       0.00000000      -0.04460794 </v>
   <v>       0.04460794       0.00000000       0.00000000 </v>
   <v>      -0.07021999       0.07021999       0.07021999 </v>
   <v>       0.00000000      -0.07831472       0.00000000 </v>
   <v>       0.00000000       0.00000000      -0.04460794 </v>
   <v>      -0.07831472       0.00000000       0.00000000 </v>
   <v>       0.07021999      -0.07021999       0.07021999 </v>
   <v>       0.00000000       0.04460794       0.00000000 </v>
   <v>       0.00000000       0.00000000      -0.07831472 </v>
   <v>       0.07831472       0.00000000       0.00000000 </v>
   <v>      -0.07021999      -0.07021999       0.07021999 </v>
   <v>       0.00000000       0.07831472       0.00000000 </v>
   <v>       0.00000000       0.00000000       0.00000000 </v>
  </varray>
  <varray name="stress" >
   <v>      61.20522465       0.00000000       0.00000000 </v>
   <v>       0.00000000      61.20522465       0.00000000 </v>
   <v>       0.00000000       0.00000000      61.20522465 </v>
  </varray>
  <energy>
   <i name="e_fr_energy">   -116.21279191 </i>
   <i name="e_wo_entrp">   -116.20693877 </i>
   <i name="e_0_energy">     -0.01755941 </i>
  </energy>
  <time name="totalsc">    2.99    3.03</time>
 </calculation>
 <calculation>
  <scstep>
   <time name="diag">    0.09    0.09</time>
   <time name="diis">    0.31    0.31</time>
   <time name="orth">    0.01    0.01</time>
   <time name="total">    0.58    0.59</time>
   <energy>
    <i name="alphaZ">     -8.27958290 </i>
    <i name="ewald">  -2387.79725893 </i>
    <i name="hartreedc">    -15.67107615 </i>
    <i name="XCdc">   -841.56022670 </i>
    <i name="pawpsdc">   1162.95306124 </i>
    <i name="pawaedc">   -130.25908493 </i>
    <i name="eentropy">     -0.02514888 </i>
    <i name="bandstr">    368.21005543 </i>
    <i name="atom">   1736.20668909 </i>
    <i name="e_fr_energy">   -116.22257274 </i>
    <i name="e_wo_entrp">   -116.19742386 </i>
    <i name="e_0_energy">   -116.21418978 </i>
   </energy>
  </scstep>
  <scstep>
   <time name="diag">    0.09    0.09</time>
   <time name="diis">    0.31    0.31</time>
   <time name="orth">    0.01    0.01</time>
   <time name="total">    0.58    0.58</time>
   <energy>
    <i name="e_fr_energy">   -116.21978571 </i>
    <i name="e_wo_entrp">   -116.19689707 </i>
    <i name="e_0_energy">   -116.21215616 </i>
   </energy>
  </scstep>
  <scstep>
   <time name="diag">    0.09    0.09</time>
   <time name="diis">    0.27    0.27</time>
   <time name="orth">    0.01    0.01</time>
   <time name="total">    0.44    0.44</time>
   <energy>
    <i name="alphaZ">     -8.27958290 </i>
    <i name="ewald">  -2387.79725893 </i>
    <i name="hartreedc">    -15.67409779 </i>
    <i name="XCdc">   -841.56042557 </i>
    <i name="pawpsdc">   1162.94085692 </i>
    <i name="pawaedc">   -130.24607570 </i>
    <i name="eentropy">     -0.02259811 </i>
    <i name="bandstr">    368.21276675 </i>
    <i name="atom">   1736.20668909 </i>
    <i name="e_fr_energy">   -116.21972625 </i>
    <i name="e_wo_entrp">   -116.19712813 </i>
    <i name="e_0_energy">   -116.21219354 </i>
   </energy>
  </scstep>
  <structure>
   <crystal>
    <varray name="basis" >
     <v>       8.08704000       0.00000000       0.00000000 </v>
     <v>       0.00000000       8.08704000       0.00000000 </v>
     <v>       0.00000000       0.00000000       8.08704000 </v>
    </varray>
    <i name="volume">    528.89416249 </i>
    <varray name="rec_basis" >
     <v>       0.12365464       0.00000000       0.00000000 </v>
     <v>       0.00000000       0.12365464       0.00000000 </v>
     <v>       0.00000000       0.00000000       0.12365464 </v>
    </varray>
   </crystal>
   <varray name="positions" >
    <v>       0.00000000       0.00000000       0.00057337 </v>
    <v>       0.24942663       0.00000000       0.25000000 </v>
    <v>       0.25407140       0.25407140      -0.00407140 </v>
    <v>       0.00000000       0.24942663       0.25000000 </v>
    <v>       0.50000000       0.00000000       0.01492220 </v>
    <v>       0.75057337       0.00000000       0.25000000 </v>
    <v>       0.74592860       0.25407140      -0.00407140 </v>
    <v>       0.50000000       0.23507780       0.25000000 </v>
    <v>       0.00000000       0.50000000       0.01492220 </v>
    <v>       0.23507780       0.50000000       0.25000000 </v>
    <v>       0.25407140       0.74592860      -0.00407140 </v>
    <v>       0.00000000       0.75057337       0.25000000 </v>
    <v>       0.50000000       0.50000000       0.06669228 </v>
    <v>       0.76492220       0.50000000       0.25000000 </v>
    <v>       0.74592860       0.74592860      -0.00407140 </v>
    <v>       0.50000000       0.76492220       0.25000000 </v>
    <v>       0.00000000       0.00000000       0.49942663 </v>
    <v>       0.23507780       0.00000000       0.75000000 </v>
    <v>       0.25407140       0.25407140       0.50407140 </v>
    <v>       0.00000000       0.23507780       0.75000000 </v>
    <v>       0.50000000       0.00000000       0.48507780 </v>
    <v>       0.76492220       0.00000000       0.75000000 </v>
    <v>       0.74592860       0.25407140       0.50407140 </v>
    <v>       0.50000000       0.18330772       0.75000000 </v>
    <v>       0.00000000       0.50000000       0.48507780 </v>
    <v>       0.18330772       0.50000000       0.75000000 </v>
    <v>       0.25407140       0.74592860       0.50407140 </v>
    <v>       0.00000000       0.76492220       0.75000000 </v>
    <v>       0.50000000       0.50000000       0.43330772 </v>
    <v>       0.81669228       0.50000000       0.75000000 </v>
    <v>       0.74592860       0.74592860       0.50407140 </v>
    <v>       0.50000000       0.81669228       0.75000000 </v>
    <v>       0.50000000       0.50000000       0.75000000 </v>
   </varray>
  </structure>
  <varray name="forces" >
   <v>       0.00000000       0.00000000       0.28480947 </v>
   <v>      -0.28480947       0.00000000       0.00000000 </v>
   <v>       0.04330739       0.04330739      -0.04330739 </v>
   <v>       0.00000000      -0.28480947       0.00000000 </v>
   <v>       0.00000000       0.00000000       0.13991365 </v>
   <v>       0.28480947       0.00000000       0.00000000 </v>
   <v>      -0.04330739       0.04330739      -0.04330739 </v>
   <v>       0.00000000      -0.13991365       0.00000000 </v>
   <v>       0.00000000       0.00000000       0.13991365 </v>
   <v>      -0.13991365       0.00000000       0.00000000 </v>
   <v>       0.04330739      -0.04330739      -0.04330739 </v>
   <v>       0.00000000       0.28480947       0.00000000 </v>
   <v>       0.00000000       0.00000000       0.04736168 </v>
   <v>       0.13991365       0.00000000       0.00000000 </v>
   <v>      -0.04330739      -0.04330739      -0.04330739 </v>
   <v>       0.00000000       0.13991365       0.00000000 </v>
   <v>       0.00000000       0.00000000      -0.28480947 </v>
   <v>      -0.13991365       0.00000000       0.00000000 </v>
   <v>       0.04330739       0.04330739       0.04330739 </v>
   <v>       0.00000000      -0.13991365       0.00000000 </v>
   <v>       0.00000000       0.00000000      -0.13991365 </v>
   <v>       0.13991365       0.00000000       0.00000000 </v>
   <v>      -0.04330739       0.04330739       0.04330739 </v>
   <v>       0.00000000      -0.04736168       0.00000000 </v>
   <v>       0.00000000       0.00000000      -0.13991365 </v>
   <v>      -0.04736168       0.00000000       0.00000000 </v>
   <v>       0.04330739      -0.04330739       0.04330739 </v>
   <v>       0.00000000       0.13991365       0.00000000 </v>
   <v>       0.00000000       0.00000000      -0.04736168 </v>
   <v>       0.04736168       0.00000000       0.00000000 </v>
   <v>      -0.04330739      -0.04330739       0.04330739 </v>
   <v>       0.00000000       0.04736168       0.00000000 </v>
   <v>       0.00000000       0.00000000       0.00000000 </v>
  </varray>
  <varray name="stress" >
   <v>      60.95266683       0.00000000       0.00000000 </v>
   <v>       0.00000000      60.95266683       0.00000000 </v>
   <v>       0.00000000       0.00000000      60.95266683 </v>
  </varray>
  <energy>
   <i name="e_fr_energy">   -116.21972625 </i>
   <i name="e_wo_entrp">   -116.21219354 </i>
   <i name="e_0_energy">     -0.02259811 </i>
  </energy>
  <time name="totalsc">    2.39    2.41</time>
 </calculation>
 <calculation>
  <scstep>
   <time name="diag">    0.09    0.09</time>
   <time name="diis">    0.31    0.31</time>
   <time name="orth">    0.01    0.01</time>
   <time name="total">    0.58    0.59</time>
   <energy>
    <i name="alphaZ">     -8.27958290 </i>
    <i name="ewald">  -2388.22383899 </i>
    <i name="hartreedc">    -15.40475138 </i>
    <i name="XCdc">   -841.56780860 </i>
    <i name="pawpsdc">   1162.93390478 </i>
    <i name="pawaedc">   -130.23878672 </i>
    <i name="eentropy">     -0.01539227 </i>
    <i name="bandstr">    368.32543163 </i>
    <i name="atom">   1736.20668909 </i>
    <i name="e_fr_energy">   -116.26413536 </i>
    <i name="e_wo_entrp">   -116.24874309 </i>
    <i name="e_0_energy">   -116.25900460 </i>
   </energy>
  </scstep>
  <scstep>
   <time name="diag">    0.09    0.09</time>
   <time name="diis">    0.31    0.31</time>
   <time name="orth">    0.01    0.01</time>
   <time name="total">    0.58    0.58</time>
   <energy>
    <i name="e_fr_energy">   -116.26224068 </i>
    <i name="e_wo_entrp">   -116.24608520 </i>
    <i name="e_0_energy">   -116.25685552 </i>
   </energy>
  </scstep>
  <scstep>
   <time name="diag">    0.09    0.09</time>
   <time name="diis">    0.30    0.30</time>
   <time name="orth">    0.01    0.01</time>
   <time name="total">    0.57    0.57</time>
   <energy>
    <i name="e_fr_energy">   -116.26206947 </i>
    <i name="e_wo_entrp">   -116.24582971 </i>
    <i name="e_0_energy">   -116.25665622 </i>
   </energy>
  </scstep>
  <scstep>
   <time name="diag">    0.09    0.09</time>
   <time name="diis">    0.23    0.23</time>
   <time name="orth">    0.01    0.01</time>
   <time name="total">    0.40    0.40</time>
   <energy>
    <i name="alphaZ">     -8.27958290 </i>
    <i name="ewald">  -2388.22383899 </i>
    <i name="hartreedc">    -15.37842682 </i>
    <i name="XCdc">   -841.56793271 </i>
    <i name="pawpsdc">   1162.91991657 </i>
    <i name="pawaedc">   -130.22315293 </i>
    <i name="eentropy">     -0.01625087 </i>
    <i name="bandstr">    368.30051657 </i>
    <i name="atom">   1736.20668909 </i>
    <i name="e_fr_energy">   -116.26206298 </i>
    <i name="e_wo_entrp">   -116.24581211 </i>
    <i name="e_0_energy">   -116.25664603 </i>
   </energy>
  </scstep>
  <structure>
   <crystal>
    <varray name="basis" >
     <v>       8.08704000       0.00000000       0.00000000 </v>
     <v>       0.00000000       8.08704000       0.00000000 </v>
     <v>       0.00000000       0.00000000       8.08704000 </v>
    </varray>
    <i name="volume">    528.89416249 </i>
    <varray name="rec_basis" >
     <v>       0.12365464       0.00000000       0.00000000 </v>
     <v>       0.00000000       0.12365464       0.00000000 </v>
     <v>       0.00000000       0.00000000       0.12365464 </v>
    </varray>
   </crystal>
   <varray name="positions" >
    <v>       0.00000000       0.00000000       0.00324391 </v>
    <v>       0.24675609       0.00000000       0.25000000 </v>
    <v>       0.25460155       0.25460155      -0.00460155 </v>
    <v>       0.00000000       0.24675609       0.25000000 </v>
    <v>       0.50000000       0.00000000       0.01599018 </v>
    <v>       0.75324391       0.00000000       0.25000000 </v>
    <v>       0.74539845       0.25460155      -0.00460155 </v>
    <v>       0.50000000       0.23400982       0.25000000 </v>
    <v>       0.00000000       0.50000000       0.01599018 </v>
    <v>       0.23400982       0.50000000       0.25000000 </v>
    <v>       0.25460155       0.74539845      -0.00460155 </v>
    <v>       0.00000000       0.75324391       0.25000000 </v>
    <v>       0.50000000       0.50000000       0.06711121 </v>
    <v>       0.76599018       0.50000000       0.25000000 </v>
    <v>       0.74539845       0.74539845      -0.00460155 </v>
    <v>       0.50000000       0.76599018       0.25000000 </v>
    <v>       0.00000000       0.00000000       0.49675609 </v>
    <v>       0.23400982       0.00000000       0.75000000 </v>
    <v>       0.25460155       0.25460155       0.50460155 </v>
    <v>       0.00000000       0.23400982       0.75000000 </v>
    <v>       0.50000000       0.00000000       0.48400982 </v>
    <v>       0.76599018       0.00000000       0.75000000 </v>
    <v>       0.74539845       0.25460155       0.50460155 </v>
    <v>       0.50000000       0.18288879       0.75000000 </v>
    <v>       0.00000000       0.50000000       0.48400982 </v>
    <v>       0.18288879       0.50000000       0.75000000 </v>
    <v>       0.25460155       0.74539845       0.50460155 </v>
    <v>       0.00000000       0.76599018       0.75000000 </v>
    <v>       0.50000000       0.50000000       0.43288879 </v>
    <v>       0.81711121       0.50000000       0.75000000 </v>
    <v>       0.74539845       0.74539845       0.50460155 </v>
    <v>       0.50000000       0.81711121       0.75000000 </v>
    <v>       0.50000000       0.50000000       0.75000000 </v>
   </varray>
  </structure>
  <varray name="forces" >
   <v>       0.00000000       0.00000000       0.10881365 </v>
   <v>      -0.10881365       0.00000000       0.00000000 </v>
   <v>       0.03468353       0.03468353      -0.03468353 </v>
   <v>       0.00000000      -0.10881365       0.00000000 </v>
   <v>       0.00000000       0.00000000       0.07516350 </v>
   <v>       0.10881365       0.00000000       0.00000000 </v>
   <v>      -0.03468353       0.03468353      -0.03468353 </v>
   <v>       0.00000000      -0.07516350       0.00000000 </v>
   <v>       0.00000000       0.00000000       0.07516350 </v>
   <v>      -0.07516350       0.00000000       0.00000000 </v>
   <v>       0.03468353      -0.03468353      -0.03468353 </v>
   <v>       0.00000000       0.10881365       0.00000000 </v>
   <v>       0.00000000       0.00000000       0.09784447 </v>
   <v>       0.07516350       0.00000000       0.00000000 </v>
   <v>      -0.03468353      -0.03468353      -0.03468353 </v>
   <v>       0.00000000       0.07516350       0.00000000 </v>
   <v>       0.00000000       0.00000000      -0.10881365 </v>
   <v>      -0.07516350       0.00000000       0.00000000 </v>
   <v>       0.03468353       0.03468353       0.03468353 </v>
   <v>       0.00000000      -0.07516350       0.00000000 </v>
   <v>       0.00000000       0.00000000      -0.07516350 </v>
   <v>       0.07516350       0.00000000       0.00000000 </v>
   <v>      -0.03468353       0.03468353       0.03468353 </v>
   <v>       0.00000000      -0.09784447       0.00000000 </v>
   <v>       0.00000000       0.00000000      -0.07516350 </v>
   <v>      -0.09784447       0.00000000       0.00000000 </v>
   <v>       0.03468353      -0.03468353       0.03468353 </v>
   <v>       0.00000000       0.07516350       0.00000000 </v>
   <v>       0.00000000       0.00000000      -0.09784447 </v>
   <v>       0.09784447       0.00000000       0.00000000 </v>
   <v>      -0.03468353      -0.03468353       0.03468353 </v>
   <v>       0.00000000       0.09784447       0.00000000 </v>
   <v>       0.00000000       0.00000000       0.00000000 </v>
  </varray>
  <varray name="stress" >
   <v>      60.76939746       0.00000000       0.00000000 </v>
   <v>       0.00000000      60.76939746       0.00000000 </v>
   <v>       0.00000000       0.00000000      60.76939746 </v>
  </varray>
  <energy>
   <i name="e_fr_energy">   -116.26206298 </i>
   <i name="e_wo_entrp">   -116.25664603 </i>
   <i name="e_0_energy">     -0.01625087 </i>
  </energy>
  <time name="totalsc">    2.92    2.94</time>
 </calculation>
 <calculation>
  <scstep>
   <time name="diag">    0.09    0.09</time>
   <time name="diis">    0.31    0.31</time>
   <time name="orth">    0.01    0.01</time>
   <time name="total">    0.58    0.59</time>
   <energy>
    <i name="alphaZ">     -8.27958290 </i>
    <i name="ewald">  -2388.44995285 </i>
    <i name="hartreedc">    -15.22091320 </i>
    <i name="XCdc">   -841.57248238 </i>
    <i name="pawpsdc">   1162.91841771 </i>
    <i name="pawaedc">   -130.22150453 </i>
    <i name="eentropy">     -0.01126765 </i>
    <i name="bandstr">    368.35444324 </i>
    <i name="atom">   1736.20668909 </i>
    <i name="e_fr_energy">   -116.27615347 </i>
    <i name="e_wo_entrp">   -116.26488582 </i>
    <i name="e_0_energy">   -116.27239758 </i>
   </energy>
  </scstep>
  <scstep>
   <time name="diag">    0.09    0.09</time>
   <time name="diis">    0.31    0.31</time>
   <time name="orth">    0.01    0.01</time>
   <time name="total">    0.57    0.58</time>
   <energy>
    <i name="e_fr_energy">   -116.27428903 </i>
    <i name="e_wo_entrp">   -116.26251958 </i>
    <i name="e_0_energy">   -116.27036588 </i>
   </energy>
  </scstep>
  <scstep>
   <time name="diag">    0.09    0.09</time>
   <time name="diis">    0.29    0.29</time>
   <time name="orth">    0.01    0.01</time>
   <time name="total">    0.55    0.56</time>
   <energy>
    <i name="e_fr_energy">   -116.27413550 </i>
    <i name="e_wo_entrp">   -116.26238914 </i>
    <i name="e_0_energy">   -116.27022005 </i>
   </energy>
  </scstep>
  <scstep>
   <time name="diag">    0.09    0.09</time>
   <time name="diis">    0.23    0.23</time>
   <time name="orth">    0.01    0.01</time>
   <time name="total">    0.40    0.40</time>
   <energy>
    <i name="alphaZ">     -8.27958290 </i>
    <i name="ewald">  -2388.44995285 </i>
    <i name="hartreedc">    -15.21095538 </i>
    <i name="XCdc">   -841.57027246 </i>
    <i name="pawpsdc">   1162.94480484 </i>
    <i name="pawaedc">   -130.24827234 </i>
    <i name="eentropy">     -0.01174689 </i>
    <i name="bandstr">    368.34516024 </i>
    <i name="atom">   1736.20668909 </i>
    <i name="e_fr_energy">   -116.27412865 </i>
    <i name="e_wo_entrp">   -116.26238175 </i>
    <i name="e_0_energy">   -116.27021301 </i>
   </energy>
  </scstep>
  <structure>
   <crystal>
    <varray name="basis" >
     <v>       8.08704000       0.00000000       0.00000000 </v>
     <v>       0.00000000       8.08704000       0.00000000 </v>
     <v>       0.00000000       0.00000000       8.08704000 </v>
    </varray>
    <i name="volume">    528.89416249 </i>
    <varray name="rec_basis" >
     <v>       0.12365464       0.00000000       0.00000000 </v>
     <v>       0.00000000       0.12365464       0.00000000 </v>
     <v>       0.00000000       0.00000000       0.12365464 </v>
    </varray>
   </crystal>
   <varray name="positions" >
    <v>       0.00000000       0.00000000       0.00573902 </v>
    <v>       0.24426098       0.00000000       0.25000000 </v>
    <v>       0.25509687       0.25509687      -0.00509687 </v>
    <v>       0.00000000       0.24426098       0.25000000 </v>
    <v>       0.50000000       0.00000000       0.01698801 </v>
    <v>       0.75573902       0.00000000       0.25000000 </v>
    <v>       0.74490313       0.25509687      -0.00509687 </v>
    <v>       0.50000000       0.23301199       0.25000000 </v>
    <v>       0.00000000       0.50000000       0.01698801 </v>
    <v>       0.23301199       0.50000000       0.25000000 </v>
    <v>       0.25509687       0.74490313      -0.00509687 </v>
    <v>       0.00000000       0.75573902       0.25000000 </v>
    <v>       0.50000000       0.50000000       0.06750261 </v>
    <v>       0.76698801       0.50000000       0.25000000 </v>
    <v>       0.74490313       0.74490313      -0.00509687 </v>
    <v>       0.50000000       0.76698801       0.25000000 </v>
    <v>       0.00000000       0.00000000       0.49426098 </v>
    <v>       0.23301199       0.00000000       0.75000000 </v>
    <v>       0.25509687       0.25509687       0.50509687 </v>
    <v>       0.00000000       0.23301199       0.75000000 </v>
    <v>       0.50000000       0.00000000       0.48301199 </v>
    <v>       0.76698801       0.00000000       0.75000000 </v>
    <v>       0.74490313       0.25509687       0.50509687 </v>
    <v>       0.50000000       0.18249739       0.75000000 </v>
    <v>       0.00000000       0.50000000       0.48301199 </v>
    <v>       0.18249739       0.50000000       0.75000000 </v>
    <v>       0.25509687       0.74490313       0.50509687 </v>
    <v>       0.00000000       0.76698801       0.75000000 </v>
    <v>       0.50000000       0.50000000       0.43249739 </v>
    <v>       0.81750261       0.50000000       0.75000000 </v>
    <v>       0.74490313       0.74490313       0.50509687 </v>
    <v>       0.50000000       0.81750261       0.75000000 </v>
    <v>       0.50000000       0.50000000       0.75000000 </v>
   </varray>
  </structure>
  <varray name="forces" >
   <v>       0.00000000       0.00000000      -0.06858721 </v>
   <v>       0.06858721       0.00000000       0.00000000 </v>
   <v>       0.02572787       0.02572787      -0.02572787 </v>
   <v>       0.00000000       0.06858721       0.00000000 </v>
   <v>       0.00000000       0.00000000       0.01192392 </v>
   <v>      -0.06858721       0.00000000       0.00000000 </v>
   <v>      -0.02572787       0.02572787      -0.02572787 </v>
   <v>       0.00000000      -0.01192392       0.00000000 </v>
   <v>       0.00000000       0.00000000       0.01192392 </v>
   <v>      -0.01192392       0.00000000       0.00000000 </v>
   <v>       0.02572787      -0.02572787      -0.02572787 </v>
   <v>       0.00000000      -0.06858721       0.00000000 </v>
   <v>       0.00000000       0.00000000       0.14403517 </v>
   <v>       0.01192392       0.00000000       0.00000000 </v>
   <v>      -0.02572787      -0.02572787      -0.02572787 </v>
   <v>       0.00000000       0.01192392       0.00000000 </v>
   <v>       0.00000000       0.00000000       0.06858721 </v>
   <v>      -0.01192392       0.00000000       0.00000000 </v>
   <v>       0.02572787       0.02572787       0.02572787 </v>
   <v>       0.00000000      -0.01192392       0.00000000 </v>
   <v>       0.00000000       0.00000000      -0.01192392 </v>
   <v>       0.01192392       0.00000000       0.00000000 </v>
   <v>      -0.02572787       0.02572787       0.02572787 </v>
   <v>       0.00000000      -0.14403517       0.00000000 </v>
   <v>       0.00000000       0.00000000      -0.01192392 </v>
   <v>      -0.14403517       0.00000000       0.00000000 </v>
   <v>       0.02572787      -0.02572787       0.02572787 </v>
   <v>       0.00000000       0.01192392       0.00000000 </v>
   <v>       0.00000000       0.00000000      -0.14403517 </v>
   <v>       0.14403517       0.00000000       0.00000000 </v>
   <v>      -0.02572787      -0.02572787       0.02572787 </v>
   <v>       0.00000000       0.14403517       0.00000000 </v>
   <v>       0.00000000       0.00000000       0.00000000 </v>
  </varray>
  <varray name="stress" >
   <v>      60.83099319       0.00000000       0.00000000 </v>
   <v>       0.00000000      60.83099319       0.00000000 </v>
   <v>       0.00000000       0.00000000      60.83099319 </v>
  </varray>
  <energy>
   <i name="e_fr_energy">   -116.27412865 </i>
   <i name="e_wo_entrp">   -116.27021301 </i>
   <i name="e_0_energy">     -0.01174689 </i>
  </energy>
  <time name="totalsc">    2.83    2.86</time>
  <eigenvalues>
   <array>
    <dimension dim="1">band</dimension>
    <dimension dim="2">kpoint</dimension>
    <dimension dim="3">spin</dimension>
    <field>eigene</field>
    <field>occ</field>
    <set>
     <set comment="spin 1">
      <set comment="kpoint 1">
       <r>   -2.6699    1.0000 </r>
       <r>   -1.6648    1.0000 </r>
       <r>   -1.6648    1.0000 </r>
       <r>   -1.3296    1.0000 </r>
       <r>   -0.5633    1.0000 </r>
       <r>   -0.5633    1.0000 </r>
       <r>   -0.1134    1.0000 </r>
       <r>    0.6151    1.0000 </r>
       <r>    0.6151    1.0000 </r>
       <r>    0.6998    1.0000 </r>
       <r>    0.9457    1.0000 </r>
       <r>    1.6103    1.0000 </r>
       <r>    1.6103    1.0000 </r>
       <r>    1.6675    1.0000 </r>
       <r>    1.9624    1.0000 </r>
       <r>    1.9624    1.0000 </r>
       <r>    2.1569    1.0000 </r>
       <r>    2.8317    1.0000 </r>
       <r>    2.9574    1.0000 </r>
       <r>    2.9574    1.0000 </r>
       <r>    3.8591    1.0000 </r>
       <r>    3.8591    1.0000 </r>
       <r>    3.9103    1.0000 </r>
       <r>    4.0303    1.0000 </r>
       <r>    4.0303    1.0000 </r>
       <r>    4.2522    1.0000 </r>
       <r>    4.7712    1.0000 </r>
       <r>    4.7712    1.0000 </r>
       <r>    4.8260    1.0000 </r>
       <r>    5.0462    1.0000 </r>
       <r>    5.1098    1.0000 </r>
       <r>    5.1098    1.0000 </r>
       <r>    5.2178    1.0000 </r>
       <r>    5.2178    1.0000 </r>
       <r>    5.2876    1.0000 </r>
       <r>    5.9880    1.0000 </r>
       <r>    5.9880    1.0000 </r>
       <r>    6.4444    1.0000 </r>
       <r>    6.9821    1.0000 </r>
       <r>    6.9930    1.0000 </r>
       <r>    6.9930    1.0000 </r>
       <r>    7.2007    1.0000 </r>
       <r>    7.2822    1.0000 </r>
       <r>    7.2822    1.0000 </r>
       <r>    7.4380    1.0000 </r>
       <r>    7.9656    1.0220 </r>
       <r>    7.9656    1.0220 </r>
       <r>    8.0523    1.0353 </r>
       <r>    8.2937    0.4859 </r>
       <r>    8.3480    0.2670 </r>
       <r>    8.3480    0.2670 </r>
       <r>    8.5218   -0.0347 </r>
       <r>    8.5218   -0.0347 </r>
       <r>    8.5812   -0.0296 </r>
       <r>    9.2222    0.0000 </r>
       <r>    9.2222    0.0000 </r>
       <r>    9.4766    0.0000 </r>
       <r>    9.6519    0.0000 </r>
       <r>    9.6519    0.0000 </r>
       <r>    9.7305    0.0000 </r>
       <r>   10.1343    0.0000 </r>
       <r>   10.1343    0.0000 </r>
       <r>   10.2285    0.0000 </r>
       <r>   10.3681    0.0000 </r>
       <r>   10.3681    0.0000 </r>
       <r>   10.4596    0.0000 </r>
       <r>   10.4596    0.0000 </r>
       <r>   10.5781    0.0000 </r>
       <r>   10.9937    0.0000 </r>
       <r>   11.1428    0.0000 </r>
       <r>   11.1428    0.0000 </r>
       <r>   11.4708    0.0000 </r>
       <r>   11.5498    0.0000 </r>
       <r>   11.5498    0.0000 </r>
       <r>   11.6078    0.0000 </r>
       <r>   11.7916    0.0000 </r>
       <r>   11.7916    0.0000 </r>
       <r>   11.9598    0.0000 </r>
       <r>   12.4460    0.0000 </r>
       <r>   12.4460    0.0000 </r>
       <r>   12.5071    0.0000 </r>
       <r>   12.7305    0.0000 </r>
       <r>   12.7305    0.0000 </r>
       <r>   13.2764    0.0000 </r>
       <r>   13.3000    0.0000 </r>
       <r>   13.3000    0.0000 </r>
       <r>   13.4525    0.0000 </r>
       <r>   13.4525    0.0000 </r>
       <r>   13.6202    0.0000 </r>
       <r>   13.8352    0.0000 </r>
       <r>   14.0958    0.0000 </r>
       <r>   14.0958    0.0000 </r>
       <r>   14.2581    0.0000 </r>
       <r>   14.3645    0.0000 </r>
       <r>   14.3662    0.0000 </r>
       <r>   14.5317    0.0000 </r>
      </set>
     </set>
    </set>
   </array>
  </eigenvalues>
  <separator name="orbital magnetization" >
   <v name="MAGDIPOLOUT">      0.00000000      0.00000000      0.00000000</v>
  </separator>
  <dos>
   <i name="efermi">      8.29036877 </i>
   <total>
    <array>
     <dimension dim="1">gridpoints</dimension>
     <dimension dim="2">spin</dimension>
     <field>energy</field>
     <field>total</field>
     <field>integrated</field>
     <set>
      <set comment="spin 1">
       <r>  -4.6699   0.0000   0.0000 </r>
       <r>  -4.5993   0.0000   0.0000 </r>
       <r>  -4.5286   0.0000   0.0000 </r>
       <r>  -4.4579   0.0000   0.0000 </r>
       <r>  -4.3872   0.0000   0.0000 </r>
       <r>  -4.3166   0.0000   0.0000 </r>
       <r>  -4.2459   0.0000   0.0000 </r>
       <r>  -4.1752   0.0000   0.0000 </r>
       <r>  -4.1046   0.0000   0.0000 </r>
       <r>  -4.0339   0.0000   0.0000 </r>
       <r>  -3.9632   0.0000   0.0000 </r>
       <r>  -3.8925   0.0000   0.0000 </r>
       <r>  -3.8219   0.0000   0.0000 </r>
       <r>  -3.7512   0.0000   0.0000 </r>
       <r>  -3.6805   0.0000   0.0000 </r>
       <r>  -3.6098   0.0000   0.0000 </r>
       <r>  -3.5392   0.0000   0.0000 </r>
       <r>  -3.4685   0.0000   0.0000 </r>
       <r>  -3.3978   0.0000   0.0000 </r>
       <r>  -3.3272  -0.0004   0.0000 </r>
       <r>  -3.2565  -0.0033  -0.0003 </r>
       <r>  -3.1858  -0.0190  -0.0016 </r>
       <r>  -3.1151  -0.0791  -0.0072 </r>
       <r>  -3.0445  -0.2319  -0.0236 </r>
       <r>  -2.9738  -0.4240  -0.0536 </r>
       <r>  -2.9031  -0.2292  -0.0698 </r>
       <r>  -2.8325   1.1794   0.0136 </r>
       <r>  -2.7618   4.1402   0.3062 </r>
       <r>  -2.6911   7.2969   0.8219 </r>
       <r>  -2.6204   8.2506   1.4050 </r>
       <r>  -2.5498   6.1666   1.8408 </r>
       <r>  -2.4791   2.8105   2.0394 </r>
       <r>  -2.4084   0.4193   2.0690 </r>
       <r>  -2.3377  -0.4034   2.0405 </r>
       <r>  -2.2671  -0.3623   2.0149 </r>
       <r>  -2.1964  -0.1844   2.0019 </r>
       <r>  -2.1257  -0.1649   1.9902 </r>
       <r>  -2.0551  -0.3876   1.9628 </r>
       <r>  -1.9844  -0.7848   1.9074 </r>
       <r>  -1.9137  -0.6969   1.8581 </r>
       <r>  -1.8430   1.4238   1.9587 </r>
       <r>  -1.7724   6.6862   2.4313 </r>
       <r>  -1.7017  13.1686   3.3619 </r>
       <r>  -1.6310  16.2064   4.5073 </r>
       <r>  -1.5604  13.4605   5.4586 </r>
       <r>  -1.4897   8.3310   6.0473 </r>
       <r>  -1.4190   5.8768   6.4627 </r>
       <r>  -1.3483   6.7253   6.9379 </r>
       <r>  -1.2777   7.4269   7.4628 </r>
       <r>  -1.2070   5.6600   7.8628 </r>
       <r>  -1.1363   2.5664   8.0442 </r>
       <r>  -1.0656   0.2866   8.0645 </r>
       <r>  -0.9950  -0.6157   8.0209 </r>
       <r>  -0.9243  -0.8952   7.9577 </r>
       <r>  -0.8536  -1.0299   7.8849 </r>
       <r>  -0.7830  -0.2024   7.8706 </r>
       <r>  -0.7123   3.2718   8.1018 </r>
       <r>  -0.6416   9.5929   8.7798 </r>
       <r>  -0.5709  15.3665   9.8657 </r>
       <r>  -0.5003  15.9256  10.9912 </r>
       <r>  -0.4296  10.6793  11.7460 </r>
       <r>  -0.3589   4.1344  12.0382 </r>
       <r>  -0.2883   1.1186  12.1172 </r>
       <r>  -0.2176   2.6807  12.3067 </r>
       <r>  -0.1469   6.2069  12.7453 </r>
       <r>  -0.0762   8.0596  13.3149 </r>
       <r>  -0.0056   6.6205  13.7828 </r>
       <r>   0.0651   3.3410  14.0189 </r>
       <r>   0.1358   0.6247  14.0630 </r>
       <r>   0.2064  -0.6689  14.0158 </r>
       <r>   0.2771  -1.1895  13.9317 </r>
       <r>   0.3478  -1.3287  13.8378 </r>
       <r>   0.4185   0.0817  13.8436 </r>
       <r>   0.4891   5.0821  14.2028 </r>
       <r>   0.5598  13.5815  15.1626 </r>
       <r>   0.6305  21.2062  16.6613 </r>
       <r>   0.7012  22.5920  18.2579 </r>
       <r>   0.7718  17.5645  19.4992 </r>
       <r>   0.8425  11.4418  20.3078 </r>
       <r>   0.9132   8.4126  20.9024 </r>
       <r>   0.9838   7.4560  21.4293 </r>
       <r>   1.0545   5.7016  21.8323 </r>
       <r>   1.1252   2.7792  22.0287 </r>
       <r>   1.1959   0.2236  22.0445 </r>
       <r>   1.2665  -1.2006  21.9596 </r>
       <r>   1.3372  -1.6224  21.8450 </r>
       <r>   1.4079  -0.2254  21.8290 </r>
       <r>   1.4785   4.9482  22.1788 </r>
       <r>   1.5492  13.8734  23.1592 </r>
       <r>   1.6199  21.7742  24.6980 </r>
       <r>   1.6906  22.6783  26.3008 </r>
       <r>   1.7612  16.8943  27.4947 </r>
       <r>   1.8319  11.5410  28.3104 </r>
       <r>   1.9026  11.9220  29.1529 </r>
       <r>   1.9733  15.6980  30.2623 </r>
       <r>   2.0439  17.4290  31.4941 </r>
       <r>   2.1146  15.3507  32.5789 </r>
       <r>   2.1853  11.2276  33.3724 </r>
       <r>   2.2559   6.7707  33.8509 </r>
       <r>   2.3266   2.8904  34.0552 </r>
       <r>   2.3973   0.3276  34.0783 </r>
       <r>   2.4680  -0.8100  34.0211 </r>
       <r>   2.5386  -1.1431  33.9403 </r>
       <r>   2.6093  -0.9558  33.8728 </r>
       <r>   2.6800   0.5993  33.9151 </r>
       <r>   2.7506   4.8750  34.2596 </r>
       <r>   2.8213  11.9024  35.1008 </r>
       <r>   2.8920  18.9629  36.4410 </r>
       <r>   2.9627  21.7041  37.9748 </r>
       <r>   3.0333  17.9000  39.2399 </r>
       <r>   3.1040  10.0414  39.9495 </r>
       <r>   3.1747   3.0272  40.1634 </r>
       <r>   3.2454  -0.4249  40.1334 </r>
       <r>   3.3160  -1.0365  40.0602 </r>
       <r>   3.3867  -0.7076  40.0102 </r>
       <r>   3.4574  -0.6157  39.9666 </r>
       <r>   3.5280  -1.0388  39.8932 </r>
       <r>   3.5987  -1.4189  39.7930 </r>
       <r>   3.6694   0.0459  39.7962 </r>
       <r>   3.7401   5.7674  40.2038 </r>
       <r>   3.8107  15.9581  41.3316 </r>
       <r>   3.8814  26.5846  43.2104 </r>
       <r>   3.9521  32.0041  45.4722 </r>
       <r>   4.0227  29.9142  47.5863 </r>
       <r>   4.0934  22.8696  49.2025 </r>
       <r>   4.1641  15.5116  50.2988 </r>
       <r>   4.2348  10.6334  51.0503 </r>
       <r>   4.3054   7.5508  51.5839 </r>
       <r>   4.3761   4.3738  51.8930 </r>
       <r>   4.4468   0.9407  51.9595 </r>
       <r>   4.5175  -1.1140  51.8807 </r>
       <r>   4.5881   0.3432  51.9050 </r>
       <r>   4.6588   6.6397  52.3742 </r>
       <r>   4.7295  15.8619  53.4952 </r>
       <r>   4.8001  22.2520  55.0678 </r>
       <r>   4.8708  21.8010  56.6086 </r>
       <r>   4.9415  18.2377  57.8975 </r>
       <r>   5.0122  19.2713  59.2594 </r>
       <r>   5.0828  26.9390  61.1632 </r>
       <r>   5.1535  35.2772  63.6564 </r>
       <r>   5.2242  37.0531  66.2750 </r>
       <r>   5.2948  30.1238  68.4039 </r>
       <r>   5.3655  18.1332  69.6854 </r>
       <r>   5.4362   7.0111  70.1809 </r>
       <r>   5.5069   0.5092  70.2169 </r>
       <r>   5.5775  -1.6387  70.1011 </r>
       <r>   5.6482  -1.7791  69.9753 </r>
       <r>   5.7189  -1.3497  69.8800 </r>
       <r>   5.7896   0.3642  69.9057 </r>
       <r>   5.8602   4.9146  70.2530 </r>
       <r>   5.9309  11.6087  71.0734 </r>
       <r>   6.0016  16.2339  72.2207 </r>
       <r>   6.0722  14.8499  73.2702 </r>
       <r>   6.1429   8.6014  73.8781 </r>
       <r>   6.2136   2.6592  74.0660 </r>
       <r>   6.2843   0.9557  74.1336 </r>
       <r>   6.3549   3.3869  74.3729 </r>
       <r>   6.4256   6.8513  74.8571 </r>
       <r>   6.4963   7.9505  75.4190 </r>
       <r>   6.5669   5.6608  75.8191 </r>
       <r>   6.6376   1.7886  75.9455 </r>
       <r>   6.7083  -0.9864  75.8757 </r>
       <r>   6.7790  -0.4076  75.8469 </r>
       <r>   6.8496   5.1326  76.2097 </r>
       <r>   6.9203  14.6117  77.2423 </r>
       <r>   6.9910  22.8695  78.8586 </r>
       <r>   7.0617  25.1767  80.6378 </r>
       <r>   7.1323  23.3583  82.2886 </r>
       <r>   7.2030  22.8273  83.9019 </r>
       <r>   7.2737  24.3699  85.6242 </r>
       <r>   7.3443  23.9540  87.3170 </r>
       <r>   7.4150  19.3557  88.6849 </r>
       <r>   7.4857  12.3798  89.5599 </r>
       <r>   7.5564   5.7413  89.9656 </r>
       <r>   7.6270   0.9318  90.0315 </r>
       <r>   7.6977  -1.4301  89.9304 </r>
       <r>   7.7684  -0.5770  89.8896 </r>
       <r>   7.8390   4.5221  90.2092 </r>
       <r>   7.9097  13.0697  91.1329 </r>
       <r>   7.9804  20.4866  92.5807 </r>
       <r>   8.0511  21.5920  94.1067 </r>
       <r>   8.1217  17.0211  95.3096 </r>
       <r>   8.1924  13.5838  96.2696 </r>
       <r>   8.2631  16.3734  97.4267 </r>
       <r>   8.3338  23.1597  99.0635 </r>
       <r>   8.4044  28.6049 101.0850 </r>
       <r>   8.4751  30.5012 103.2406 </r>
       <r>   8.5458  28.8124 105.2768 </r>
       <r>   8.6164  22.8636 106.8927 </r>
       <r>   8.6871  13.5254 107.8485 </r>
       <r>   8.7578   4.6823 108.1794 </r>
       <r>   8.8285  -0.4421 108.1482 </r>
       <r>   8.8991  -2.0381 108.0042 </r>
       <r>   8.9698  -1.6156 107.8900 </r>
       <r>   9.0405   0.8254 107.9483 </r>
       <r>   9.1111   6.0723 108.3775 </r>
       <r>   9.1818  12.5614 109.2652 </r>
       <r>   9.2525  16.1069 110.4035 </r>
       <r>   9.3232  14.5302 111.4304 </r>
       <r>   9.3938  10.8560 112.1976 </r>
       <r>   9.4645   9.9717 112.9023 </r>
       <r>   9.5352  13.7777 113.8760 </r>
       <r>   9.6058  20.1589 115.3007 </r>
       <r>   9.6765  24.3927 117.0246 </r>
       <r>   9.7472  22.2179 118.5948 </r>
       <r>   9.8179  13.9776 119.5826 </r>
       <r>   9.8885   5.0841 119.9419 </r>
       <r>   9.9592   1.5134 120.0489 </r>
       <r>  10.0299   5.3688 120.4283 </r>
       <r>  10.1006  13.8123 121.4044 </r>
       <r>  10.1712  21.6094 122.9316 </r>
       <r>  10.2419  26.0899 124.7755 </r>
       <r>  10.3126  29.0940 126.8316 </r>
       <r>  10.3832  32.4582 129.1255 </r>
       <r>  10.4539  33.8882 131.5204 </r>
       <r>  10.5246  29.9181 133.6348 </r>
       <r>  10.5953  20.8548 135.1087 </r>
       <r>  10.6659  10.5635 135.8552 </r>
       <r>  10.7366   2.9028 136.0604 </r>
       <r>  10.8073  -0.2651 136.0416 </r>
       <r>  10.8779   1.1857 136.1254 </r>
       <r>  10.9486   6.3150 136.5717 </r>
       <r>  11.0193  13.1955 137.5043 </r>
       <r>  11.0900  18.7226 138.8274 </r>
       <r>  11.1606  19.4583 140.2026 </r>
       <r>  11.2313  14.5414 141.2303 </r>
       <r>  11.3020   8.1526 141.8064 </r>
       <r>  11.3727   6.9994 142.3011 </r>
       <r>  11.4433  13.8161 143.2775 </r>
       <r>  11.5140  23.9631 144.9710 </r>
       <r>  11.5847  29.7954 147.0767 </r>
       <r>  11.6553  28.5983 149.0978 </r>
       <r>  11.7260  24.3432 150.8182 </r>
       <r>  11.7967  21.2518 152.3201 </r>
       <r>  11.8674  19.0814 153.6687 </r>
       <r>  11.9380  15.7168 154.7794 </r>
       <r>  12.0087  10.7098 155.5363 </r>
       <r>  12.0794   5.1883 155.9030 </r>
       <r>  12.1500   0.7207 155.9539 </r>
       <r>  12.2207  -0.9194 155.8889 </r>
       <r>  12.2914   2.0682 156.0351 </r>
       <r>  12.3621   9.9265 156.7366 </r>
       <r>  12.4327  19.0639 158.0839 </r>
       <r>  12.5034  23.7428 159.7619 </r>
       <r>  12.5741  22.3478 161.3412 </r>
       <r>  12.6448  19.1620 162.6954 </r>
       <r>  12.7154  17.5658 163.9369 </r>
       <r>  12.7861  15.5244 165.0340 </r>
       <r>  12.8568  10.3779 165.7674 </r>
       <r>  12.9274   3.6839 166.0278 </r>
       <r>  12.9981  -1.0442 165.9540 </r>
       <r>  13.0688  -1.6331 165.8386 </r>
       <r>  13.1395   3.0440 166.0537 </r>
       <r>  13.2101  12.8194 166.9597 </r>
       <r>  13.2808  24.1056 168.6633 </r>
       <r>  13.3515  31.1758 170.8665 </r>
       <r>  13.4221  31.1755 173.0698 </r>
       <r>  13.4928  25.9884 174.9064 </r>
       <r>  13.5635  19.2294 176.2654 </r>
       <r>  13.6342  13.4554 177.2163 </r>
       <r>  13.7048   9.8009 177.9090 </r>
       <r>  13.7755   8.2239 178.4902 </r>
       <r>  13.8462   7.7802 179.0400 </r>
       <r>  13.9169   8.0077 179.6059 </r>
       <r>  13.9875   9.9169 180.3068 </r>
       <r>  14.0582  13.9473 181.2925 </r>
       <r>  14.1289  18.1589 182.5758 </r>
       <r>  14.1995  20.8057 184.0462 </r>
       <r>  14.2702  22.5655 185.6409 </r>
       <r>  14.3409  23.9297 187.3321 </r>
       <r>  14.4116  23.2825 188.9775 </r>
       <r>  14.4822  19.4670 190.3533 </r>
       <r>  14.5529  13.6330 191.3168 </r>
       <r>  14.6236   7.7205 191.8624 </r>
       <r>  14.6942   3.0709 192.0794 </r>
       <r>  14.7649   0.3475 192.1040 </r>
       <r>  14.8356  -0.5846 192.0627 </r>
       <r>  14.9063  -0.5274 192.0254 </r>
       <r>  14.9769  -0.2537 192.0075 </r>
       <r>  15.0476  -0.0826 192.0016 </r>
       <r>  15.1183  -0.0194 192.0003 </r>
       <r>  15.1890  -0.0034 192.0000 </r>
       <r>  15.2596  -0.0004 192.0000 </r>
       <r>  15.3303   0.0000 192.0000 </r>
       <r>  15.4010   0.0000 192.0000 </r>
       <r>  15.4716   0.0000 192.0000 </r>
       <r>  15.5423   0.0000 192.0000 </r>
       <r>  15.6130   0.0000 192.0000 </r>
       <r>  15.6837   0.0000 192.0000 </r>
       <r>  15.7543   0.0000 192.0000 </r>
       <r>  15.8250   0.0000 192.0000 </r>
       <r>  15.8957   0.0000 192.0000 </r>
       <r>  15.9663   0.0000 192.0000 </r>
       <r>  16.0370   0.0000 192.0000 </r>
       <r>  16.1077   0.0000 192.0000 </r>
       <r>  16.1784   0.0000 192.0000 </r>
       <r>  16.2490   0.0000 192.0000 </r>
       <r>  16.3197   0.0000 192.0000 </r>
       <r>  16.3904   0.0000 192.0000 </r>
       <r>  16.4611   0.0000 192.0000 </r>
       <r>  16.5317   0.0000 192.0000 </r>
      </set>
     </set>
    </array>
   </total>
  </dos>
 </calculation>
 <structure name="finalpos" >
  <crystal>
   <varray name="basis" >
    <v>       8.08704000       0.00000000       0.00000000 </v>
    <v>       0.00000000       8.08704000       0.00000000 </v>
    <v>       0.00000000       0.00000000       8.08704000 </v>
   </varray>
   <i name="volume">    528.89416249 </i>
   <varray name="rec_basis" >
    <v>       0.12365464       0.00000000       0.00000000 </v>
    <v>       0.00000000       0.12365464       0.00000000 </v>
    <v>       0.00000000       0.00000000       0.12365464 </v>
   </varray>
  </crystal>
  <varray name="positions" >
   <v>       0.00000000       0.00000000       0.00573902 </v>
   <v>       0.24426098       0.00000000       0.25000000 </v>
   <v>       0.25509687       0.25509687      -0.00509687 </v>
   <v>       0.00000000       0.24426098       0.25000000 </v>
   <v>       0.50000000       0.00000000       0.01698801 </v>
   <v>       0.75573902       0.00000000       0.25000000 </v>
   <v>       0.74490313       0.25509687      -0.00509687 </v>
   <v>       0.50000000       0.23301199       0.25000000 </v>
   <v>       0.00000000       0.50000000       0.01698801 </v>
   <v>       0.23301199       0.50000000       0.25000000 </v>
   <v>       0.25509687       0.74490313      -0.00509687 </v>
   <v>       0.00000000       0.75573902       0.25000000 </v>
   <v>       0.50000000       0.50000000       0.06750261 </v>
   <v>       0.76698801       0.50000000       0.25000000 </v>
   <v>       0.74490313       0.74490313      -0.00509687 </v>
   <v>       0.50000000       0.76698801       0.25000000 </v>
   <v>       0.00000000       0.00000000       0.49426098 </v>
   <v>       0.23301199       0.00000000       0.75000000 </v>
   <v>       0.25509687       0.25509687       0.50509687 </v>
   <v>       0.00000000       0.23301199       0.75000000 </v>
   <v>       0.50000000       0.00000000       0.48301199 </v>
   <v>       0.76698801       0.00000000       0.75000000 </v>
   <v>       0.74490313       0.25509687       0.50509687 </v>
   <v>       0.50000000       0.18249739       0.75000000 </v>
   <v>       0.00000000       0.50000000       0.48301199 </v>
   <v>       0.18249739       0.50000000       0.75000000 </v>
   <v>       0.25509687       0.74490313       0.50509687 </v>
   <v>       0.00000000       0.76698801       0.75000000 </v>
   <v>       0.50000000       0.50000000       0.43249739 </v>
   <v>       0.81750261       0.50000000       0.75000000 </v>
   <v>       0.74490313       0.74490313       0.50509687 </v>
   <v>       0.50000000       0.81750261       0.75000000 </v>
   <v>       0.50000000       0.50000000       0.75000000 </v>
  </varray>
 </structure>
</modeling>
