  32  32   0   0
  0.1652803E+02  0.8087054E-09  0.8087054E-09  0.8087054E-09  0.5000000E-15
  1.000000000000000E-004
  CAR 
 unknown system                          
     13.50781975     -4.71334383  301      8.12773918      1.00000000
     -4.713  0.0000E+00  0.0000E+00
     -4.653  0.0000E+00  0.0000E+00
     -4.592  0.0000E+00  0.0000E+00
     -4.531  0.0000E+00  0.0000E+00
     -4.470  0.0000E+00  0.0000E+00
     -4.410  0.0000E+00  0.0000E+00
     -4.349 -0.6854E-27 -0.4163E-28
     -4.288 -0.8574E-25 -0.5249E-26
     -4.227 -0.8961E-23 -0.5495E-24
     -4.167 -0.7773E-21 -0.4776E-22
     -4.106 -0.5595E-19 -0.3446E-20
     -4.045 -0.3341E-17 -0.2064E-18
     -3.984 -0.1654E-15 -0.1025E-16
     -3.924 -0.6792E-14 -0.4228E-15
     -3.863 -0.2238E-12 -0.1401E-13
     -3.802 -0.6295E-11 -0.3964E-12
     -3.742 -0.1463E-09 -0.9281E-11
     -3.681 -0.2809E-08 -0.1799E-09
     -3.620 -0.4455E-07 -0.2886E-08
     -3.559 -0.5825E-06 -0.3826E-07
     -3.499 -0.6269E-05 -0.4190E-06
     -3.438 -0.5540E-04 -0.3784E-05
     -3.377 -0.4007E-03 -0.2812E-04
     -3.316 -0.2361E-02 -0.1715E-03
     -3.256 -0.1125E-01 -0.8550E-03
     -3.195 -0.4291E-01 -0.3461E-02
     -3.134 -0.1284E+00 -0.1126E-01
     -3.073 -0.2893E+00 -0.2883E-01
     -3.013 -0.4406E+00 -0.5559E-01
     -2.952 -0.2470E+00 -0.7059E-01
     -2.891  0.8487E+00 -0.1904E-01
     -2.830  0.3162E+01  0.1730E+00
     -2.770  0.6093E+01  0.5430E+00
     -2.709  0.8127E+01  0.1037E+01
     -2.648  0.7953E+01  0.1520E+01
     -2.588  0.5689E+01  0.1865E+01
     -2.527  0.2768E+01  0.2033E+01
     -2.466  0.6183E+00  0.2071E+01
     -2.405 -0.3162E+00  0.2052E+01
     -2.345 -0.4291E+00  0.2026E+01
     -2.284 -0.2633E+00  0.2010E+01
     -2.223 -0.1145E+00  0.2003E+01
     -2.162 -0.5166E-01  0.2000E+01
     -2.102 -0.7629E-01  0.1995E+01
     -2.041 -0.2299E+00  0.1981E+01
     -1.980 -0.5979E+00  0.1945E+01
     -1.919 -0.1136E+01  0.1876E+01
     -1.859 -0.1263E+01  0.1799E+01
     -1.798  0.4381E+00  0.1826E+01
     -1.737  0.5537E+01  0.2162E+01
     -1.676  0.1383E+02  0.3002E+01
     -1.616  0.2193E+02  0.4334E+01
     -1.555  0.2505E+02  0.5855E+01
     -1.494  0.2109E+02  0.7136E+01
     -1.434  0.1268E+02  0.7906E+01
     -1.373  0.4676E+01  0.8190E+01
     -1.312  0.5756E-01  0.8194E+01
     -1.251 -0.1311E+01  0.8114E+01
     -1.191 -0.1070E+01  0.8049E+01
     -1.130 -0.5386E+00  0.8016E+01
     -1.069 -0.2066E+00  0.8004E+01
     -1.008 -0.9723E-01  0.7998E+01
     -0.948 -0.1635E+00  0.7988E+01
     -0.887 -0.4379E+00  0.7961E+01
     -0.826 -0.9414E+00  0.7904E+01
     -0.765 -0.1337E+01  0.7823E+01
     -0.705 -0.5025E+00  0.7792E+01
     -0.644  0.3248E+01  0.7990E+01
     -0.583  0.1060E+02  0.8634E+01
     -0.522  0.1934E+02  0.9808E+01
     -0.462  0.2473E+02  0.1131E+02
     -0.401  0.2326E+02  0.1272E+02
     -0.340  0.1593E+02  0.1369E+02
     -0.280  0.7268E+01  0.1413E+02
     -0.219  0.1291E+01  0.1421E+02
     -0.158 -0.1094E+01  0.1414E+02
     -0.097 -0.1242E+01  0.1407E+02
     -0.037 -0.7192E+00  0.1402E+02
      0.024 -0.3012E+00  0.1401E+02
      0.085 -0.1314E+00  0.1400E+02
      0.146 -0.1779E+00  0.1399E+02
      0.206 -0.4789E+00  0.1396E+02
      0.267 -0.1098E+01  0.1389E+02
      0.328 -0.1739E+01  0.1379E+02
      0.389 -0.1154E+01  0.1372E+02
      0.449  0.2859E+01  0.1389E+02
      0.510  0.1174E+02  0.1460E+02
      0.571  0.2346E+02  0.1603E+02
      0.632  0.3213E+02  0.1798E+02
      0.692  0.3223E+02  0.1994E+02
      0.753  0.2368E+02  0.2138E+02
      0.814  0.1196E+02  0.2210E+02
      0.874  0.2984E+01  0.2228E+02
      0.935 -0.1116E+01  0.2222E+02
      0.996 -0.1745E+01  0.2211E+02
      1.057 -0.1113E+01  0.2204E+02
      1.117 -0.4945E+00  0.2201E+02
      1.178 -0.2129E+00  0.2200E+02
      1.239 -0.2536E+00  0.2198E+02
      1.300 -0.6697E+00  0.2194E+02
      1.360 -0.1565E+01  0.2185E+02
      1.421 -0.2567E+01  0.2169E+02
      1.482 -0.1928E+01  0.2157E+02
      1.543  0.3598E+01  0.2179E+02
      1.603  0.1641E+02  0.2279E+02
      1.664  0.3392E+02  0.2485E+02
      1.725  0.4761E+02  0.2774E+02
      1.786  0.4884E+02  0.3071E+02
      1.846  0.3676E+02  0.3294E+02
      1.907  0.1918E+02  0.3411E+02
      1.968  0.5219E+01  0.3442E+02
      2.028 -0.1441E+01  0.3434E+02
      2.089 -0.2648E+01  0.3417E+02
      2.150 -0.1750E+01  0.3407E+02
      2.211 -0.7855E+00  0.3402E+02
      2.271 -0.2914E+00  0.3400E+02
      2.332 -0.1856E+00  0.3399E+02
      2.393 -0.3712E+00  0.3397E+02
      2.454 -0.8264E+00  0.3392E+02
      2.514 -0.1305E+01  0.3384E+02
      2.575 -0.8620E+00  0.3379E+02
      2.636  0.2156E+01  0.3392E+02
      2.697  0.8828E+01  0.3445E+02
      2.757  0.1762E+02  0.3552E+02
      2.818  0.2411E+02  0.3699E+02
      2.879  0.2416E+02  0.3846E+02
      2.940  0.1774E+02  0.3953E+02
      3.000  0.8948E+01  0.4008E+02
      3.061  0.2226E+01  0.4021E+02
      3.122 -0.8411E+00  0.4016E+02
      3.182 -0.1309E+01  0.4008E+02
      3.243 -0.8382E+00  0.4003E+02
      3.304 -0.3939E+00  0.4001E+02
      3.365 -0.2542E+00  0.3999E+02
      3.425 -0.4834E+00  0.3996E+02
      3.486 -0.1179E+01  0.3989E+02
      3.547 -0.2207E+01  0.3976E+02
      3.608 -0.2423E+01  0.3961E+02
      3.668  0.8975E+00  0.3966E+02
      3.729  0.1078E+02  0.4032E+02
      3.790  0.2691E+02  0.4195E+02
      3.851  0.4292E+02  0.4456E+02
      3.911  0.4952E+02  0.4757E+02
      3.972  0.4235E+02  0.5014E+02
      4.033  0.2614E+02  0.5173E+02
      4.094  0.1020E+02  0.5235E+02
      4.154  0.6317E+00  0.5239E+02
      4.215 -0.2463E+01  0.5224E+02
      4.276 -0.2167E+01  0.5210E+02
      4.337 -0.1152E+01  0.5203E+02
      4.397 -0.5285E+00  0.5200E+02
      4.458 -0.4903E+00  0.5197E+02
      4.519 -0.1099E+01  0.5191E+02
      4.579 -0.2390E+01  0.5176E+02
      4.640 -0.3627E+01  0.5154E+02
      4.701 -0.2118E+01  0.5141E+02
      4.762  0.6642E+01  0.5182E+02
      4.822  0.2549E+02  0.5336E+02
      4.883  0.5026E+02  0.5642E+02
      4.944  0.6916E+02  0.6062E+02
      5.005  0.7075E+02  0.6491E+02
      5.065  0.5408E+02  0.6820E+02
      5.126  0.2949E+02  0.6999E+02
      5.187  0.9290E+01  0.7055E+02
      5.248 -0.1065E+01  0.7049E+02
      5.308 -0.3551E+01  0.7027E+02
      5.369 -0.2616E+01  0.7011E+02
      5.430 -0.1275E+01  0.7004E+02
      5.491 -0.5119E+00  0.7001E+02
      5.551 -0.3203E+00  0.6999E+02
      5.612 -0.5497E+00  0.6995E+02
      5.673 -0.1055E+01  0.6989E+02
      5.733 -0.1321E+01  0.6981E+02
      5.794 -0.4591E-01  0.6981E+02
      5.855  0.4429E+01  0.7008E+02
      5.916  0.1234E+02  0.7082E+02
      5.976  0.2082E+02  0.7209E+02
      6.037  0.2503E+02  0.7361E+02
      6.098  0.2217E+02  0.7496E+02
      6.159  0.1417E+02  0.7582E+02
      6.219  0.5807E+01  0.7617E+02
      6.280  0.5633E+00  0.7620E+02
      6.341 -0.1243E+01  0.7613E+02
      6.402 -0.1158E+01  0.7606E+02
      6.462 -0.6334E+00  0.7602E+02
      6.523 -0.3172E+00  0.7600E+02
      6.584 -0.3699E+00  0.7598E+02
      6.645 -0.9014E+00  0.7592E+02
      6.705 -0.1975E+01  0.7580E+02
      6.766 -0.2969E+01  0.7562E+02
      6.827 -0.1609E+01  0.7552E+02
      6.887  0.5830E+01  0.7588E+02
      6.948  0.2146E+02  0.7718E+02
      7.009  0.4136E+02  0.7969E+02
      7.070  0.5553E+02  0.8307E+02
      7.130  0.5511E+02  0.8641E+02
      7.191  0.4044E+02  0.8887E+02
      7.252  0.2069E+02  0.9013E+02
      7.313  0.5524E+01  0.9046E+02
      7.373 -0.1579E+01  0.9037E+02
      7.434 -0.2856E+01  0.9019E+02
      7.495 -0.1909E+01  0.9008E+02
      7.556 -0.8986E+00  0.9002E+02
      7.616 -0.4477E+00  0.8999E+02
      7.677 -0.5813E+00  0.8996E+02
      7.738 -0.1301E+01  0.8988E+02
      7.799 -0.2377E+01  0.8974E+02
      7.859 -0.2516E+01  0.8958E+02
      7.920  0.1161E+01  0.8965E+02
      7.981  0.1158E+02  0.9036E+02
      8.041  0.2794E+02  0.9205E+02
      8.102  0.4375E+02  0.9471E+02
      8.163  0.5106E+02  0.9781E+02
      8.224  0.4785E+02  0.1007E+03
      8.284  0.3934E+02  0.1031E+03
      8.345  0.3129E+02  0.1050E+03
      8.406  0.2451E+02  0.1065E+03
      8.467  0.1707E+02  0.1075E+03
      8.527  0.8997E+01  0.1081E+03
      8.588  0.2540E+01  0.1082E+03
      8.649 -0.7557E+00  0.1082E+03
      8.710 -0.1438E+01  0.1081E+03
      8.770 -0.9937E+00  0.1080E+03
      8.831 -0.4711E+00  0.1080E+03
      8.892 -0.2134E+00  0.1080E+03
      8.953 -0.2531E+00  0.1080E+03
      9.013 -0.6628E+00  0.1079E+03
      9.074 -0.1552E+01  0.1078E+03
      9.135 -0.2559E+01  0.1077E+03
      9.195 -0.1958E+01  0.1076E+03
      9.256  0.3490E+01  0.1078E+03
      9.317  0.1621E+02  0.1088E+03
      9.378  0.3372E+02  0.1108E+03
      9.438  0.4751E+02  0.1137E+03
      9.499  0.4891E+02  0.1167E+03
      9.560  0.3696E+02  0.1189E+03
      9.621  0.1937E+02  0.1201E+03
      9.681  0.5284E+01  0.1204E+03
      9.742 -0.1619E+01  0.1203E+03
      9.803 -0.3269E+01  0.1201E+03
      9.864 -0.3058E+01  0.1199E+03
      9.924 -0.2545E+01  0.1198E+03
      9.985 -0.7134E+00  0.1197E+03
     10.046  0.4772E+01  0.1200E+03
     10.107  0.1481E+02  0.1209E+03
     10.167  0.2629E+02  0.1225E+03
     10.228  0.3298E+02  0.1245E+03
     10.289  0.3051E+02  0.1264E+03
     10.349  0.2055E+02  0.1276E+03
     10.410  0.9179E+01  0.1282E+03
     10.471  0.1501E+01  0.1283E+03
     10.532 -0.1482E+01  0.1282E+03
     10.592 -0.1614E+01  0.1281E+03
     10.653 -0.9209E+00  0.1280E+03
     10.714 -0.3731E+00  0.1280E+03
     10.775 -0.1159E+00  0.1280E+03
     10.835 -0.2878E-01  0.1280E+03
     10.896 -0.7482E-02  0.1280E+03
     10.957 -0.1003E-01  0.1280E+03
     11.018 -0.3608E-01  0.1280E+03
     11.078 -0.1116E+00  0.1280E+03
     11.139 -0.2628E+00  0.1280E+03
     11.200 -0.4290E+00  0.1279E+03
     11.261 -0.3162E+00  0.1279E+03
     11.321  0.6183E+00  0.1280E+03
     11.382  0.2768E+01  0.1281E+03
     11.443  0.5689E+01  0.1285E+03
     11.503  0.7953E+01  0.1290E+03
     11.564  0.8127E+01  0.1295E+03
     11.625  0.6093E+01  0.1298E+03
     11.686  0.3162E+01  0.1300E+03
     11.746  0.8487E+00  0.1301E+03
     11.807 -0.2470E+00  0.1301E+03
     11.868 -0.4406E+00  0.1300E+03
     11.929 -0.2893E+00  0.1300E+03
     11.989 -0.1284E+00  0.1300E+03
     12.050 -0.4291E-01  0.1300E+03
     12.111 -0.1125E-01  0.1300E+03
     12.172 -0.2361E-02  0.1300E+03
     12.232 -0.4007E-03  0.1300E+03
     12.293 -0.5540E-04  0.1300E+03
     12.354 -0.6269E-05  0.1300E+03
     12.415 -0.5825E-06  0.1300E+03
     12.475 -0.4455E-07  0.1300E+03
     12.536 -0.2809E-08  0.1300E+03
     12.597 -0.1463E-09  0.1300E+03
     12.657 -0.6288E-11  0.1300E+03
     12.718 -0.2267E-12  0.1300E+03
     12.779 -0.7312E-14  0.1300E+03
     12.840  0.0000E+00  0.1300E+03
     12.900  0.0000E+00  0.1300E+03
     12.961  0.0000E+00  0.1300E+03
     13.022  0.0000E+00  0.1300E+03
     13.083  0.0000E+00  0.1300E+03
     13.143  0.0000E+00  0.1300E+03
     13.204  0.0000E+00  0.1300E+03
     13.265  0.0000E+00  0.1300E+03
     13.326  0.0000E+00  0.1300E+03
     13.386  0.0000E+00  0.1300E+03
     13.447  0.0000E+00  0.1300E+03
     13.508  0.0000E+00  0.1300E+03
