   32   32    1    1
  0.1652803E+02  0.8087054E-09  0.8087054E-09  0.8087054E-09  0.5000000E-15
  1.000000000000000E-004
  CAR 
 unknown system                          
   96    1   65
 
  0.2500000E+00  0.2500000E+00  0.2500000E+00  0.1000000E+01
   1       -2.713344
   2       -1.589246
   3       -1.589246
   4       -1.589246
   5       -0.473987
   6       -0.473987
   7       -0.473987
   8        0.631760
   9        0.631760
  10        0.631760
  11        0.633185
  12        1.729875
  13        1.729875
  14        1.729875
  15        1.729875
  16        1.729875
  17        1.729875
  18        2.818508
  19        2.818508
  20        2.818508
  21        3.862306
  22        3.862306
  23        3.862306
  24        3.896984
  25        3.896984
  26        3.896984
  27        4.928388
  28        4.928388
  29        4.928388
  30        4.928388
  31        4.928388
  32        4.928388
  33        4.991278
  34        4.991278
  35        4.991278
  36        6.012964
  37        6.012964
  38        6.012964
  39        7.059917
  40        7.059917
  41        7.059917
  42        7.059917
  43        7.059917
  44        7.059917
  45        7.122298
  46        8.123622
  47        8.123622
  48        8.123622
  49        8.123622
  50        8.123622
  51        8.123622
  52        8.360486
  53        8.360486
  54        8.360486
  55        9.444229
  56        9.444230
  57        9.444232
  58        9.444233
  59        9.444235
  60        9.444237
  61       10.200540
  62       10.203028
  63       10.220978
  64       10.224811
  65       11.507820
