Processors received = 1
script running on host compute-0-2.local
PBS_NODEFILE
compute-0-2
 running on    1 nodes
 distr:  one band on    1 nodes,    1 groups
 vasp.5.2.2 15Apr09 complex 
 POSCAR found type information on POSCAR  Al
 POSCAR found :  1 types and   32 ions

 ----------------------------------------------------------------------------- 
|                                                                             |
|  ADVICE TO THIS USER RUNNING 'VASP/VAMP'   (HEAR YOUR MASTER'S VOICE ...):  |
|                                                                             |
|      You have a (more or less) 'large supercell' and for larger cells       |
|      it might be more efficient to use real space projection operators      |
|      So try LREAL= Auto  in the INCAR   file.                               |
|      Mind: If you want to do a very accurate calculations keep the          |
|      reciprocal projection scheme          (i.e. LREAL=.FALSE.)             |
|                                                                             |
 ----------------------------------------------------------------------------- 

 LDA part: xc-table for Pade appr. of Perdew
 POSCAR, INCAR and KPOINTS ok, starting setup
 FFT: planning ...(           1 )
 reading WAVECAR
 entering main loop
       N       E                     dE             d eps       ncg     rms          rms(c)
RMM:   1     0.307718799308E+03    0.30772E+03   -0.17713E+04    65   0.642E+02
RMM:   2    -0.153713117352E+02   -0.32309E+03   -0.31699E+03    65   0.135E+02
RMM:   3    -0.919573392585E+02   -0.76586E+02   -0.78129E+02    65   0.455E+01
RMM:   4    -0.108695386483E+03   -0.16738E+02   -0.17440E+02    65   0.254E+01
RMM:   5    -0.115006391940E+03   -0.63110E+01   -0.53258E+01    65   0.129E+01
RMM:   6    -0.117328432848E+03   -0.23220E+01   -0.18426E+01    65   0.692E+00
RMM:   7    -0.118168718584E+03   -0.84029E+00   -0.68479E+00    65   0.383E+00
RMM:   8    -0.118509294027E+03   -0.34058E+00   -0.27857E+00    65   0.221E+00
RMM:   9    -0.118766461421E+03   -0.25717E+00   -0.19527E+00   148   0.134E+00
RMM:  10    -0.118841766216E+03   -0.75305E-01   -0.27154E-01   133   0.316E-01
RMM:  11    -0.118844787785E+03   -0.30216E-02   -0.64075E-03   123   0.612E-02
RMM:  12    -0.118844796065E+03   -0.82794E-05   -0.56181E-05    86   0.142E-02    0.539E+00
RMM:  13    -0.118447721633E+03    0.39707E+00   -0.42288E-02   142   0.651E-01    0.336E+00
RMM:  14    -0.118148589767E+03    0.29913E+00   -0.14348E-01   136   0.112E+00    0.136E-01
RMM:  15    -0.118148884386E+03   -0.29462E-03   -0.16734E-03   143   0.150E-01    0.355E-02
RMM:  16    -0.118148899872E+03   -0.15486E-04   -0.27737E-05    97   0.177E-02
   1 F= -.11814890E+03 E0= -.11806109E+03  d E =-.263435E+00
