Processors received = 12
script running on host compute-1-24.local
PBS_NODEFILE
compute-1-24
compute-1-24
compute-1-24
compute-1-24
compute-1-24
compute-1-24
compute-1-24
compute-1-24
compute-1-24
compute-1-24
compute-1-24
compute-1-24
 running on   12 nodes
 distr:  one band on    1 nodes,   12 groups
 vasp.5.2.2 15Apr09 complex 
 POSCAR found type information on POSCAR  Al Mg
 POSCAR found :  2 types and   31 ions

 ----------------------------------------------------------------------------- 
|                                                                             |
|  ADVICE TO THIS USER RUNNING 'VASP/VAMP'   (HEAR YOUR MASTER'S VOICE ...):  |
|                                                                             |
|      You have a (more or less) 'large supercell' and for larger cells       |
|      it might be more efficient to use real space projection operators      |
|      So try LREAL= Auto  in the INCAR   file.                               |
|      Mind: If you want to do a very accurate calculations keep the          |
|      reciprocal projection scheme          (i.e. LREAL=.FALSE.)             |
|                                                                             |
 ----------------------------------------------------------------------------- 

 LDA part: xc-table for Pade appr. of Perdew
 POSCAR, INCAR and KPOINTS ok, starting setup
 FFT: planning ...(           1 )
 reading WAVECAR
 entering main loop
       N       E                     dE             d eps       ncg     rms          rms(c)
RMM:   1     0.232896796503E+03    0.23290E+03   -0.15563E+04    72   0.534E+02
RMM:   2    -0.264148409844E+02   -0.25931E+03   -0.25225E+03    72   0.110E+02
RMM:   3    -0.734205899272E+02   -0.47006E+02   -0.46197E+02    72   0.349E+01
RMM:   4    -0.887965144569E+02   -0.15376E+02   -0.11124E+02    72   0.195E+01
RMM:   5    -0.955076517353E+02   -0.67111E+01   -0.44017E+01    72   0.113E+01
RMM:   6    -0.978706858617E+02   -0.23630E+01   -0.17566E+01    72   0.680E+00
RMM:   7    -0.986940000090E+02   -0.82331E+00   -0.68242E+00    72   0.404E+00
RMM:   8    -0.990310593965E+02   -0.33706E+00   -0.29389E+00    72   0.247E+00
RMM:   9    -0.992803376917E+02   -0.24928E+00   -0.23150E+00   172   0.160E+00
RMM:  10    -0.993124789117E+02   -0.32141E-01   -0.22619E-01   149   0.360E-01
RMM:  11    -0.993150609820E+02   -0.25821E-02   -0.14900E-02   135   0.911E-02
RMM:  12    -0.993150981342E+02   -0.37152E-04   -0.18734E-04    96   0.201E-02    0.652E+00
RMM:  13    -0.981783779469E+02    0.11367E+01   -0.24767E+00   144   0.197E+00    0.390E+00
RMM:  14    -0.979226843790E+02    0.25569E+00   -0.20890E-01   144   0.803E-01    0.240E+00
RMM:  15    -0.977921430036E+02    0.13054E+00   -0.12588E-01   146   0.680E-01    0.568E-01
RMM:  16    -0.977817944582E+02    0.10349E-01   -0.12872E-02   144   0.203E-01    0.162E-01
RMM:  17    -0.977807605969E+02    0.10339E-02   -0.25525E-03   144   0.906E-02    0.532E-02
RMM:  18    -0.977807357359E+02    0.24861E-04   -0.27200E-04   105   0.323E-02
   1 F= -.97780736E+02 E0= -.97751336E+02  d E =-.977807E+02
 curvature:   0.00 expect dE= 0.000E+00 dE for cont linesearch  0.000E+00
 trial: gam= 0.00000 g(F)=  0.967E-01 g(S)=  0.000E+00 ort = 0.000E+00 (trialstep = 0.100E+01)
 search vector abs. value=  0.967E-01
 bond charge predicted
       N       E                     dE             d eps       ncg     rms          rms(c)
RMM:   1    -0.978895157833E+02   -0.10876E+00   -0.57667E-01   144   0.194E+00    0.412E-01
RMM:   2    -0.978739724141E+02    0.15543E-01   -0.46414E-02   144   0.354E-01    0.138E-01
RMM:   3    -0.978720235159E+02    0.19489E-02   -0.32749E-03   135   0.932E-02    0.499E-02
RMM:   4    -0.978719790911E+02    0.44425E-04   -0.16681E-04   104   0.288E-02
   2 F= -.97871979E+02 E0= -.97849847E+02  d E =-.912434E-01
 ZBRENT: can't locate minimum, use default step
 trial-energy change:   -0.091243  1 .order   -0.091163   -0.096737   -0.085590
 step:   4.0000(harm=  8.6786)  dis= 0.07588  next Energy=   -98.200508 (dE=-0.420E+00)
 bond charge predicted
       N       E                     dE             d eps       ncg     rms          rms(c)
RMM:   1    -0.982040943409E+02   -0.33207E+00   -0.50478E+00   144   0.576E+00    0.112E+00
RMM:   2    -0.980877028671E+02    0.11639E+00   -0.36901E-01   144   0.102E+00    0.438E-01
RMM:   3    -0.980686019621E+02    0.19101E-01   -0.32073E-02   146   0.287E-01    0.156E-01
RMM:   4    -0.980682528205E+02    0.34914E-03   -0.14935E-03   150   0.810E-02    0.889E-02
RMM:   5    -0.980682796721E+02   -0.26852E-04   -0.34856E-04   107   0.392E-02
   3 F= -.98068280E+02 E0= -.98068257E+02  d E =-.287544E+00
 curvature:  -2.73 expect dE=-0.108E+00 dE for cont linesearch -0.525E-01
 ZBRENT: increasing intervall
 opt :  10.0000  next Energy=   -98.072657 (dE=-0.292E+00)
 bond charge predicted
       N       E                     dE             d eps       ncg     rms          rms(c)
RMM:   1    -0.984194313503E+02   -0.35118E+00   -0.19603E+01   144   0.114E+01    0.196E+00
RMM:   2    -0.980453471132E+02    0.37408E+00   -0.12268E+00   145   0.194E+00    0.787E-01
RMM:   3    -0.979847300125E+02    0.60617E-01   -0.10780E-01   147   0.552E-01    0.308E-01
RMM:   4    -0.979834105218E+02    0.13195E-02   -0.58641E-03   148   0.160E-01    0.171E-01
RMM:   5    -0.979834580067E+02   -0.47485E-04   -0.13166E-03   144   0.752E-02    0.757E-02
RMM:   6    -0.979835551705E+02   -0.97164E-04   -0.19195E-04    95   0.342E-02
   4 F= -.97983555E+02 E0= -.98025402E+02  d E =-.202819E+00
 curvature:  -0.23 expect dE=-0.554E-01 dE for cont linesearch -0.149E-01
 trial: gam= 0.00000 g(F)=  0.244E+00 g(S)=  0.000E+00 ort =-0.797E-01 (trialstep = 0.111E+01)
 search vector abs. value=  0.244E+00
 bond charge predicted
       N       E                     dE             d eps       ncg     rms          rms(c)
RMM:   1    -0.981813843139E+02   -0.19793E+00   -0.23702E+00   144   0.362E+00    0.471E-01
RMM:   2    -0.981645097029E+02    0.16875E-01   -0.57901E-02   145   0.513E-01    0.170E-01
RMM:   3    -0.981628116352E+02    0.16981E-02   -0.41913E-03   145   0.136E-01    0.916E-02
RMM:   4    -0.981624801233E+02    0.33151E-03   -0.75992E-04   136   0.531E-02    0.428E-02
RMM:   5    -0.981624558800E+02    0.24243E-04   -0.18351E-04    90   0.265E-02
   5 F= -.98162456E+02 E0= -.98196518E+02  d E =-.178901E+00
 trial-energy change:   -0.178901  1 .order   -0.181871   -0.270863   -0.092879
 step:   1.8026(harm=  1.6902)  dis= 0.06547  next Energy=   -98.190674 (dE=-0.207E+00)
 bond charge predicted
       N       E                     dE             d eps       ncg     rms          rms(c)
RMM:   1    -0.981972184240E+02   -0.34738E-01   -0.90713E-01   144   0.224E+00    0.287E-01
RMM:   2    -0.981910179027E+02    0.62005E-02   -0.20932E-02   144   0.316E-01    0.107E-01
RMM:   3    -0.981904118802E+02    0.60602E-03   -0.15795E-03   138   0.855E-02    0.578E-02
RMM:   4    -0.981902936101E+02    0.11827E-03   -0.30829E-04   104   0.359E-02    0.274E-02
RMM:   5    -0.981902902300E+02    0.33801E-05   -0.73548E-05    86   0.196E-02
   6 F= -.98190290E+02 E0= -.98217723E+02  d E =-.206735E+00
 curvature:  -0.81 expect dE=-0.166E-01 dE for cont linesearch -0.478E-05
 trial: gam= 0.08876 g(F)=  0.205E-01 g(S)=  0.000E+00 ort =-0.120E-02 (trialstep = 0.125E+01)
 search vector abs. value=  0.222E-01
 reached required accuracy - stopping structural energy minimisation
