  31  31   0   0
  0.1706118E+02  0.8087052E-09  0.8087052E-09  0.8087052E-09  0.5000000E-15
  1.000000000000000E-004
  CAR 
 unknown system                          
     12.31221758     -5.45459703  301      7.71907864      1.00000000
     -5.455  0.0000E+00  0.0000E+00
     -5.395  0.0000E+00  0.0000E+00
     -5.336  0.0000E+00  0.0000E+00
     -5.277  0.0000E+00  0.0000E+00
     -5.218  0.0000E+00  0.0000E+00
     -5.158  0.0000E+00  0.0000E+00
     -5.099 -0.1757E-29 -0.1040E-30
     -5.040 -0.2004E-27 -0.1197E-28
     -4.981 -0.1930E-25 -0.1155E-26
     -4.922 -0.1556E-23 -0.9331E-25
     -4.862 -0.1051E-21 -0.6317E-23
     -4.803 -0.5942E-20 -0.3582E-21
     -4.744 -0.2813E-18 -0.1701E-19
     -4.685 -0.1114E-16 -0.6767E-18
     -4.625 -0.3592E-15 -0.2195E-16
     -4.566 -0.9900E-14 -0.6082E-15
     -4.507 -0.2282E-12 -0.1413E-13
     -4.448 -0.4394E-11 -0.2743E-12
     -4.389 -0.7053E-10 -0.4451E-11
     -4.329 -0.9429E-09 -0.6029E-10
     -4.270 -0.1048E-07 -0.6812E-09
     -4.211 -0.9676E-07 -0.6411E-08
     -4.152 -0.7393E-06 -0.5020E-07
     -4.092 -0.4660E-05 -0.3262E-06
     -4.033 -0.2411E-04 -0.1754E-05
     -3.974 -0.1016E-03 -0.7770E-05
     -3.915 -0.3441E-03 -0.2815E-04
     -3.856 -0.9158E-03 -0.8239E-04
     -3.796 -0.1821E-02 -0.1902E-03
     -3.737 -0.2322E-02 -0.3277E-03
     -3.678 -0.3680E-03 -0.3495E-03
     -3.619  0.6768E-02  0.5128E-04
     -3.559  0.1979E-01  0.1223E-02
     -3.500  0.3456E-01  0.3270E-02
     -3.441  0.4331E-01  0.5835E-02
     -3.382  0.4054E-01  0.8236E-02
     -3.323  0.2804E-01  0.9897E-02
     -3.263  0.1323E-01  0.1068E-01
     -3.204  0.2719E-02  0.1084E-01
     -3.145 -0.1749E-02  0.1074E-01
     -3.086 -0.2241E-02  0.1061E-01
     -3.026 -0.1385E-02  0.1052E-01
     -2.967 -0.6039E-03  0.1049E-01
     -2.908 -0.2023E-03  0.1048E-01
     -2.849 -0.5394E-04  0.1047E-01
     -2.790 -0.1164E-04  0.1047E-01
     -2.730 -0.2053E-05  0.1047E-01
     -2.671 -0.2981E-06  0.1047E-01
     -2.612 -0.3576E-07  0.1047E-01
     -2.553 -0.3557E-08  0.1047E-01
     -2.493 -0.2939E-09  0.1047E-01
     -2.434 -0.2038E-10  0.1047E-01
     -2.375 -0.4647E-11  0.1047E-01
     -2.316 -0.5964E-10  0.1047E-01
     -2.257 -0.8490E-09  0.1047E-01
     -2.197 -0.1008E-07  0.1047E-01
     -2.138 -0.9955E-07  0.1047E-01
     -2.079 -0.8167E-06  0.1047E-01
     -2.020 -0.5551E-05  0.1047E-01
     -1.960 -0.3115E-04  0.1047E-01
     -1.901 -0.1436E-03  0.1046E-01
     -1.842 -0.5396E-03  0.1043E-01
     -1.783 -0.1629E-02  0.1033E-01
     -1.724 -0.3847E-02  0.1010E-01
     -1.664 -0.6667E-02  0.9709E-02
     -1.605 -0.6731E-02  0.9311E-02
     -1.546  0.3123E-02  0.9496E-02
     -1.487  0.3056E-01  0.1131E-01
     -1.427  0.7555E-01  0.1578E-01
     -1.368  0.1243E+00  0.2314E-01
     -1.309  0.1547E+00  0.3230E-01
     -1.250  0.1527E+00  0.4134E-01
     -1.191  0.1239E+00  0.4868E-01
     -1.131  0.8758E-01  0.5387E-01
     -1.072  0.5917E-01  0.5737E-01
     -1.013  0.4129E-01  0.5982E-01
     -0.954  0.2990E-01  0.6159E-01
     -0.894  0.2415E-01  0.6302E-01
     -0.835  0.2631E-01  0.6458E-01
     -0.776  0.3454E-01  0.6662E-01
     -0.717  0.4085E-01  0.6904E-01
     -0.658  0.3791E-01  0.7129E-01
     -0.598  0.2604E-01  0.7283E-01
     -0.539  0.1200E-01  0.7354E-01
     -0.480  0.2158E-02  0.7367E-01
     -0.421 -0.1894E-02  0.7356E-01
     -0.361 -0.2212E-02  0.7343E-01
     -0.302 -0.1330E-02  0.7335E-01
     -0.243 -0.5695E-03  0.7331E-01
     -0.184 -0.1880E-03  0.7330E-01
     -0.125 -0.4947E-04  0.7330E-01
     -0.065 -0.1056E-04  0.7330E-01
     -0.006 -0.1962E-05  0.7330E-01
      0.053 -0.1222E-05  0.7330E-01
      0.112 -0.6199E-05  0.7330E-01
      0.172 -0.3294E-04  0.7330E-01
      0.231 -0.1455E-03  0.7329E-01
      0.290 -0.5283E-03  0.7326E-01
      0.349 -0.1561E-02  0.7316E-01
      0.408 -0.3674E-02  0.7295E-01
      0.468 -0.6560E-02  0.7256E-01
      0.527 -0.7581E-02  0.7211E-01
      0.586 -0.5433E-03  0.7208E-01
      0.645  0.2254E-01  0.7341E-01
      0.705  0.6537E-01  0.7728E-01
      0.764  0.1210E+00  0.8445E-01
      0.823  0.1729E+00  0.9468E-01
      0.882  0.2055E+00  0.1069E+00
      0.941  0.2152E+00  0.1196E+00
      1.001  0.2084E+00  0.1319E+00
      1.060  0.1931E+00  0.1434E+00
      1.119  0.1730E+00  0.1536E+00
      1.178  0.1485E+00  0.1624E+00
      1.238  0.1190E+00  0.1695E+00
      1.297  0.8450E-01  0.1745E+00
      1.356  0.4840E-01  0.1773E+00
      1.415  0.1844E-01  0.1784E+00
      1.474  0.2580E-02  0.1786E+00
      1.534  0.3594E-02  0.1788E+00
      1.593  0.1704E-01  0.1798E+00
      1.652  0.3299E-01  0.1818E+00
      1.711  0.4092E-01  0.1842E+00
      1.771  0.3619E-01  0.1863E+00
      1.830  0.2369E-01  0.1877E+00
      1.889  0.1414E-01  0.1886E+00
      1.948  0.1557E-01  0.1895E+00
      2.007  0.2689E-01  0.1911E+00
      2.067  0.3890E-01  0.1934E+00
      2.126  0.4187E-01  0.1959E+00
      2.185  0.3327E-01  0.1978E+00
      2.244  0.1874E-01  0.1989E+00
      2.304  0.6129E-02  0.1993E+00
      2.363 -0.6125E-03  0.1993E+00
      2.422 -0.2341E-02  0.1991E+00
      2.481 -0.1792E-02  0.1990E+00
      2.540 -0.9813E-03  0.1990E+00
      2.600 -0.6990E-03  0.1989E+00
      2.659 -0.1118E-02  0.1989E+00
      2.718 -0.2180E-02  0.1987E+00
      2.777 -0.3287E-02  0.1985E+00
      2.837 -0.2753E-02  0.1984E+00
      2.896  0.2003E-02  0.1985E+00
      2.955  0.1311E-01  0.1993E+00
      3.014  0.3122E-01  0.2011E+00
      3.073  0.5644E-01  0.2045E+00
      3.133  0.8907E-01  0.2097E+00
      3.192  0.1268E+00  0.2172E+00
      3.251  0.1604E+00  0.2267E+00
      3.310  0.1761E+00  0.2372E+00
      3.370  0.1647E+00  0.2469E+00
      3.429  0.1287E+00  0.2545E+00
      3.488  0.8141E-01  0.2594E+00
      3.547  0.3913E-01  0.2617E+00
      3.606  0.1406E-01  0.2625E+00
      3.666  0.9920E-02  0.2631E+00
      3.725  0.2104E-01  0.2644E+00
      3.784  0.3528E-01  0.2664E+00
      3.843  0.4104E-01  0.2689E+00
      3.903  0.3428E-01  0.2709E+00
      3.962  0.1983E-01  0.2721E+00
      4.021  0.5821E-02  0.2724E+00
      4.080 -0.2391E-02  0.2723E+00
      4.139 -0.3257E-02  0.2721E+00
      4.199  0.3309E-02  0.2723E+00
      4.258  0.1637E-01  0.2733E+00
      4.317  0.3165E-01  0.2751E+00
      4.376  0.4129E-01  0.2776E+00
      4.436  0.3878E-01  0.2799E+00
      4.495  0.2514E-01  0.2814E+00
      4.554  0.9881E-02  0.2819E+00
      4.613  0.5946E-02  0.2823E+00
      4.672  0.2247E-01  0.2836E+00
      4.732  0.5829E-01  0.2871E+00
      4.791  0.9903E-01  0.2929E+00
      4.850  0.1231E+00  0.3002E+00
      4.909  0.1162E+00  0.3071E+00
      4.969  0.8274E-01  0.3120E+00
      5.028  0.4171E-01  0.3145E+00
      5.087  0.1099E-01  0.3151E+00
      5.146 -0.3455E-02  0.3149E+00
      5.205 -0.6167E-02  0.3146E+00
      5.265 -0.4223E-02  0.3143E+00
      5.324 -0.1989E-02  0.3142E+00
      5.383 -0.7191E-03  0.3142E+00
      5.442 -0.2237E-03  0.3141E+00
      5.502 -0.1304E-03  0.3141E+00
      5.561 -0.3010E-03  0.3141E+00
      5.620 -0.8150E-03  0.3141E+00
      5.679 -0.1729E-02  0.3140E+00
      5.738 -0.2535E-02  0.3138E+00
      5.798 -0.1540E-02  0.3137E+00
      5.857  0.3838E-02  0.3139E+00
      5.916  0.1501E-01  0.3148E+00
      5.975  0.2986E-01  0.3166E+00
      6.035  0.4338E-01  0.3192E+00
      6.094  0.5189E-01  0.3222E+00
      6.153  0.5607E-01  0.3256E+00
      6.212  0.5865E-01  0.3290E+00
      6.272  0.6017E-01  0.3326E+00
      6.331  0.5875E-01  0.3361E+00
      6.390  0.5449E-01  0.3393E+00
      6.449  0.5348E-01  0.3425E+00
      6.508  0.6601E-01  0.3464E+00
      6.568  0.9848E-01  0.3522E+00
      6.627  0.1455E+00  0.3608E+00
      6.686  0.1899E+00  0.3721E+00
      6.745  0.2130E+00  0.3847E+00
      6.805  0.2068E+00  0.3970E+00
      6.864  0.1790E+00  0.4076E+00
      6.923  0.1450E+00  0.4161E+00
      6.982  0.1158E+00  0.4230E+00
      7.041  0.9357E-01  0.4285E+00
      7.101  0.7804E-01  0.4332E+00
      7.160  0.7202E-01  0.4374E+00
      7.219  0.7868E-01  0.4421E+00
      7.278  0.9475E-01  0.4477E+00
      7.338  0.1096E+00  0.4542E+00
      7.397  0.1129E+00  0.4609E+00
      7.456  0.1026E+00  0.4669E+00
      7.515  0.8400E-01  0.4719E+00
      7.574  0.6336E-01  0.4757E+00
      7.634  0.4562E-01  0.4784E+00
      7.693  0.3747E-01  0.4806E+00
      7.752  0.4640E-01  0.4833E+00
      7.811  0.7290E-01  0.4877E+00
      7.871  0.1056E+00  0.4939E+00
      7.930  0.1289E+00  0.5015E+00
      7.989  0.1350E+00  0.5095E+00
      8.048  0.1273E+00  0.5171E+00
      8.107  0.1111E+00  0.5237E+00
      8.167  0.8784E-01  0.5289E+00
      8.226  0.5825E-01  0.5323E+00
      8.285  0.2694E-01  0.5339E+00
      8.344  0.8689E-03  0.5340E+00
      8.404 -0.1429E-01  0.5331E+00
      8.463 -0.1273E-01  0.5324E+00
      8.522  0.1435E-01  0.5332E+00
      8.581  0.7333E-01  0.5375E+00
      8.640  0.1554E+00  0.5468E+00
      8.700  0.2321E+00  0.5605E+00
      8.759  0.2702E+00  0.5765E+00
      8.818  0.2557E+00  0.5916E+00
      8.877  0.2029E+00  0.6037E+00
      8.937  0.1440E+00  0.6122E+00
      8.996  0.1101E+00  0.6187E+00
      9.055  0.1136E+00  0.6254E+00
      9.114  0.1423E+00  0.6339E+00
      9.173  0.1678E+00  0.6438E+00
      9.233  0.1660E+00  0.6536E+00
      9.292  0.1342E+00  0.6616E+00
      9.351  0.9333E-01  0.6671E+00
      9.410  0.7187E-01  0.6714E+00
      9.470  0.8482E-01  0.6764E+00
      9.529  0.1215E+00  0.6836E+00
      9.588  0.1539E+00  0.6927E+00
      9.647  0.1594E+00  0.7021E+00
      9.706  0.1364E+00  0.7102E+00
      9.766  0.9951E-01  0.7161E+00
      9.825  0.6311E-01  0.7198E+00
      9.884  0.3324E-01  0.7218E+00
      9.943  0.1050E-01  0.7224E+00
     10.003 -0.3849E-02  0.7222E+00
     10.062 -0.5345E-02  0.7219E+00
     10.121  0.1191E-01  0.7226E+00
     10.180  0.4902E-01  0.7255E+00
     10.239  0.9468E-01  0.7311E+00
     10.299  0.1263E+00  0.7386E+00
     10.358  0.1249E+00  0.7460E+00
     10.417  0.9202E-01  0.7514E+00
     10.476  0.4757E-01  0.7542E+00
     10.536  0.1299E-01  0.7550E+00
     10.595 -0.3626E-02  0.7548E+00
     10.654 -0.6838E-02  0.7544E+00
     10.713 -0.4682E-02  0.7541E+00
     10.772 -0.2185E-02  0.7540E+00
     10.832 -0.7754E-03  0.7539E+00
     10.891 -0.2181E-03  0.7539E+00
     10.950 -0.4958E-04  0.7539E+00
     11.009 -0.9212E-05  0.7539E+00
     11.069 -0.1409E-05  0.7539E+00
     11.128 -0.1781E-06  0.7539E+00
     11.187 -0.1868E-07  0.7539E+00
     11.246 -0.1630E-08  0.7539E+00
     11.305 -0.1184E-09  0.7539E+00
     11.365 -0.7176E-11  0.7539E+00
     11.424 -0.3632E-12  0.7539E+00
     11.483 -0.1535E-13  0.7539E+00
     11.542 -0.5889E-15  0.7539E+00
     11.602  0.0000E+00  0.7539E+00
     11.661  0.0000E+00  0.7539E+00
     11.720  0.0000E+00  0.7539E+00
     11.779  0.0000E+00  0.7539E+00
     11.838  0.0000E+00  0.7539E+00
     11.898  0.0000E+00  0.7539E+00
     11.957  0.0000E+00  0.7539E+00
     12.016  0.0000E+00  0.7539E+00
     12.075  0.0000E+00  0.7539E+00
     12.135  0.0000E+00  0.7539E+00
     12.194  0.0000E+00  0.7539E+00
     12.253  0.0000E+00  0.7539E+00
     12.312  0.0000E+00  0.7539E+00
