   31   31  191    1
  0.1706118E+02  0.8087052E-09  0.8087052E-09  0.8087052E-09  0.5000000E-15
  1.000000000000000E-004
  CAR 
 unknown system                          
   92    1   72
 
  0.0000000E+00  0.0000000E+00  0.0000000E+00  0.1000000E+01
   1       -3.454597
   2       -1.364587
   3       -1.360469
   4       -1.290489
   5       -1.250031
   6       -1.047555
   7       -0.733918
   8        0.745862
   9        0.818322
  10        0.850582
  11        0.860866
  12        0.930874
  13        1.039501
  14        1.043846
  15        1.064531
  16        1.212932
  17        1.242487
  18        1.687638
  19        2.076767
  20        3.057173
  21        3.206984
  22        3.269533
  23        3.271748
  24        3.353866
  25        3.427204
  26        3.802264
  27        4.372129
  28        4.787398
  29        4.850909
  30        4.868743
  31        6.030054
  32        6.228015
  33        6.384890
  34        6.606473
  35        6.613453
  36        6.702143
  37        6.760364
  38        6.764675
  39        6.780736
  40        6.931687
  41        6.974060
  42        7.114822
  43        7.304850
  44        7.317157
  45        7.435808
  46        7.582037
  47        7.852913
  48        7.884762
  49        7.952914
  50        8.080391
  51        8.144738
  52        8.667187
  53        8.687682
  54        8.703368
  55        8.720375
  56        8.732286
  57        8.811613
  58        8.848491
  59        8.905163
  60        9.108674
  61        9.116413
  62        9.157743
  63        9.236919
  64        9.271787
  65        9.524262
  66        9.561671
  67        9.589249
  68        9.644871
  69        9.790604
  70       10.281919
  71       10.293875
  72       10.312218
