<?xml version="1.0" encoding="ISO-8859-1"?>
<modeling>
 <generator>
  <i name="program" type="string">vasp </i>
  <i name="version" type="string">5.2.2  </i>
  <i name="subversion" type="string">15Apr09 complex  parallel </i>
  <i name="platform" type="string">LinuxIFC </i>
  <i name="date" type="string">2017 03 17 </i>
  <i name="time" type="string">11:23:27 </i>
 </generator>
 <incar>
  <i type="string" name="PREC">accurate</i>
  <i type="int" name="IALGO">    48</i>
  <i type="int" name="IBRION">     2</i>
  <i name="EDIFFG">      0.05000000</i>
  <i type="int" name="NSW">   191</i>
  <i type="int" name="ISIF">     2</i>
  <i name="ENCUT">    300.00000000</i>
  <i name="NELECT">     92.00000000</i>
  <i type="int" name="ISMEAR">     1</i>
  <i name="SIGMA">      0.20000000</i>
  <i type="logical" name="LWAVE"> F  </i>
  <i type="logical" name="LCHARG"> F  </i>
  <i type="logical" name="LPEAD"> F  </i>
  <i type="logical" name="LCALCPOL"> F  </i>
  <i type="logical" name="LCALCEPS"> F  </i>
  <v name="EFIELD_PEAD">      0.00000000      0.00000000      0.00000000</v>
  <i type="logical" name="LEFG"> F  </i>
 </incar>
 <kpoints>
  <generation param="Gamma">
   <v type="int" name="divisions">       1        1        1 </v>
   <v name="usershift">      0.00000000       0.00000000       0.00000000 </v>
   <v name="genvec1">      1.00000000       0.00000000       0.00000000 </v>
   <v name="genvec2">      0.00000000       1.00000000       0.00000000 </v>
   <v name="genvec3">      0.00000000       0.00000000       1.00000000 </v>
   <v name="shift">      0.00000000       0.00000000       0.00000000 </v>
  </generation>
  <varray name="kpointlist" >
   <v>       0.00000000       0.00000000       0.00000000 </v>
  </varray>
  <varray name="weights" >
   <v>       1.00000000 </v>
  </varray>
 </kpoints>
 <parameters>
  <separator name="general" >
   <i type="string" name="SYSTEM">unknown system</i>
   <i type="logical" name="LCOMPAT"> F  </i>
  </separator>
  <separator name="electronic" >
   <i type="string" name="PREC">accura</i>
   <i name="ENMAX">    300.00000000</i>
   <i name="ENAUG">    291.05200000</i>
   <i name="EDIFF">      0.00010000</i>
   <i type="int" name="IALGO">    48</i>
   <i type="int" name="IWAVPR">    11</i>
   <i type="int" name="NBANDS">    72</i>
   <i name="NELECT">     92.00000000</i>
   <separator name="electronic smearing" >
    <i type="int" name="ISMEAR">     1</i>
    <i name="SIGMA">      0.20000000</i>
   </separator>
   <separator name="electronic projectors" >
    <i type="logical" name="LREAL"> F  </i>
    <v name="ROPT">      0.00000000      0.00000000</v>
    <i type="int" name="LMAXPAW">  -100</i>
    <i type="int" name="LMAXMIX">     2</i>
   </separator>
   <separator name="electronic startup" >
    <i type="int" name="ISTART">     0</i>
    <i type="int" name="ICHARG">     2</i>
    <i type="int" name="INIWAV">     1</i>
   </separator>
   <separator name="electronic spin" >
    <i type="int" name="ISPIN">     1</i>
    <i type="logical" name="LNONCOLLINEAR"> F  </i>
    <v name="MAGMOM">      1.00000000      1.00000000      1.00000000      1.00000000      1.00000000      1.00000000      1.00000000      1.00000000      1.00000000      1.00000000      1.00000000      1.00000000      1.00000000      1.00000000      1.00000000      1.00000000      1.00000000      1.00000000      1.00000000      1.00000000
      1.00000000      1.00000000      1.00000000      1.00000000      1.00000000      1.00000000      1.00000000      1.00000000      1.00000000      1.00000000      1.00000000</v>
    <i name="NUPDOWN">     -1.00000000</i>
    <i type="logical" name="LSORBIT"> F  </i>
    <v name="SAXIS">      0.00000000      0.00000000      1.00000000</v>
    <i type="logical" name="LSPIRAL"> F  </i>
    <v name="QSPIRAL">      0.00000000      0.00000000      0.00000000</v>
    <i type="logical" name="LZEROZ"> F  </i>
   </separator>
   <separator name="electronic exchange-correlation" >
    <i type="logical" name="LASPH"> F  </i>
    <i type="logical" name="LMETAGGA"> F  </i>
   </separator>
   <separator name="electronic convergence" >
    <i type="int" name="NELM">    60</i>
    <i type="int" name="NELMDL">   -12</i>
    <i type="int" name="NELMIN">     2</i>
    <i name="ENINI">    300.00000000</i>
    <separator name="electronic convergence detail" >
     <i type="logical" name="LDIAG"> T  </i>
     <i name="WEIMIN">      0.00100000</i>
     <i name="EBREAK">      0.00000040</i>
     <i name="DEPER">      0.30000000</i>
     <i type="int" name="NRMM">     4</i>
     <i name="TIME">      0.40000000</i>
    </separator>
   </separator>
   <separator name="electronic mixer" >
    <i name="AMIX">      0.40000000</i>
    <i name="BMIX">      1.00000000</i>
    <i name="AMIN">      0.10000000</i>
    <i name="AMIX_MAG">      1.60000000</i>
    <i name="BMIX_MAG">      1.00000000</i>
    <separator name="electronic mixer details" >
     <i type="int" name="IMIX">     4</i>
     <i type="int" name="MAXMIX">   -45</i>
     <i name="WC">    100.00000000</i>
     <i type="int" name="INIMIX">     1</i>
     <i type="int" name="MIXPRE">     1</i>
     <i type="int" name="MREMOVE">     5</i>
    </separator>
   </separator>
   <separator name="electronic dipolcorrection" >
    <i type="logical" name="LDIPOL"> F  </i>
    <i type="logical" name="LMONO"> F  </i>
    <i type="int" name="IDIPOL">     0</i>
    <i name="EPSILON">      1.00000000</i>
    <v name="DIPOL">   -100.00000000   -100.00000000   -100.00000000</v>
    <i name="EFIELD">      0.00000000</i>
   </separator>
  </separator>
  <separator name="grids" >
   <i type="int" name="NGX">    48</i>
   <i type="int" name="NGY">    48</i>
   <i type="int" name="NGZ">    48</i>
   <i type="int" name="NGXF">    96</i>
   <i type="int" name="NGYF">    96</i>
   <i type="int" name="NGZF">    96</i>
   <i type="logical" name="ADDGRID"> F  </i>
  </separator>
  <separator name="ionic" >
   <i type="int" name="NSW">   191</i>
   <i type="int" name="IBRION">     2</i>
   <i type="int" name="ISIF">     2</i>
   <i name="PSTRESS">      0.00000000</i>
   <i name="EDIFFG">      0.05000000</i>
   <i type="int" name="NFREE">     1</i>
   <i name="POTIM">      0.50000000</i>
   <i name="SMASS">     -3.00000000</i>
  </separator>
  <separator name="ionic md" >
   <i name="TEBEG">      0.00010000</i>
   <i name="TEEND">      0.00010000</i>
   <i type="int" name="NBLOCK">     1</i>
   <i type="int" name="KBLOCK">   191</i>
   <i type="int" name="NPACO">   256</i>
   <i name="APACO">     16.00000000</i>
  </separator>
  <separator name="symmetry" >
   <i type="int" name="ISYM">     2</i>
   <i name="SYMPREC">      0.00001000</i>
  </separator>
  <separator name="dos" >
   <i type="logical" name="LORBIT"> F  </i>
   <v name="RWIGS">     -1.00000000     -1.00000000</v>
   <i type="int" name="NEDOS">   301</i>
   <i name="EMIN">     10.00000000</i>
   <i name="EMAX">    -10.00000000</i>
   <i name="EFERMI">      0.00000000</i>
  </separator>
  <separator name="writing" >
   <i type="int" name="NWRITE">     2</i>
   <i type="logical" name="LWAVE"> F  </i>
   <i type="logical" name="LCHARG"> F  </i>
   <i type="logical" name="LPARD"> F  </i>
   <i type="logical" name="LVTOT"> F  </i>
   <i type="logical" name="LELF"> F  </i>
   <i type="logical" name="LOPTICS"> F  </i>
   <v name="STM">      0.00000000      0.00000000      0.00000000      0.00000000      0.00000000</v>
  </separator>
  <separator name="performance" >
   <i type="int" name="NPAR">    12</i>
   <i type="int" name="NSIM">     4</i>
   <i type="int" name="NBLK">    32</i>
   <i type="logical" name="LPLANE"> T  </i>
   <i type="logical" name="LSCALAPACK"> F  </i>
   <i type="logical" name="LSCAAWARE"> F  </i>
   <i type="logical" name="LSCALU"> F  </i>
   <i type="logical" name="LASYNC"> F  </i>
  </separator>
  <separator name="miscellaneous" >
   <i type="int" name="IDIOT">     3</i>
   <i type="logical" name="LMUSIC"> F  </i>
   <v name="POMASS">     26.98200000     24.30500000</v>
   <i type="logical" name="LCORR"> T  </i>
  </separator>
  <i type="logical" name="LREAL_COMPAT"> F  </i>
  <i type="logical" name="GGA_COMPAT"> T  </i>
  <i type="logical" name="LBERRY"> F  </i>
  <i type="int" name="ICORELEVEL">     0</i>
  <i type="logical" name="LDAU"> F  </i>
  <i type="int" name="I_CONSTRAINED_M">     0</i>
  <separator name="electronic exchange-correlation" >
   <i type="string" name="GGA">--</i>
   <i type="int" name="VOSKOWN">     0</i>
   <i type="logical" name="LHFCALC"> F  </i>
   <i type="logical" name="LHFONE"> F  </i>
   <i type="logical" name="LRHFCALC"> F  </i>
   <i type="logical" name="LTHOMAS"> F  </i>
   <i type="logical" name="LMODELHF"> F  </i>
   <i name="ENCUTFOCK">      0.00000000</i>
   <i name="ENCUT4O">     -1.00000000</i>
   <i type="int" name="EXXOEP">     0</i>
   <i type="int" name="FOURORBIT">     0</i>
   <i name="AEXX">      0.00000000</i>
   <i name="HFALPHA">      0.00000000</i>
   <i name="ALDAX">      1.00000000</i>
   <i name="AGGAX">      1.00000000</i>
   <i name="ALDAC">      1.00000000</i>
   <i name="AGGAC">      1.00000000</i>
   <i type="int" name="NKREDX">     1</i>
   <i type="int" name="NKREDY">     1</i>
   <i type="int" name="NKREDZ">     1</i>
   <i type="logical" name="SHIFTRED"> F  </i>
   <i type="logical" name="ODDONLY"> F  </i>
   <i type="logical" name="EVENONLY"> F  </i>
   <i type="int" name="LMAXFOCK">     0</i>
   <i type="int" name="NMAXFOCKAE">     0</i>
   <i name="HFSCREEN">      0.00000000</i>
   <i name="HFSCREENC">      0.00000000</i>
  </separator>
  <separator name="model GW" >
   <i type="int" name="MODEL_GW">     0</i>
   <i name="MODEL_EPS0">     10.23670678</i>
   <i name="MODEL_ALPHA">      1.00000000</i>
  </separator>
  <separator name="linear response parameters" >
   <i type="logical" name="LEPSILON"> F  </i>
   <i type="logical" name="LRPA"> F  </i>
   <i type="logical" name="LNABLA"> F  </i>
   <i type="logical" name="LVEL"> F  </i>
   <i type="int" name="KINTER">     0</i>
   <i name="CSHIFT">      0.10000000</i>
   <i name="OMEGAMAX">     -1.00000000</i>
  </separator>
  <separator name="orbital magnetization" >
   <i type="logical" name="ORBITALMAG"> F  </i>
   <i type="logical" name="LMAGBLOCH"> F  </i>
   <i type="logical" name="LCHIMAG"> F  </i>
   <i type="logical" name="LGAUGE"> T  </i>
   <i type="int" name="MAGATOM">     0</i>
   <v name="MAGDIPOL">      0.00000000      0.00000000      0.00000000</v>
   <v name="AVECCONST">      0.00000000      0.00000000      0.00000000</v>
  </separator>
  <separator name="response functions" >
   <i type="logical" name="LRPA"> T  </i>
   <i type="logical" name="LTCTE"> F  </i>
   <i type="logical" name="LTETE"> F  </i>
   <i type="logical" name="L2ORDER"> F  </i>
   <i type="logical" name="LGWLF"> F  </i>
   <i name="ENCUTGW">    200.00000000</i>
   <i name="ENCUTGWSOFT">     -2.00000000</i>
   <i name="ENCUTLF">     -1.00000000</i>
   <i type="int" name="LMAXMP2">    -1</i>
   <i name="SCISSOR">      0.00000000</i>
   <i type="int" name="NOMEGA">     0</i>
   <i type="int" name="NOMEGAR">     0</i>
   <i type="int" name="NBANDSGW">    -1</i>
   <i type="int" name="NBANDSLF">    -1</i>
   <i type="int" name="NELM">     1</i>
   <i type="int" name="DIM">     3</i>
   <i type="int" name="ANTIRES">     0</i>
   <i type="logical" name="LUSEW"> F  </i>
   <i name="OMEGAMAX">    -30.00000000</i>
   <i name="OMEGATL">   -200.00000000</i>
   <i type="int" name="OMEGAGRID">     0</i>
   <i name="CSHIFT">     -0.10000000</i>
   <i type="logical" name="SELFENERGY"> F  </i>
   <i type="logical" name="LSPECTRAL"> F  </i>
   <i type="logical" name="ODDONLYGW"> F  </i>
   <i type="logical" name="EVENONLYGW"> F  </i>
   <i type="int" name="NKREDLFX">     1</i>
   <i type="int" name="NKREDLFY">     1</i>
   <i type="int" name="NKREDLFZ">     1</i>
   <i type="int" name="MAXMEM">  1024</i>
   <i type="int" name="TELESCOPE">     0</i>
  </separator>
 </parameters>
 <atominfo>
  <atoms>      31 </atoms>
  <types>       2 </types>
  <array name="atoms" >
   <dimension dim="1">ion</dimension>
   <field type="string">element</field>
   <field type="int">atomtype</field>
   <set>
    <rc><c>Al</c><c>   1</c></rc>
    <rc><c>Al</c><c>   1</c></rc>
    <rc><c>Al</c><c>   1</c></rc>
    <rc><c>Al</c><c>   1</c></rc>
    <rc><c>Al</c><c>   1</c></rc>
    <rc><c>Al</c><c>   1</c></rc>
    <rc><c>Al</c><c>   1</c></rc>
    <rc><c>Al</c><c>   1</c></rc>
    <rc><c>Al</c><c>   1</c></rc>
    <rc><c>Al</c><c>   1</c></rc>
    <rc><c>Al</c><c>   1</c></rc>
    <rc><c>Al</c><c>   1</c></rc>
    <rc><c>Al</c><c>   1</c></rc>
    <rc><c>Al</c><c>   1</c></rc>
    <rc><c>Al</c><c>   1</c></rc>
    <rc><c>Al</c><c>   1</c></rc>
    <rc><c>Al</c><c>   1</c></rc>
    <rc><c>Al</c><c>   1</c></rc>
    <rc><c>Al</c><c>   1</c></rc>
    <rc><c>Al</c><c>   1</c></rc>
    <rc><c>Al</c><c>   1</c></rc>
    <rc><c>Al</c><c>   1</c></rc>
    <rc><c>Al</c><c>   1</c></rc>
    <rc><c>Al</c><c>   1</c></rc>
    <rc><c>Al</c><c>   1</c></rc>
    <rc><c>Al</c><c>   1</c></rc>
    <rc><c>Al</c><c>   1</c></rc>
    <rc><c>Al</c><c>   1</c></rc>
    <rc><c>Al</c><c>   1</c></rc>
    <rc><c>Al</c><c>   1</c></rc>
    <rc><c>Mg</c><c>   2</c></rc>
   </set>
  </array>
  <array name="atomtypes" >
   <dimension dim="1">type</dimension>
   <field type="int">atomspertype</field>
   <field type="string">element</field>
   <field>mass</field>
   <field>valence</field>
   <field type="string">pseudopotential</field>
   <set>
    <rc><c>  30</c><c>Al</c><c>     26.98200000</c><c>      3.00000000</c><c> PAW_PBE Al 04Jan2001                   </c></rc>
    <rc><c>   1</c><c>Mg</c><c>     24.30500000</c><c>      2.00000000</c><c> PAW_PBE Mg 05Jan2001                   </c></rc>
   </set>
  </array>
 </atominfo>
 <structure name="initialpos" >
  <crystal>
   <varray name="basis" >
    <v>       8.08705200       0.00000000       0.00000000 </v>
    <v>       0.00000000       8.08705200       0.00000000 </v>
    <v>       0.00000000       0.00000000       8.08705200 </v>
   </varray>
   <i name="volume">    528.89651690 </i>
   <varray name="rec_basis" >
    <v>       0.12365445       0.00000000       0.00000000 </v>
    <v>       0.00000000       0.12365445       0.00000000 </v>
    <v>       0.00000000       0.00000000       0.12365445 </v>
   </varray>
  </crystal>
  <varray name="positions" >
   <v>       0.00000000       0.00000000       0.00000000 </v>
   <v>       0.25000000       0.00000000       0.25000000 </v>
   <v>       0.25000000       0.25000000       0.00000000 </v>
   <v>       0.00000000       0.25000000       0.25000000 </v>
   <v>       0.50000000       0.00000000       0.00000000 </v>
   <v>       0.75000000       0.00000000       0.25000000 </v>
   <v>       0.75000000       0.25000000       0.00000000 </v>
   <v>       0.50000000       0.25000000       0.25000000 </v>
   <v>       0.00000000       0.50000000       0.00000000 </v>
   <v>       0.25000000       0.75000000       0.00000000 </v>
   <v>       0.00000000       0.75000000       0.25000000 </v>
   <v>       0.50000000       0.50000000       0.00000000 </v>
   <v>       0.75000000       0.50000000       0.25000000 </v>
   <v>       0.75000000       0.75000000       0.00000000 </v>
   <v>       0.50000000       0.75000000       0.25000000 </v>
   <v>       0.00000000       0.00000000       0.50000000 </v>
   <v>       0.25000000       0.00000000       0.75000000 </v>
   <v>       0.25000000       0.25000000       0.50000000 </v>
   <v>       0.00000000       0.25000000       0.75000000 </v>
   <v>       0.50000000       0.00000000       0.50000000 </v>
   <v>       0.75000000       0.00000000       0.75000000 </v>
   <v>       0.75000000       0.25000000       0.50000000 </v>
   <v>       0.50000000       0.25000000       0.75000000 </v>
   <v>       0.00000000       0.50000000       0.50000000 </v>
   <v>       0.25000000       0.50000000       0.75000000 </v>
   <v>       0.25000000       0.75000000       0.50000000 </v>
   <v>       0.00000000       0.75000000       0.75000000 </v>
   <v>       0.75000000       0.50000000       0.75000000 </v>
   <v>       0.75000000       0.75000000       0.50000000 </v>
   <v>       0.50000000       0.75000000       0.75000000 </v>
   <v>       0.50000000       0.50000000       0.50000000 </v>
  </varray>
 </structure>
 <calculation>
  <scstep>
   <time name="diag">    0.15    0.15</time>
   <time name="diis">    0.34    0.34</time>
   <time name="orth">    0.01    0.01</time>
   <time name="total">    0.67    0.67</time>
   <energy>
    <i name="alphaZ">     -7.38313139 </i>
    <i name="ewald">  -2179.22378212 </i>
    <i name="hartreedc">    -25.65025294 </i>
    <i name="XCdc">   -796.30843288 </i>
    <i name="pawpsdc">   1078.21717227 </i>
    <i name="pawaedc">   -108.50372521 </i>
    <i name="eentropy">     -0.01843061 </i>
    <i name="bandstr">    642.63593830 </i>
    <i name="atom">   1629.13144109 </i>
    <i name="e_fr_energy">    232.89679650 </i>
    <i name="e_wo_entrp">    232.91522712 </i>
    <i name="e_0_energy">    232.90294004 </i>
   </energy>
  </scstep>
  <scstep>
   <time name="diag">    0.15    0.15</time>
   <time name="diis">    0.34    0.34</time>
   <time name="orth">    0.01    0.01</time>
   <time name="total">    0.50    0.50</time>
   <energy>
    <i name="e_fr_energy">    -26.41484098 </i>
    <i name="e_wo_entrp">    -26.41503051 </i>
    <i name="e_0_energy">    -26.41490416 </i>
   </energy>
  </scstep>
  <scstep>
   <time name="diag">    0.15    0.15</time>
   <time name="diis">    0.34    0.34</time>
   <time name="orth">    0.01    0.01</time>
   <time name="total">    0.50    0.50</time>
   <energy>
    <i name="e_fr_energy">    -73.42058993 </i>
    <i name="e_wo_entrp">    -73.52877940 </i>
    <i name="e_0_energy">    -73.45665309 </i>
   </energy>
  </scstep>
  <scstep>
   <time name="diag">    0.15    0.15</time>
   <time name="diis">    0.34    0.34</time>
   <time name="orth">    0.01    0.01</time>
   <time name="total">    0.50    0.50</time>
   <energy>
    <i name="e_fr_energy">    -88.79651446 </i>
    <i name="e_wo_entrp">    -88.73298928 </i>
    <i name="e_0_energy">    -88.77533940 </i>
   </energy>
  </scstep>
  <scstep>
   <time name="diag">    0.15    0.15</time>
   <time name="diis">    0.34    0.34</time>
   <time name="orth">    0.01    0.01</time>
   <time name="total">    0.50    0.50</time>
   <energy>
    <i name="e_fr_energy">    -95.50765174 </i>
    <i name="e_wo_entrp">    -95.62177812 </i>
    <i name="e_0_energy">    -95.54569386 </i>
   </energy>
  </scstep>
  <scstep>
   <time name="diag">    0.15    0.15</time>
   <time name="diis">    0.34    0.34</time>
   <time name="orth">    0.01    0.01</time>
   <time name="total">    0.50    0.50</time>
   <energy>
    <i name="e_fr_energy">    -97.87068586 </i>
    <i name="e_wo_entrp">    -97.92408894 </i>
    <i name="e_0_energy">    -97.88848689 </i>
   </energy>
  </scstep>
  <scstep>
   <time name="diag">    0.15    0.15</time>
   <time name="diis">    0.34    0.34</time>
   <time name="orth">    0.01    0.01</time>
   <time name="total">    0.50    0.50</time>
   <energy>
    <i name="e_fr_energy">    -98.69400001 </i>
    <i name="e_wo_entrp">    -98.73182313 </i>
    <i name="e_0_energy">    -98.70660772 </i>
   </energy>
  </scstep>
  <scstep>
   <time name="diag">    0.15    0.15</time>
   <time name="diis">    0.34    0.34</time>
   <time name="orth">    0.01    0.01</time>
   <time name="total">    0.50    0.50</time>
   <energy>
    <i name="e_fr_energy">    -99.03105940 </i>
    <i name="e_wo_entrp">    -99.05969806 </i>
    <i name="e_0_energy">    -99.04060562 </i>
   </energy>
  </scstep>
  <scstep>
   <time name="diag">    0.15    0.15</time>
   <time name="diis">    0.72    0.72</time>
   <time name="orth">    0.01    0.01</time>
   <time name="total">    0.88    0.88</time>
   <energy>
    <i name="e_fr_energy">    -99.28033769 </i>
    <i name="e_wo_entrp">    -99.29616341 </i>
    <i name="e_0_energy">    -99.28561293 </i>
   </energy>
  </scstep>
  <scstep>
   <time name="diag">    0.15    0.15</time>
   <time name="diis">    0.67    0.67</time>
   <time name="orth">    0.01    0.01</time>
   <time name="total">    0.83    0.83</time>
   <energy>
    <i name="e_fr_energy">    -99.31247891 </i>
    <i name="e_wo_entrp">    -99.32416133 </i>
    <i name="e_0_energy">    -99.31637305 </i>
   </energy>
  </scstep>
  <scstep>
   <time name="diag">    0.15    0.15</time>
   <time name="diis">    0.56    0.56</time>
   <time name="orth">    0.01    0.01</time>
   <time name="total">    0.72    0.72</time>
   <energy>
    <i name="e_fr_energy">    -99.31506098 </i>
    <i name="e_wo_entrp">    -99.32642499 </i>
    <i name="e_0_energy">    -99.31884898 </i>
   </energy>
  </scstep>
  <scstep>
   <time name="diag">    0.15    0.15</time>
   <time name="diis">    0.45    0.45</time>
   <time name="orth">    0.01    0.01</time>
   <time name="total">    0.74    0.74</time>
   <energy>
    <i name="e_fr_energy">    -99.31509813 </i>
    <i name="e_wo_entrp">    -99.32645845 </i>
    <i name="e_0_energy">    -99.31888491 </i>
   </energy>
  </scstep>
  <scstep>
   <time name="diag">    0.15    0.15</time>
   <time name="diis">    0.60    0.60</time>
   <time name="orth">    0.01    0.01</time>
   <time name="total">    1.04    1.05</time>
   <energy>
    <i name="e_fr_energy">    -98.17837795 </i>
    <i name="e_wo_entrp">    -98.09077044 </i>
    <i name="e_0_energy">    -98.14917544 </i>
   </energy>
  </scstep>
  <scstep>
   <time name="diag">    0.16    0.16</time>
   <time name="diis">    0.62    0.62</time>
   <time name="orth">    0.01    0.01</time>
   <time name="total">    1.07    1.07</time>
   <energy>
    <i name="e_fr_energy">    -97.92268438 </i>
    <i name="e_wo_entrp">    -97.82664506 </i>
    <i name="e_0_energy">    -97.89067127 </i>
   </energy>
  </scstep>
  <scstep>
   <time name="diag">    0.15    0.15</time>
   <time name="diis">    0.66    0.66</time>
   <time name="orth">    0.01    0.01</time>
   <time name="total">    1.11    1.11</time>
   <energy>
    <i name="e_fr_energy">    -97.79214300 </i>
    <i name="e_wo_entrp">    -97.71733434 </i>
    <i name="e_0_energy">    -97.76720678 </i>
   </energy>
  </scstep>
  <scstep>
   <time name="diag">    0.15    0.15</time>
   <time name="diis">    0.59    0.60</time>
   <time name="orth">    0.01    0.01</time>
   <time name="total">    1.03    1.05</time>
   <energy>
    <i name="e_fr_energy">    -97.78179446 </i>
    <i name="e_wo_entrp">    -97.69253620 </i>
    <i name="e_0_energy">    -97.75204171 </i>
   </energy>
  </scstep>
  <scstep>
   <time name="diag">    0.15    0.15</time>
   <time name="diis">    0.60    0.60</time>
   <time name="orth">    0.01    0.01</time>
   <time name="total">    1.05    1.05</time>
   <energy>
    <i name="e_fr_energy">    -97.78076060 </i>
    <i name="e_wo_entrp">    -97.69231318 </i>
    <i name="e_0_energy">    -97.75127813 </i>
   </energy>
  </scstep>
  <scstep>
   <time name="diag">    0.15    0.15</time>
   <time name="diis">    0.47    0.47</time>
   <time name="orth">    0.01    0.01</time>
   <time name="total">    0.79    0.79</time>
   <energy>
    <i name="alphaZ">     -7.38313139 </i>
    <i name="ewald">  -2179.22378212 </i>
    <i name="hartreedc">    -30.76521289 </i>
    <i name="XCdc">   -792.36186834 </i>
    <i name="pawpsdc">   1077.65706717 </i>
    <i name="pawaedc">   -108.18754264 </i>
    <i name="eentropy">     -0.08819830 </i>
    <i name="bandstr">    313.44049168 </i>
    <i name="atom">   1629.13144109 </i>
    <i name="e_fr_energy">    -97.78073574 </i>
    <i name="e_wo_entrp">    -97.69253744 </i>
    <i name="e_0_energy">    -97.75133630 </i>
   </energy>
  </scstep>
  <structure>
   <crystal>
    <varray name="basis" >
     <v>       8.08705200       0.00000000       0.00000000 </v>
     <v>       0.00000000       8.08705200       0.00000000 </v>
     <v>       0.00000000       0.00000000       8.08705200 </v>
    </varray>
    <i name="volume">    528.89651690 </i>
    <varray name="rec_basis" >
     <v>       0.12365445       0.00000000       0.00000000 </v>
     <v>       0.00000000       0.12365445       0.00000000 </v>
     <v>       0.00000000       0.00000000       0.12365445 </v>
    </varray>
   </crystal>
   <varray name="positions" >
    <v>       0.00000000       0.00000000       0.00000000 </v>
    <v>       0.25000000       0.00000000       0.25000000 </v>
    <v>       0.25000000       0.25000000       0.00000000 </v>
    <v>       0.00000000       0.25000000       0.25000000 </v>
    <v>       0.50000000       0.00000000       0.00000000 </v>
    <v>       0.75000000       0.00000000       0.25000000 </v>
    <v>       0.75000000       0.25000000       0.00000000 </v>
    <v>       0.50000000       0.25000000       0.25000000 </v>
    <v>       0.00000000       0.50000000       0.00000000 </v>
    <v>       0.25000000       0.75000000       0.00000000 </v>
    <v>       0.00000000       0.75000000       0.25000000 </v>
    <v>       0.50000000       0.50000000       0.00000000 </v>
    <v>       0.75000000       0.50000000       0.25000000 </v>
    <v>       0.75000000       0.75000000       0.00000000 </v>
    <v>       0.50000000       0.75000000       0.25000000 </v>
    <v>       0.00000000       0.00000000       0.50000000 </v>
    <v>       0.25000000       0.00000000       0.75000000 </v>
    <v>       0.25000000       0.25000000       0.50000000 </v>
    <v>       0.00000000       0.25000000       0.75000000 </v>
    <v>       0.50000000       0.00000000       0.50000000 </v>
    <v>       0.75000000       0.00000000       0.75000000 </v>
    <v>       0.75000000       0.25000000       0.50000000 </v>
    <v>       0.50000000       0.25000000       0.75000000 </v>
    <v>       0.00000000       0.50000000       0.50000000 </v>
    <v>       0.25000000       0.50000000       0.75000000 </v>
    <v>       0.25000000       0.75000000       0.50000000 </v>
    <v>       0.00000000       0.75000000       0.75000000 </v>
    <v>       0.75000000       0.50000000       0.75000000 </v>
    <v>       0.75000000       0.75000000       0.50000000 </v>
    <v>       0.50000000       0.75000000       0.75000000 </v>
    <v>       0.50000000       0.50000000       0.50000000 </v>
   </varray>
  </structure>
  <varray name="forces" >
   <v>      -0.01479005       0.00000000      -0.01479005 </v>
   <v>       0.01092579       0.00000000       0.01092579 </v>
   <v>      -0.04887696      -0.17314249      -0.13348880 </v>
   <v>      -0.13348880      -0.17314249      -0.04887696 </v>
   <v>       0.01024212       0.00000000      -0.03878605 </v>
   <v>       0.08408883       0.00000000      -0.04399395 </v>
   <v>       0.10071784      -0.08377416      -0.07630250 </v>
   <v>       0.10439090      -0.39321400      -0.17968880 </v>
   <v>      -0.23941527       0.00000000      -0.23941527 </v>
   <v>      -0.04887696       0.17314249      -0.13348880 </v>
   <v>      -0.13348880       0.17314249      -0.04887696 </v>
   <v>       0.16456857       0.00000000      -0.13215086 </v>
   <v>       0.19874853       0.00000000      -0.18624491 </v>
   <v>       0.10071784       0.08377416      -0.07630250 </v>
   <v>       0.10439090       0.39321400      -0.17968880 </v>
   <v>      -0.03878605       0.00000000       0.01024212 </v>
   <v>      -0.04399395       0.00000000       0.08408883 </v>
   <v>      -0.17968880      -0.39321400       0.10439090 </v>
   <v>      -0.07630250      -0.08377416       0.10071784 </v>
   <v>      -0.07033525       0.00000000      -0.07033525 </v>
   <v>       0.10414194       0.00000000       0.10414194 </v>
   <v>       0.20485350      -0.17757783      -0.00145382 </v>
   <v>      -0.00145382      -0.17757783       0.20485350 </v>
   <v>      -0.13215086       0.00000000       0.16456857 </v>
   <v>      -0.18624491       0.00000000       0.19874853 </v>
   <v>      -0.17968880       0.39321400       0.10439090 </v>
   <v>      -0.07630250       0.08377416       0.10071784 </v>
   <v>       0.31639150       0.00000000       0.31639150 </v>
   <v>       0.20485350       0.17757783      -0.00145382 </v>
   <v>      -0.00145382       0.17757783       0.20485350 </v>
   <v>      -0.10369363       0.00000000      -0.10369363 </v>
  </varray>
  <varray name="stress" >
   <v>     -15.89806796       0.00000000      -2.04681283 </v>
   <v>       0.00000000      -6.81194155       0.00000000 </v>
   <v>      -2.04681283       0.00000000     -15.89806796 </v>
  </varray>
  <energy>
   <i name="e_fr_energy">    -97.78073574 </i>
   <i name="e_wo_entrp">    -97.75133630 </i>
   <i name="e_0_energy">     -0.08819830 </i>
  </energy>
  <time name="totalsc">   14.80   14.85</time>
 </calculation>
 <calculation>
  <scstep>
   <time name="diag">    0.15    0.15</time>
   <time name="diis">    0.60    0.60</time>
   <time name="orth">    0.01    0.01</time>
   <time name="total">    1.05    1.05</time>
   <energy>
    <i name="alphaZ">     -7.38313139 </i>
    <i name="ewald">  -2176.20053422 </i>
    <i name="hartreedc">    -33.36726413 </i>
    <i name="XCdc">   -792.29862835 </i>
    <i name="pawpsdc">   1077.69245608 </i>
    <i name="pawaedc">   -108.22750388 </i>
    <i name="eentropy">     -0.04842571 </i>
    <i name="bandstr">    312.81207472 </i>
    <i name="atom">   1629.13144109 </i>
    <i name="e_fr_energy">    -97.88951578 </i>
    <i name="e_wo_entrp">    -97.84109007 </i>
    <i name="e_0_energy">    -97.87337388 </i>
   </energy>
  </scstep>
  <scstep>
   <time name="diag">    0.15    0.15</time>
   <time name="diis">    0.61    0.61</time>
   <time name="orth">    0.01    0.01</time>
   <time name="total">    1.06    1.06</time>
   <energy>
    <i name="e_fr_energy">    -97.87397241 </i>
    <i name="e_wo_entrp">    -97.80837241 </i>
    <i name="e_0_energy">    -97.85210575 </i>
   </energy>
  </scstep>
  <scstep>
   <time name="diag">    0.15    0.15</time>
   <time name="diis">    0.58    0.58</time>
   <time name="orth">    0.01    0.01</time>
   <time name="total">    1.02    1.03</time>
   <energy>
    <i name="e_fr_energy">    -97.87202352 </i>
    <i name="e_wo_entrp">    -97.80488336 </i>
    <i name="e_0_energy">    -97.84964346 </i>
   </energy>
  </scstep>
  <scstep>
   <time name="diag">    0.15    0.15</time>
   <time name="diis">    0.47    0.47</time>
   <time name="orth">    0.01    0.01</time>
   <time name="total">    0.79    0.79</time>
   <energy>
    <i name="alphaZ">     -7.38313139 </i>
    <i name="ewald">  -2176.20053422 </i>
    <i name="hartreedc">    -33.67193631 </i>
    <i name="XCdc">   -792.29390810 </i>
    <i name="pawpsdc">   1077.74128088 </i>
    <i name="pawaedc">   -108.27898347 </i>
    <i name="eentropy">     -0.06639696 </i>
    <i name="bandstr">    313.15018939 </i>
    <i name="atom">   1629.13144109 </i>
    <i name="e_fr_energy">    -97.87197909 </i>
    <i name="e_wo_entrp">    -97.80558213 </i>
    <i name="e_0_energy">    -97.84984677 </i>
   </energy>
  </scstep>
  <structure>
   <crystal>
    <varray name="basis" >
     <v>       8.08705200       0.00000000       0.00000000 </v>
     <v>       0.00000000       8.08705200       0.00000000 </v>
     <v>       0.00000000       0.00000000       8.08705200 </v>
    </varray>
    <i name="volume">    528.89651690 </i>
    <varray name="rec_basis" >
     <v>       0.12365445       0.00000000       0.00000000 </v>
     <v>       0.00000000       0.12365445       0.00000000 </v>
     <v>       0.00000000       0.00000000       0.12365445 </v>
    </varray>
   </crystal>
   <varray name="positions" >
    <v>      -0.00008823       0.00000000      -0.00008823 </v>
    <v>       0.25006518       0.00000000       0.25006518 </v>
    <v>       0.24970843       0.24896713      -0.00079632 </v>
    <v>      -0.00079632       0.24896713       0.24970843 </v>
    <v>       0.50006110       0.00000000      -0.00023138 </v>
    <v>       0.75050163       0.00000000       0.24973756 </v>
    <v>       0.75060082       0.24950025      -0.00045518 </v>
    <v>       0.50062274       0.24765431       0.24892808 </v>
    <v>      -0.00142821       0.50000000      -0.00142821 </v>
    <v>       0.24970843       0.75103287      -0.00079632 </v>
    <v>      -0.00079632       0.75103287       0.24970843 </v>
    <v>       0.50098172       0.50000000      -0.00078834 </v>
    <v>       0.75118562       0.50000000       0.24888897 </v>
    <v>       0.75060082       0.75049975      -0.00045518 </v>
    <v>       0.50062274       0.75234569       0.24892808 </v>
    <v>      -0.00023138       0.00000000       0.50006110 </v>
    <v>       0.24973756       0.00000000       0.75050163 </v>
    <v>       0.24892808       0.24765431       0.50062274 </v>
    <v>      -0.00045518       0.24950025       0.75060082 </v>
    <v>       0.49958042       0.00000000       0.49958042 </v>
    <v>       0.75062125       0.00000000       0.75062125 </v>
    <v>       0.75122204       0.24894067       0.49999133 </v>
    <v>       0.49999133       0.24894067       0.75122204 </v>
    <v>      -0.00078834       0.50000000       0.50098172 </v>
    <v>       0.24888897       0.50000000       0.75118562 </v>
    <v>       0.24892808       0.75234569       0.50062274 </v>
    <v>      -0.00045518       0.75049975       0.75060082 </v>
    <v>       0.75188741       0.50000000       0.75188741 </v>
    <v>       0.75122204       0.75105933       0.49999133 </v>
    <v>       0.49999133       0.75105933       0.75122204 </v>
    <v>       0.49938142       0.50000000       0.49938142 </v>
   </varray>
  </structure>
  <varray name="forces" >
   <v>      -0.00992531       0.00000000      -0.00992531 </v>
   <v>       0.02006256       0.00000000       0.02006256 </v>
   <v>      -0.05064036      -0.13961794      -0.11121318 </v>
   <v>      -0.11121318      -0.13961794      -0.05064036 </v>
   <v>       0.02690279       0.00000000      -0.02576486 </v>
   <v>       0.06025910       0.00000000      -0.04752786 </v>
   <v>       0.06009398      -0.06216214      -0.03402152 </v>
   <v>       0.12792770      -0.36292535      -0.18245399 </v>
   <v>      -0.20318646       0.00000000      -0.20318646 </v>
   <v>      -0.05064036       0.13961794      -0.11121318 </v>
   <v>      -0.11121318       0.13961794      -0.05064036 </v>
   <v>       0.17068036       0.00000000      -0.10311623 </v>
   <v>       0.16600084       0.00000000      -0.21354173 </v>
   <v>       0.06009398       0.06216214      -0.03402152 </v>
   <v>       0.12792770       0.36292535      -0.18245399 </v>
   <v>      -0.02576486       0.00000000       0.02690279 </v>
   <v>      -0.04752786       0.00000000       0.06025910 </v>
   <v>      -0.18245399      -0.36292535       0.12792770 </v>
   <v>      -0.03402152      -0.06216214       0.06009398 </v>
   <v>      -0.06724934       0.00000000      -0.06724934 </v>
   <v>       0.07821284       0.00000000       0.07821284 </v>
   <v>       0.17421926      -0.15609734       0.00578629 </v>
   <v>       0.00578629      -0.15609734       0.17421926 </v>
   <v>      -0.10311623       0.00000000       0.17068036 </v>
   <v>      -0.21354173       0.00000000       0.16600084 </v>
   <v>      -0.18245399       0.36292535       0.12792770 </v>
   <v>      -0.03402152       0.06216214       0.06009398 </v>
   <v>       0.24896976       0.00000000       0.24896976 </v>
   <v>       0.17421926       0.15609734       0.00578629 </v>
   <v>       0.00578629       0.15609734       0.17421926 </v>
   <v>      -0.08017281       0.00000000      -0.08017281 </v>
  </varray>
  <varray name="stress" >
   <v>     -15.87952067       0.00000000      -2.73628075 </v>
   <v>       0.00000000      -6.25074788       0.00000000 </v>
   <v>      -2.73628075       0.00000000     -15.87952067 </v>
  </varray>
  <energy>
   <i name="e_fr_energy">    -97.87197909 </i>
   <i name="e_wo_entrp">    -97.84984677 </i>
   <i name="e_0_energy">     -0.06639696 </i>
  </energy>
  <time name="totalsc">    5.30    5.31</time>
 </calculation>
 <calculation>
  <scstep>
   <time name="diag">    0.15    0.15</time>
   <time name="diis">    0.60    0.60</time>
   <time name="orth">    0.01    0.01</time>
   <time name="total">    1.04    1.05</time>
   <energy>
    <i name="alphaZ">     -7.38313139 </i>
    <i name="ewald">  -2165.25833147 </i>
    <i name="hartreedc">    -42.78080816 </i>
    <i name="XCdc">   -792.11155960 </i>
    <i name="pawpsdc">   1077.74729856 </i>
    <i name="pawaedc">   -108.28583060 </i>
    <i name="eentropy">      0.04341721 </i>
    <i name="bandstr">    310.69341002 </i>
    <i name="atom">   1629.13144109 </i>
    <i name="e_fr_energy">    -98.20409434 </i>
    <i name="e_wo_entrp">    -98.24751155 </i>
    <i name="e_0_energy">    -98.21856674 </i>
   </energy>
  </scstep>
  <scstep>
   <time name="diag">    0.15    0.15</time>
   <time name="diis">    0.59    0.59</time>
   <time name="orth">    0.01    0.01</time>
   <time name="total">    1.04    1.04</time>
   <energy>
    <i name="e_fr_energy">    -98.08770287 </i>
    <i name="e_wo_entrp">    -98.10091559 </i>
    <i name="e_0_energy">    -98.09210711 </i>
   </energy>
  </scstep>
  <scstep>
   <time name="diag">    0.15    0.15</time>
   <time name="diis">    0.61    0.61</time>
   <time name="orth">    0.01    0.01</time>
   <time name="total">    1.06    1.06</time>
   <energy>
    <i name="e_fr_energy">    -98.06860196 </i>
    <i name="e_wo_entrp">    -98.06888443 </i>
    <i name="e_0_energy">    -98.06869612 </i>
   </energy>
  </scstep>
  <scstep>
   <time name="diag">    0.15    0.15</time>
   <time name="diis">    0.65    0.65</time>
   <time name="orth">    0.01    0.01</time>
   <time name="total">    1.10    1.11</time>
   <energy>
    <i name="e_fr_energy">    -98.06825282 </i>
    <i name="e_wo_entrp">    -98.06875170 </i>
    <i name="e_0_energy">    -98.06841912 </i>
   </energy>
  </scstep>
  <scstep>
   <time name="diag">    0.15    0.15</time>
   <time name="diis">    0.48    0.48</time>
   <time name="orth">    0.01    0.01</time>
   <time name="total">    0.80    0.80</time>
   <energy>
    <i name="alphaZ">     -7.38313139 </i>
    <i name="ewald">  -2165.25833147 </i>
    <i name="hartreedc">    -43.90854845 </i>
    <i name="XCdc">   -792.09066369 </i>
    <i name="pawpsdc">   1078.15377867 </i>
    <i name="pawaedc">   -108.70786339 </i>
    <i name="eentropy">     -0.00006772 </i>
    <i name="bandstr">    311.99510666 </i>
    <i name="atom">   1629.13144109 </i>
    <i name="e_fr_energy">    -98.06827967 </i>
    <i name="e_wo_entrp">    -98.06821195 </i>
    <i name="e_0_energy">    -98.06825710 </i>
   </energy>
  </scstep>
  <structure>
   <crystal>
    <varray name="basis" >
     <v>       8.08705200       0.00000000       0.00000000 </v>
     <v>       0.00000000       8.08705200       0.00000000 </v>
     <v>       0.00000000       0.00000000       8.08705200 </v>
    </varray>
    <i name="volume">    528.89651690 </i>
    <varray name="rec_basis" >
     <v>       0.12365445       0.00000000       0.00000000 </v>
     <v>       0.00000000       0.12365445       0.00000000 </v>
     <v>       0.00000000       0.00000000       0.12365445 </v>
    </varray>
   </crystal>
   <varray name="positions" >
    <v>      -0.00035292       0.00000000      -0.00035292 </v>
    <v>       0.25026071       0.00000000       0.25026071 </v>
    <v>       0.24883371       0.24586853      -0.00318527 </v>
    <v>      -0.00318527       0.24586853       0.24883371 </v>
    <v>       0.50024439       0.00000000      -0.00092550 </v>
    <v>       0.75200650       0.00000000       0.24895023 </v>
    <v>       0.75240330       0.24800101      -0.00182071 </v>
    <v>       0.50249094       0.24061725       0.24571232 </v>
    <v>      -0.00571285       0.50000000      -0.00571285 </v>
    <v>       0.24883371       0.75413147      -0.00318527 </v>
    <v>      -0.00318527       0.75413147       0.24883371 </v>
    <v>       0.50392688       0.50000000      -0.00315334 </v>
    <v>       0.75474247       0.50000000       0.24555588 </v>
    <v>       0.75240330       0.75199899      -0.00182071 </v>
    <v>       0.50249094       0.75938275       0.24571232 </v>
    <v>      -0.00092550       0.00000000       0.50024439 </v>
    <v>       0.24895023       0.00000000       0.75200650 </v>
    <v>       0.24571232       0.24061725       0.50249094 </v>
    <v>      -0.00182071       0.24800101       0.75240330 </v>
    <v>       0.49832168       0.00000000       0.49832168 </v>
    <v>       0.75248500       0.00000000       0.75248500 </v>
    <v>       0.75488815       0.24576270       0.49996531 </v>
    <v>       0.49996531       0.24576270       0.75488815 </v>
    <v>      -0.00315334       0.50000000       0.50392688 </v>
    <v>       0.24555588       0.50000000       0.75474247 </v>
    <v>       0.24571232       0.75938275       0.50249094 </v>
    <v>      -0.00182071       0.75199899       0.75240330 </v>
    <v>       0.75754963       0.50000000       0.75754963 </v>
    <v>       0.75488815       0.75423730       0.49996531 </v>
    <v>       0.49996531       0.75423730       0.75488815 </v>
    <v>       0.49752570       0.50000000       0.49752570 </v>
   </varray>
  </structure>
  <varray name="forces" >
   <v>      -0.03551669       0.00000000      -0.03551669 </v>
   <v>       0.00233336       0.00000000       0.00233336 </v>
   <v>      -0.06696133      -0.01063085      -0.02397858 </v>
   <v>      -0.02397858      -0.01063085      -0.06696133 </v>
   <v>       0.10151040       0.00000000      -0.03396632 </v>
   <v>       0.01139501       0.00000000      -0.06613100 </v>
   <v>      -0.04503182      -0.05257746       0.06894739 </v>
   <v>       0.18276620      -0.21388007      -0.17904918 </v>
   <v>      -0.02322613       0.00000000      -0.02322613 </v>
   <v>      -0.06696133       0.01063085      -0.02397858 </v>
   <v>      -0.02397858       0.01063085      -0.06696133 </v>
   <v>       0.16144293       0.00000000       0.00333731 </v>
   <v>       0.07238315       0.00000000      -0.27602282 </v>
   <v>      -0.04503182       0.05257746       0.06894739 </v>
   <v>       0.18276620       0.21388007      -0.17904918 </v>
   <v>      -0.03396632       0.00000000       0.10151040 </v>
   <v>      -0.06613100       0.00000000       0.01139501 </v>
   <v>      -0.17904918      -0.21388007       0.18276620 </v>
   <v>       0.06894739      -0.05257746      -0.04503182 </v>
   <v>       0.00831920       0.00000000       0.00831920 </v>
   <v>       0.02421990       0.00000000       0.02421990 </v>
   <v>       0.06299396      -0.09828679       0.04027772 </v>
   <v>       0.04027772      -0.09828679       0.06299396 </v>
   <v>       0.00333731       0.00000000       0.16144293 </v>
   <v>      -0.27602282       0.00000000       0.07238315 </v>
   <v>      -0.17904918       0.21388007       0.18276620 </v>
   <v>       0.06894739       0.05257746      -0.04503182 </v>
   <v>       0.00205675       0.00000000       0.00205675 </v>
   <v>       0.06299396       0.09828679       0.04027772 </v>
   <v>       0.04027772       0.09828679       0.06299396 </v>
   <v>      -0.03206382       0.00000000      -0.03206382 </v>
  </varray>
  <varray name="stress" >
   <v>     -14.08831163       0.00000000      -4.49557547 </v>
   <v>       0.00000000      -3.85238056       0.00000000 </v>
   <v>      -4.49557547       0.00000000     -14.08831163 </v>
  </varray>
  <energy>
   <i name="e_fr_energy">    -98.06827967 </i>
   <i name="e_wo_entrp">    -98.06825710 </i>
   <i name="e_0_energy">     -0.00006772 </i>
  </energy>
  <time name="totalsc">    6.42    6.43</time>
 </calculation>
 <calculation>
  <scstep>
   <time name="diag">    0.15    0.15</time>
   <time name="diis">    0.60    0.61</time>
   <time name="orth">    0.01    0.01</time>
   <time name="total">    1.06    1.06</time>
   <energy>
    <i name="alphaZ">     -7.38313139 </i>
    <i name="ewald">  -2135.12766157 </i>
    <i name="hartreedc">    -68.03743424 </i>
    <i name="XCdc">   -791.64454982 </i>
    <i name="pawpsdc">   1078.18117440 </i>
    <i name="pawaedc">   -108.73640611 </i>
    <i name="eentropy">      0.12916611 </i>
    <i name="bandstr">    305.06797018 </i>
    <i name="atom">   1629.13144109 </i>
    <i name="e_fr_energy">    -98.41943135 </i>
    <i name="e_wo_entrp">    -98.54859746 </i>
    <i name="e_0_energy">    -98.46248672 </i>
   </energy>
  </scstep>
  <scstep>
   <time name="diag">    0.15    0.15</time>
   <time name="diis">    0.62    0.62</time>
   <time name="orth">    0.01    0.01</time>
   <time name="total">    1.07    1.07</time>
   <energy>
    <i name="e_fr_energy">    -98.04534711 </i>
    <i name="e_wo_entrp">    -98.17328996 </i>
    <i name="e_0_energy">    -98.08799473 </i>
   </energy>
  </scstep>
  <scstep>
   <time name="diag">    0.15    0.15</time>
   <time name="diis">    0.62    0.62</time>
   <time name="orth">    0.01    0.01</time>
   <time name="total">    1.06    1.07</time>
   <energy>
    <i name="e_fr_energy">    -97.98473001 </i>
    <i name="e_wo_entrp">    -98.11221563 </i>
    <i name="e_0_energy">    -98.02722522 </i>
   </energy>
  </scstep>
  <scstep>
   <time name="diag">    0.15    0.15</time>
   <time name="diis">    0.66    0.66</time>
   <time name="orth">    0.01    0.01</time>
   <time name="total">    1.11    1.11</time>
   <energy>
    <i name="e_fr_energy">    -97.98341052 </i>
    <i name="e_wo_entrp">    -98.10956461 </i>
    <i name="e_0_energy">    -98.02546189 </i>
   </energy>
  </scstep>
  <scstep>
   <time name="diag">    0.15    0.15</time>
   <time name="diis">    0.60    0.60</time>
   <time name="orth">    0.01    0.01</time>
   <time name="total">    1.05    1.05</time>
   <energy>
    <i name="e_fr_energy">    -97.98345801 </i>
    <i name="e_wo_entrp">    -98.10912194 </i>
    <i name="e_0_energy">    -98.02534598 </i>
   </energy>
  </scstep>
  <scstep>
   <time name="diag">    0.15    0.15</time>
   <time name="diis">    0.44    0.44</time>
   <time name="orth">    0.01    0.01</time>
   <time name="total">    0.76    0.76</time>
   <energy>
    <i name="alphaZ">     -7.38313139 </i>
    <i name="ewald">  -2135.12766157 </i>
    <i name="hartreedc">    -71.18315157 </i>
    <i name="XCdc">   -791.52212792 </i>
    <i name="pawpsdc">   1080.20519826 </i>
    <i name="pawaedc">   -110.85262430 </i>
    <i name="eentropy">      0.12553903 </i>
    <i name="bandstr">    308.62296320 </i>
    <i name="atom">   1629.13144109 </i>
    <i name="e_fr_energy">    -97.98355517 </i>
    <i name="e_wo_entrp">    -98.10909420 </i>
    <i name="e_0_energy">    -98.02540151 </i>
   </energy>
  </scstep>
  <structure>
   <crystal>
    <varray name="basis" >
     <v>       8.08705200       0.00000000       0.00000000 </v>
     <v>       0.00000000       8.08705200       0.00000000 </v>
     <v>       0.00000000       0.00000000       8.08705200 </v>
    </varray>
    <i name="volume">    528.89651690 </i>
    <varray name="rec_basis" >
     <v>       0.12365445       0.00000000       0.00000000 </v>
     <v>       0.00000000       0.12365445       0.00000000 </v>
     <v>       0.00000000       0.00000000       0.12365445 </v>
    </varray>
   </crystal>
   <varray name="positions" >
    <v>      -0.00088229       0.00000000      -0.00088229 </v>
    <v>       0.25065177       0.00000000       0.25065177 </v>
    <v>       0.24708428       0.23967133      -0.00796317 </v>
    <v>      -0.00796317       0.23967133       0.24708428 </v>
    <v>       0.50061099       0.00000000      -0.00231375 </v>
    <v>       0.75501625       0.00000000       0.24737558 </v>
    <v>       0.75600824       0.24500252      -0.00455176 </v>
    <v>       0.50622735       0.22654314       0.23928081 </v>
    <v>      -0.01428212       0.50000000      -0.01428212 </v>
    <v>       0.24708428       0.76032867      -0.00796317 </v>
    <v>      -0.00796317       0.76032867       0.24708428 </v>
    <v>       0.50981721       0.50000000      -0.00788335 </v>
    <v>       0.76185618       0.50000000       0.23888971 </v>
    <v>       0.75600824       0.75499748      -0.00455176 </v>
    <v>       0.50622735       0.77345686       0.23928081 </v>
    <v>      -0.00231375       0.00000000       0.50061099 </v>
    <v>       0.24737558       0.00000000       0.75501625 </v>
    <v>       0.23928081       0.22654314       0.50622735 </v>
    <v>      -0.00455176       0.24500252       0.75600824 </v>
    <v>       0.49580421       0.00000000       0.49580421 </v>
    <v>       0.75621250       0.00000000       0.75621250 </v>
    <v>       0.76222037       0.23940674       0.49991327 </v>
    <v>       0.49991327       0.23940674       0.76222037 </v>
    <v>      -0.00788335       0.50000000       0.50981721 </v>
    <v>       0.23888971       0.50000000       0.76185618 </v>
    <v>       0.23928081       0.77345686       0.50622735 </v>
    <v>      -0.00455176       0.75499748       0.75600824 </v>
    <v>       0.76887408       0.50000000       0.76887408 </v>
    <v>       0.76222037       0.76059326       0.49991327 </v>
    <v>       0.49991327       0.76059326       0.76222037 </v>
    <v>       0.49381424       0.50000000       0.49381424 </v>
   </varray>
  </structure>
  <varray name="forces" >
   <v>      -0.11918703       0.00000000      -0.11918703 </v>
   <v>      -0.23120570       0.00000000      -0.23120570 </v>
   <v>      -0.21633879       0.25947002       0.25181585 </v>
   <v>       0.25181585       0.25947002      -0.21633879 </v>
   <v>       0.25011198       0.00000000      -0.19079609 </v>
   <v>       0.01694358       0.00000000      -0.11332456 </v>
   <v>      -0.12506336      -0.13929255       0.16989555 </v>
   <v>       0.18185971       0.19793140      -0.04127122 </v>
   <v>       0.75283687       0.00000000       0.75283687 </v>
   <v>      -0.21633879      -0.25947002       0.25181585 </v>
   <v>       0.25181585      -0.25947002      -0.21633879 </v>
   <v>       0.09052719       0.00000000       0.15184856 </v>
   <v>      -0.04239912       0.00000000      -0.26343969 </v>
   <v>      -0.12506336       0.13929255       0.16989555 </v>
   <v>       0.18185971      -0.19793140      -0.04127122 </v>
   <v>      -0.19079609       0.00000000       0.25011198 </v>
   <v>      -0.11332456       0.00000000       0.01694358 </v>
   <v>      -0.04127122       0.19793140       0.18185971 </v>
   <v>       0.16989555      -0.13929255      -0.12506336 </v>
   <v>       0.35618541       0.00000000       0.35618541 </v>
   <v>      -0.06601680       0.00000000      -0.06601680 </v>
   <v>      -0.29349671       0.03728136       0.17334528 </v>
   <v>       0.17334528       0.03728136      -0.29349671 </v>
   <v>       0.15184856       0.00000000       0.09052719 </v>
   <v>      -0.26343969       0.00000000      -0.04239912 </v>
   <v>      -0.04127122      -0.19793140       0.18185971 </v>
   <v>       0.16989555       0.13929255      -0.12506336 </v>
   <v>      -0.82497038       0.00000000      -0.82497038 </v>
   <v>      -0.29349671      -0.03728136       0.17334528 </v>
   <v>       0.17334528      -0.03728136      -0.29349671 </v>
   <v>       0.03139317       0.00000000       0.03139317 </v>
  </varray>
  <varray name="stress" >
   <v>      -2.91486139       0.00000000      -3.85997474 </v>
   <v>       0.00000000       6.68383561       0.00000000 </v>
   <v>      -3.85997474       0.00000000      -2.91486139 </v>
  </varray>
  <energy>
   <i name="e_fr_energy">    -97.98355517 </i>
   <i name="e_wo_entrp">    -98.02540151 </i>
   <i name="e_0_energy">      0.12553903 </i>
  </energy>
  <time name="totalsc">    7.48    7.49</time>
 </calculation>
 <calculation>
  <scstep>
   <time name="diag">    0.15    0.15</time>
   <time name="diis">    0.63    0.63</time>
   <time name="orth">    0.01    0.01</time>
   <time name="total">    1.09    1.09</time>
   <energy>
    <i name="alphaZ">     -7.38313139 </i>
    <i name="ewald">  -2139.62682758 </i>
    <i name="hartreedc">    -67.90100713 </i>
    <i name="XCdc">   -791.59568175 </i>
    <i name="pawpsdc">   1080.24589105 </i>
    <i name="pawaedc">   -110.89489785 </i>
    <i name="eentropy">      0.09187002 </i>
    <i name="bandstr">    309.75095923 </i>
    <i name="atom">   1629.13144109 </i>
    <i name="e_fr_energy">    -98.18138431 </i>
    <i name="e_wo_entrp">    -98.27325433 </i>
    <i name="e_0_energy">    -98.21200765 </i>
   </energy>
  </scstep>
  <scstep>
   <time name="diag">    0.15    0.15</time>
   <time name="diis">    0.63    0.63</time>
   <time name="orth">    0.01    0.01</time>
   <time name="total">    1.08    1.09</time>
   <energy>
    <i name="e_fr_energy">    -98.16450970 </i>
    <i name="e_wo_entrp">    -98.26556239 </i>
    <i name="e_0_energy">    -98.19819393 </i>
   </energy>
  </scstep>
  <scstep>
   <time name="diag">    0.15    0.15</time>
   <time name="diis">    0.64    0.64</time>
   <time name="orth">    0.01    0.01</time>
   <time name="total">    1.09    1.10</time>
   <energy>
    <i name="e_fr_energy">    -98.16281164 </i>
    <i name="e_wo_entrp">    -98.26494449 </i>
    <i name="e_0_energy">    -98.19685592 </i>
   </energy>
  </scstep>
  <scstep>
   <time name="diag">    0.15    0.15</time>
   <time name="diis">    0.59    0.59</time>
   <time name="orth">    0.01    0.01</time>
   <time name="total">    1.05    1.05</time>
   <energy>
    <i name="e_fr_energy">    -98.16248012 </i>
    <i name="e_wo_entrp">    -98.26456961 </i>
    <i name="e_0_energy">    -98.19650995 </i>
   </energy>
  </scstep>
  <scstep>
   <time name="diag">    0.16    0.16</time>
   <time name="diis">    0.42    0.42</time>
   <time name="orth">    0.01    0.01</time>
   <time name="total">    0.76    0.76</time>
   <energy>
    <i name="alphaZ">     -7.38313139 </i>
    <i name="ewald">  -2139.62682758 </i>
    <i name="hartreedc">    -67.48264441 </i>
    <i name="XCdc">   -791.62309341 </i>
    <i name="pawpsdc">   1079.77983902 </i>
    <i name="pawaedc">   -110.40702998 </i>
    <i name="eentropy">      0.10218579 </i>
    <i name="bandstr">    309.34680499 </i>
    <i name="atom">   1629.13144109 </i>
    <i name="e_fr_energy">    -98.16245588 </i>
    <i name="e_wo_entrp">    -98.26464167 </i>
    <i name="e_0_energy">    -98.19651781 </i>
   </energy>
  </scstep>
  <structure>
   <crystal>
    <varray name="basis" >
     <v>       8.08705200       0.00000000       0.00000000 </v>
     <v>       0.00000000       8.08705200       0.00000000 </v>
     <v>       0.00000000       0.00000000       8.08705200 </v>
    </varray>
    <i name="volume">    528.89651690 </i>
    <varray name="rec_basis" >
     <v>       0.12365445       0.00000000       0.00000000 </v>
     <v>       0.00000000       0.12365445       0.00000000 </v>
     <v>       0.00000000       0.00000000       0.12365445 </v>
    </varray>
   </crystal>
   <varray name="positions" >
    <v>      -0.00167193       0.00000000      -0.00167193 </v>
    <v>       0.24911997       0.00000000       0.24911997 </v>
    <v>       0.24565099       0.24139038      -0.00629482 </v>
    <v>      -0.00629482       0.24139038       0.24565099 </v>
    <v>       0.50226804       0.00000000      -0.00357782 </v>
    <v>       0.75512851       0.00000000       0.24662477 </v>
    <v>       0.75517967       0.24407967      -0.00342616 </v>
    <v>       0.50743222       0.22785448       0.23900738 </v>
    <v>      -0.00929439       0.50000000      -0.00929439 </v>
    <v>       0.24565099       0.75860962      -0.00629482 </v>
    <v>      -0.00629482       0.75860962       0.24565099 </v>
    <v>       0.51041697       0.50000000      -0.00687732 </v>
    <v>       0.76157528       0.50000000       0.23714436 </v>
    <v>       0.75517967       0.75592033      -0.00342616 </v>
    <v>       0.50743222       0.77214552       0.23900738 </v>
    <v>      -0.00357782       0.00000000       0.50226804 </v>
    <v>       0.24662477       0.00000000       0.75512851 </v>
    <v>       0.23900738       0.22785448       0.50743222 </v>
    <v>      -0.00342616       0.24407967       0.75517967 </v>
    <v>       0.49816402       0.00000000       0.49816402 </v>
    <v>       0.75577513       0.00000000       0.75577513 </v>
    <v>       0.76027588       0.23965374       0.50106173 </v>
    <v>       0.50106173       0.23965374       0.76027588 </v>
    <v>      -0.00687732       0.50000000       0.51041697 </v>
    <v>       0.23714436       0.50000000       0.76157528 </v>
    <v>       0.23900738       0.77214552       0.50743222 </v>
    <v>      -0.00342616       0.75592033       0.75517967 </v>
    <v>       0.76340845       0.50000000       0.76340845 </v>
    <v>       0.76027588       0.76034626       0.50106173 </v>
    <v>       0.50106173       0.76034626       0.76027588 </v>
    <v>       0.49402223       0.50000000       0.49402223 </v>
   </varray>
  </structure>
  <varray name="forces" >
   <v>      -0.15722081       0.00000000      -0.15722081 </v>
   <v>       0.00212946       0.00000000       0.00212946 </v>
   <v>      -0.01738453       0.17179244       0.12143543 </v>
   <v>       0.12143543       0.17179244      -0.01738453 </v>
   <v>       0.06990568       0.00000000      -0.15535234 </v>
   <v>       0.08048248       0.00000000       0.02182695 </v>
   <v>      -0.06702684      -0.05061010       0.04356613 </v>
   <v>       0.06519180       0.11527171       0.01262117 </v>
   <v>       0.19911970       0.00000000       0.19911970 </v>
   <v>      -0.01738453      -0.17179244       0.12143543 </v>
   <v>       0.12143543      -0.17179244      -0.01738453 </v>
   <v>       0.03935897       0.00000000       0.10316425 </v>
   <v>      -0.04366945       0.00000000      -0.16599918 </v>
   <v>      -0.06702684       0.05061010       0.04356613 </v>
   <v>       0.06519180      -0.11527171       0.01262117 </v>
   <v>      -0.15535234       0.00000000       0.06990568 </v>
   <v>       0.02182695       0.00000000       0.08048248 </v>
   <v>       0.01262117       0.11527171       0.06519180 </v>
   <v>       0.04356613      -0.05061010      -0.06702684 </v>
   <v>       0.08294278       0.00000000       0.08294278 </v>
   <v>       0.02969462       0.00000000       0.02969462 </v>
   <v>      -0.10323709       0.05283707       0.04257404 </v>
   <v>       0.04257404       0.05283707      -0.10323709 </v>
   <v>       0.10316425       0.00000000       0.03935897 </v>
   <v>      -0.16599918       0.00000000      -0.04366945 </v>
   <v>       0.01262117      -0.11527171       0.06519180 </v>
   <v>       0.04356613       0.05061010      -0.06702684 </v>
   <v>      -0.25522735       0.00000000      -0.25522735 </v>
   <v>      -0.10323709      -0.05283707       0.04257404 </v>
   <v>       0.04257404      -0.05283707      -0.10323709 </v>
   <v>      -0.04663599       0.00000000      -0.04663599 </v>
  </varray>
  <varray name="stress" >
   <v>      -7.10374605       0.00000000      -5.95504710 </v>
   <v>       0.00000000       6.35087735       0.00000000 </v>
   <v>      -5.95504710       0.00000000      -7.10374605 </v>
  </varray>
  <energy>
   <i name="e_fr_energy">    -98.16245588 </i>
   <i name="e_wo_entrp">    -98.19651781 </i>
   <i name="e_0_energy">      0.10218579 </i>
  </energy>
  <time name="totalsc">    6.48    6.51</time>
 </calculation>
 <calculation>
  <scstep>
   <time name="diag">    0.15    0.15</time>
   <time name="diis">    0.62    0.62</time>
   <time name="orth">    0.01    0.01</time>
   <time name="total">    1.08    1.08</time>
   <energy>
    <i name="alphaZ">     -7.38313139 </i>
    <i name="ewald">  -2142.03050097 </i>
    <i name="hartreedc">    -65.63406284 </i>
    <i name="XCdc">   -791.66644645 </i>
    <i name="pawpsdc">   1079.76326810 </i>
    <i name="pawaedc">   -110.38957182 </i>
    <i name="eentropy">      0.07348271 </i>
    <i name="bandstr">    309.93830315 </i>
    <i name="atom">   1629.13144109 </i>
    <i name="e_fr_energy">    -98.19721842 </i>
    <i name="e_wo_entrp">    -98.27070113 </i>
    <i name="e_0_energy">    -98.22171266 </i>
   </energy>
  </scstep>
  <scstep>
   <time name="diag">    0.15    0.15</time>
   <time name="diis">    0.60    0.60</time>
   <time name="orth">    0.01    0.01</time>
   <time name="total">    1.06    1.06</time>
   <energy>
    <i name="e_fr_energy">    -98.19101790 </i>
    <i name="e_wo_entrp">    -98.27240187 </i>
    <i name="e_0_energy">    -98.21814589 </i>
   </energy>
  </scstep>
  <scstep>
   <time name="diag">    0.15    0.15</time>
   <time name="diis">    0.60    0.60</time>
   <time name="orth">    0.01    0.01</time>
   <time name="total">    1.05    1.05</time>
   <energy>
    <i name="e_fr_energy">    -98.19041188 </i>
    <i name="e_wo_entrp">    -98.27263805 </i>
    <i name="e_0_energy">    -98.21782060 </i>
   </energy>
  </scstep>
  <scstep>
   <time name="diag">    0.15    0.15</time>
   <time name="diis">    0.48    0.48</time>
   <time name="orth">    0.01    0.01</time>
   <time name="total">    0.93    0.93</time>
   <energy>
    <i name="e_fr_energy">    -98.19029361 </i>
    <i name="e_wo_entrp">    -98.27259242 </i>
    <i name="e_0_energy">    -98.21772655 </i>
   </energy>
  </scstep>
  <scstep>
   <time name="diag">    0.15    0.15</time>
   <time name="diis">    0.41    0.41</time>
   <time name="orth">    0.01    0.01</time>
   <time name="total">    0.73    0.74</time>
   <energy>
    <i name="alphaZ">     -7.38313139 </i>
    <i name="ewald">  -2142.03050097 </i>
    <i name="hartreedc">    -65.40536995 </i>
    <i name="XCdc">   -791.67869289 </i>
    <i name="pawpsdc">   1079.55527282 </i>
    <i name="pawaedc">   -110.17206970 </i>
    <i name="eentropy">      0.08229825 </i>
    <i name="bandstr">    309.71046250 </i>
    <i name="atom">   1629.13144109 </i>
    <i name="e_fr_energy">    -98.19029023 </i>
    <i name="e_wo_entrp">    -98.27258848 </i>
    <i name="e_0_energy">    -98.21772298 </i>
   </energy>
  </scstep>
  <structure>
   <crystal>
    <varray name="basis" >
     <v>       8.08705200       0.00000000       0.00000000 </v>
     <v>       0.00000000       8.08705200       0.00000000 </v>
     <v>       0.00000000       0.00000000       8.08705200 </v>
    </varray>
    <i name="volume">    528.89651690 </i>
    <varray name="rec_basis" >
     <v>       0.12365445       0.00000000       0.00000000 </v>
     <v>       0.00000000       0.12365445       0.00000000 </v>
     <v>       0.00000000       0.00000000       0.12365445 </v>
    </varray>
   </crystal>
   <varray name="positions" >
    <v>      -0.00216396       0.00000000      -0.00216396 </v>
    <v>       0.24816552       0.00000000       0.24816552 </v>
    <v>       0.24475790       0.24246151      -0.00525529 </v>
    <v>      -0.00525529       0.24246151       0.24475790 </v>
    <v>       0.50330054       0.00000000      -0.00436546 </v>
    <v>       0.75519845       0.00000000       0.24615695 </v>
    <v>       0.75466338       0.24350465      -0.00272481 </v>
    <v>       0.50818297       0.22867157       0.23883700 </v>
    <v>      -0.00618656       0.50000000      -0.00618656 </v>
    <v>       0.24475790       0.75753849      -0.00525529 </v>
    <v>      -0.00525529       0.75753849       0.24475790 </v>
    <v>       0.51079068       0.50000000      -0.00625046 </v>
    <v>       0.76140025       0.50000000       0.23605684 </v>
    <v>       0.75466338       0.75649535      -0.00272481 </v>
    <v>       0.50818297       0.77132843       0.23883700 </v>
    <v>      -0.00436546       0.00000000       0.50330054 </v>
    <v>       0.24615695       0.00000000       0.75519845 </v>
    <v>       0.23883700       0.22867157       0.50818297 </v>
    <v>      -0.00272481       0.24350465       0.75466338 </v>
    <v>       0.49963441       0.00000000       0.49963441 </v>
    <v>       0.75550260       0.00000000       0.75550260 </v>
    <v>       0.75906428       0.23980764       0.50177733 </v>
    <v>       0.50177733       0.23980764       0.75906428 </v>
    <v>      -0.00625046       0.50000000       0.51079068 </v>
    <v>       0.23605684       0.50000000       0.76140025 </v>
    <v>       0.23883700       0.77132843       0.50818297 </v>
    <v>      -0.00272481       0.75649535       0.75466338 </v>
    <v>       0.76000283       0.50000000       0.76000283 </v>
    <v>       0.75906428       0.76019236       0.50177733 </v>
    <v>       0.50177733       0.76019236       0.75906428 </v>
    <v>       0.49415182       0.50000000       0.49415182 </v>
   </varray>
  </structure>
  <varray name="forces" >
   <v>      -0.17219832       0.00000000      -0.17219832 </v>
   <v>       0.13242823       0.00000000       0.13242823 </v>
   <v>       0.09710366       0.11757584       0.04548451 </v>
   <v>       0.04548451       0.11757584       0.09710366 </v>
   <v>      -0.04259965       0.00000000      -0.13700042 </v>
   <v>       0.12008364       0.00000000       0.10667287 </v>
   <v>      -0.02734371       0.00359291      -0.03851467 </v>
   <v>      -0.00811448       0.06752992       0.04396498 </v>
   <v>      -0.05510939       0.00000000      -0.05510939 </v>
   <v>       0.09710366      -0.11757584       0.04548451 </v>
   <v>       0.04548451      -0.11757584       0.09710366 </v>
   <v>       0.00508026       0.00000000       0.07182362 </v>
   <v>      -0.03958477       0.00000000      -0.09970996 </v>
   <v>      -0.02734371      -0.00359291      -0.03851467 </v>
   <v>      -0.00811448      -0.06752992       0.04396498 </v>
   <v>      -0.13700042       0.00000000      -0.04259965 </v>
   <v>       0.10667287       0.00000000       0.12008364 </v>
   <v>       0.04396498       0.06752992      -0.00811448 </v>
   <v>      -0.03851467       0.00359291      -0.02734371 </v>
   <v>      -0.07243081       0.00000000      -0.07243081 </v>
   <v>       0.08007896       0.00000000       0.08007896 </v>
   <v>       0.00654871       0.05952613      -0.02940155 </v>
   <v>      -0.02940155       0.05952613       0.00654871 </v>
   <v>       0.07182362       0.00000000       0.00508026 </v>
   <v>      -0.09970996       0.00000000      -0.03958477 </v>
   <v>       0.04396498      -0.06752992      -0.00811448 </v>
   <v>      -0.03851467      -0.00359291      -0.02734371 </v>
   <v>       0.02017625       0.00000000       0.02017625 </v>
   <v>       0.00654871      -0.05952613      -0.02940155 </v>
   <v>      -0.02940155      -0.05952613       0.00654871 </v>
   <v>      -0.09716538       0.00000000      -0.09716538 </v>
  </varray>
  <varray name="stress" >
   <v>      -9.17130544       0.00000000      -6.52976355 </v>
   <v>       0.00000000       6.94526569       0.00000000 </v>
   <v>      -6.52976355       0.00000000      -9.17130544 </v>
  </varray>
  <energy>
   <i name="e_fr_energy">    -98.19029023 </i>
   <i name="e_wo_entrp">    -98.21772298 </i>
   <i name="e_0_energy">      0.08229825 </i>
  </energy>
  <time name="totalsc">    6.12    6.13</time>
  <eigenvalues>
   <array>
    <dimension dim="1">band</dimension>
    <dimension dim="2">kpoint</dimension>
    <dimension dim="3">spin</dimension>
    <field>eigene</field>
    <field>occ</field>
    <set>
     <set comment="spin 1">
      <set comment="kpoint 1">
       <r>   -3.4546    1.0000 </r>
       <r>   -1.3646    1.0000 </r>
       <r>   -1.3605    1.0000 </r>
       <r>   -1.2905    1.0000 </r>
       <r>   -1.2500    1.0000 </r>
       <r>   -1.0476    1.0000 </r>
       <r>   -0.7339    1.0000 </r>
       <r>    0.7459    1.0000 </r>
       <r>    0.8183    1.0000 </r>
       <r>    0.8506    1.0000 </r>
       <r>    0.8609    1.0000 </r>
       <r>    0.9309    1.0000 </r>
       <r>    1.0395    1.0000 </r>
       <r>    1.0438    1.0000 </r>
       <r>    1.0645    1.0000 </r>
       <r>    1.2129    1.0000 </r>
       <r>    1.2425    1.0000 </r>
       <r>    1.6876    1.0000 </r>
       <r>    2.0768    1.0000 </r>
       <r>    3.0572    1.0000 </r>
       <r>    3.2070    1.0000 </r>
       <r>    3.2695    1.0000 </r>
       <r>    3.2717    1.0000 </r>
       <r>    3.3539    1.0000 </r>
       <r>    3.4272    1.0000 </r>
       <r>    3.8023    1.0000 </r>
       <r>    4.3721    1.0000 </r>
       <r>    4.7874    1.0000 </r>
       <r>    4.8509    1.0000 </r>
       <r>    4.8687    1.0000 </r>
       <r>    6.0301    1.0000 </r>
       <r>    6.2280    1.0000 </r>
       <r>    6.3849    1.0000 </r>
       <r>    6.6065    1.0000 </r>
       <r>    6.6135    1.0000 </r>
       <r>    6.7021    1.0000 </r>
       <r>    6.7604    1.0000 </r>
       <r>    6.7647    1.0000 </r>
       <r>    6.7807    1.0000 </r>
       <r>    6.9317    1.0000 </r>
       <r>    6.9741    1.0000 </r>
       <r>    7.1148    1.0001 </r>
       <r>    7.3048    1.0063 </r>
       <r>    7.3172    1.0077 </r>
       <r>    7.4358    1.0312 </r>
       <r>    7.5820    0.9546 </r>
       <r>    7.8529    0.0514 </r>
       <r>    7.8848    0.0030 </r>
       <r>    7.9529   -0.0349 </r>
       <r>    8.0804   -0.0142 </r>
       <r>    8.1447   -0.0052 </r>
       <r>    8.6672    0.0000 </r>
       <r>    8.6877    0.0000 </r>
       <r>    8.7034    0.0000 </r>
       <r>    8.7204    0.0000 </r>
       <r>    8.7323    0.0000 </r>
       <r>    8.8116    0.0000 </r>
       <r>    8.8485    0.0000 </r>
       <r>    8.9052    0.0000 </r>
       <r>    9.1087    0.0000 </r>
       <r>    9.1164    0.0000 </r>
       <r>    9.1577    0.0000 </r>
       <r>    9.2369    0.0000 </r>
       <r>    9.2718    0.0000 </r>
       <r>    9.5243    0.0000 </r>
       <r>    9.5617    0.0000 </r>
       <r>    9.5892    0.0000 </r>
       <r>    9.6449    0.0000 </r>
       <r>    9.7906    0.0000 </r>
       <r>   10.2819    0.0000 </r>
       <r>   10.2939    0.0000 </r>
       <r>   10.3122    0.0000 </r>
      </set>
     </set>
    </set>
   </array>
  </eigenvalues>
  <separator name="orbital magnetization" >
   <v name="MAGDIPOLOUT">      0.00000000      0.00000000      0.00000000</v>
  </separator>
  <dos>
   <i name="efermi">      7.71907864 </i>
   <total>
    <array>
     <dimension dim="1">gridpoints</dimension>
     <dimension dim="2">spin</dimension>
     <field>energy</field>
     <field>total</field>
     <field>integrated</field>
     <set>
      <set comment="spin 1">
       <r>  -5.4546   0.0000   0.0000 </r>
       <r>  -5.3954   0.0000   0.0000 </r>
       <r>  -5.3362   0.0000   0.0000 </r>
       <r>  -5.2769   0.0000   0.0000 </r>
       <r>  -5.2177   0.0000   0.0000 </r>
       <r>  -5.1585   0.0000   0.0000 </r>
       <r>  -5.0993   0.0000   0.0000 </r>
       <r>  -5.0400   0.0000   0.0000 </r>
       <r>  -4.9808   0.0000   0.0000 </r>
       <r>  -4.9216   0.0000   0.0000 </r>
       <r>  -4.8624   0.0000   0.0000 </r>
       <r>  -4.8031   0.0000   0.0000 </r>
       <r>  -4.7439   0.0000   0.0000 </r>
       <r>  -4.6847   0.0000   0.0000 </r>
       <r>  -4.6255   0.0000   0.0000 </r>
       <r>  -4.5663   0.0000   0.0000 </r>
       <r>  -4.5070   0.0000   0.0000 </r>
       <r>  -4.4478   0.0000   0.0000 </r>
       <r>  -4.3886   0.0000   0.0000 </r>
       <r>  -4.3294   0.0000   0.0000 </r>
       <r>  -4.2701   0.0000   0.0000 </r>
       <r>  -4.2109   0.0000   0.0000 </r>
       <r>  -4.1517  -0.0001   0.0000 </r>
       <r>  -4.0925  -0.0009  -0.0001 </r>
       <r>  -4.0333  -0.0046  -0.0003 </r>
       <r>  -3.9740  -0.0194  -0.0015 </r>
       <r>  -3.9148  -0.0657  -0.0054 </r>
       <r>  -3.8556  -0.1749  -0.0157 </r>
       <r>  -3.7964  -0.3477  -0.0363 </r>
       <r>  -3.7371  -0.4435  -0.0626 </r>
       <r>  -3.6779  -0.0703  -0.0668 </r>
       <r>  -3.6187   1.2926   0.0098 </r>
       <r>  -3.5595   3.7795   0.2336 </r>
       <r>  -3.5002   6.6019   0.6246 </r>
       <r>  -3.4410   8.2731   1.1146 </r>
       <r>  -3.3818   7.7431   1.5731 </r>
       <r>  -3.3226   5.3558   1.8903 </r>
       <r>  -3.2634   2.5262   2.0399 </r>
       <r>  -3.2041   0.5194   2.0707 </r>
       <r>  -3.1449  -0.3341   2.0509 </r>
       <r>  -3.0857  -0.4279   2.0256 </r>
       <r>  -3.0265  -0.2646   2.0099 </r>
       <r>  -2.9672  -0.1153   2.0031 </r>
       <r>  -2.9080  -0.0386   2.0008 </r>
       <r>  -2.8488  -0.0103   2.0002 </r>
       <r>  -2.7896  -0.0022   2.0000 </r>
       <r>  -2.7304  -0.0004   2.0000 </r>
       <r>  -2.6711  -0.0001   2.0000 </r>
       <r>  -2.6119   0.0000   2.0000 </r>
       <r>  -2.5527   0.0000   2.0000 </r>
       <r>  -2.4935   0.0000   2.0000 </r>
       <r>  -2.4342   0.0000   2.0000 </r>
       <r>  -2.3750   0.0000   2.0000 </r>
       <r>  -2.3158   0.0000   2.0000 </r>
       <r>  -2.2566   0.0000   2.0000 </r>
       <r>  -2.1973   0.0000   2.0000 </r>
       <r>  -2.1381   0.0000   2.0000 </r>
       <r>  -2.0789  -0.0002   2.0000 </r>
       <r>  -2.0197  -0.0011   1.9999 </r>
       <r>  -1.9605  -0.0060   1.9996 </r>
       <r>  -1.9012  -0.0274   1.9979 </r>
       <r>  -1.8420  -0.1031   1.9918 </r>
       <r>  -1.7828  -0.3111   1.9734 </r>
       <r>  -1.7236  -0.7349   1.9299 </r>
       <r>  -1.6643  -1.2735   1.8545 </r>
       <r>  -1.6051  -1.2857   1.7783 </r>
       <r>  -1.5459   0.5965   1.8137 </r>
       <r>  -1.4867   5.8362   2.1593 </r>
       <r>  -1.4275  14.4303   3.0139 </r>
       <r>  -1.3682  23.7387   4.4198 </r>
       <r>  -1.3090  29.5452   6.1695 </r>
       <r>  -1.2498  29.1646   7.8967 </r>
       <r>  -1.1906  23.6699   9.2985 </r>
       <r>  -1.1313  16.7272  10.2892 </r>
       <r>  -1.0721  11.3009  10.9584 </r>
       <r>  -1.0129   7.8856  11.4254 </r>
       <r>  -0.9537   5.7102  11.7636 </r>
       <r>  -0.8944   4.6124  12.0368 </r>
       <r>  -0.8352   5.0251  12.3344 </r>
       <r>  -0.7760   6.5979  12.7251 </r>
       <r>  -0.7168   7.8025  13.1872 </r>
       <r>  -0.6576   7.2408  13.6160 </r>
       <r>  -0.5983   4.9740  13.9106 </r>
       <r>  -0.5391   2.2927  14.0464 </r>
       <r>  -0.4799   0.4122  14.0708 </r>
       <r>  -0.4207  -0.3618  14.0493 </r>
       <r>  -0.3614  -0.4226  14.0243 </r>
       <r>  -0.3022  -0.2540  14.0093 </r>
       <r>  -0.2430  -0.1088  14.0028 </r>
       <r>  -0.1838  -0.0359  14.0007 </r>
       <r>  -0.1246  -0.0094  14.0001 </r>
       <r>  -0.0653  -0.0020  14.0000 </r>
       <r>  -0.0061  -0.0004  14.0000 </r>
       <r>   0.0531  -0.0002  14.0000 </r>
       <r>   0.1123  -0.0012  13.9999 </r>
       <r>   0.1716  -0.0063  13.9995 </r>
       <r>   0.2308  -0.0278  13.9979 </r>
       <r>   0.2900  -0.1009  13.9919 </r>
       <r>   0.3492  -0.2981  13.9743 </r>
       <r>   0.4085  -0.7018  13.9327 </r>
       <r>   0.4677  -1.2530  13.8585 </r>
       <r>   0.5269  -1.4479  13.7728 </r>
       <r>   0.5861  -0.1038  13.7666 </r>
       <r>   0.6453   4.3050  14.0216 </r>
       <r>   0.7046  12.4864  14.7610 </r>
       <r>   0.7638  23.1088  16.1296 </r>
       <r>   0.8230  33.0146  18.0848 </r>
       <r>   0.8822  39.2594  20.4099 </r>
       <r>   0.9415  41.0974  22.8438 </r>
       <r>   1.0007  39.8012  25.2009 </r>
       <r>   1.0599  36.8884  27.3855 </r>
       <r>   1.1191  33.0485  29.3428 </r>
       <r>   1.1783  28.3661  31.0227 </r>
       <r>   1.2376  22.7300  32.3688 </r>
       <r>   1.2968  16.1389  33.3246 </r>
       <r>   1.3560   9.2441  33.8721 </r>
       <r>   1.4152   3.5223  34.0807 </r>
       <r>   1.4745   0.4928  34.1098 </r>
       <r>   1.5337   0.6864  34.1505 </r>
       <r>   1.5929   3.2540  34.3432 </r>
       <r>   1.6521   6.3018  34.7164 </r>
       <r>   1.7114   7.8161  35.1793 </r>
       <r>   1.7706   6.9131  35.5887 </r>
       <r>   1.8298   4.5244  35.8567 </r>
       <r>   1.8890   2.7011  36.0166 </r>
       <r>   1.9482   2.9743  36.1928 </r>
       <r>   2.0075   5.1358  36.4969 </r>
       <r>   2.0667   7.4292  36.9369 </r>
       <r>   2.1259   7.9967  37.4105 </r>
       <r>   2.1851   6.3548  37.7869 </r>
       <r>   2.2444   3.5797  37.9989 </r>
       <r>   2.3036   1.1706  38.0682 </r>
       <r>   2.3628  -0.1170  38.0612 </r>
       <r>   2.4220  -0.4471  38.0348 </r>
       <r>   2.4812  -0.3423  38.0145 </r>
       <r>   2.5405  -0.1874  38.0034 </r>
       <r>   2.5997  -0.1335  37.9955 </r>
       <r>   2.6589  -0.2136  37.9828 </r>
       <r>   2.7181  -0.4164  37.9582 </r>
       <r>   2.7774  -0.6279  37.9210 </r>
       <r>   2.8366  -0.5258  37.8899 </r>
       <r>   2.8958   0.3825  37.9125 </r>
       <r>   2.9550   2.5031  38.0608 </r>
       <r>   3.0143   5.9630  38.4139 </r>
       <r>   3.0735  10.7799  39.0523 </r>
       <r>   3.1327  17.0119  40.0598 </r>
       <r>   3.1919  24.2096  41.4936 </r>
       <r>   3.2511  30.6306  43.3076 </r>
       <r>   3.3104  33.6377  45.2997 </r>
       <r>   3.3696  31.4550  47.1626 </r>
       <r>   3.4288  24.5845  48.6185 </r>
       <r>   3.4880  15.5502  49.5394 </r>
       <r>   3.5473   7.4745  49.9821 </r>
       <r>   3.6065   2.6847  50.1411 </r>
       <r>   3.6657   1.8948  50.2533 </r>
       <r>   3.7249   4.0186  50.4913 </r>
       <r>   3.7841   6.7394  50.8904 </r>
       <r>   3.8434   7.8382  51.3546 </r>
       <r>   3.9026   6.5471  51.7424 </r>
       <r>   3.9618   3.7872  51.9667 </r>
       <r>   4.0210   1.1117  52.0325 </r>
       <r>   4.0803  -0.4566  52.0055 </r>
       <r>   4.1395  -0.6221  51.9686 </r>
       <r>   4.1987   0.6320  52.0060 </r>
       <r>   4.2579   3.1263  52.1912 </r>
       <r>   4.3172   6.0449  52.5492 </r>
       <r>   4.3764   7.8859  53.0162 </r>
       <r>   4.4356   7.4065  53.4548 </r>
       <r>   4.4948   4.8014  53.7392 </r>
       <r>   4.5540   1.8873  53.8510 </r>
       <r>   4.6133   1.1357  53.9182 </r>
       <r>   4.6725   4.2926  54.1724 </r>
       <r>   4.7317  11.1336  54.8318 </r>
       <r>   4.7909  18.9140  55.9519 </r>
       <r>   4.8502  23.5059  57.3440 </r>
       <r>   4.9094  22.1881  58.6581 </r>
       <r>   4.9686  15.8038  59.5940 </r>
       <r>   5.0278   7.9661  60.0658 </r>
       <r>   5.0870   2.1000  60.1902 </r>
       <r>   5.1463  -0.6598  60.1511 </r>
       <r>   5.2055  -1.1779  60.0813 </r>
       <r>   5.2647  -0.8065  60.0336 </r>
       <r>   5.3239  -0.3798  60.0111 </r>
       <r>   5.3832  -0.1373  60.0029 </r>
       <r>   5.4424  -0.0427  60.0004 </r>
       <r>   5.5016  -0.0249  59.9989 </r>
       <r>   5.5608  -0.0575  59.9955 </r>
       <r>   5.6201  -0.1557  59.9863 </r>
       <r>   5.6793  -0.3303  59.9667 </r>
       <r>   5.7385  -0.4842  59.9381 </r>
       <r>   5.7977  -0.2941  59.9206 </r>
       <r>   5.8569   0.7330  59.9641 </r>
       <r>   5.9162   2.8677  60.1339 </r>
       <r>   5.9754   5.7038  60.4717 </r>
       <r>   6.0346   8.2848  60.9623 </r>
       <r>   6.0938   9.9113  61.5493 </r>
       <r>   6.1531  10.7093  62.1835 </r>
       <r>   6.2123  11.2015  62.8469 </r>
       <r>   6.2715  11.4921  63.5275 </r>
       <r>   6.3307  11.2209  64.1920 </r>
       <r>   6.3899  10.4076  64.8084 </r>
       <r>   6.4492  10.2151  65.4134 </r>
       <r>   6.5084  12.6072  66.1600 </r>
       <r>   6.5676  18.8103  67.2740 </r>
       <r>   6.6268  27.7877  68.9197 </r>
       <r>   6.6861  36.2770  71.0681 </r>
       <r>   6.7453  40.6888  73.4778 </r>
       <r>   6.8045  39.5066  75.8175 </r>
       <r>   6.8637  34.1896  77.8423 </r>
       <r>   6.9230  27.6965  79.4826 </r>
       <r>   6.9822  22.1143  80.7922 </r>
       <r>   7.0414  17.8711  81.8506 </r>
       <r>   7.1006  14.9062  82.7334 </r>
       <r>   7.1598  13.7560  83.5480 </r>
       <r>   7.2191  15.0286  84.4381 </r>
       <r>   7.2783  18.0982  85.5099 </r>
       <r>   7.3375  20.9293  86.7494 </r>
       <r>   7.3967  21.5584  88.0261 </r>
       <r>   7.4560  19.5931  89.1865 </r>
       <r>   7.5152  16.0444  90.1367 </r>
       <r>   7.5744  12.1012  90.8534 </r>
       <r>   7.6336   8.7137  91.3694 </r>
       <r>   7.6928   7.1561  91.7932 </r>
       <r>   7.7521   8.8620  92.3180 </r>
       <r>   7.8113  13.9241  93.1427 </r>
       <r>   7.8705  20.1769  94.3376 </r>
       <r>   7.9297  24.6156  95.7954 </r>
       <r>   7.9890  25.7889  97.3227 </r>
       <r>   8.0482  24.3072  98.7622 </r>
       <r>   8.1074  21.2121 100.0185 </r>
       <r>   8.1666  16.7770 101.0120 </r>
       <r>   8.2259  11.1264 101.6710 </r>
       <r>   8.2851   5.1455 101.9757 </r>
       <r>   8.3443   0.1660 101.9855 </r>
       <r>   8.4035  -2.7290 101.8239 </r>
       <r>   8.4627  -2.4310 101.6799 </r>
       <r>   8.5220   2.7407 101.8422 </r>
       <r>   8.5812  14.0053 102.6717 </r>
       <r>   8.6404  29.6800 104.4294 </r>
       <r>   8.6996  44.3222 107.0543 </r>
       <r>   8.7589  51.6169 110.1112 </r>
       <r>   8.8181  48.8480 113.0041 </r>
       <r>   8.8773  38.7514 115.2991 </r>
       <r>   8.9365  27.5100 116.9283 </r>
       <r>   8.9957  21.0200 118.1731 </r>
       <r>   9.0550  21.6902 119.4577 </r>
       <r>   9.1142  27.1787 121.0673 </r>
       <r>   9.1734  32.0547 122.9657 </r>
       <r>   9.2326  31.6980 124.8429 </r>
       <r>   9.2919  25.6371 126.3612 </r>
       <r>   9.3511  17.8262 127.4169 </r>
       <r>   9.4103  13.7275 128.2299 </r>
       <r>   9.4695  16.2011 129.1894 </r>
       <r>   9.5287  23.2027 130.5635 </r>
       <r>   9.5880  29.3886 132.3040 </r>
       <r>   9.6472  30.4422 134.1068 </r>
       <r>   9.7064  26.0607 135.6502 </r>
       <r>   9.7656  19.0055 136.7758 </r>
       <r>   9.8249  12.0535 137.4896 </r>
       <r>   9.8841   6.3498 137.8657 </r>
       <r>   9.9433   2.0061 137.9845 </r>
       <r>  10.0025  -0.7352 137.9409 </r>
       <r>  10.0618  -1.0209 137.8805 </r>
       <r>  10.1210   2.2751 138.0152 </r>
       <r>  10.1802   9.3634 138.5697 </r>
       <r>  10.2394  18.0831 139.6407 </r>
       <r>  10.2986  24.1143 141.0688 </r>
       <r>  10.3579  23.8652 142.4821 </r>
       <r>  10.4171  17.5752 143.5230 </r>
       <r>  10.4763   9.0858 144.0611 </r>
       <r>  10.5355   2.4805 144.2080 </r>
       <r>  10.5948  -0.6925 144.1670 </r>
       <r>  10.6540  -1.3061 144.0896 </r>
       <r>  10.7132  -0.8943 144.0366 </r>
       <r>  10.7724  -0.4173 144.0119 </r>
       <r>  10.8316  -0.1481 144.0032 </r>
       <r>  10.8909  -0.0417 144.0007 </r>
       <r>  10.9501  -0.0095 144.0001 </r>
       <r>  11.0093  -0.0018 144.0000 </r>
       <r>  11.0685  -0.0003 144.0000 </r>
       <r>  11.1278   0.0000 144.0000 </r>
       <r>  11.1870   0.0000 144.0000 </r>
       <r>  11.2462   0.0000 144.0000 </r>
       <r>  11.3054   0.0000 144.0000 </r>
       <r>  11.3647   0.0000 144.0000 </r>
       <r>  11.4239   0.0000 144.0000 </r>
       <r>  11.4831   0.0000 144.0000 </r>
       <r>  11.5423   0.0000 144.0000 </r>
       <r>  11.6015   0.0000 144.0000 </r>
       <r>  11.6608   0.0000 144.0000 </r>
       <r>  11.7200   0.0000 144.0000 </r>
       <r>  11.7792   0.0000 144.0000 </r>
       <r>  11.8384   0.0000 144.0000 </r>
       <r>  11.8977   0.0000 144.0000 </r>
       <r>  11.9569   0.0000 144.0000 </r>
       <r>  12.0161   0.0000 144.0000 </r>
       <r>  12.0753   0.0000 144.0000 </r>
       <r>  12.1345   0.0000 144.0000 </r>
       <r>  12.1938   0.0000 144.0000 </r>
       <r>  12.2530   0.0000 144.0000 </r>
       <r>  12.3122   0.0000 144.0000 </r>
      </set>
     </set>
    </array>
   </total>
  </dos>
 </calculation>
 <structure name="finalpos" >
  <crystal>
   <varray name="basis" >
    <v>       8.08705200       0.00000000       0.00000000 </v>
    <v>       0.00000000       8.08705200       0.00000000 </v>
    <v>       0.00000000       0.00000000       8.08705200 </v>
   </varray>
   <i name="volume">    528.89651690 </i>
   <varray name="rec_basis" >
    <v>       0.12365445       0.00000000       0.00000000 </v>
    <v>       0.00000000       0.12365445       0.00000000 </v>
    <v>       0.00000000       0.00000000       0.12365445 </v>
   </varray>
  </crystal>
  <varray name="positions" >
   <v>      -0.00216396       0.00000000      -0.00216396 </v>
   <v>       0.24816552       0.00000000       0.24816552 </v>
   <v>       0.24475790       0.24246151      -0.00525529 </v>
   <v>      -0.00525529       0.24246151       0.24475790 </v>
   <v>       0.50330054       0.00000000      -0.00436546 </v>
   <v>       0.75519845       0.00000000       0.24615695 </v>
   <v>       0.75466338       0.24350465      -0.00272481 </v>
   <v>       0.50818297       0.22867157       0.23883700 </v>
   <v>      -0.00618656       0.50000000      -0.00618656 </v>
   <v>       0.24475790       0.75753849      -0.00525529 </v>
   <v>      -0.00525529       0.75753849       0.24475790 </v>
   <v>       0.51079068       0.50000000      -0.00625046 </v>
   <v>       0.76140025       0.50000000       0.23605684 </v>
   <v>       0.75466338       0.75649535      -0.00272481 </v>
   <v>       0.50818297       0.77132843       0.23883700 </v>
   <v>      -0.00436546       0.00000000       0.50330054 </v>
   <v>       0.24615695       0.00000000       0.75519845 </v>
   <v>       0.23883700       0.22867157       0.50818297 </v>
   <v>      -0.00272481       0.24350465       0.75466338 </v>
   <v>       0.49963441       0.00000000       0.49963441 </v>
   <v>       0.75550260       0.00000000       0.75550260 </v>
   <v>       0.75906428       0.23980764       0.50177733 </v>
   <v>       0.50177733       0.23980764       0.75906428 </v>
   <v>      -0.00625046       0.50000000       0.51079068 </v>
   <v>       0.23605684       0.50000000       0.76140025 </v>
   <v>       0.23883700       0.77132843       0.50818297 </v>
   <v>      -0.00272481       0.75649535       0.75466338 </v>
   <v>       0.76000283       0.50000000       0.76000283 </v>
   <v>       0.75906428       0.76019236       0.50177733 </v>
   <v>       0.50177733       0.76019236       0.75906428 </v>
   <v>       0.49415182       0.50000000       0.49415182 </v>
  </varray>
 </structure>
</modeling>
