       N       E                     dE             d eps       ncg     rms          rms(c)
DAV:   1     0.442948496953E+03    0.44295E+03   -0.20726E+04   181   0.167E+03
DAV:   2     0.521439893483E+02   -0.39080E+03   -0.37043E+03   172   0.450E+02
DAV:   3    -0.159370147347E+02   -0.68081E+02   -0.66355E+02   198   0.145E+02
DAV:   4    -0.193364380618E+02   -0.33994E+01   -0.33795E+01   200   0.373E+01
DAV:   5    -0.194013829819E+02   -0.64945E-01   -0.64889E-01   192   0.493E+00    0.132E+01
DAV:   6    -0.196150080853E+02   -0.21363E+00   -0.30432E+00   215   0.103E+01    0.487E+00
DAV:   7    -0.197256058405E+02   -0.11060E+00   -0.53203E-01   200   0.462E+00    0.199E+00
DAV:   8    -0.197146236126E+02    0.10982E-01   -0.90652E-02   183   0.149E+00    0.832E-01
DAV:   9    -0.197197540686E+02   -0.51305E-02   -0.23455E-02   200   0.730E-01    0.323E-01
DAV:  10    -0.197215401057E+02   -0.17860E-02   -0.35358E-03   192   0.368E-01    0.940E-02
DAV:  11    -0.197218925043E+02   -0.35240E-03   -0.54667E-04   200   0.172E-01    0.476E-02
DAV:  12    -0.197220844227E+02   -0.19192E-03   -0.21655E-04   152   0.756E-02    0.198E-02
DAV:  13    -0.197221093698E+02   -0.24947E-04   -0.41158E-05   136   0.398E-02
   1 F= -.19722109E+02 E0= -.19729840E+02  d E =0.231916E-01  mag=    -0.0002
