 vasp.5.2.2 15Apr09 complex 
 executed on             LinuxIFC date 2013.11.25  22:24:53
 running on    1 nodes
 distr:  one band on    1 nodes,    1 groups


--------------------------------------------------------------------------------------------------------


 INCAR:
 POTCAR:   PAW_PBE Ga_d 06Sep2000                 
 POTCAR:   PAW_PBE As 06Sep2000                   
 POTCAR:   PAW_PBE Ga_d 06Sep2000                 
   VRHFIN =Ga: s2p1                                                             
   LEXCH  = PE                                                                  
   EATOM  =  2149.0616 eV,  157.9516 Ry                                         
                                                                                
   TITEL  = PAW_PBE Ga_d 06Sep2000                                              
   LULTRA =        F    use ultrasoft PP ?                                      
   IUNSCR =        1    unscreen: 0-lin 1-nonlin 2-no                           
   RPACOR =    2.000    partial core radius                                     
   POMASS =   69.723; ZVAL   =   13.000    mass and valenz                      
   RCORE  =    2.300    outmost cutoff radius                                   
   RWIGS  =    2.300; RWIGS  =    1.217    wigner-seitz radius (au A)           
   ENMAX  =  282.697; ENMIN  =  212.022 eV                                      
   ICORE  =        3    local potential                                         
   LCOR   =        T    correct aug charges                                     
   LPAW   =        T    paw PP                                                  
   EAUG   =  490.690                                                            
   DEXC   =    -.001                                                            
   RMAX   =    2.742    core radius for proj-oper                               
   RAUG   =    1.300    factor for augmentation sphere                          
   RDEP   =    2.413    radius for radial grids                                 
   QCUT   =   -4.558; QGAM   =    9.117    optimization parameters              
                                                                                
   Description                                                                  
     l     E      TYP  RCUT    TYP  RCUT                                        
     2   .000     23  2.300                                                     
     2  -.400     23  2.300                                                     
     0   .000     23  2.300                                                     
     0   .000     23  2.300                                                     
     1   .000     23  2.300                                                     
     1   .000     23  2.300                                                     
     3  -.100      7  2.300                                                     
  local pseudopotential read in
  partial core-charges read in
  atomic valenz-charges read in
  non local Contribution for L=           2  read in
    real space projection operators read in
  non local Contribution for L=           2  read in
    real space projection operators read in
  non local Contribution for L=           0  read in
    real space projection operators read in
  non local Contribution for L=           0  read in
    real space projection operators read in
  non local Contribution for L=           1  read in
    real space projection operators read in
  non local Contribution for L=           1  read in
    real space projection operators read in
    PAW grid and wavefunctions read in
 
   number of l-projection  operators is LMAX  =           6
   number of lm-projection operators is LMMAX =          18
 
 POTCAR:   PAW_PBE As 06Sep2000                   
   VRHFIN =As: s2p3                                                             
   LEXCH  = PE                                                                  
   EATOM  =   170.0753 eV,   12.5002 Ry                                         
                                                                                
   TITEL  = PAW_PBE As 06Sep2000                                                
   LULTRA =        F    use ultrasoft PP ?                                      
   IUNSCR =        1    unscreen: 0-lin 1-nonlin 2-no                           
   RPACOR =    1.900    partial core radius                                     
   POMASS =   74.922; ZVAL   =    5.000    mass and valenz                      
   RCORE  =    2.100    outmost cutoff radius                                   
   RWIGS  =    2.300; RWIGS  =    1.217    wigner-seitz radius (au A)           
   ENMAX  =  208.680; ENMIN  =  156.510 eV                                      
   ICORE  =        3    local potential                                         
   LCOR   =        T    correct aug charges                                     
   LPAW   =        T    paw PP                                                  
   EAUG   =  462.758                                                            
   DEXC   =    -.108                                                            
   RMAX   =    3.192    core radius for proj-oper                               
   RAUG   =    1.300    factor for augmentation sphere                          
   RDEP   =    2.140    radius for radial grids                                 
   QCUT   =   -3.916; QGAM   =    7.833    optimization parameters              
                                                                                
   Description                                                                  
     l     E      TYP  RCUT    TYP  RCUT                                        
     0   .000     23  2.100                                                     
     0   .000     23  2.100                                                     
     1   .000     23  2.100                                                     
     1   .000     23  2.100                                                     
     2   .000     23  2.100                                                     
     3  -.100      7  2.100                                                     
  local pseudopotential read in
  partial core-charges read in
  atomic valenz-charges read in
  non local Contribution for L=           0  read in
    real space projection operators read in
  non local Contribution for L=           0  read in
    real space projection operators read in
  non local Contribution for L=           1  read in
    real space projection operators read in
  non local Contribution for L=           1  read in
    real space projection operators read in
  non local Contribution for L=           2  read in
    real space projection operators read in
    PAW grid and wavefunctions read in
 
   number of l-projection  operators is LMAX  =           5
   number of lm-projection operators is LMMAX =          13
 
 PAW_PBE Ga_d 06Sep2000                 :
 energy of atom  1       EATOM=-2149.0616
 kinetic energy error for atom=    0.0253 (will be added to EATOM!!)
 PAW_PBE As 06Sep2000                   :
 energy of atom  2       EATOM= -170.0753
 kinetic energy error for atom=    0.0022 (will be added to EATOM!!)
 
 
 POSCAR: Ga3 As4                                 
  positions in direct lattice
  velocities in cartesian coordinates
 exchange correlation table for  LEXCH =        8
   RHO(1)=    0.500       N(1)  =     2000
   RHO(2)=  100.500       N(2)  =     4000

 VTST: version 2.03d, (02/18/09)

 CHAIN: initializing optimizer
 
 OPT: Using VASP Dynamics algorithm
 CHAIN: Read ICHAIN            0
 


--------------------------------------------------------------------------------------------------------


 ion  position               nearest neighbor table
   1  0.500  0.500  0.000-   4 2.51   5 2.51   6 2.51   7 2.51
   2  0.000  0.500  0.500-   4 2.51   5 2.51   6 2.51   7 2.51
   3  0.500  0.000  0.500-   4 2.51   5 2.51   6 2.51   7 2.51
   4  0.229  0.229  0.229-   1 2.51   2 2.51   3 2.51
   5  0.771  0.771  0.229-   1 2.51   2 2.51   3 2.51
   6  0.229  0.771  0.771-   1 2.51   2 2.51   3 2.51
   7  0.771  0.229  0.771-   1 2.51   2 2.51   3 2.51
 
  LATTYP: Found a simple cubic cell.
 ALAT       =     5.6266000000
  
  Lattice vectors:
  
 A1 = (   5.6266000000,   0.0000000000,   0.0000000000)
 A2 = (   0.0000000000,   5.6266000000,   0.0000000000)
 A3 = (   0.0000000000,   0.0000000000,   5.6266000000)
 Subroutine PRICEL returns:
 Original cell was already a primitive cell.
 

Analysis of symmetry for initial positions (statically):

 Routine SETGRP: Setting up the symmetry group for a 
 simple cubic supercell.


 Subroutine GETGRP returns: Found 24 space group operations
 (whereof 24 operations were pure point group operations)
 out of a pool of 48 trial point group operations.


The static configuration has the point symmetry T_d .

Analysis of symmetry for dynamics (positions and initial velocities):

 Subroutine DYNSYM returns: Found 24 space group operations
 (whereof 24 operations were pure point group operations)
 out of a pool of 24 trial space group operations
 (whereof 24 operations were pure point group operations)
 and found also     1 'primitive' translations


The dynamic configuration has the point symmetry T_d .

Analysis of magnetic symmetry:

 Subroutine MAGSYM returns: Found 24 space group operations
 (whereof 24 operations were pure point group operations)
 out of a pool of 24 trial space group operations
 (whereof 24 operations were pure point group operations)
 and found also     1 'primitive' translations


The magnetic configuration has the point symmetry T_d .
 
 
 KPOINTS: Automatic kpoint scheme                 

Automatic generation of k-mesh.
 
 Subroutine IBZKPT returns following result:
 ===========================================
 
 Found      1 irreducible k-points:
 
 Following reciprocal coordinates:
            Coordinates               Weight
  0.250000  0.250000  0.250000      8.000000
 
 Following cartesian coordinates:
            Coordinates               Weight
  0.044432  0.044432  0.044432      8.000000
 


--------------------------------------------------------------------------------------------------------




 Dimension of arrays:
   k-points           NKPTS =      1   k-points in BZ     NKDIM =      1   number of bands    NBANDS=     41
   number of dos      NEDOS =    301   number of ions     NIONS =      7
   non local maximal  LDIM  =      6   non local SUM 2l+1 LMDIM =     18
   total plane-waves  NPLWV =  13824
   max r-space proj   IRMAX =      1   max aug-charges    IRDMAX=   3410
   dimension x,y,z NGX =    24 NGY =   24 NGZ =   24
   dimension x,y,z NGXF=    48 NGYF=   48 NGZF=   48
   support grid    NGXF=    48 NGYF=   48 NGZF=   48
   ions per type =               3   4
 NGX,Y,Z   is equivalent  to a cutoff of   7.09,  7.09,  7.09 a.u.
 NGXF,Y,Z  is equivalent  to a cutoff of  14.18, 14.18, 14.18 a.u.


 I would recommend the setting:
   dimension x,y,z NGX =    24 NGY =   24 NGZ =   24
 SYSTEM =  unknown system                          
 POSCAR =  Ga3 As4                                 

 Startparameter for this run:
   NWRITE =      2    write-flag & timer
   PREC   = normal    medium, high low
   ISTART =      0    job   : 0-new  1-cont  2-samecut
   ICHARG =      2    charge: 1-file 2-atom 10-const
   ISPIN  =      2    spin polarized calculation?
   LNONCOLLINEAR =      F non collinear calculations
   LSORBIT =      F    spin-orbit coupling
   INIWAV =      1    electr: 0-lowe 1-rand  2-diag
   LASPH  =      F    aspherical Exc in radial PAW
   METAGGA=      F    non-selfconsistent MetaGGA calc.

 Electronic Relaxation 1
   ENCUT  =  313.0 eV  23.00 Ry    4.80 a.u.   8.12  8.12  8.12*2*pi/ulx,y,z
   ENINI  =  313.0     initial cutoff
   ENAUG  =  490.7 eV  augmentation charge cutoff
   NELM   =     60;   NELMIN=  2; NELMDL= -5     # of ELM steps 
   EDIFF  = 0.1E-03   stopping-criterion for ELM
   LREAL  =      F    real-space projection
   LCOMPAT=      F    compatible to vasp.4.4
   LREAL_COMPAT= F    compatible to vasp.4.5.1-3
   GGA_COMPAT  = T    GGA compatible to vasp.4.4-vasp.4.6
   LMAXPAW     = -100 max onsite density
   LMAXMIX     =    2 max onsite mixed and CHGCAR
   VOSKOWN=      0    Vosko Wilk Nusair interpolation
   ROPT   =    0.00000   0.00000
 Ionic relaxation
   EDIFFG = 0.1E-02   stopping-criterion for IOM
   NSW    =      0    number of steps for IOM
   NBLOCK =      1;   KBLOCK =      1    inner block; outer block 
   IBRION =     -1    ionic relax: 0-MD 1-quasi-New 2-CG
   NFREE  =      0    steps in history (QN), initial steepest desc. (CG)
   ISIF   =      2    stress and relaxation
   IWAVPR =     10    prediction:  0-non 1-charg 2-wave 3-comb
   ISYM   =      2    0-nonsym 1-usesym 2-fastsym
   LCORR  =      T    Harris-Foulkes like correction to forces

   POTIM  = 0.5000    time-step for ionic-motion
   TEIN   =    0.0    initial temperature
   TEBEG  =    0.0;   TEEND  =   0.0 temperature during run
   SMASS  =  -3.00    Nose mass-parameter (am)
   estimated Nose-frequenzy (Omega)   =  0.10E-29 period in steps =****** mass=  -0.723E-27a.u.
   NPACO  =    256;   APACO  = 16.0  distance and # of slots for P.C.
   PSTRESS=    0.0 pullay stress

  Mass of Ions in am
   POMASS =  69.72 74.92
  Ionic Valenz
   ZVAL   =  13.00  5.00
  Atomic Wigner-Seitz radii
   RWIGS  =  -1.00 -1.00
   NELECT =      62.0000    total number of electrons
   NUPDOWN=      -1.0000    fix difference up-down

 DOS related values:
   EMIN   =  10.00;   EMAX   =-10.00  energy-range for DOS
   EFERMI =   0.00
   ISMEAR =     1;   SIGMA  =   0.20  broadening in eV -4-tet -1-fermi 0-gaus

 Electronic relaxation 2 (details)
   IALGO  =     38    algorithm
   LDIAG  =      T    sub-space diagonalisation
   IMIX   =      4    mixing-type and parameters
     AMIX     =   0.40;   BMIX     =  1.00
     AMIX_MAG =   1.60;   BMIX_MAG =  1.00
     AMIN     =   0.10
     WC   =   100.;   INIMIX=   1;  MIXPRE=   1

 Intra band minimization:
   WEIMIN = 0.0000     energy-eigenvalue tresh-hold
   EBREAK =  0.61E-06  absolut break condition
   DEPER  =   0.30     relativ break condition  

   TIME   =   0.40     timestep for ELM

  volume/ion in A,a.u.               =      25.45       171.73
  Fermi-wavevector in a.u.,A,eV,Ry     =   1.151576  2.176163 18.043064  1.326128
  Thomas-Fermi vector in A             =   2.288233
 
 Write flags
   LWAVE  =      F    write WAVECAR
   LCHARG =      F    write CHGCAR
   LVTOT  =      F    write LOCPOT, local potential
   LELF   =      F    write electronic localiz. function (ELF)
   LORBIT =      0    0 simple, 1 ext, 2 COOP (PROOUT)


 Dipole corrections
   LMONO  =      F    monopole corrections only (constant potential shift)
   LDIPOL =      F    correct potential (dipole corrections)
   IDIPOL =      0    1-x, 2-y, 3-z, 4-all directions 
   EPSILON=  1.0000000 bulk dielectric constant

 Exchange correlation treatment:
   GGA     =    --    GGA type
   LEXCH   =     8    internal setting for exchange type
   VOSKOWN=      0    Vosko Wilk Nusair interpolation
   LHFCALC =     F    Hartree Fock is set to
   LHFONE  =     F    Hartree Fock one center treatment
   AEXX    =    0.0000 exact exchange contribution

 Linear response parameters
   LEPSILON=     F    determine dielectric tensor
   LRPA    =     F    only Hartree local field effects (RPA)
   LNABLA  =     F    use nabla operator in PAW spheres
   LVEL    =     F    velocity operator in full k-point grid
   LINTERFAST=   F  fast interpolation
   KINTER  =     0    interpolate to denser k-point grid
   CSHIFT  =0.1000    complex shift for real part using Kramers Kronig
   OMEGAMAX=  -1.0    maximum frequency

 Orbital magnetization related:
   ORBITALMAG=     F  switch on orbital magnetization
   LCHIMAG   =     F  perturbation theory with respect to B field



--------------------------------------------------------------------------------------------------------


 Static calculation
 charge density and potential will be updated during run
 spin polarized calculation
 Variant of blocked Davidson
 Davidson routine will perform the subspace rotation
 perform sub-space diagonalisation
    after iterative eigenvector-optimisation
 modified Broyden-mixing scheme, WC =      100.0
 initial mixing is a Kerker type mixing with AMIX =  0.4000 and BMIX =      1.0000
 Hartree-type preconditioning will be used
 using additional bands           10
 reciprocal scheme for non local part
 use partial core corrections
 calculate Harris-corrections to forces 
   (improved forces if not selfconsistent)
 use gradient corrections 
 use of overlap-Matrix (Vanderbilt PP)
 Methfessel and Paxton  Order N= 1 SIGMA  =   0.20


--------------------------------------------------------------------------------------------------------


  energy-cutoff  :      313.00
  volume of cell :      178.13
      direct lattice vectors                 reciprocal lattice vectors
     5.626600000  0.000000000  0.000000000     0.177727224  0.000000000  0.000000000
     0.000000000  5.626600000  0.000000000     0.000000000  0.177727224  0.000000000
     0.000000000  0.000000000  5.626600000     0.000000000  0.000000000  0.177727224

  length of vectors
     5.626600000  5.626600000  5.626600000     0.177727224  0.177727224  0.177727224


 
 k-points in units of 2pi/SCALE and weight: Automatic kpoint scheme                 
   0.04443181  0.04443181  0.04443181       1.000
 
 k-points in reciprocal lattice and weights: Automatic kpoint scheme                 
   0.25000000  0.25000000  0.25000000       1.000
 
 position of ions in fractional coordinates (direct lattice) 
   0.50000000  0.50000000  0.00000000
   0.00000000  0.50000000  0.50000000
   0.50000000  0.00000000  0.50000000
   0.22945800  0.22945800  0.22945800
   0.77054200  0.77054200  0.22945800
   0.22945800  0.77054200  0.77054200
   0.77054200  0.22945800  0.77054200
 
 position of ions in cartesian coordinates  (Angst):
   2.81330000  2.81330000  0.00000000
   0.00000000  2.81330000  2.81330000
   2.81330000  0.00000000  2.81330000
   1.29106838  1.29106838  1.29106838
   4.33553162  4.33553162  1.29106838
   1.29106838  4.33553162  4.33553162
   4.33553162  1.29106838  4.33553162
 


--------------------------------------------------------------------------------------------------------


 k-point  1 :  0.25000.25000.2500  plane waves:    2238

 maximum and minimum number of plane-waves per node :    2238   2238

 maximum number of plane-waves:    2238
 maximal index in each direction: 
   IXMAX=  7   IYMAX=  7   IZMAX=  7
   IXMIN= -8   IYMIN= -8   IZMIN= -8

 WARNING: aliasing errors must be expected set NGX to  32 to avoid them
 WARNING: aliasing errors must be expected set NGY to  32 to avoid them
 WARNING: aliasing errors must be expected set NGZ to  32 to avoid them
 aliasing errors are usually negligible using standard VASP settings
 and one can safely disregard these warnings

 serial   3D FFT for wavefunctions
 parallel 3D FFT for charge:
    minimum data exchange during FFTs selected (reduces bandwidth)


 total amount of memory used by VASP on root node  48369. kBytes
========================================================================

   base      :    30000. kBytes
   nonl-proj :      895. kBytes
   fftplans  :     3916. kBytes
   grid      :    10266. kBytes
   one-center:      217. kBytes
   wavefun   :     3075. kBytes
 
 Broyden mixing: mesh for mixing (old mesh)
   NGX = 17   NGY = 17   NGZ = 17
  (NGX  = 48   NGY  = 48   NGZ  = 48)
  gives a total of   4913 points

 initial charge density was supplied:
 charge density of overlapping atoms calculated
 number of electron   59.0000000 magnetization    7.0000000
 keeping initial charge density in first step


--------------------------------------------------------------------------------------------------------


 Maximum index for augmentation-charges         3098 (set IRDMAX)


--------------------------------------------------------------------------------------------------------


 First call to EWALD:  gamma=   0.315
 Maximum number of real-space cells 3x 3x 3
 Maximum number of reciprocal cells 3x 3x 3

    FEWALD:  cpu time    0.03: real time    0.01
   RESPFUN:  cpu time    0.00: real time    0.00


----------------------------------------- Iteration    1(   1)  ---------------------------------------


    POTLOK:  cpu time    0.71: real time    0.53
    SETDIJ:  cpu time    0.13: real time    0.13
     EDDAV:  cpu time    5.64: real time    1.42
       DOS:  cpu time    0.00: real time    0.00
    --------------------------------------------
      LOOP:  cpu time    6.49: real time    2.09

 eigenvalue-minimisations  :   181
 total energy-change (2. order) : 0.4429485E+03  (-0.2072598E+04)
 number of electron   59.0000000 magnetization    7.0000000
 augmentation part    59.0000000 magnetization    7.0000000

 Free energy of the ion-electron system (eV)
  ---------------------------------------------------
  alpha Z        PSCENC =       204.23112898
  Ewald energy   TEWEN  =     -3677.39161705
  -1/2 Hartree   DENC   =     -2407.59899574
  -exchange  EXHF       =         0.00000000
  -V(xc)+E(xc)   XCENC  =       140.53929893
  PAW double counting   =      4537.24972380    -5510.40829286
  entropy T*S    EENTRO =         0.00623923
  eigenvalues    EBANDS =        28.91962669
  atomic energy  EATOM  =      7127.40138498
  ---------------------------------------------------
  free energy    TOTEN  =       442.94849695 eV

  energy without entropy =      442.94225772  energy(sigma->0) =      442.94641721


--------------------------------------------------------------------------------------------------------




----------------------------------------- Iteration    1(   2)  ---------------------------------------


     EDDAV:  cpu time    4.94: real time    1.24
       DOS:  cpu time    0.00: real time    0.00
    --------------------------------------------
      LOOP:  cpu time    4.94: real time    1.24

 eigenvalue-minimisations  :   172
 total energy-change (2. order) :-0.3908045E+03  (-0.3704347E+03)
 number of electron   59.0000000 magnetization    7.0000000
 augmentation part    59.0000000 magnetization    7.0000000

 Free energy of the ion-electron system (eV)
  ---------------------------------------------------
  alpha Z        PSCENC =       204.23112898
  Ewald energy   TEWEN  =     -3677.39161705
  -1/2 Hartree   DENC   =     -2407.59899574
  -exchange  EXHF       =         0.00000000
  -V(xc)+E(xc)   XCENC  =       140.53929893
  PAW double counting   =      4537.24972380    -5510.40829286
  entropy T*S    EENTRO =         0.01410025
  eigenvalues    EBANDS =      -361.89274194
  atomic energy  EATOM  =      7127.40138498
  ---------------------------------------------------
  free energy    TOTEN  =        52.14398935 eV

  energy without entropy =       52.12988909  energy(sigma->0) =       52.13928926


--------------------------------------------------------------------------------------------------------




----------------------------------------- Iteration    1(   3)  ---------------------------------------


     EDDAV:  cpu time    5.40: real time    1.37
       DOS:  cpu time    0.00: real time    0.00
    --------------------------------------------
      LOOP:  cpu time    5.40: real time    1.37

 eigenvalue-minimisations  :   198
 total energy-change (2. order) :-0.6808100E+02  (-0.6635497E+02)
 number of electron   59.0000000 magnetization    7.0000000
 augmentation part    59.0000000 magnetization    7.0000000

 Free energy of the ion-electron system (eV)
  ---------------------------------------------------
  alpha Z        PSCENC =       204.23112898
  Ewald energy   TEWEN  =     -3677.39161705
  -1/2 Hartree   DENC   =     -2407.59899574
  -exchange  EXHF       =         0.00000000
  -V(xc)+E(xc)   XCENC  =       140.53929893
  PAW double counting   =      4537.24972380    -5510.40829286
  entropy T*S    EENTRO =         0.01138530
  eigenvalues    EBANDS =      -429.97103106
  atomic energy  EATOM  =      7127.40138498
  ---------------------------------------------------
  free energy    TOTEN  =       -15.93701473 eV

  energy without entropy =      -15.94840003  energy(sigma->0) =      -15.94080983


--------------------------------------------------------------------------------------------------------




----------------------------------------- Iteration    1(   4)  ---------------------------------------


     EDDAV:  cpu time    5.43: real time    1.38
       DOS:  cpu time    0.00: real time    0.00
    --------------------------------------------
      LOOP:  cpu time    5.44: real time    1.38

 eigenvalue-minimisations  :   200
 total energy-change (2. order) :-0.3399423E+01  (-0.3379541E+01)
 number of electron   59.0000000 magnetization    7.0000000
 augmentation part    59.0000000 magnetization    7.0000000

 Free energy of the ion-electron system (eV)
  ---------------------------------------------------
  alpha Z        PSCENC =       204.23112898
  Ewald energy   TEWEN  =     -3677.39161705
  -1/2 Hartree   DENC   =     -2407.59899574
  -exchange  EXHF       =         0.00000000
  -V(xc)+E(xc)   XCENC  =       140.53929893
  PAW double counting   =      4537.24972380    -5510.40829286
  entropy T*S    EENTRO =         0.01160525
  eigenvalues    EBANDS =      -433.37067434
  atomic energy  EATOM  =      7127.40138498
  ---------------------------------------------------
  free energy    TOTEN  =       -19.33643806 eV

  energy without entropy =      -19.34804331  energy(sigma->0) =      -19.34030648


--------------------------------------------------------------------------------------------------------




----------------------------------------- Iteration    1(   5)  ---------------------------------------


     EDDAV:  cpu time    5.29: real time    1.34
       DOS:  cpu time    0.00: real time    0.00
    CHARGE:  cpu time    0.22: real time    0.12
    MIXING:  cpu time    0.01: real time    0.01
    --------------------------------------------
      LOOP:  cpu time    5.53: real time    1.47

 eigenvalue-minimisations  :   192
 total energy-change (2. order) :-0.6494492E-01  (-0.6488863E-01)
 number of electron   61.9999024 magnetization    0.7844158
 augmentation part    21.7309527 magnetization    0.8332656

 Broyden mixing:
  rms(total) = 0.13201E+01    rms(broyden)= 0.13008E+01
  rms(prec ) = 0.16501E+01
  weight for this iteration     100.00

 Free energy of the ion-electron system (eV)
  ---------------------------------------------------
  alpha Z        PSCENC =       204.23112898
  Ewald energy   TEWEN  =     -3677.39161705
  -1/2 Hartree   DENC   =     -2407.59899574
  -exchange  EXHF       =         0.00000000
  -V(xc)+E(xc)   XCENC  =       140.53929893
  PAW double counting   =      4537.24972380    -5510.40829286
  entropy T*S    EENTRO =         0.01159583
  eigenvalues    EBANDS =      -433.43560985
  atomic energy  EATOM  =      7127.40138498
  ---------------------------------------------------
  free energy    TOTEN  =       -19.40138298 eV

  energy without entropy =      -19.41297882  energy(sigma->0) =      -19.40524826


--------------------------------------------------------------------------------------------------------




----------------------------------------- Iteration    1(   6)  ---------------------------------------


    POTLOK:  cpu time    0.49: real time    0.50
    SETDIJ:  cpu time    0.13: real time    0.13
     EDDAV:  cpu time    6.16: real time    1.57
       DOS:  cpu time    0.00: real time    0.00
    CHARGE:  cpu time    0.22: real time    0.12
    MIXING:  cpu time    0.01: real time    0.01
    --------------------------------------------
      LOOP:  cpu time    7.02: real time    2.33

 eigenvalue-minimisations  :   215
 total energy-change (2. order) :-0.2136251E+00  (-0.3043201E+00)
 number of electron   61.9999025 magnetization    0.2717101
 augmentation part    21.8643741 magnetization    0.1127885

 Broyden mixing:
  rms(total) = 0.48689E+00    rms(broyden)= 0.48689E+00
  rms(prec ) = 0.63780E+00
  weight for this iteration     100.00

 eigenvalues of (default mixing * dielectric matrix)
  average eigenvalue GAMMA=   0.7527
  0.7527

 Free energy of the ion-electron system (eV)
  ---------------------------------------------------
  alpha Z        PSCENC =       204.23112898
  Ewald energy   TEWEN  =     -3677.39161705
  -1/2 Hartree   DENC   =     -2398.04784232
  -exchange  EXHF       =         0.00000000
  -V(xc)+E(xc)   XCENC  =       148.73346393
  PAW double counting   =      4625.61439136    -5600.58150784
  entropy T*S    EENTRO =         0.02576767
  eigenvalues    EBANDS =      -449.60017779
  atomic energy  EATOM  =      7127.40138498
  ---------------------------------------------------
  free energy    TOTEN  =       -19.61500809 eV

  energy without entropy =      -19.64077576  energy(sigma->0) =      -19.62359731


--------------------------------------------------------------------------------------------------------




----------------------------------------- Iteration    1(   7)  ---------------------------------------


    POTLOK:  cpu time    0.49: real time    0.49
    SETDIJ:  cpu time    0.13: real time    0.13
     EDDAV:  cpu time    5.84: real time    1.48
       DOS:  cpu time    0.00: real time    0.00
    CHARGE:  cpu time    0.22: real time    0.12
    MIXING:  cpu time    0.02: real time    0.01
    --------------------------------------------
      LOOP:  cpu time    6.70: real time    2.24

 eigenvalue-minimisations  :   200
 total energy-change (2. order) :-0.1105978E+00  (-0.5320307E-01)
 number of electron   61.9999026 magnetization   -0.0738510
 augmentation part    21.9045054 magnetization   -0.0811731

 Broyden mixing:
  rms(total) = 0.19900E+00    rms(broyden)= 0.19900E+00
  rms(prec ) = 0.32098E+00
  weight for this iteration     100.00

 eigenvalues of (default mixing * dielectric matrix)
  average eigenvalue GAMMA=   0.9418
  0.7146  1.1689

 Free energy of the ion-electron system (eV)
  ---------------------------------------------------
  alpha Z        PSCENC =       204.23112898
  Ewald energy   TEWEN  =     -3677.39161705
  -1/2 Hartree   DENC   =     -2395.70377962
  -exchange  EXHF       =         0.00000000
  -V(xc)+E(xc)   XCENC  =       148.73953088
  PAW double counting   =      4682.03880734    -5660.02136158
  entropy T*S    EENTRO =         0.02323874
  eigenvalues    EBANDS =      -449.04293851
  atomic energy  EATOM  =      7127.40138498
  ---------------------------------------------------
  free energy    TOTEN  =       -19.72560584 eV

  energy without entropy =      -19.74884458  energy(sigma->0) =      -19.73335209


--------------------------------------------------------------------------------------------------------




----------------------------------------- Iteration    1(   8)  ---------------------------------------


    POTLOK:  cpu time    0.52: real time    0.49
    SETDIJ:  cpu time    0.13: real time    0.13
     EDDAV:  cpu time    5.19: real time    1.31
       DOS:  cpu time    0.00: real time    0.00
    CHARGE:  cpu time    0.23: real time    0.12
    MIXING:  cpu time    0.02: real time    0.01
    --------------------------------------------
      LOOP:  cpu time    6.10: real time    2.07

 eigenvalue-minimisations  :   183
 total energy-change (2. order) : 0.1098223E-01  (-0.9065234E-02)
 number of electron   61.9999027 magnetization   -0.0484994
 augmentation part    21.9131703 magnetization   -0.0491411

 Broyden mixing:
  rms(total) = 0.83242E-01    rms(broyden)= 0.83242E-01
  rms(prec ) = 0.14350E+00
  weight for this iteration     100.00

 eigenvalues of (default mixing * dielectric matrix)
  average eigenvalue GAMMA=   1.1354
  0.6982  0.8917  1.8162

 Free energy of the ion-electron system (eV)
  ---------------------------------------------------
  alpha Z        PSCENC =       204.23112898
  Ewald energy   TEWEN  =     -3677.39161705
  -1/2 Hartree   DENC   =     -2395.43090369
  -exchange  EXHF       =         0.00000000
  -V(xc)+E(xc)   XCENC  =       148.90343442
  PAW double counting   =      4743.78828240    -5725.71688415
  entropy T*S    EENTRO =         0.02319237
  eigenvalues    EBANDS =      -445.52264187
  atomic energy  EATOM  =      7127.40138498
  ---------------------------------------------------
  free energy    TOTEN  =       -19.71462361 eV

  energy without entropy =      -19.73781599  energy(sigma->0) =      -19.72235440


--------------------------------------------------------------------------------------------------------




----------------------------------------- Iteration    1(   9)  ---------------------------------------


    POTLOK:  cpu time    0.55: real time    0.49
    SETDIJ:  cpu time    0.13: real time    0.13
     EDDAV:  cpu time    5.48: real time    1.39
       DOS:  cpu time    0.00: real time    0.00
    CHARGE:  cpu time    0.23: real time    0.12
    MIXING:  cpu time    0.03: real time    0.01
    --------------------------------------------
      LOOP:  cpu time    6.42: real time    2.16

 eigenvalue-minimisations  :   200
 total energy-change (2. order) :-0.5130456E-02  (-0.2345538E-02)
 number of electron   61.9999027 magnetization   -0.0117732
 augmentation part    21.9148146 magnetization   -0.0044332

 Broyden mixing:
  rms(total) = 0.32308E-01    rms(broyden)= 0.32308E-01
  rms(prec ) = 0.42001E-01
  weight for this iteration     100.00

 eigenvalues of (default mixing * dielectric matrix)
  average eigenvalue GAMMA=   1.2440
  2.4595  1.0710  0.7771  0.6685

 Free energy of the ion-electron system (eV)
  ---------------------------------------------------
  alpha Z        PSCENC =       204.23112898
  Ewald energy   TEWEN  =     -3677.39161705
  -1/2 Hartree   DENC   =     -2395.95262527
  -exchange  EXHF       =         0.00000000
  -V(xc)+E(xc)   XCENC  =       149.04422748
  PAW double counting   =      4786.17998096    -5770.75909078
  entropy T*S    EENTRO =         0.02319827
  eigenvalues    EBANDS =      -442.49634164
  atomic energy  EATOM  =      7127.40138498
  ---------------------------------------------------
  free energy    TOTEN  =       -19.71975407 eV

  energy without entropy =      -19.74295234  energy(sigma->0) =      -19.72748683


--------------------------------------------------------------------------------------------------------




----------------------------------------- Iteration    1(  10)  ---------------------------------------


    POTLOK:  cpu time    0.58: real time    0.49
    SETDIJ:  cpu time    0.13: real time    0.13
     EDDAV:  cpu time    5.34: real time    1.35
       DOS:  cpu time    0.00: real time    0.00
    CHARGE:  cpu time    0.23: real time    0.12
    MIXING:  cpu time    0.03: real time    0.02
    --------------------------------------------
      LOOP:  cpu time    6.32: real time    2.11

 eigenvalue-minimisations  :   192
 total energy-change (2. order) :-0.1786037E-02  (-0.3535782E-03)
 number of electron   61.9999027 magnetization   -0.0000263
 augmentation part    21.9157731 magnetization    0.0040901

 Broyden mixing:
  rms(total) = 0.93989E-02    rms(broyden)= 0.93989E-02
  rms(prec ) = 0.14547E-01
  weight for this iteration     100.00

 eigenvalues of (default mixing * dielectric matrix)
  average eigenvalue GAMMA=   1.2381
  2.6335  1.2499  0.6454  0.7476  0.9139

 Free energy of the ion-electron system (eV)
  ---------------------------------------------------
  alpha Z        PSCENC =       204.23112898
  Ewald energy   TEWEN  =     -3677.39161705
  -1/2 Hartree   DENC   =     -2396.04923489
  -exchange  EXHF       =         0.00000000
  -V(xc)+E(xc)   XCENC  =       149.07457853
  PAW double counting   =      4791.95353523    -5776.75974924
  entropy T*S    EENTRO =         0.02319290
  eigenvalues    EBANDS =      -442.20475952
  atomic energy  EATOM  =      7127.40138498
  ---------------------------------------------------
  free energy    TOTEN  =       -19.72154011 eV

  energy without entropy =      -19.74473300  energy(sigma->0) =      -19.72927107


--------------------------------------------------------------------------------------------------------




----------------------------------------- Iteration    1(  11)  ---------------------------------------


    POTLOK:  cpu time    0.58: real time    0.49
    SETDIJ:  cpu time    0.13: real time    0.13
     EDDAV:  cpu time    5.48: real time    1.40
       DOS:  cpu time    0.00: real time    0.00
    CHARGE:  cpu time    0.23: real time    0.12
    MIXING:  cpu time    0.03: real time    0.02
    --------------------------------------------
      LOOP:  cpu time    6.46: real time    2.16

 eigenvalue-minimisations  :   200
 total energy-change (2. order) :-0.3523986E-03  (-0.5466655E-04)
 number of electron   61.9999027 magnetization    0.0005625
 augmentation part    21.9162435 magnetization    0.0017162

 Broyden mixing:
  rms(total) = 0.47632E-02    rms(broyden)= 0.47632E-02
  rms(prec ) = 0.78324E-02
  weight for this iteration     100.00

 eigenvalues of (default mixing * dielectric matrix)
  average eigenvalue GAMMA=   1.2452
  2.6419  1.5387  0.6376  0.7401  0.8756  1.0376

 Free energy of the ion-electron system (eV)
  ---------------------------------------------------
  alpha Z        PSCENC =       204.23112898
  Ewald energy   TEWEN  =     -3677.39161705
  -1/2 Hartree   DENC   =     -2396.09141355
  -exchange  EXHF       =         0.00000000
  -V(xc)+E(xc)   XCENC  =       149.08183534
  PAW double counting   =      4789.89623726    -5774.51419066
  entropy T*S    EENTRO =         0.02319183
  eigenvalues    EBANDS =      -442.35844962
  atomic energy  EATOM  =      7127.40138498
  ---------------------------------------------------
  free energy    TOTEN  =       -19.72189250 eV

  energy without entropy =      -19.74508433  energy(sigma->0) =      -19.72962311


--------------------------------------------------------------------------------------------------------




----------------------------------------- Iteration    1(  12)  ---------------------------------------


    POTLOK:  cpu time    0.58: real time    0.49
    SETDIJ:  cpu time    0.13: real time    0.13
     EDDAV:  cpu time    4.59: real time    1.17
       DOS:  cpu time    0.00: real time    0.00
    CHARGE:  cpu time    0.23: real time    0.12
    MIXING:  cpu time    0.11: real time    0.06
    --------------------------------------------
      LOOP:  cpu time    5.65: real time    1.98

 eigenvalue-minimisations  :   152
 total energy-change (2. order) :-0.1919185E-03  (-0.2165510E-04)
 number of electron   61.9999027 magnetization    0.0004913
 augmentation part    21.9163706 magnetization   -0.0001877

 Broyden mixing:
  rms(total) = 0.19765E-02    rms(broyden)= 0.19765E-02
  rms(prec ) = 0.32501E-02
  weight for this iteration     100.00

 eigenvalues of (default mixing * dielectric matrix)
  average eigenvalue GAMMA=   1.3603
  2.6305  2.5997  1.2176  0.9542  0.6293  0.7253  0.7655

 Free energy of the ion-electron system (eV)
  ---------------------------------------------------
  alpha Z        PSCENC =       204.23112898
  Ewald energy   TEWEN  =     -3677.39161705
  -1/2 Hartree   DENC   =     -2396.20789043
  -exchange  EXHF       =         0.00000000
  -V(xc)+E(xc)   XCENC  =       149.09076377
  PAW double counting   =      4787.58847052    -5772.08433385
  entropy T*S    EENTRO =         0.02319170
  eigenvalues    EBANDS =      -442.37318303
  atomic energy  EATOM  =      7127.40138498
  ---------------------------------------------------
  free energy    TOTEN  =       -19.72208442 eV

  energy without entropy =      -19.74527612  energy(sigma->0) =      -19.72981499


--------------------------------------------------------------------------------------------------------




----------------------------------------- Iteration    1(  13)  ---------------------------------------


    POTLOK:  cpu time    0.57: real time    0.49
    SETDIJ:  cpu time    0.13: real time    0.13
     EDDAV:  cpu time    4.43: real time    1.16
       DOS:  cpu time    0.00: real time    0.00
    --------------------------------------------
      LOOP:  cpu time    5.14: real time    1.78

 eigenvalue-minimisations  :   136
 total energy-change (2. order) :-0.2494705E-04  (-0.4115752E-05)
 number of electron   61.9999027 magnetization    0.0004913
 augmentation part    21.9163706 magnetization   -0.0001877

 Free energy of the ion-electron system (eV)
  ---------------------------------------------------
  alpha Z        PSCENC =       204.23112898
  Ewald energy   TEWEN  =     -3677.39161705
  -1/2 Hartree   DENC   =     -2396.30355557
  -exchange  EXHF       =         0.00000000
  -V(xc)+E(xc)   XCENC  =       149.09609635
  PAW double counting   =      4786.96319800    -5771.45807258
  entropy T*S    EENTRO =         0.02319162
  eigenvalues    EBANDS =      -442.28386410
  atomic energy  EATOM  =      7127.40138498
  ---------------------------------------------------
  free energy    TOTEN  =       -19.72210937 eV

  energy without entropy =      -19.74530099  energy(sigma->0) =      -19.72983991


--------------------------------------------------------------------------------------------------------




 average (electrostatic) potential at core
  the test charge radii are     1.0314  1.0621
  (the norm of the test charge is              1.0000)
       1 -31.1002       2 -31.1002       3 -31.1002       4 -51.4378       5 -51.4378
       6 -51.4378       7 -51.4378
 
 
 
 E-fermi :   2.7477     XC(G=0):  -9.4551     alpha+bet : -8.1771
   add alpha+bet to get absolut eigen values

 spin component 1

 k-point   1 :       0.2500    0.2500    0.2500
  band No.  band energies     occupation 
      1     -12.5128      1.00000
      2     -12.4881      1.00000
      3     -12.4881      1.00000
      4     -12.4619      1.00000
      5     -12.4389      1.00000
      6     -12.4389      1.00000
      7     -12.4173      1.00000
      8     -12.4173      1.00000
      9     -12.4122      1.00000
     10     -12.4011      1.00000
     11     -12.4011      1.00000
     12     -12.3915      1.00000
     13     -12.3880      1.00000
     14     -12.3777      1.00000
     15     -12.3777      1.00000
     16      -9.0805      1.00000
     17      -7.8368      1.00000
     18      -7.8368      1.00000
     19      -7.5377      1.00000
     20      -3.6625      1.00000
     21      -3.6625      1.00000
     22      -2.2201      1.00000
     23      -0.6624      1.00000
     24      -0.6624      1.00000
     25      -0.4692      1.00000
     26       0.5215      1.00000
     27       0.6685      1.00000
     28       1.2785      1.00000
     29       1.2785      1.00000
     30       2.5793      1.00003
     31       2.5793      1.00003
     32       4.3100      0.00000
     33       4.5954      0.00000
     34       4.5954      0.00000
     35       5.9267      0.00000
     36       7.0061      0.00000
     37       7.0061      0.00000
     38       7.4861      0.00000
     39       7.4861      0.00000
     40       8.2628      0.00000
     41       8.7477      0.00000

 spin component 2

 k-point   1 :       0.2500    0.2500    0.2500
  band No.  band energies     occupation 
      1     -12.5133      1.00000
      2     -12.4885      1.00000
      3     -12.4885      1.00000
      4     -12.4624      1.00000
      5     -12.4394      1.00000
      6     -12.4394      1.00000
      7     -12.4178      1.00000
      8     -12.4178      1.00000
      9     -12.4127      1.00000
     10     -12.4015      1.00000
     11     -12.4015      1.00000
     12     -12.3920      1.00000
     13     -12.3885      1.00000
     14     -12.3783      1.00000
     15     -12.3783      1.00000
     16      -9.0805      1.00000
     17      -7.8368      1.00000
     18      -7.8368      1.00000
     19      -7.5377      1.00000
     20      -3.6626      1.00000
     21      -3.6626      1.00000
     22      -2.2202      1.00000
     23      -0.6625      1.00000
     24      -0.6625      1.00000
     25      -0.4692      1.00000
     26       0.5214      1.00000
     27       0.6685      1.00000
     28       1.2784      1.00000
     29       1.2784      1.00000
     30       2.5793      0.99997
     31       2.5793      0.99997
     32       4.3100      0.00000
     33       4.5952      0.00000
     34       4.5952      0.00000
     35       5.9266      0.00000
     36       7.0060      0.00000
     37       7.0060      0.00000
     38       7.4859      0.00000
     39       7.4859      0.00000
     40       8.2628      0.00000
     41       8.7475      0.00000


--------------------------------------------------------------------------------------------------------


 soft charge-density along one line, spin component           1
         0         1         2         3         4         5         6         7         8         9
 total charge-density along one line
 
 soft charge-density along one line, spin component           2
         0         1         2         3         4         5         6         7         8         9
 total charge-density along one line
 
 pseudopotential strength for first ion, spin component:           1
-16.139   0.000   0.000   0.000   0.000  10.116   0.000   0.000
  0.000 -16.136   0.000   0.000   0.000   0.000  10.113   0.000
  0.000   0.000 -16.133   0.000   0.000   0.000   0.000  10.111
  0.000   0.000   0.000 -16.136   0.000   0.000   0.000   0.000
  0.000   0.000   0.000   0.000 -16.142   0.000   0.000   0.000
 10.116   0.000   0.000   0.000   0.000  -4.328   0.000   0.000
  0.000  10.113   0.000   0.000   0.000   0.000  -4.327   0.000
  0.000   0.000  10.111   0.000   0.000   0.000   0.000  -4.325
  0.000   0.000   0.000  10.113   0.000   0.000   0.000   0.000
  0.000   0.000   0.000   0.000  10.118   0.000   0.000   0.000
  0.000   0.000   0.001   0.000   0.000   0.000   0.000  -0.002
  0.000   0.000   0.000   0.000   0.000   0.000   0.000   0.000
  0.000   0.000   0.000  -0.001   0.000   0.000   0.000   0.000
 -0.001   0.000   0.000   0.000   0.000   0.001   0.000   0.000
  0.000  -0.001   0.000   0.000   0.000   0.000   0.001   0.000
  0.000   0.000   0.000   0.000   0.000   0.000   0.000   0.000
  0.000   0.000   0.000   0.000   0.000   0.000   0.000   0.000
  0.000   0.000   0.000   0.000   0.000   0.000   0.000   0.000
 pseudopotential strength for first ion, spin component:           2
-16.140   0.000   0.000   0.000   0.000  10.116   0.000   0.000
  0.000 -16.137   0.000   0.000   0.000   0.000  10.114   0.000
  0.000   0.000 -16.134   0.000   0.000   0.000   0.000  10.111
  0.000   0.000   0.000 -16.137   0.000   0.000   0.000   0.000
  0.000   0.000   0.000   0.000 -16.142   0.000   0.000   0.000
 10.116   0.000   0.000   0.000   0.000  -4.329   0.000   0.000
  0.000  10.114   0.000   0.000   0.000   0.000  -4.327   0.000
  0.000   0.000  10.111   0.000   0.000   0.000   0.000  -4.326
  0.000   0.000   0.000  10.114   0.000   0.000   0.000   0.000
  0.000   0.000   0.000   0.000  10.119   0.000   0.000   0.000
  0.000   0.000   0.001   0.000   0.000   0.000   0.000  -0.002
  0.000   0.000   0.000   0.000   0.000   0.000   0.000   0.000
  0.000   0.000   0.000  -0.001   0.000   0.000   0.000   0.000
 -0.001   0.000   0.000   0.000   0.000   0.001   0.000   0.000
  0.000  -0.001   0.000   0.000   0.000   0.000   0.001   0.000
  0.000   0.000   0.000   0.000   0.000   0.000   0.000   0.000
  0.000   0.000   0.000   0.000   0.000   0.000   0.000   0.000
  0.000   0.000   0.000   0.000   0.000   0.000   0.000   0.000
 total augmentation occupancy for first ion, spin component:           1
  2.057   0.000   0.000   0.000   0.000   0.080   0.000   0.000   0.000   0.000   0.000   0.000   0.000   0.106   0.000   0.000
  0.000   2.040   0.000   0.000   0.000   0.000   0.055   0.000   0.000   0.000   0.000   0.000   0.000   0.000   0.111   0.000
  0.000   0.000   2.017   0.000   0.000   0.000   0.000   0.027   0.000   0.000   0.000   0.015   0.000   0.000   0.000   0.000
  0.000   0.000   0.000   2.040   0.000   0.000   0.000   0.000   0.055   0.000   0.000   0.000   0.111   0.000   0.000  -0.050
  0.000   0.000   0.000   0.000   2.019   0.000   0.000   0.000   0.000   0.024   0.000   0.000   0.000   0.000   0.000   0.000
  0.080   0.000   0.000   0.000   0.000   0.107   0.000   0.000   0.000   0.000   0.000   0.000   0.000   0.185   0.000   0.000
  0.000   0.055   0.000   0.000   0.000   0.000   0.072   0.000   0.000   0.000   0.000   0.000   0.000   0.000   0.194   0.000
  0.000   0.000   0.027   0.000   0.000   0.000   0.000   0.036   0.000   0.000   0.000   0.020   0.000   0.000   0.000   0.000
  0.000   0.000   0.000   0.055   0.000   0.000   0.000   0.000   0.072   0.000   0.000   0.000   0.194   0.000   0.000  -0.054
  0.000   0.000   0.000   0.000   0.024   0.000   0.000   0.000   0.000   0.025   0.000   0.000   0.000   0.000   0.000   0.000
  0.000   0.000   0.000   0.000   0.000   0.000   0.000   0.000   0.000   0.000   1.480  -0.253   0.000   0.000   0.000   0.000
  0.000   0.000   0.015   0.000   0.000   0.000   0.000   0.020   0.000   0.000  -0.253   0.118   0.000   0.000   0.000   0.000
  0.000   0.000   0.000   0.111   0.000   0.000   0.000   0.000   0.194   0.000   0.000   0.000   0.981   0.000   0.000  -0.263
  0.106   0.000   0.000   0.000   0.000   0.185   0.000   0.000   0.000   0.000   0.000   0.000   0.000   0.948   0.000   0.000
  0.000   0.111   0.000   0.000   0.000   0.000   0.194   0.000   0.000   0.000   0.000   0.000   0.000   0.000   0.981   0.000
  0.000   0.000   0.000  -0.050   0.000   0.000   0.000   0.000  -0.054   0.000   0.000   0.000  -0.263   0.000   0.000   0.092
 -0.050   0.000   0.000   0.000   0.000  -0.055   0.000   0.000   0.000   0.000   0.000   0.000   0.000  -0.235   0.000   0.000
  0.000  -0.050   0.000   0.000   0.000   0.000  -0.054   0.000   0.000   0.000   0.000   0.000   0.000   0.000  -0.263   0.000
 total augmentation occupancy for first ion, spin component:           2
  0.000   0.000   0.000   0.000   0.000   0.000   0.000   0.000   0.000   0.000   0.000   0.000   0.000   0.000   0.000   0.000
  0.000   0.000   0.000   0.000   0.000   0.000   0.000   0.000   0.000   0.000   0.000   0.000   0.000   0.000   0.000   0.000
  0.000   0.000   0.000   0.000   0.000   0.000   0.000   0.000   0.000   0.000   0.000   0.000   0.000   0.000   0.000   0.000
  0.000   0.000   0.000   0.000   0.000   0.000   0.000   0.000   0.000   0.000   0.000   0.000   0.000   0.000   0.000   0.000
  0.000   0.000   0.000   0.000   0.000   0.000   0.000   0.000   0.000   0.000   0.000   0.000   0.000   0.000   0.000   0.000
  0.000   0.000   0.000   0.000   0.000   0.000   0.000   0.000   0.000   0.000   0.000   0.000   0.000   0.000   0.000   0.000
  0.000   0.000   0.000   0.000   0.000   0.000   0.000   0.000   0.000   0.000   0.000   0.000   0.000   0.000   0.000   0.000
  0.000   0.000   0.000   0.000   0.000   0.000   0.000   0.000   0.000   0.000   0.000   0.000   0.000   0.000   0.000   0.000
  0.000   0.000   0.000   0.000   0.000   0.000   0.000   0.000   0.000   0.000   0.000   0.000   0.000   0.000   0.000   0.000
  0.000   0.000   0.000   0.000   0.000   0.000   0.000   0.000   0.000   0.000   0.000   0.000   0.000   0.000   0.000   0.000
  0.000   0.000   0.000   0.000   0.000   0.000   0.000   0.000   0.000   0.000   0.000   0.000   0.000   0.000   0.000   0.000
  0.000   0.000   0.000   0.000   0.000   0.000   0.000   0.000   0.000   0.000   0.000   0.000   0.000   0.000   0.000   0.000
  0.000   0.000   0.000   0.000   0.000   0.000   0.000   0.000   0.000   0.000   0.000   0.000   0.000   0.000   0.000   0.000
  0.000   0.000   0.000   0.000   0.000   0.000   0.000   0.000   0.000   0.000   0.000   0.000   0.000   0.000   0.000   0.000
  0.000   0.000   0.000   0.000   0.000   0.000   0.000   0.000   0.000   0.000   0.000   0.000   0.000   0.000   0.000   0.000
  0.000   0.000   0.000   0.000   0.000   0.000   0.000   0.000   0.000   0.000   0.000   0.000   0.000   0.000   0.000   0.000
  0.000   0.000   0.000   0.000   0.000   0.000   0.000   0.000   0.000   0.000   0.000   0.000   0.000   0.000   0.000   0.000
  0.000   0.000   0.000   0.000   0.000   0.000   0.000   0.000   0.000   0.000   0.000   0.000   0.000   0.000   0.000   0.000


------------------------ aborting loop because EDIFF is reached ----------------------------------------




--------------------------------------------------------------------------------------------------------



  FREE ENERGIE OF THE ION-ELECTRON SYSTEM (eV)
  ---------------------------------------------------
  free  energy   TOTEN  =       -19.722109 eV

  energy  without entropy=      -19.745301  energy(sigma->0) =      -19.729840
 
    CHARGE:  cpu time    0.20: real time    0.12
    FORLOC:  cpu time    0.03: real time    0.03
    FORNL :  cpu time    0.70: real time    0.70
    STRESS:  cpu time    2.50: real time    0.82
    FORCOR:  cpu time    0.51: real time    0.51
    FORHAR:  cpu time    0.07: real time    0.07
    MIXING:  cpu time    0.04: real time    0.02

  FORCE on cell =-STRESS in cart. coord.  units (eV):
  Direction    XX          YY          ZZ          XY          YZ          ZX
  --------------------------------------------------------------------------------------
  Alpha Z   204.23113   204.23113   204.23113
  Ewald   -1225.79847 -1225.79847 -1225.79847     0.00000     0.00000     0.00000
  Hartree   798.79234   798.79234   798.79234     0.00000     0.00000     0.00000
  E(xc)    -308.76913  -308.76913  -308.76913     0.00000     0.00000     0.00000
  Local     169.33541   169.33541   169.33541     0.00000     0.00000     0.00000
  n-local   116.79306   116.79307   116.79306    -3.38565    -3.38566    -3.38569
  augment  -133.76866  -133.76867  -133.76865     0.00001     0.00000     0.00001
  Kinetic   400.45105   400.45099   400.45099   -10.86048   -10.86043   -10.86049
  Fock        0.00000     0.00000     0.00000     0.00000     0.00000     0.00000
  -------------------------------------------------------------------------------------
  Total      21.26669    21.26669    21.26669     0.00000     0.00000     0.00000
  in kB     191.28124   191.28124   191.28124     0.00000     0.00000     0.00000
  external pressure =      191.28 kB  Pullay stress =        0.00 kB


 VOLUME and BASIS-vectors are now :
 -----------------------------------------------------------------------------
  energy-cutoff  :      313.00
  volume of cell :      178.13
      direct lattice vectors                 reciprocal lattice vectors
     5.626600000  0.000000000  0.000000000     0.177727224  0.000000000  0.000000000
     0.000000000  5.626600000  0.000000000     0.000000000  0.177727224  0.000000000
     0.000000000  0.000000000  5.626600000     0.000000000  0.000000000  0.177727224

  length of vectors
     5.626600000  5.626600000  5.626600000     0.177727224  0.177727224  0.177727224


 FORCES acting on ions
    electron-ion (+dipol)            ewald-force                    non-local-force                 convergence-correction
 -----------------------------------------------------------------------------------------------
   0.930E-12 -.368E-11 -.470E-11   -.897E-13 -.178E-14 -.799E-14   -.347E-16 -.278E-16 0.555E-16   -.236E-12 -.902E-13 0.380E-12
   0.664E-13 0.915E-12 0.468E-12   -.302E-13 -.160E-13 0.151E-13   0.555E-16 0.555E-16 0.278E-16   -.162E-12 -.133E-12 0.204E-12
   0.859E-12 0.557E-13 -.524E-11   -.755E-13 0.178E-14 0.151E-13   0.416E-16 -.278E-16 -.694E-17   -.224E-12 -.180E-12 0.229E-12
   0.620E+02 0.620E+02 0.620E+02   -.650E+02 -.650E+02 -.650E+02   0.302E+01 0.302E+01 0.302E+01   -.287E-02 -.287E-02 -.288E-02
   -.620E+02 -.620E+02 0.620E+02   0.650E+02 0.650E+02 -.650E+02   -.302E+01 -.302E+01 0.302E+01   0.287E-02 0.287E-02 -.288E-02
   0.620E+02 -.620E+02 -.620E+02   -.650E+02 0.650E+02 0.650E+02   0.302E+01 -.302E+01 -.302E+01   -.287E-02 0.287E-02 0.288E-02
   -.620E+02 0.620E+02 -.620E+02   0.650E+02 -.650E+02 0.650E+02   -.302E+01 0.302E+01 -.302E+01   0.287E-02 -.287E-02 0.288E-02
 -----------------------------------------------------------------------------------------------
   -.754E-07 -.754E-07 0.289E-09   -.142E-13 -.142E-13 0.142E-13   0.444E-15 -.133E-14 -.444E-15   -.540E-12 -.451E-12 0.870E-12
 
 
 POSITION                                       TOTAL-FORCE (eV/Angst)
 -----------------------------------------------------------------------------------
      2.81330      2.81330      0.00000         0.000000      0.000000      0.000000
      0.00000      2.81330      2.81330         0.000000      0.000000      0.000000
      2.81330      0.00000      2.81330         0.000000      0.000000      0.000000
      1.29107      1.29107      1.29107         0.013398      0.013398      0.013398
      4.33553      4.33553      1.29107        -0.013398     -0.013398      0.013398
      1.29107      4.33553      4.33553         0.013398     -0.013398     -0.013398
      4.33553      1.29107      4.33553        -0.013398      0.013398     -0.013398
 -----------------------------------------------------------------------------------
    total drift:                                0.000000      0.000000      0.000000


--------------------------------------------------------------------------------------------------------


    POTLOK:  cpu time    0.70: real time    0.62


--------------------------------------------------------------------------------------------------------


  FORCES: max atom, RMS     0.023205    0.017542
  FORCE total and by dimension    0.046411    0.013398
     LOOP+:  cpu time   82.55: real time   27.42
    4ORBIT:  cpu time    0.00: real time    0.00

 total amount of memory used by VASP on root node  48369. kBytes
========================================================================

   base      :    30000. kBytes
   nonl-proj :      895. kBytes
   fftplans  :     3916. kBytes
   grid      :    10266. kBytes
   one-center:      217. kBytes
   wavefun   :     3075. kBytes
 
  
  
 General timing and accounting informations for this job:
 ========================================================
  
                  Total CPU time used (sec):       84.186
                            User time (sec):       83.193
                          System time (sec):        0.993
                         Elapsed time (sec):       28.477
  
                   Maximum memory used (kb):           0.
                   Average memory used (kb):           0.
  
                          Minor page faults:        34200
                          Major page faults:            0
                 Voluntary context switches:          129
