   4   4   0   0
  0.1168565E+02  0.3602226E-09  0.3602226E-09  0.3602226E-09  0.5000000E-15
  1.000000000000000E-004
  CAR 
 unknown system                          
     10.73103874     -4.49170829  301      8.65775909      1.00000000
     -4.492  0.0000E+00  0.0000E+00
     -4.441  0.0000E+00  0.0000E+00
     -4.390  0.0000E+00  0.0000E+00
     -4.339  0.0000E+00  0.0000E+00
     -4.289  0.0000E+00  0.0000E+00
     -4.238  0.0000E+00  0.0000E+00
     -4.187  0.0000E+00  0.0000E+00
     -4.137 -0.2027E-29 -0.1029E-30
     -4.086 -0.1175E-27 -0.6068E-29
     -4.035 -0.6076E-26 -0.3144E-27
     -3.984 -0.2757E-24 -0.1430E-25
     -3.934 -0.1098E-22 -0.5716E-24
     -3.883 -0.3840E-21 -0.2006E-22
     -3.832 -0.1178E-19 -0.6180E-21
     -3.781 -0.3173E-18 -0.1672E-19
     -3.731 -0.7493E-17 -0.3969E-18
     -3.680 -0.1552E-15 -0.8273E-17
     -3.629 -0.2727E-14 -0.1467E-15
     -3.578 -0.4338E-13 -0.2348E-14
     -3.528 -0.6029E-12 -0.3294E-13
     -3.477 -0.7336E-11 -0.4052E-12
     -3.426 -0.7808E-10 -0.4367E-11
     -3.375 -0.7265E-09 -0.4123E-10
     -3.325 -0.5903E-08 -0.3408E-09
     -3.274 -0.4184E-07 -0.2464E-08
     -3.223 -0.2583E-06 -0.1557E-07
     -3.172 -0.1386E-05 -0.8589E-07
     -3.122 -0.6448E-05 -0.4131E-06
     -3.071 -0.2592E-04 -0.1728E-05
     -3.020 -0.8953E-04 -0.6271E-05
     -2.969 -0.2638E-03 -0.1966E-04
     -2.919 -0.6542E-03 -0.5285E-04
     -2.868 -0.1334E-02 -0.1205E-03
     -2.817 -0.2123E-02 -0.2283E-03
     -2.766 -0.2247E-02 -0.3423E-03
     -2.716 -0.1718E-03 -0.3510E-03
     -2.665  0.5859E-02 -0.5371E-04
     -2.614  0.1641E-01  0.7790E-03
     -2.563  0.2940E-01  0.2271E-02
     -2.513  0.4017E-01  0.4309E-02
     -2.462  0.4388E-01  0.6536E-02
     -2.411  0.3872E-01  0.8500E-02
     -2.361  0.2719E-01  0.9880E-02
     -2.310  0.1434E-01  0.1061E-01
     -2.259  0.4498E-02  0.1084E-01
     -2.208 -0.7626E-03  0.1080E-01
     -2.158 -0.2331E-02  0.1068E-01
     -2.107 -0.2004E-02  0.1058E-01
     -2.056 -0.1200E-02  0.1052E-01
     -2.005 -0.5676E-03  0.1049E-01
     -1.955 -0.2220E-03  0.1048E-01
     -1.904 -0.7327E-04  0.1047E-01
     -1.853 -0.2066E-04  0.1047E-01
     -1.802 -0.5011E-05  0.1047E-01
     -1.752 -0.1051E-05  0.1047E-01
     -1.701 -0.1912E-06  0.1047E-01
     -1.650 -0.3025E-07  0.1047E-01
     -1.599 -0.4169E-08  0.1047E-01
     -1.549 -0.5014E-09  0.1047E-01
     -1.498 -0.5266E-10  0.1047E-01
     -1.447 -0.4835E-11  0.1047E-01
     -1.396 -0.3884E-12  0.1047E-01
     -1.346 -0.2731E-13  0.1047E-01
     -1.295 -0.1695E-14  0.1047E-01
     -1.244 -0.9164E-16  0.1047E-01
     -1.193  0.0000E+00  0.1047E-01
     -1.143  0.0000E+00  0.1047E-01
     -1.092  0.0000E+00  0.1047E-01
     -1.041  0.0000E+00  0.1047E-01
     -0.990  0.0000E+00  0.1047E-01
     -0.940  0.0000E+00  0.1047E-01
     -0.889  0.0000E+00  0.1047E-01
     -0.838  0.0000E+00  0.1047E-01
     -0.788  0.0000E+00  0.1047E-01
     -0.737  0.0000E+00  0.1047E-01
     -0.686  0.0000E+00  0.1047E-01
     -0.635  0.0000E+00  0.1047E-01
     -0.585  0.0000E+00  0.1047E-01
     -0.534  0.0000E+00  0.1047E-01
     -0.483  0.0000E+00  0.1047E-01
     -0.432  0.0000E+00  0.1047E-01
     -0.382  0.0000E+00  0.1047E-01
     -0.331  0.0000E+00  0.1047E-01
     -0.280  0.0000E+00  0.1047E-01
     -0.229  0.0000E+00  0.1047E-01
     -0.179  0.0000E+00  0.1047E-01
     -0.128  0.0000E+00  0.1047E-01
     -0.077  0.0000E+00  0.1047E-01
     -0.026  0.0000E+00  0.1047E-01
      0.024  0.0000E+00  0.1047E-01
      0.075  0.0000E+00  0.1047E-01
      0.126  0.0000E+00  0.1047E-01
      0.177  0.0000E+00  0.1047E-01
      0.227  0.0000E+00  0.1047E-01
      0.278  0.0000E+00  0.1047E-01
      0.329  0.0000E+00  0.1047E-01
      0.380  0.0000E+00  0.1047E-01
      0.430  0.0000E+00  0.1047E-01
      0.481  0.0000E+00  0.1047E-01
      0.532  0.0000E+00  0.1047E-01
      0.583  0.0000E+00  0.1047E-01
      0.633  0.0000E+00  0.1047E-01
      0.684  0.0000E+00  0.1047E-01
      0.735  0.0000E+00  0.1047E-01
      0.786  0.0000E+00  0.1047E-01
      0.836 -0.6553E-28  0.1047E-01
      0.887 -0.3520E-26  0.1047E-01
      0.938 -0.1687E-24  0.1047E-01
      0.988 -0.7101E-23  0.1047E-01
      1.039 -0.2623E-21  0.1047E-01
      1.090 -0.8503E-20  0.1047E-01
      1.141 -0.2419E-18  0.1047E-01
      1.191 -0.6037E-17  0.1047E-01
      1.242 -0.1322E-15  0.1047E-01
      1.293 -0.2468E-14  0.1047E-01
      1.344 -0.4132E-13  0.1047E-01
      1.394 -0.6073E-12  0.1047E-01
      1.445 -0.7815E-11  0.1047E-01
      1.496 -0.8801E-10  0.1047E-01
      1.547 -0.8667E-09  0.1047E-01
      1.597 -0.7456E-08  0.1047E-01
      1.648 -0.5599E-07  0.1047E-01
      1.699 -0.3664E-06  0.1047E-01
      1.750 -0.2086E-05  0.1047E-01
      1.800 -0.1031E-04  0.1047E-01
      1.851 -0.4409E-04  0.1047E-01
      1.902 -0.1625E-03  0.1046E-01
      1.953 -0.5124E-03  0.1043E-01
      2.003 -0.1369E-02  0.1036E-01
      2.054 -0.3044E-02  0.1021E-01
      2.105 -0.5430E-02  0.9935E-02
      2.156 -0.7076E-02  0.9576E-02
      2.206 -0.4301E-02  0.9357E-02
      2.257  0.8264E-02  0.9777E-02
      2.308  0.3445E-01  0.1152E-01
      2.359  0.7168E-01  0.1516E-01
      2.409  0.1088E+00  0.2068E-01
      2.460  0.1302E+00  0.2729E-01
      2.511  0.1257E+00  0.3367E-01
      2.561  0.9754E-01  0.3861E-01
      2.612  0.5874E-01  0.4160E-01
      2.663  0.2431E-01  0.4283E-01
      2.714  0.2714E-02  0.4297E-01
      2.764 -0.6087E-02  0.4266E-01
      2.815 -0.7027E-02  0.4230E-01
      2.866 -0.5319E-02  0.4203E-01
      2.917 -0.4174E-02  0.4182E-01
      2.967 -0.4735E-02  0.4158E-01
      3.018 -0.6488E-02  0.4125E-01
      3.069 -0.7038E-02  0.4089E-01
      3.120 -0.1790E-02  0.4080E-01
      3.170  0.1474E-01  0.4155E-01
      3.221  0.4496E-01  0.4383E-01
      3.272  0.8369E-01  0.4808E-01
      3.323  0.1176E+00  0.5404E-01
      3.373  0.1317E+00  0.6073E-01
      3.424  0.1192E+00  0.6678E-01
      3.475  0.8611E-01  0.7115E-01
      3.526  0.4724E-01  0.7354E-01
      3.576  0.1624E-01  0.7437E-01
      3.627 -0.1114E-02  0.7431E-01
      3.678 -0.6839E-02  0.7396E-01
      3.729 -0.6261E-02  0.7365E-01
      3.779 -0.3872E-02  0.7345E-01
      3.830 -0.1877E-02  0.7335E-01
      3.881 -0.7496E-03  0.7332E-01
      3.932 -0.2522E-03  0.7330E-01
      3.982 -0.7239E-04  0.7330E-01
      4.033 -0.1787E-04  0.7330E-01
      4.084 -0.3810E-05  0.7330E-01
      4.135 -0.7047E-06  0.7330E-01
      4.185 -0.1133E-06  0.7330E-01
      4.236 -0.1587E-07  0.7330E-01
      4.287 -0.1939E-08  0.7330E-01
      4.337 -0.2068E-09  0.7330E-01
      4.388 -0.1929E-10  0.7330E-01
      4.439 -0.1574E-11  0.7330E-01
      4.490 -0.1124E-12  0.7330E-01
      4.540 -0.7011E-14  0.7330E-01
      4.591 -0.4126E-15  0.7330E-01
      4.642 -0.4945E-17  0.7330E-01
      4.693 -0.1091E-15  0.7330E-01
      4.743 -0.2044E-14  0.7330E-01
      4.794 -0.3471E-13  0.7330E-01
      4.845 -0.5143E-12  0.7330E-01
      4.896 -0.6675E-11  0.7330E-01
      4.946 -0.7582E-10  0.7330E-01
      4.997 -0.7530E-09  0.7330E-01
      5.048 -0.6534E-08  0.7330E-01
      5.099 -0.4948E-07  0.7330E-01
      5.149 -0.3267E-06  0.7330E-01
      5.200 -0.1876E-05  0.7330E-01
      5.251 -0.9357E-05  0.7330E-01
      5.302 -0.4039E-04  0.7330E-01
      5.352 -0.1503E-03  0.7329E-01
      5.403 -0.4788E-03  0.7326E-01
      5.454 -0.1293E-02  0.7320E-01
      5.505 -0.2911E-02  0.7305E-01
      5.555 -0.5275E-02  0.7278E-01
      5.606 -0.7052E-02  0.7243E-01
      5.657 -0.4708E-02  0.7219E-01
      5.708  0.7083E-02  0.7255E-01
      5.758  0.3239E-01  0.7419E-01
      5.809  0.6917E-01  0.7770E-01
      5.860  0.1067E+00  0.8311E-01
      5.911  0.1295E+00  0.8969E-01
      5.961  0.1268E+00  0.9612E-01
      6.012  0.9981E-01  0.1012E+00
      6.063  0.6120E-01  0.1043E+00
      6.113  0.2615E-01  0.1056E+00
      6.164  0.3680E-02  0.1058E+00
      6.215 -0.5763E-02  0.1055E+00
      6.266 -0.6875E-02  0.1052E+00
      6.316 -0.4773E-02  0.1049E+00
      6.367 -0.2510E-02  0.1048E+00
      6.418 -0.1073E-02  0.1047E+00
      6.469 -0.3836E-03  0.1047E+00
      6.519 -0.1166E-03  0.1047E+00
      6.570 -0.3040E-04  0.1047E+00
      6.621 -0.6838E-05  0.1047E+00
      6.672 -0.1335E-05  0.1047E+00
      6.722 -0.2451E-06  0.1047E+00
      6.773 -0.1681E-06  0.1047E+00
      6.824 -0.8077E-06  0.1047E+00
      6.875 -0.4159E-05  0.1047E+00
      6.925 -0.1865E-04  0.1047E+00
      6.976 -0.7215E-04  0.1047E+00
      7.027 -0.2395E-03  0.1047E+00
      7.078 -0.6764E-03  0.1047E+00
      7.128 -0.1601E-02  0.1046E+00
      7.179 -0.3085E-02  0.1044E+00
      7.230 -0.4533E-02  0.1042E+00
      7.281 -0.4002E-02  0.1040E+00
      7.331  0.1866E-02  0.1041E+00
      7.382  0.1630E-01  0.1049E+00
      7.433  0.3928E-01  0.1069E+00
      7.484  0.6514E-01  0.1102E+00
      7.534  0.8386E-01  0.1145E+00
      7.585  0.8676E-01  0.1189E+00
      7.636  0.7241E-01  0.1225E+00
      7.686  0.4766E-01  0.1250E+00
      7.737  0.2286E-01  0.1261E+00
      7.788  0.5450E-02  0.1264E+00
      7.839 -0.2890E-02  0.1263E+00
      7.889 -0.4724E-02  0.1260E+00
      7.940 -0.3647E-02  0.1258E+00
      7.991 -0.2155E-02  0.1257E+00
      8.042 -0.1342E-02  0.1256E+00
      8.092 -0.1548E-02  0.1256E+00
      8.143 -0.2951E-02  0.1254E+00
      8.194 -0.5554E-02  0.1251E+00
      8.245 -0.8482E-02  0.1247E+00
      8.295 -0.8959E-02  0.1243E+00
      8.346 -0.2018E-02  0.1242E+00
      8.397  0.1797E-01  0.1251E+00
      8.448  0.5421E-01  0.1278E+00
      8.498  0.1049E+00  0.1331E+00
      8.549  0.1631E+00  0.1414E+00
      8.600  0.2184E+00  0.1525E+00
      8.651  0.2583E+00  0.1656E+00
      8.701  0.2706E+00  0.1793E+00
      8.752  0.2475E+00  0.1919E+00
      8.803  0.1928E+00  0.2017E+00
      8.854  0.1225E+00  0.2079E+00
      8.904  0.5769E-01  0.2108E+00
      8.955  0.1320E-01  0.2115E+00
      9.006 -0.8137E-02  0.2111E+00
      9.057 -0.1288E-01  0.2104E+00
      9.107 -0.9965E-02  0.2099E+00
      9.158 -0.5677E-02  0.2096E+00
      9.209 -0.2603E-02  0.2095E+00
      9.260 -0.9945E-03  0.2094E+00
      9.310 -0.3222E-03  0.2094E+00
      9.361 -0.8940E-04  0.2094E+00
      9.412 -0.2138E-04  0.2094E+00
      9.462 -0.4428E-05  0.2094E+00
      9.513 -0.7962E-06  0.2094E+00
      9.564 -0.1246E-06  0.2094E+00
      9.615 -0.1700E-07  0.2094E+00
      9.665 -0.2026E-08  0.2094E+00
      9.716 -0.2110E-09  0.2094E+00
      9.767 -0.1922E-10  0.2094E+00
      9.818 -0.1533E-11  0.2094E+00
      9.868 -0.1071E-12  0.2094E+00
      9.919 -0.6552E-14  0.2094E+00
      9.970 -0.3666E-15  0.2094E+00
     10.021  0.0000E+00  0.2094E+00
     10.071  0.0000E+00  0.2094E+00
     10.122  0.0000E+00  0.2094E+00
     10.173  0.0000E+00  0.2094E+00
     10.224  0.0000E+00  0.2094E+00
     10.274  0.0000E+00  0.2094E+00
     10.325  0.0000E+00  0.2094E+00
     10.376  0.0000E+00  0.2094E+00
     10.427  0.0000E+00  0.2094E+00
     10.477  0.0000E+00  0.2094E+00
     10.528  0.0000E+00  0.2094E+00
     10.579  0.0000E+00  0.2094E+00
     10.630  0.0000E+00  0.2094E+00
     10.680  0.0000E+00  0.2094E+00
     10.731  0.0000E+00  0.2094E+00
