<?xml version="1.0" encoding="ISO-8859-1"?>
<modeling>
 <generator>
  <i name="program" type="string">vasp </i>
  <i name="version" type="string">5.2.2  </i>
  <i name="subversion" type="string">15Apr09 complex  parallel </i>
  <i name="platform" type="string">LinuxIFC </i>
  <i name="date" type="string">2013 06 14 </i>
  <i name="time" type="string">22:45:06 </i>
 </generator>
 <incar>
  <i type="string" name="PREC">accurate</i>
  <i type="int" name="IBRION">     2</i>
  <i type="int" name="NSW">   191</i>
  <i type="int" name="ISIF">     3</i>
  <i name="ENCUT">    334.88375000</i>
  <i type="int" name="ISMEAR">     1</i>
  <i name="SIGMA">      0.20000000</i>
  <i type="logical" name="LWAVE"> F  </i>
  <i type="logical" name="LCHARG"> F  </i>
  <i type="logical" name="LPEAD"> F  </i>
  <i type="logical" name="LCALCPOL"> F  </i>
  <i type="logical" name="LCALCEPS"> F  </i>
  <v name="EFIELD_PEAD">      0.00000000      0.00000000      0.00000000</v>
  <i type="logical" name="LEFG"> F  </i>
 </incar>
 <kpoints>
  <generation param="Gamma">
   <v type="int" name="divisions">       1        1        1 </v>
   <v name="usershift">      0.00000000       0.00000000       0.00000000 </v>
   <v name="genvec1">      1.00000000       0.00000000       0.00000000 </v>
   <v name="genvec2">      0.00000000       1.00000000       0.00000000 </v>
   <v name="genvec3">      0.00000000       0.00000000       1.00000000 </v>
   <v name="shift">      0.00000000       0.00000000       0.00000000 </v>
  </generation>
  <varray name="kpointlist" >
   <v>       0.00000000       0.00000000       0.00000000 </v>
  </varray>
  <varray name="weights" >
   <v>       1.00000000 </v>
  </varray>
 </kpoints>
 <parameters>
  <separator name="general" >
   <i type="string" name="SYSTEM">unknown system</i>
   <i type="logical" name="LCOMPAT"> F  </i>
  </separator>
  <separator name="electronic" >
   <i type="string" name="PREC">accura</i>
   <i name="ENMAX">    334.88375000</i>
   <i name="ENAUG">    511.36800000</i>
   <i name="EDIFF">      0.00010000</i>
   <i type="int" name="IALGO">    38</i>
   <i type="int" name="IWAVPR">    11</i>
   <i type="int" name="NBANDS">    20</i>
   <i name="NELECT">     32.00000000</i>
   <separator name="electronic smearing" >
    <i type="int" name="ISMEAR">     1</i>
    <i name="SIGMA">      0.20000000</i>
   </separator>
   <separator name="electronic projectors" >
    <i type="logical" name="LREAL"> F  </i>
    <v name="ROPT">      0.00000000</v>
    <i type="int" name="LMAXPAW">  -100</i>
    <i type="int" name="LMAXMIX">     2</i>
   </separator>
   <separator name="electronic startup" >
    <i type="int" name="ISTART">     0</i>
    <i type="int" name="ICHARG">     2</i>
    <i type="int" name="INIWAV">     1</i>
   </separator>
   <separator name="electronic spin" >
    <i type="int" name="ISPIN">     1</i>
    <i type="logical" name="LNONCOLLINEAR"> F  </i>
    <v name="MAGMOM">      1.00000000      1.00000000      1.00000000      1.00000000</v>
    <i name="NUPDOWN">     -1.00000000</i>
    <i type="logical" name="LSORBIT"> F  </i>
    <v name="SAXIS">      0.00000000      0.00000000      1.00000000</v>
    <i type="logical" name="LSPIRAL"> F  </i>
    <v name="QSPIRAL">      0.00000000      0.00000000      0.00000000</v>
    <i type="logical" name="LZEROZ"> F  </i>
   </separator>
   <separator name="electronic exchange-correlation" >
    <i type="logical" name="LASPH"> F  </i>
    <i type="logical" name="LMETAGGA"> F  </i>
   </separator>
   <separator name="electronic convergence" >
    <i type="int" name="NELM">    60</i>
    <i type="int" name="NELMDL">    -5</i>
    <i type="int" name="NELMIN">     2</i>
    <i name="ENINI">    334.88375000</i>
    <separator name="electronic convergence detail" >
     <i type="logical" name="LDIAG"> T  </i>
     <i name="WEIMIN">      0.00100000</i>
     <i name="EBREAK">      0.00000125</i>
     <i name="DEPER">      0.30000000</i>
     <i type="int" name="NRMM">     4</i>
     <i name="TIME">      0.40000000</i>
    </separator>
   </separator>
   <separator name="electronic mixer" >
    <i name="AMIX">      0.40000000</i>
    <i name="BMIX">      1.00000000</i>
    <i name="AMIN">      0.10000000</i>
    <i name="AMIX_MAG">      1.60000000</i>
    <i name="BMIX_MAG">      1.00000000</i>
    <separator name="electronic mixer details" >
     <i type="int" name="IMIX">     4</i>
     <i type="int" name="MAXMIX">   -45</i>
     <i name="WC">    100.00000000</i>
     <i type="int" name="INIMIX">     1</i>
     <i type="int" name="MIXPRE">     1</i>
     <i type="int" name="MREMOVE">     5</i>
    </separator>
   </separator>
   <separator name="electronic dipolcorrection" >
    <i type="logical" name="LDIPOL"> F  </i>
    <i type="logical" name="LMONO"> F  </i>
    <i type="int" name="IDIPOL">     0</i>
    <i name="EPSILON">      1.00000000</i>
    <v name="DIPOL">   -100.00000000   -100.00000000   -100.00000000</v>
    <i name="EFIELD">      0.00000000</i>
   </separator>
  </separator>
  <separator name="grids" >
   <i type="int" name="NGX">    24</i>
   <i type="int" name="NGY">    24</i>
   <i type="int" name="NGZ">    24</i>
   <i type="int" name="NGXF">    48</i>
   <i type="int" name="NGYF">    48</i>
   <i type="int" name="NGZF">    48</i>
   <i type="logical" name="ADDGRID"> F  </i>
  </separator>
  <separator name="ionic" >
   <i type="int" name="NSW">   191</i>
   <i type="int" name="IBRION">     2</i>
   <i type="int" name="ISIF">     3</i>
   <i name="PSTRESS">      0.00000000</i>
   <i name="EDIFFG">      0.00100000</i>
   <i type="int" name="NFREE">     1</i>
   <i name="POTIM">      0.50000000</i>
   <i name="SMASS">     -3.00000000</i>
  </separator>
  <separator name="ionic md" >
   <i name="TEBEG">      0.00010000</i>
   <i name="TEEND">      0.00010000</i>
   <i type="int" name="NBLOCK">     1</i>
   <i type="int" name="KBLOCK">   191</i>
   <i type="int" name="NPACO">   256</i>
   <i name="APACO">     16.00000000</i>
  </separator>
  <separator name="symmetry" >
   <i type="int" name="ISYM">     2</i>
   <i name="SYMPREC">      0.00001000</i>
  </separator>
  <separator name="dos" >
   <i type="logical" name="LORBIT"> F  </i>
   <v name="RWIGS">     -1.00000000</v>
   <i type="int" name="NEDOS">   301</i>
   <i name="EMIN">     10.00000000</i>
   <i name="EMAX">    -10.00000000</i>
   <i name="EFERMI">      0.00000000</i>
  </separator>
  <separator name="writing" >
   <i type="int" name="NWRITE">     2</i>
   <i type="logical" name="LWAVE"> F  </i>
   <i type="logical" name="LCHARG"> F  </i>
   <i type="logical" name="LPARD"> F  </i>
   <i type="logical" name="LVTOT"> F  </i>
   <i type="logical" name="LELF"> F  </i>
   <i type="logical" name="LOPTICS"> F  </i>
   <v name="STM">      0.00000000      0.00000000      0.00000000      0.00000000      0.00000000</v>
  </separator>
  <separator name="performance" >
   <i type="int" name="NPAR">     1</i>
   <i type="int" name="NSIM">     4</i>
   <i type="int" name="NBLK">    32</i>
   <i type="logical" name="LPLANE"> T  </i>
   <i type="logical" name="LSCALAPACK"> F  </i>
   <i type="logical" name="LSCAAWARE"> F  </i>
   <i type="logical" name="LSCALU"> F  </i>
   <i type="logical" name="LASYNC"> F  </i>
  </separator>
  <separator name="miscellaneous" >
   <i type="int" name="IDIOT">     3</i>
   <i type="logical" name="LMUSIC"> F  </i>
   <v name="POMASS">     55.84700000</v>
   <i type="logical" name="LCORR"> T  </i>
  </separator>
  <i type="logical" name="LREAL_COMPAT"> F  </i>
  <i type="logical" name="GGA_COMPAT"> T  </i>
  <i type="logical" name="LBERRY"> F  </i>
  <i type="int" name="ICORELEVEL">     0</i>
  <i type="logical" name="LDAU"> F  </i>
  <i type="int" name="I_CONSTRAINED_M">     0</i>
  <separator name="electronic exchange-correlation" >
   <i type="string" name="GGA">--</i>
   <i type="int" name="VOSKOWN">     0</i>
   <i type="logical" name="LHFCALC"> F  </i>
   <i type="logical" name="LHFONE"> F  </i>
   <i type="logical" name="LRHFCALC"> F  </i>
   <i type="logical" name="LTHOMAS"> F  </i>
   <i type="logical" name="LMODELHF"> F  </i>
   <i name="ENCUTFOCK">      0.00000000</i>
   <i name="ENCUT4O">     -1.00000000</i>
   <i type="int" name="EXXOEP">     0</i>
   <i type="int" name="FOURORBIT">     0</i>
   <i name="AEXX">      0.00000000</i>
   <i name="HFALPHA">      0.00000000</i>
   <i name="ALDAX">      1.00000000</i>
   <i name="AGGAX">      1.00000000</i>
   <i name="ALDAC">      1.00000000</i>
   <i name="AGGAC">      1.00000000</i>
   <i type="int" name="NKREDX">     1</i>
   <i type="int" name="NKREDY">     1</i>
   <i type="int" name="NKREDZ">     1</i>
   <i type="logical" name="SHIFTRED"> F  </i>
   <i type="logical" name="ODDONLY"> F  </i>
   <i type="logical" name="EVENONLY"> F  </i>
   <i type="int" name="LMAXFOCK">     0</i>
   <i type="int" name="NMAXFOCKAE">     0</i>
   <i name="HFSCREEN">      0.00000000</i>
   <i name="HFSCREENC">      0.00000000</i>
  </separator>
  <separator name="model GW" >
   <i type="int" name="MODEL_GW">     0</i>
   <i name="MODEL_EPS0">      7.01138956</i>
   <i name="MODEL_ALPHA">      1.00000000</i>
  </separator>
  <separator name="linear response parameters" >
   <i type="logical" name="LEPSILON"> F  </i>
   <i type="logical" name="LRPA"> F  </i>
   <i type="logical" name="LNABLA"> F  </i>
   <i type="logical" name="LVEL"> F  </i>
   <i type="int" name="KINTER">     0</i>
   <i name="CSHIFT">      0.10000000</i>
   <i name="OMEGAMAX">     -1.00000000</i>
  </separator>
  <separator name="orbital magnetization" >
   <i type="logical" name="ORBITALMAG"> F  </i>
   <i type="logical" name="LMAGBLOCH"> F  </i>
   <i type="logical" name="LCHIMAG"> F  </i>
   <i type="logical" name="LGAUGE"> T  </i>
   <i type="int" name="MAGATOM">     0</i>
   <v name="MAGDIPOL">      0.00000000      0.00000000      0.00000000</v>
   <v name="AVECCONST">      0.00000000      0.00000000      0.00000000</v>
  </separator>
  <separator name="response functions" >
   <i type="logical" name="LRPA"> T  </i>
   <i type="logical" name="LTCTE"> F  </i>
   <i type="logical" name="LTETE"> F  </i>
   <i type="logical" name="L2ORDER"> F  </i>
   <i type="logical" name="LGWLF"> F  </i>
   <i name="ENCUTGW">    223.25583333</i>
   <i name="ENCUTGWSOFT">     -2.00000000</i>
   <i name="ENCUTLF">     -1.00000000</i>
   <i type="int" name="LMAXMP2">    -1</i>
   <i name="SCISSOR">      0.00000000</i>
   <i type="int" name="NOMEGA">     0</i>
   <i type="int" name="NOMEGAR">     0</i>
   <i type="int" name="NBANDSGW">    -1</i>
   <i type="int" name="NBANDSLF">    -1</i>
   <i type="int" name="NELM">     1</i>
   <i type="int" name="DIM">     3</i>
   <i type="int" name="ANTIRES">     0</i>
   <i type="logical" name="LUSEW"> F  </i>
   <i name="OMEGAMAX">    -30.00000000</i>
   <i name="OMEGATL">   -200.00000000</i>
   <i type="int" name="OMEGAGRID">     0</i>
   <i name="CSHIFT">     -0.10000000</i>
   <i type="logical" name="SELFENERGY"> F  </i>
   <i type="logical" name="LSPECTRAL"> F  </i>
   <i type="logical" name="ODDONLYGW"> F  </i>
   <i type="logical" name="EVENONLYGW"> F  </i>
   <i type="int" name="NKREDLFX">     1</i>
   <i type="int" name="NKREDLFY">     1</i>
   <i type="int" name="NKREDLFZ">     1</i>
   <i type="int" name="MAXMEM">  1024</i>
   <i type="int" name="TELESCOPE">     0</i>
  </separator>
 </parameters>
 <atominfo>
  <atoms>       4 </atoms>
  <types>       1 </types>
  <array name="atoms" >
   <dimension dim="1">ion</dimension>
   <field type="string">element</field>
   <field type="int">atomtype</field>
   <set>
    <rc><c>Fe</c><c>   1</c></rc>
    <rc><c>Fe</c><c>   1</c></rc>
    <rc><c>Fe</c><c>   1</c></rc>
    <rc><c>Fe</c><c>   1</c></rc>
   </set>
  </array>
  <array name="atomtypes" >
   <dimension dim="1">type</dimension>
   <field type="int">atomspertype</field>
   <field type="string">element</field>
   <field>mass</field>
   <field>valence</field>
   <field type="string">pseudopotential</field>
   <set>
    <rc><c>   4</c><c>Fe</c><c>     55.84700000</c><c>      8.00000000</c><c> PAW_GGA Fe 03Mar1998                   </c></rc>
   </set>
  </array>
 </atominfo>
 <structure name="initialpos" >
  <crystal>
   <varray name="basis" >
    <v>       3.60222591       0.00000000       0.00000000 </v>
    <v>       0.00000000       3.60222591       0.00000000 </v>
    <v>       0.00000000       0.00000000       3.60222591 </v>
   </varray>
   <i name="volume">     46.74259708 </i>
   <varray name="rec_basis" >
    <v>       0.27760613       0.00000000       0.00000000 </v>
    <v>       0.00000000       0.27760613       0.00000000 </v>
    <v>       0.00000000       0.00000000       0.27760613 </v>
   </varray>
  </crystal>
  <varray name="positions" >
   <v>       0.00000000       0.00000000       0.00000000 </v>
   <v>       0.00000000       0.50000000       0.50000000 </v>
   <v>       0.50000000       0.00000000       0.50000000 </v>
   <v>       0.50000000       0.50000000       0.00000000 </v>
  </varray>
 </structure>
 <calculation>
  <scstep>
   <time name="dav">    0.62    0.16</time>
   <time name="total">    1.20    0.57</time>
   <energy>
    <i name="alphaZ">    235.09406458 </i>
    <i name="ewald">  -2345.96417922 </i>
    <i name="hartreedc">   -455.34964827 </i>
    <i name="XCdc">     14.18398861 </i>
    <i name="pawpsdc">   1918.52679501 </i>
    <i name="pawaedc">  -1949.62344792 </i>
    <i name="eentropy">      0.03805759 </i>
    <i name="bandstr">    398.12413739 </i>
    <i name="atom">   2382.15316232 </i>
    <i name="e_fr_energy">    197.18293008 </i>
    <i name="e_wo_entrp">    197.14487250 </i>
    <i name="e_0_energy">    197.17024422 </i>
   </energy>
  </scstep>
  <scstep>
   <time name="dav">    0.65    0.16</time>
   <time name="total">    0.65    0.16</time>
   <energy>
    <i name="e_fr_energy">    -11.12562445 </i>
    <i name="e_wo_entrp">    -11.10212355 </i>
    <i name="e_0_energy">    -11.11779081 </i>
   </energy>
  </scstep>
  <scstep>
   <time name="dav">    0.93    0.23</time>
   <time name="total">    0.93    0.23</time>
   <energy>
    <i name="e_fr_energy">    -27.72849655 </i>
    <i name="e_wo_entrp">    -27.71313181 </i>
    <i name="e_0_energy">    -27.72337497 </i>
   </energy>
  </scstep>
  <scstep>
   <time name="dav">    0.83    0.21</time>
   <time name="total">    0.83    0.21</time>
   <energy>
    <i name="e_fr_energy">    -28.19417737 </i>
    <i name="e_wo_entrp">    -28.13880826 </i>
    <i name="e_0_energy">    -28.17572100 </i>
   </energy>
  </scstep>
  <scstep>
   <time name="dav">    0.84    0.21</time>
   <time name="total">    1.09    0.29</time>
   <energy>
    <i name="e_fr_energy">    -28.29633692 </i>
    <i name="e_wo_entrp">    -28.22795427 </i>
    <i name="e_0_energy">    -28.27354271 </i>
   </energy>
  </scstep>
  <scstep>
   <time name="dav">    0.81    0.21</time>
   <time name="total">    1.35    0.59</time>
   <energy>
    <i name="e_fr_energy">    -37.40639303 </i>
    <i name="e_wo_entrp">    -37.29824381 </i>
    <i name="e_0_energy">    -37.37034329 </i>
   </energy>
  </scstep>
  <scstep>
   <time name="dav">    0.62    0.16</time>
   <time name="total">    1.16    0.54</time>
   <energy>
    <i name="e_fr_energy">    -27.85941927 </i>
    <i name="e_wo_entrp">    -27.43701942 </i>
    <i name="e_0_energy">    -27.71861932 </i>
   </energy>
  </scstep>
  <scstep>
   <time name="dav">    0.61    0.16</time>
   <time name="total">    1.23    0.54</time>
   <energy>
    <i name="e_fr_energy">    -25.97561257 </i>
    <i name="e_wo_entrp">    -25.79373203 </i>
    <i name="e_0_energy">    -25.91498572 </i>
   </energy>
  </scstep>
  <scstep>
   <time name="dav">    0.62    0.16</time>
   <time name="total">    1.29    0.54</time>
   <energy>
    <i name="e_fr_energy">    -26.23630738 </i>
    <i name="e_wo_entrp">    -25.82511632 </i>
    <i name="e_0_energy">    -26.09924369 </i>
   </energy>
  </scstep>
  <scstep>
   <time name="dav">    0.62    0.16</time>
   <time name="total">    1.33    0.54</time>
   <energy>
    <i name="e_fr_energy">    -25.02486887 </i>
    <i name="e_wo_entrp">    -24.68905997 </i>
    <i name="e_0_energy">    -24.91293257 </i>
   </energy>
  </scstep>
  <scstep>
   <time name="dav">    0.62    0.16</time>
   <time name="total">    1.33    0.54</time>
   <energy>
    <i name="e_fr_energy">    -22.50177726 </i>
    <i name="e_wo_entrp">    -22.20902411 </i>
    <i name="e_0_energy">    -22.40419287 </i>
   </energy>
  </scstep>
  <scstep>
   <time name="dav">    0.61    0.16</time>
   <time name="total">    1.32    0.54</time>
   <energy>
    <i name="e_fr_energy">    -21.20015504 </i>
    <i name="e_wo_entrp">    -20.75196145 </i>
    <i name="e_0_energy">    -21.05075718 </i>
   </energy>
  </scstep>
  <scstep>
   <time name="dav">    0.62    0.16</time>
   <time name="total">    1.32    0.54</time>
   <energy>
    <i name="e_fr_energy">    -19.78759712 </i>
    <i name="e_wo_entrp">    -19.69554531 </i>
    <i name="e_0_energy">    -19.75691319 </i>
   </energy>
  </scstep>
  <scstep>
   <time name="dav">    0.62    0.16</time>
   <time name="total">    1.33    0.54</time>
   <energy>
    <i name="e_fr_energy">    -25.66619661 </i>
    <i name="e_wo_entrp">    -25.57879727 </i>
    <i name="e_0_energy">    -25.63706350 </i>
   </energy>
  </scstep>
  <scstep>
   <time name="dav">    0.62    0.16</time>
   <time name="total">    1.33    0.54</time>
   <energy>
    <i name="e_fr_energy">    -24.55085226 </i>
    <i name="e_wo_entrp">    -24.40020223 </i>
    <i name="e_0_energy">    -24.50063558 </i>
   </energy>
  </scstep>
  <scstep>
   <time name="dav">    0.80    0.21</time>
   <time name="total">    1.51    0.58</time>
   <energy>
    <i name="e_fr_energy">    -24.40121619 </i>
    <i name="e_wo_entrp">    -24.48825375 </i>
    <i name="e_0_energy">    -24.43022871 </i>
   </energy>
  </scstep>
  <scstep>
   <time name="dav">    0.61    0.16</time>
   <time name="total">    1.33    0.54</time>
   <energy>
    <i name="e_fr_energy">    -23.96426391 </i>
    <i name="e_wo_entrp">    -23.86037417 </i>
    <i name="e_0_energy">    -23.92963400 </i>
   </energy>
  </scstep>
  <scstep>
   <time name="dav">    0.62    0.16</time>
   <time name="total">    1.33    0.54</time>
   <energy>
    <i name="e_fr_energy">    -24.88318755 </i>
    <i name="e_wo_entrp">    -24.69141992 </i>
    <i name="e_0_energy">    -24.81926501 </i>
   </energy>
  </scstep>
  <scstep>
   <time name="dav">    0.62    0.16</time>
   <time name="total">    1.33    0.54</time>
   <energy>
    <i name="e_fr_energy">    -25.29286250 </i>
    <i name="e_wo_entrp">    -24.99855497 </i>
    <i name="e_0_energy">    -25.19475999 </i>
   </energy>
  </scstep>
  <scstep>
   <time name="dav">    0.62    0.16</time>
   <time name="total">    1.32    0.54</time>
   <energy>
    <i name="e_fr_energy">    -25.28199048 </i>
    <i name="e_wo_entrp">    -25.00480686 </i>
    <i name="e_0_energy">    -25.18959594 </i>
   </energy>
  </scstep>
  <scstep>
   <time name="dav">    0.62    0.16</time>
   <time name="total">    1.33    0.54</time>
   <energy>
    <i name="e_fr_energy">    -25.28916357 </i>
    <i name="e_wo_entrp">    -25.01243361 </i>
    <i name="e_0_energy">    -25.19692025 </i>
   </energy>
  </scstep>
  <scstep>
   <time name="dav">    0.62    0.16</time>
   <time name="total">    1.33    0.54</time>
   <energy>
    <i name="e_fr_energy">    -25.28916293 </i>
    <i name="e_wo_entrp">    -25.03599171 </i>
    <i name="e_0_energy">    -25.20477252 </i>
   </energy>
  </scstep>
  <scstep>
   <time name="dav">    0.49    0.13</time>
   <time name="total">    1.20    0.51</time>
   <energy>
    <i name="e_fr_energy">    -25.28590776 </i>
    <i name="e_wo_entrp">    -25.02461165 </i>
    <i name="e_0_energy">    -25.19880906 </i>
   </energy>
  </scstep>
  <scstep>
   <time name="dav">    0.53    0.14</time>
   <time name="total">    1.24    0.52</time>
   <energy>
    <i name="e_fr_energy">    -25.28992173 </i>
    <i name="e_wo_entrp">    -25.02285949 </i>
    <i name="e_0_energy">    -25.20090098 </i>
   </energy>
  </scstep>
  <scstep>
   <time name="dav">    0.40    0.11</time>
   <time name="total">    1.11    0.49</time>
   <energy>
    <i name="e_fr_energy">    -25.29078683 </i>
    <i name="e_wo_entrp">    -25.02093086 </i>
    <i name="e_0_energy">    -25.20083484 </i>
   </energy>
  </scstep>
  <scstep>
   <time name="dav">    0.40    0.11</time>
   <time name="total">    0.85    0.41</time>
   <energy>
    <i name="alphaZ">    235.09406458 </i>
    <i name="ewald">  -2345.96417922 </i>
    <i name="hartreedc">   -439.72922100 </i>
    <i name="XCdc">     13.66408077 </i>
    <i name="pawpsdc">   2175.10915433 </i>
    <i name="pawaedc">  -2206.10194680 </i>
    <i name="eentropy">     -0.26755277 </i>
    <i name="bandstr">    160.75164081 </i>
    <i name="atom">   2382.15316232 </i>
    <i name="e_fr_energy">    -25.29079698 </i>
    <i name="e_wo_entrp">    -25.02324421 </i>
    <i name="e_0_energy">    -25.20161273 </i>
   </energy>
  </scstep>
  <structure>
   <crystal>
    <varray name="basis" >
     <v>       3.60222591       0.00000000       0.00000000 </v>
     <v>       0.00000000       3.60222591       0.00000000 </v>
     <v>       0.00000000       0.00000000       3.60222591 </v>
    </varray>
    <i name="volume">     46.74259708 </i>
    <varray name="rec_basis" >
     <v>       0.27760613       0.00000000       0.00000000 </v>
     <v>       0.00000000       0.27760613       0.00000000 </v>
     <v>       0.00000000       0.00000000       0.27760613 </v>
    </varray>
   </crystal>
   <varray name="positions" >
    <v>       0.00000000       0.00000000       0.00000000 </v>
    <v>       0.00000000       0.50000000       0.50000000 </v>
    <v>       0.50000000       0.00000000       0.50000000 </v>
    <v>       0.50000000       0.50000000       0.00000000 </v>
   </varray>
  </structure>
  <varray name="forces" >
   <v>       0.00000000       0.00000000       0.00000000 </v>
   <v>       0.00000000       0.00000000       0.00000000 </v>
   <v>       0.00000000       0.00000000       0.00000000 </v>
   <v>       0.00000000       0.00000000       0.00000000 </v>
  </varray>
  <varray name="stress" >
   <v>     -49.36207293       0.00000000       0.00000000 </v>
   <v>       0.00000000     -49.36207293       0.00000000 </v>
   <v>       0.00000000       0.00000000     -49.36207293 </v>
  </varray>
  <energy>
   <i name="e_fr_energy">    -25.29079698 </i>
   <i name="e_wo_entrp">    -25.20161273 </i>
   <i name="e_0_energy">     -0.26755277 </i>
  </energy>
  <time name="totalsc">   33.59   14.01</time>
 </calculation>
 <calculation>
  <scstep>
   <time name="dav">    0.61    0.16</time>
   <time name="total">    1.32    0.54</time>
   <energy>
    <i name="alphaZ">    247.78205971 </i>
    <i name="ewald">  -2387.43070229 </i>
    <i name="hartreedc">   -447.35721542 </i>
    <i name="XCdc">     15.65348991 </i>
    <i name="pawpsdc">   2174.60256106 </i>
    <i name="pawaedc">  -2205.59325632 </i>
    <i name="eentropy">     -0.14954536 </i>
    <i name="bandstr">    193.14600239 </i>
    <i name="atom">   2382.15316232 </i>
    <i name="e_fr_energy">    -27.19344400 </i>
    <i name="e_wo_entrp">    -27.04389864 </i>
    <i name="e_0_energy">    -27.14359555 </i>
   </energy>
  </scstep>
  <scstep>
   <time name="dav">    0.61    0.16</time>
   <time name="total">    1.16    0.54</time>
   <energy>
    <i name="e_fr_energy">    -26.35570141 </i>
    <i name="e_wo_entrp">    -26.09610675 </i>
    <i name="e_0_energy">    -26.26916985 </i>
   </energy>
  </scstep>
  <scstep>
   <time name="dav">    0.61    0.16</time>
   <time name="total">    1.16    0.54</time>
   <energy>
    <i name="e_fr_energy">    -25.33094397 </i>
    <i name="e_wo_entrp">    -25.16856126 </i>
    <i name="e_0_energy">    -25.27681640 </i>
   </energy>
  </scstep>
  <scstep>
   <time name="dav">    0.62    0.16</time>
   <time name="total">    1.23    0.54</time>
   <energy>
    <i name="e_fr_energy">    -25.26014292 </i>
    <i name="e_wo_entrp">    -24.98867222 </i>
    <i name="e_0_energy">    -25.16965269 </i>
   </energy>
  </scstep>
  <scstep>
   <time name="dav">    0.62    0.16</time>
   <time name="total">    1.30    0.54</time>
   <energy>
    <i name="e_fr_energy">    -25.25675039 </i>
    <i name="e_wo_entrp">    -25.00699990 </i>
    <i name="e_0_energy">    -25.17350023 </i>
   </energy>
  </scstep>
  <scstep>
   <time name="dav">    0.61    0.16</time>
   <time name="total">    1.33    0.54</time>
   <energy>
    <i name="e_fr_energy">    -25.27199120 </i>
    <i name="e_wo_entrp">    -25.05048897 </i>
    <i name="e_0_energy">    -25.19815712 </i>
   </energy>
  </scstep>
  <scstep>
   <time name="dav">    0.61    0.16</time>
   <time name="total">    1.33    0.54</time>
   <energy>
    <i name="e_fr_energy">    -25.26069532 </i>
    <i name="e_wo_entrp">    -25.04072543 </i>
    <i name="e_0_energy">    -25.18737203 </i>
   </energy>
  </scstep>
  <scstep>
   <time name="dav">    0.61    0.16</time>
   <time name="total">    1.33    0.54</time>
   <energy>
    <i name="e_fr_energy">    -25.25553944 </i>
    <i name="e_wo_entrp">    -25.01258191 </i>
    <i name="e_0_energy">    -25.17455359 </i>
   </energy>
  </scstep>
  <scstep>
   <time name="dav">    0.61    0.16</time>
   <time name="total">    1.33    0.54</time>
   <energy>
    <i name="e_fr_energy">    -25.25392119 </i>
    <i name="e_wo_entrp">    -25.01135910 </i>
    <i name="e_0_energy">    -25.17306716 </i>
   </energy>
  </scstep>
  <scstep>
   <time name="dav">    0.41    0.11</time>
   <time name="total">    1.12    0.49</time>
   <energy>
    <i name="e_fr_energy">    -25.25379277 </i>
    <i name="e_wo_entrp">    -25.00276048 </i>
    <i name="e_0_energy">    -25.17011534 </i>
   </energy>
  </scstep>
  <scstep>
   <time name="dav">    0.40    0.11</time>
   <time name="total">    0.86    0.41</time>
   <energy>
    <i name="alphaZ">    247.78205971 </i>
    <i name="ewald">  -2387.43070229 </i>
    <i name="hartreedc">   -424.32282404 </i>
    <i name="XCdc">     14.28307939 </i>
    <i name="pawpsdc">   2216.90237253 </i>
    <i name="pawaedc">  -2248.51325023 </i>
    <i name="eentropy">     -0.24691314 </i>
    <i name="bandstr">    174.13923750 </i>
    <i name="atom">   2382.15316232 </i>
    <i name="e_fr_energy">    -25.25377824 </i>
    <i name="e_wo_entrp">    -25.00686510 </i>
    <i name="e_0_energy">    -25.17147386 </i>
   </energy>
  </scstep>
  <structure>
   <crystal>
    <varray name="basis" >
     <v>       3.53966000       0.00000000       0.00000000 </v>
     <v>       0.00000000       3.53966000       0.00000000 </v>
     <v>       0.00000000       0.00000000       3.53966000 </v>
    </varray>
    <i name="volume">     44.34908302 </i>
    <varray name="rec_basis" >
     <v>       0.28251301       0.00000000       0.00000000 </v>
     <v>       0.00000000       0.28251301       0.00000000 </v>
     <v>       0.00000000       0.00000000       0.28251301 </v>
    </varray>
   </crystal>
   <varray name="positions" >
    <v>       0.00000000       0.00000000       0.00000000 </v>
    <v>       0.00000000       0.50000000       0.50000000 </v>
    <v>       0.50000000       0.00000000       0.50000000 </v>
    <v>       0.50000000       0.50000000       0.00000000 </v>
   </varray>
  </structure>
  <varray name="forces" >
   <v>       0.00000000       0.00000000       0.00000000 </v>
   <v>       0.00000000       0.00000000       0.00000000 </v>
   <v>       0.00000000       0.00000000       0.00000000 </v>
   <v>       0.00000000       0.00000000       0.00000000 </v>
  </varray>
  <varray name="stress" >
   <v>      72.16058689       0.00000000       0.00000000 </v>
   <v>       0.00000000      72.16058689       0.00000000 </v>
   <v>       0.00000000       0.00000000      72.16058689 </v>
  </varray>
  <energy>
   <i name="e_fr_energy">    -25.25377824 </i>
   <i name="e_wo_entrp">    -25.17147386 </i>
   <i name="e_0_energy">     -0.24691314 </i>
  </energy>
  <time name="totalsc">   15.52    7.20</time>
 </calculation>
 <calculation>
  <scstep>
   <time name="dav">    0.62    0.16</time>
   <time name="total">    1.32    0.54</time>
   <energy>
    <i name="alphaZ">    238.43640351 </i>
    <i name="ewald">  -2357.02945154 </i>
    <i name="hartreedc">   -418.92511331 </i>
    <i name="XCdc">     12.84750257 </i>
    <i name="pawpsdc">   2216.90246950 </i>
    <i name="pawaedc">  -2248.52146284 </i>
    <i name="eentropy">     -0.25913211 </i>
    <i name="bandstr">    148.49423904 </i>
    <i name="atom">   2382.15316232 </i>
    <i name="e_fr_energy">    -25.90138287 </i>
    <i name="e_wo_entrp">    -25.64225076 </i>
    <i name="e_0_energy">    -25.81500550 </i>
   </energy>
  </scstep>
  <scstep>
   <time name="dav">    0.62    0.16</time>
   <time name="total">    1.16    0.54</time>
   <energy>
    <i name="e_fr_energy">    -25.48218161 </i>
    <i name="e_wo_entrp">    -25.26486794 </i>
    <i name="e_0_energy">    -25.40974372 </i>
   </energy>
  </scstep>
  <scstep>
   <time name="dav">    0.61    0.16</time>
   <time name="total">    1.16    0.54</time>
   <energy>
    <i name="e_fr_energy">    -25.47533159 </i>
    <i name="e_wo_entrp">    -25.23033983 </i>
    <i name="e_0_energy">    -25.39366767 </i>
   </energy>
  </scstep>
  <scstep>
   <time name="dav">    0.61    0.16</time>
   <time name="total">    1.23    0.54</time>
   <energy>
    <i name="e_fr_energy">    -25.30413091 </i>
    <i name="e_wo_entrp">    -25.05257410 </i>
    <i name="e_0_energy">    -25.22027864 </i>
   </energy>
  </scstep>
  <scstep>
   <time name="dav">    0.62    0.16</time>
   <time name="total">    1.29    0.54</time>
   <energy>
    <i name="e_fr_energy">    -25.29674510 </i>
    <i name="e_wo_entrp">    -25.00904078 </i>
    <i name="e_0_energy">    -25.20084366 </i>
   </energy>
  </scstep>
  <scstep>
   <time name="dav">    0.61    0.16</time>
   <time name="total">    1.32    0.54</time>
   <energy>
    <i name="e_fr_energy">    -25.29589275 </i>
    <i name="e_wo_entrp">    -25.05124682 </i>
    <i name="e_0_energy">    -25.21434411 </i>
   </energy>
  </scstep>
  <scstep>
   <time name="dav">    0.57    0.15</time>
   <time name="total">    1.29    0.53</time>
   <energy>
    <i name="e_fr_energy">    -25.29460969 </i>
    <i name="e_wo_entrp">    -25.01906116 </i>
    <i name="e_0_energy">    -25.20276018 </i>
   </energy>
  </scstep>
  <scstep>
   <time name="dav">    0.49    0.13</time>
   <time name="total">    0.95    0.43</time>
   <energy>
    <i name="alphaZ">    238.43640351 </i>
    <i name="ewald">  -2357.02945154 </i>
    <i name="hartreedc">   -435.44657682 </i>
    <i name="XCdc">     13.81311930 </i>
    <i name="pawpsdc">   2185.38023239 </i>
    <i name="pawaedc">  -2216.50170304 </i>
    <i name="eentropy">     -0.25666314 </i>
    <i name="bandstr">    164.15692847 </i>
    <i name="atom">   2382.15316232 </i>
    <i name="e_fr_energy">    -25.29454856 </i>
    <i name="e_wo_entrp">    -25.03788542 </i>
    <i name="e_0_energy">    -25.20899418 </i>
   </energy>
  </scstep>
  <structure>
   <crystal>
    <varray name="basis" >
     <v>       3.58531496       0.00000000       0.00000000 </v>
     <v>       0.00000000       3.58531496       0.00000000 </v>
     <v>       0.00000000       0.00000000       3.58531496 </v>
    </varray>
    <i name="volume">     46.08737162 </i>
    <varray name="rec_basis" >
     <v>       0.27891552       0.00000000       0.00000000 </v>
     <v>       0.00000000       0.27891552       0.00000000 </v>
     <v>       0.00000000       0.00000000       0.27891552 </v>
    </varray>
   </crystal>
   <varray name="positions" >
    <v>       0.00000000       0.00000000       0.00000000 </v>
    <v>       0.00000000       0.50000000       0.50000000 </v>
    <v>       0.50000000       0.00000000       0.50000000 </v>
    <v>       0.50000000       0.50000000       0.00000000 </v>
   </varray>
  </structure>
  <varray name="forces" >
   <v>       0.00000000       0.00000000       0.00000000 </v>
   <v>       0.00000000       0.00000000       0.00000000 </v>
   <v>       0.00000000       0.00000000       0.00000000 </v>
   <v>       0.00000000       0.00000000       0.00000000 </v>
  </varray>
  <varray name="stress" >
   <v>      20.81749945       0.00000000       0.00000000 </v>
   <v>       0.00000000      20.81749945       0.00000000 </v>
   <v>       0.00000000       0.00000000      20.81749945 </v>
  </varray>
  <energy>
   <i name="e_fr_energy">    -25.29454856 </i>
   <i name="e_wo_entrp">    -25.20899418 </i>
   <i name="e_0_energy">     -0.25666314 </i>
  </energy>
  <time name="totalsc">   11.72    5.58</time>
 </calculation>
 <calculation>
  <scstep>
   <time name="dav">    0.62    0.16</time>
   <time name="total">    1.32    0.54</time>
   <energy>
    <i name="alphaZ">    237.44823963 </i>
    <i name="ewald">  -2353.76882476 </i>
    <i name="hartreedc">   -434.91443929 </i>
    <i name="XCdc">     13.66129432 </i>
    <i name="pawpsdc">   2185.54347851 </i>
    <i name="pawaedc">  -2216.69165664 </i>
    <i name="eentropy">     -0.23742109 </i>
    <i name="bandstr">    161.49285777 </i>
    <i name="atom">   2382.15316232 </i>
    <i name="e_fr_energy">    -25.31330922 </i>
    <i name="e_wo_entrp">    -25.07588814 </i>
    <i name="e_0_energy">    -25.23416886 </i>
   </energy>
  </scstep>
  <scstep>
   <time name="dav">    0.62    0.16</time>
   <time name="total">    1.16    0.54</time>
   <energy>
    <i name="e_fr_energy">    -25.51643744 </i>
    <i name="e_wo_entrp">    -25.30634424 </i>
    <i name="e_0_energy">    -25.44640637 </i>
   </energy>
  </scstep>
  <scstep>
   <time name="dav">    0.62    0.16</time>
   <time name="total">    1.16    0.54</time>
   <energy>
    <i name="e_fr_energy">    -25.29505866 </i>
    <i name="e_wo_entrp">    -25.02219623 </i>
    <i name="e_0_energy">    -25.20410452 </i>
   </energy>
  </scstep>
  <scstep>
   <time name="dav">    0.57    0.15</time>
   <time name="total">    1.18    0.53</time>
   <energy>
    <i name="e_fr_energy">    -25.29469640 </i>
    <i name="e_wo_entrp">    -25.03800454 </i>
    <i name="e_0_energy">    -25.20913245 </i>
   </energy>
  </scstep>
  <scstep>
   <time name="dav">    0.40    0.11</time>
   <time name="total">    1.08    0.48</time>
   <energy>
    <i name="e_fr_energy">    -25.29437251 </i>
    <i name="e_wo_entrp">    -25.02018860 </i>
    <i name="e_0_energy">    -25.20297787 </i>
   </energy>
  </scstep>
  <scstep>
   <time name="dav">    0.40    0.11</time>
   <time name="total">    0.86    0.41</time>
   <energy>
    <i name="alphaZ">    237.44823963 </i>
    <i name="ewald">  -2353.76882476 </i>
    <i name="hartreedc">   -436.77224101 </i>
    <i name="XCdc">     13.76847734 </i>
    <i name="pawpsdc">   2182.42964365 </i>
    <i name="pawaedc">  -2213.49398871 </i>
    <i name="eentropy">     -0.26180890 </i>
    <i name="bandstr">    163.20294488 </i>
    <i name="atom">   2382.15316232 </i>
    <i name="e_fr_energy">    -25.29439556 </i>
    <i name="e_wo_entrp">    -25.03258666 </i>
    <i name="e_0_energy">    -25.20712593 </i>
   </energy>
  </scstep>
  <structure>
   <crystal>
    <varray name="basis" >
     <v>       3.59028162       0.00000000       0.00000000 </v>
     <v>       0.00000000       3.59028162       0.00000000 </v>
     <v>       0.00000000       0.00000000       3.59028162 </v>
    </varray>
    <i name="volume">     46.27916869 </i>
    <varray name="rec_basis" >
     <v>       0.27852968       0.00000000       0.00000000 </v>
     <v>       0.00000000       0.27852968       0.00000000 </v>
     <v>       0.00000000       0.00000000       0.27852968 </v>
    </varray>
   </crystal>
   <varray name="positions" >
    <v>       0.00000000       0.00000000       0.00000000 </v>
    <v>       0.00000000       0.50000000       0.50000000 </v>
    <v>       0.50000000       0.00000000       0.50000000 </v>
    <v>       0.50000000       0.50000000       0.00000000 </v>
   </varray>
  </structure>
  <varray name="forces" >
   <v>       0.00000000       0.00000000       0.00000000 </v>
   <v>       0.00000000       0.00000000       0.00000000 </v>
   <v>       0.00000000       0.00000000       0.00000000 </v>
   <v>       0.00000000       0.00000000       0.00000000 </v>
  </varray>
  <varray name="stress" >
   <v>     -14.79989566       0.00000000       0.00000000 </v>
   <v>       0.00000000     -14.79989566       0.00000000 </v>
   <v>       0.00000000       0.00000000     -14.79989566 </v>
  </varray>
  <energy>
   <i name="e_fr_energy">    -25.29439556 </i>
   <i name="e_wo_entrp">    -25.20712593 </i>
   <i name="e_0_energy">     -0.26180890 </i>
  </energy>
  <time name="totalsc">    8.78    4.43</time>
 </calculation>
 <calculation>
  <scstep>
   <time name="dav">    0.62    0.16</time>
   <time name="total">    1.32    0.54</time>
   <energy>
    <i name="alphaZ">    238.36443120 </i>
    <i name="ewald">  -2356.79227031 </i>
    <i name="hartreedc">   -437.31049887 </i>
    <i name="XCdc">     13.91330505 </i>
    <i name="pawpsdc">   2182.30380046 </i>
    <i name="pawaedc">  -2213.39137653 </i>
    <i name="eentropy">     -0.28501610 </i>
    <i name="bandstr">    165.72956423 </i>
    <i name="atom">   2382.15316232 </i>
    <i name="e_fr_energy">    -25.31489856 </i>
    <i name="e_wo_entrp">    -25.02988246 </i>
    <i name="e_0_energy">    -25.21989319 </i>
   </energy>
  </scstep>
  <scstep>
   <time name="dav">    0.62    0.16</time>
   <time name="total">    1.16    0.54</time>
   <energy>
    <i name="e_fr_energy">    -25.50197093 </i>
    <i name="e_wo_entrp">    -25.27321216 </i>
    <i name="e_0_energy">    -25.42571801 </i>
   </energy>
  </scstep>
  <scstep>
   <time name="dav">    0.62    0.16</time>
   <time name="total">    1.16    0.54</time>
   <energy>
    <i name="e_fr_energy">    -25.31263426 </i>
    <i name="e_wo_entrp">    -25.09012154 </i>
    <i name="e_0_energy">    -25.23846335 </i>
   </energy>
  </scstep>
  <scstep>
   <time name="dav">    0.62    0.16</time>
   <time name="total">    1.23    0.54</time>
   <energy>
    <i name="e_fr_energy">    -25.30124356 </i>
    <i name="e_wo_entrp">    -25.05471956 </i>
    <i name="e_0_energy">    -25.21906890 </i>
   </energy>
  </scstep>
  <scstep>
   <time name="dav">    0.62    0.16</time>
   <time name="total">    1.30    0.54</time>
   <energy>
    <i name="e_fr_energy">    -25.29531576 </i>
    <i name="e_wo_entrp">    -25.04100749 </i>
    <i name="e_0_energy">    -25.21054634 </i>
   </energy>
  </scstep>
  <scstep>
   <time name="dav">    0.49    0.13</time>
   <time name="total">    1.20    0.51</time>
   <energy>
    <i name="e_fr_energy">    -25.29471317 </i>
    <i name="e_wo_entrp">    -25.03201292 </i>
    <i name="e_0_energy">    -25.20714642 </i>
   </energy>
  </scstep>
  <scstep>
   <time name="dav">    0.58    0.15</time>
   <time name="total">    1.29    0.53</time>
   <energy>
    <i name="e_fr_energy">    -25.29433022 </i>
    <i name="e_wo_entrp">    -25.03159809 </i>
    <i name="e_0_energy">    -25.20675285 </i>
   </energy>
  </scstep>
  <scstep>
   <time name="dav">    0.40    0.11</time>
   <time name="total">    0.86    0.41</time>
   <energy>
    <i name="alphaZ">    238.36443120 </i>
    <i name="ewald">  -2356.79227031 </i>
    <i name="hartreedc">   -435.59299041 </i>
    <i name="XCdc">     13.81356059 </i>
    <i name="pawpsdc">   2185.27986698 </i>
    <i name="pawaedc">  -2216.42288080 </i>
    <i name="eentropy">     -0.26671207 </i>
    <i name="bandstr">    164.16952513 </i>
    <i name="atom">   2382.15316232 </i>
    <i name="e_fr_energy">    -25.29430735 </i>
    <i name="e_wo_entrp">    -25.02759528 </i>
    <i name="e_0_energy">    -25.20540333 </i>
   </energy>
  </scstep>
  <structure>
   <crystal>
    <varray name="basis" >
     <v>       3.58567578       0.00000000       0.00000000 </v>
     <v>       0.00000000       3.58567578       0.00000000 </v>
     <v>       0.00000000       0.00000000       3.58567578 </v>
    </varray>
    <i name="volume">     46.10128735 </i>
    <varray name="rec_basis" >
     <v>       0.27888746       0.00000000       0.00000000 </v>
     <v>       0.00000000       0.27888746       0.00000000 </v>
     <v>       0.00000000       0.00000000       0.27888746 </v>
    </varray>
   </crystal>
   <varray name="positions" >
    <v>       0.00000000       0.00000000       0.00000000 </v>
    <v>       0.00000000       0.50000000       0.50000000 </v>
    <v>       0.50000000       0.00000000       0.50000000 </v>
    <v>       0.50000000       0.50000000       0.00000000 </v>
   </varray>
  </structure>
  <varray name="forces" >
   <v>       0.00000000       0.00000000       0.00000000 </v>
   <v>       0.00000000       0.00000000       0.00000000 </v>
   <v>       0.00000000       0.00000000       0.00000000 </v>
   <v>       0.00000000       0.00000000       0.00000000 </v>
  </varray>
  <varray name="stress" >
   <v>      -1.77400999       0.00000000       0.00000000 </v>
   <v>       0.00000000      -1.77400999       0.00000000 </v>
   <v>       0.00000000       0.00000000      -1.77400999 </v>
  </varray>
  <energy>
   <i name="e_fr_energy">    -25.29430735 </i>
   <i name="e_wo_entrp">    -25.20540333 </i>
   <i name="e_0_energy">     -0.26671207 </i>
  </energy>
  <time name="totalsc">   11.54    5.55</time>
 </calculation>
 <calculation>
  <scstep>
   <time name="dav">    0.62    0.16</time>
   <time name="total">    1.32    0.54</time>
   <energy>
    <i name="alphaZ">    238.48902642 </i>
    <i name="ewald">  -2357.20283757 </i>
    <i name="hartreedc">   -435.65019703 </i>
    <i name="XCdc">     13.83247498 </i>
    <i name="pawpsdc">   2185.21276597 </i>
    <i name="pawaedc">  -2216.35058634 </i>
    <i name="eentropy">     -0.26711555 </i>
    <i name="bandstr">    164.48869874 </i>
    <i name="atom">   2382.15316232 </i>
    <i name="e_fr_energy">    -25.29460807 </i>
    <i name="e_wo_entrp">    -25.02749252 </i>
    <i name="e_0_energy">    -25.20556956 </i>
   </energy>
  </scstep>
  <scstep>
   <time name="dav">    0.62    0.16</time>
   <time name="total">    1.16    0.54</time>
   <energy>
    <i name="e_fr_energy">    -25.29953361 </i>
    <i name="e_wo_entrp">    -25.05132228 </i>
    <i name="e_0_energy">    -25.21679650 </i>
   </energy>
  </scstep>
  <scstep>
   <time name="dav">    0.62    0.16</time>
   <time name="total">    1.17    0.54</time>
   <energy>
    <i name="e_fr_energy">    -25.29431339 </i>
    <i name="e_wo_entrp">    -25.03331032 </i>
    <i name="e_0_energy">    -25.20731237 </i>
   </energy>
  </scstep>
  <scstep>
   <time name="dav">    0.40    0.11</time>
   <time name="total">    0.76    0.41</time>
   <energy>
    <i name="alphaZ">    238.48902642 </i>
    <i name="ewald">  -2357.20283757 </i>
    <i name="hartreedc">   -435.41272475 </i>
    <i name="XCdc">     13.82103108 </i>
    <i name="pawpsdc">   2185.15323744 </i>
    <i name="pawaedc">  -2216.29002983 </i>
    <i name="eentropy">     -0.26670684 </i>
    <i name="bandstr">    164.26154892 </i>
    <i name="atom">   2382.15316232 </i>
    <i name="e_fr_energy">    -25.29429282 </i>
    <i name="e_wo_entrp">    -25.02758598 </i>
    <i name="e_0_energy">    -25.20539054 </i>
   </energy>
  </scstep>
  <structure>
   <crystal>
    <varray name="basis" >
     <v>       3.58505124       0.00000000       0.00000000 </v>
     <v>       0.00000000       3.58505124       0.00000000 </v>
     <v>       0.00000000       0.00000000       3.58505124 </v>
    </varray>
    <i name="volume">     46.07720238 </i>
    <varray name="rec_basis" >
     <v>       0.27893604       0.00000000       0.00000000 </v>
     <v>       0.00000000       0.27893604       0.00000000 </v>
     <v>       0.00000000       0.00000000       0.27893604 </v>
    </varray>
   </crystal>
   <varray name="positions" >
    <v>       0.00000000       0.00000000       0.00000000 </v>
    <v>       0.00000000       0.50000000       0.50000000 </v>
    <v>       0.50000000       0.00000000       0.50000000 </v>
    <v>       0.50000000       0.50000000       0.00000000 </v>
   </varray>
  </structure>
  <varray name="forces" >
   <v>       0.00000000       0.00000000       0.00000000 </v>
   <v>       0.00000000       0.00000000       0.00000000 </v>
   <v>       0.00000000       0.00000000       0.00000000 </v>
   <v>       0.00000000       0.00000000       0.00000000 </v>
  </varray>
  <varray name="stress" >
   <v>       8.27705476       0.00000000       0.00000000 </v>
   <v>       0.00000000       8.27705476       0.00000000 </v>
   <v>       0.00000000       0.00000000       8.27705476 </v>
  </varray>
  <energy>
   <i name="e_fr_energy">    -25.29429282 </i>
   <i name="e_wo_entrp">    -25.20539054 </i>
   <i name="e_0_energy">     -0.26670684 </i>
  </energy>
  <time name="totalsc">    6.32    3.37</time>
  <eigenvalues>
   <array>
    <dimension dim="1">band</dimension>
    <dimension dim="2">kpoint</dimension>
    <dimension dim="3">spin</dimension>
    <field>eigene</field>
    <field>occ</field>
    <set>
     <set comment="spin 1">
      <set comment="kpoint 1">
       <r>   -2.4917    1.0000 </r>
       <r>    2.4517    1.0000 </r>
       <r>    2.4517    1.0000 </r>
       <r>    2.4517    1.0000 </r>
       <r>    3.3496    1.0000 </r>
       <r>    3.3496    1.0000 </r>
       <r>    3.3496    1.0000 </r>
       <r>    5.9054    1.0000 </r>
       <r>    5.9054    1.0000 </r>
       <r>    5.9054    1.0000 </r>
       <r>    7.5424    1.0000 </r>
       <r>    7.5424    1.0000 </r>
       <r>    8.5496    0.8918 </r>
       <r>    8.5496    0.8918 </r>
       <r>    8.5496    0.8918 </r>
       <r>    8.7124    0.2782 </r>
       <r>    8.7124    0.2782 </r>
       <r>    8.7124    0.2782 </r>
       <r>    8.7124    0.2782 </r>
       <r>    8.7310    0.2118 </r>
      </set>
     </set>
    </set>
   </array>
  </eigenvalues>
  <separator name="orbital magnetization" >
   <v name="MAGDIPOLOUT">      0.00000000      0.00000000      0.00000000</v>
  </separator>
  <dos>
   <i name="efermi">      8.65775909 </i>
   <total>
    <array>
     <dimension dim="1">gridpoints</dimension>
     <dimension dim="2">spin</dimension>
     <field>energy</field>
     <field>total</field>
     <field>integrated</field>
     <set>
      <set comment="spin 1">
       <r>  -4.4917   0.0000   0.0000 </r>
       <r>  -4.4410   0.0000   0.0000 </r>
       <r>  -4.3902   0.0000   0.0000 </r>
       <r>  -4.3395   0.0000   0.0000 </r>
       <r>  -4.2887   0.0000   0.0000 </r>
       <r>  -4.2380   0.0000   0.0000 </r>
       <r>  -4.1873   0.0000   0.0000 </r>
       <r>  -4.1365   0.0000   0.0000 </r>
       <r>  -4.0858   0.0000   0.0000 </r>
       <r>  -4.0350   0.0000   0.0000 </r>
       <r>  -3.9843   0.0000   0.0000 </r>
       <r>  -3.9335   0.0000   0.0000 </r>
       <r>  -3.8828   0.0000   0.0000 </r>
       <r>  -3.8321   0.0000   0.0000 </r>
       <r>  -3.7813   0.0000   0.0000 </r>
       <r>  -3.7306   0.0000   0.0000 </r>
       <r>  -3.6798   0.0000   0.0000 </r>
       <r>  -3.6291   0.0000   0.0000 </r>
       <r>  -3.5783   0.0000   0.0000 </r>
       <r>  -3.5276   0.0000   0.0000 </r>
       <r>  -3.4769   0.0000   0.0000 </r>
       <r>  -3.4261   0.0000   0.0000 </r>
       <r>  -3.3754   0.0000   0.0000 </r>
       <r>  -3.3246   0.0000   0.0000 </r>
       <r>  -3.2739   0.0000   0.0000 </r>
       <r>  -3.2231   0.0000   0.0000 </r>
       <r>  -3.1724  -0.0003   0.0000 </r>
       <r>  -3.1217  -0.0012  -0.0001 </r>
       <r>  -3.0709  -0.0050  -0.0003 </r>
       <r>  -3.0202  -0.0171  -0.0012 </r>
       <r>  -2.9694  -0.0504  -0.0038 </r>
       <r>  -2.9187  -0.1249  -0.0101 </r>
       <r>  -2.8679  -0.2548  -0.0230 </r>
       <r>  -2.8172  -0.4055  -0.0436 </r>
       <r>  -2.7665  -0.4291  -0.0654 </r>
       <r>  -2.7157  -0.0328  -0.0670 </r>
       <r>  -2.6650   1.1190  -0.0103 </r>
       <r>  -2.6142   3.1344   0.1488 </r>
       <r>  -2.5635   5.6150   0.4337 </r>
       <r>  -2.5128   7.6720   0.8230 </r>
       <r>  -2.4620   8.3812   1.2483 </r>
       <r>  -2.4113   7.3952   1.6235 </r>
       <r>  -2.3605   5.1933   1.8871 </r>
       <r>  -2.3098   2.7392   2.0261 </r>
       <r>  -2.2590   0.8591   2.0697 </r>
       <r>  -2.2083  -0.1457   2.0623 </r>
       <r>  -2.1576  -0.4451   2.0397 </r>
       <r>  -2.1068  -0.3828   2.0203 </r>
       <r>  -2.0561  -0.2291   2.0086 </r>
       <r>  -2.0053  -0.1084   2.0031 </r>
       <r>  -1.9546  -0.0424   2.0010 </r>
       <r>  -1.9038  -0.0140   2.0003 </r>
       <r>  -1.8531  -0.0039   2.0001 </r>
       <r>  -1.8024  -0.0010   2.0000 </r>
       <r>  -1.7516  -0.0002   2.0000 </r>
       <r>  -1.7009   0.0000   2.0000 </r>
       <r>  -1.6501   0.0000   2.0000 </r>
       <r>  -1.5994   0.0000   2.0000 </r>
       <r>  -1.5486   0.0000   2.0000 </r>
       <r>  -1.4979   0.0000   2.0000 </r>
       <r>  -1.4472   0.0000   2.0000 </r>
       <r>  -1.3964   0.0000   2.0000 </r>
       <r>  -1.3457   0.0000   2.0000 </r>
       <r>  -1.2949   0.0000   2.0000 </r>
       <r>  -1.2442   0.0000   2.0000 </r>
       <r>  -1.1934   0.0000   2.0000 </r>
       <r>  -1.1427   0.0000   2.0000 </r>
       <r>  -1.0920   0.0000   2.0000 </r>
       <r>  -1.0412   0.0000   2.0000 </r>
       <r>  -0.9905   0.0000   2.0000 </r>
       <r>  -0.9397   0.0000   2.0000 </r>
       <r>  -0.8890   0.0000   2.0000 </r>
       <r>  -0.8382   0.0000   2.0000 </r>
       <r>  -0.7875   0.0000   2.0000 </r>
       <r>  -0.7368   0.0000   2.0000 </r>
       <r>  -0.6860   0.0000   2.0000 </r>
       <r>  -0.6353   0.0000   2.0000 </r>
       <r>  -0.5845   0.0000   2.0000 </r>
       <r>  -0.5338   0.0000   2.0000 </r>
       <r>  -0.4831   0.0000   2.0000 </r>
       <r>  -0.4323   0.0000   2.0000 </r>
       <r>  -0.3816   0.0000   2.0000 </r>
       <r>  -0.3308   0.0000   2.0000 </r>
       <r>  -0.2801   0.0000   2.0000 </r>
       <r>  -0.2293   0.0000   2.0000 </r>
       <r>  -0.1786   0.0000   2.0000 </r>
       <r>  -0.1279   0.0000   2.0000 </r>
       <r>  -0.0771   0.0000   2.0000 </r>
       <r>  -0.0264   0.0000   2.0000 </r>
       <r>   0.0244   0.0000   2.0000 </r>
       <r>   0.0751   0.0000   2.0000 </r>
       <r>   0.1259   0.0000   2.0000 </r>
       <r>   0.1766   0.0000   2.0000 </r>
       <r>   0.2273   0.0000   2.0000 </r>
       <r>   0.2781   0.0000   2.0000 </r>
       <r>   0.3288   0.0000   2.0000 </r>
       <r>   0.3796   0.0000   2.0000 </r>
       <r>   0.4303   0.0000   2.0000 </r>
       <r>   0.4811   0.0000   2.0000 </r>
       <r>   0.5318   0.0000   2.0000 </r>
       <r>   0.5825   0.0000   2.0000 </r>
       <r>   0.6333   0.0000   2.0000 </r>
       <r>   0.6840   0.0000   2.0000 </r>
       <r>   0.7348   0.0000   2.0000 </r>
       <r>   0.7855   0.0000   2.0000 </r>
       <r>   0.8363   0.0000   2.0000 </r>
       <r>   0.8870   0.0000   2.0000 </r>
       <r>   0.9377   0.0000   2.0000 </r>
       <r>   0.9885   0.0000   2.0000 </r>
       <r>   1.0392   0.0000   2.0000 </r>
       <r>   1.0900   0.0000   2.0000 </r>
       <r>   1.1407   0.0000   2.0000 </r>
       <r>   1.1915   0.0000   2.0000 </r>
       <r>   1.2422   0.0000   2.0000 </r>
       <r>   1.2929   0.0000   2.0000 </r>
       <r>   1.3437   0.0000   2.0000 </r>
       <r>   1.3944   0.0000   2.0000 </r>
       <r>   1.4452   0.0000   2.0000 </r>
       <r>   1.4959   0.0000   2.0000 </r>
       <r>   1.5466   0.0000   2.0000 </r>
       <r>   1.5974   0.0000   2.0000 </r>
       <r>   1.6481   0.0000   2.0000 </r>
       <r>   1.6989  -0.0001   2.0000 </r>
       <r>   1.7496  -0.0004   2.0000 </r>
       <r>   1.8004  -0.0020   1.9999 </r>
       <r>   1.8511  -0.0084   1.9994 </r>
       <r>   1.9018  -0.0310   1.9979 </r>
       <r>   1.9526  -0.0979   1.9929 </r>
       <r>   2.0033  -0.2615   1.9796 </r>
       <r>   2.0541  -0.5813   1.9501 </r>
       <r>   2.1048  -1.0370   1.8975 </r>
       <r>   2.1556  -1.3515   1.8289 </r>
       <r>   2.2063  -0.8215   1.7873 </r>
       <r>   2.2570   1.5785   1.8674 </r>
       <r>   2.3078   6.5793   2.2012 </r>
       <r>   2.3585  13.6912   2.8959 </r>
       <r>   2.4093  20.7727   3.9500 </r>
       <r>   2.4600  24.8648   5.2117 </r>
       <r>   2.5108  24.0101   6.4300 </r>
       <r>   2.5615  18.6300   7.3753 </r>
       <r>   2.6122  11.2196   7.9447 </r>
       <r>   2.6630   4.6426   8.1802 </r>
       <r>   2.7137   0.5184   8.2065 </r>
       <r>   2.7645  -1.1626   8.1475 </r>
       <r>   2.8152  -1.3422   8.0794 </r>
       <r>   2.8660  -1.0160   8.0279 </r>
       <r>   2.9167  -0.7973   7.9874 </r>
       <r>   2.9674  -0.9044   7.9415 </r>
       <r>   3.0182  -1.2392   7.8787 </r>
       <r>   3.0689  -1.3443   7.8104 </r>
       <r>   3.1197  -0.3420   7.7931 </r>
       <r>   3.1704   2.8146   7.9359 </r>
       <r>   3.2212   8.5877   8.3717 </r>
       <r>   3.2719  15.9839   9.1827 </r>
       <r>   3.3226  22.4614  10.3225 </r>
       <r>   3.3734  25.1605  11.5992 </r>
       <r>   3.4241  22.7656  12.7544 </r>
       <r>   3.4749  16.4473  13.5890 </r>
       <r>   3.5256   9.0221  14.0468 </r>
       <r>   3.5763   3.1012  14.2041 </r>
       <r>   3.6271  -0.2128  14.1933 </r>
       <r>   3.6778  -1.3062  14.1270 </r>
       <r>   3.7286  -1.1959  14.0664 </r>
       <r>   3.7793  -0.7396  14.0288 </r>
       <r>   3.8301  -0.3586  14.0106 </r>
       <r>   3.8808  -0.1432  14.0034 </r>
       <r>   3.9315  -0.0482  14.0009 </r>
       <r>   3.9823  -0.0138  14.0002 </r>
       <r>   4.0330  -0.0034  14.0000 </r>
       <r>   4.0838  -0.0007  14.0000 </r>
       <r>   4.1345  -0.0001  14.0000 </r>
       <r>   4.1853   0.0000  14.0000 </r>
       <r>   4.2360   0.0000  14.0000 </r>
       <r>   4.2867   0.0000  14.0000 </r>
       <r>   4.3375   0.0000  14.0000 </r>
       <r>   4.3882   0.0000  14.0000 </r>
       <r>   4.4390   0.0000  14.0000 </r>
       <r>   4.4897   0.0000  14.0000 </r>
       <r>   4.5405   0.0000  14.0000 </r>
       <r>   4.5912   0.0000  14.0000 </r>
       <r>   4.6419   0.0000  14.0000 </r>
       <r>   4.6927   0.0000  14.0000 </r>
       <r>   4.7434   0.0000  14.0000 </r>
       <r>   4.7942   0.0000  14.0000 </r>
       <r>   4.8449   0.0000  14.0000 </r>
       <r>   4.8957   0.0000  14.0000 </r>
       <r>   4.9464   0.0000  14.0000 </r>
       <r>   4.9971   0.0000  14.0000 </r>
       <r>   5.0479   0.0000  14.0000 </r>
       <r>   5.0986   0.0000  14.0000 </r>
       <r>   5.1494  -0.0001  14.0000 </r>
       <r>   5.2001  -0.0004  14.0000 </r>
       <r>   5.2508  -0.0018  13.9999 </r>
       <r>   5.3016  -0.0077  13.9995 </r>
       <r>   5.3523  -0.0287  13.9980 </r>
       <r>   5.4031  -0.0914  13.9934 </r>
       <r>   5.4538  -0.2470  13.9809 </r>
       <r>   5.5046  -0.5560  13.9527 </r>
       <r>   5.5553  -1.0076  13.9015 </r>
       <r>   5.6060  -1.3469  13.8332 </r>
       <r>   5.6568  -0.8993  13.7875 </r>
       <r>   5.7075   1.3529  13.8562 </r>
       <r>   5.7583   6.1867  14.1701 </r>
       <r>   5.8090  13.2124  14.8406 </r>
       <r>   5.8598  20.3832  15.8749 </r>
       <r>   5.9105  24.7426  17.1304 </r>
       <r>   5.9612  24.2158  18.3591 </r>
       <r>   6.0120  19.0628  19.3264 </r>
       <r>   6.0627  11.6898  19.9196 </r>
       <r>   6.1135   4.9947  20.1730 </r>
       <r>   6.1642   0.7028  20.2087 </r>
       <r>   6.2150  -1.1007  20.1528 </r>
       <r>   6.2657  -1.3131  20.0862 </r>
       <r>   6.3164  -0.9117  20.0399 </r>
       <r>   6.3672  -0.4794  20.0156 </r>
       <r>   6.4179  -0.2048  20.0052 </r>
       <r>   6.4687  -0.0733  20.0015 </r>
       <r>   6.5194  -0.0223  20.0004 </r>
       <r>   6.5702  -0.0058  20.0001 </r>
       <r>   6.6209  -0.0013  20.0000 </r>
       <r>   6.6716  -0.0003  20.0000 </r>
       <r>   6.7224   0.0000  20.0000 </r>
       <r>   6.7731   0.0000  20.0000 </r>
       <r>   6.8239  -0.0002  20.0000 </r>
       <r>   6.8746  -0.0008  20.0000 </r>
       <r>   6.9254  -0.0036  19.9998 </r>
       <r>   6.9761  -0.0138  19.9991 </r>
       <r>   7.0268  -0.0458  19.9967 </r>
       <r>   7.0776  -0.1292  19.9902 </r>
       <r>   7.1283  -0.3057  19.9747 </r>
       <r>   7.1791  -0.5892  19.9448 </r>
       <r>   7.2298  -0.8658  19.9009 </r>
       <r>   7.2805  -0.7643  19.8621 </r>
       <r>   7.3313   0.3564  19.8802 </r>
       <r>   7.3820   3.1126  20.0381 </r>
       <r>   7.4328   7.5029  20.4188 </r>
       <r>   7.4835  12.4415  21.0501 </r>
       <r>   7.5343  16.0173  21.8629 </r>
       <r>   7.5850  16.5710  22.7037 </r>
       <r>   7.6357  13.8295  23.4055 </r>
       <r>   7.6865   9.1038  23.8674 </r>
       <r>   7.7372   4.3666  24.0890 </r>
       <r>   7.7880   1.0409  24.1418 </r>
       <r>   7.8387  -0.5520  24.1138 </r>
       <r>   7.8895  -0.9023  24.0680 </r>
       <r>   7.9402  -0.6966  24.0327 </r>
       <r>   7.9909  -0.4116  24.0118 </r>
       <r>   8.0417  -0.2564  23.9988 </r>
       <r>   8.0924  -0.2957  23.9838 </r>
       <r>   8.1432  -0.5636  23.9552 </r>
       <r>   8.1939  -1.0609  23.9013 </r>
       <r>   8.2447  -1.6201  23.8191 </r>
       <r>   8.2954  -1.7111  23.7323 </r>
       <r>   8.3461  -0.3854  23.7128 </r>
       <r>   8.3969   3.4326  23.8869 </r>
       <r>   8.4476  10.3546  24.4124 </r>
       <r>   8.4984  20.0362  25.4290 </r>
       <r>   8.5491  31.1513  27.0097 </r>
       <r>   8.5999  41.7075  29.1261 </r>
       <r>   8.6506  49.3378  31.6296 </r>
       <r>   8.7013  51.6762  34.2518 </r>
       <r>   8.7521  47.2798  36.6509 </r>
       <r>   8.8028  36.8327  38.5199 </r>
       <r>   8.8536  23.4029  39.7074 </r>
       <r>   8.9043  11.0178  40.2665 </r>
       <r>   8.9551   2.5214  40.3944 </r>
       <r>   9.0058  -1.5541  40.3155 </r>
       <r>   9.0565  -2.4599  40.1907 </r>
       <r>   9.1073  -1.9033  40.0941 </r>
       <r>   9.1580  -1.0843  40.0391 </r>
       <r>   9.2088  -0.4971  40.0139 </r>
       <r>   9.2595  -0.1899  40.0042 </r>
       <r>   9.3102  -0.0615  40.0011 </r>
       <r>   9.3610  -0.0171  40.0003 </r>
       <r>   9.4117  -0.0041  40.0001 </r>
       <r>   9.4625  -0.0008  40.0000 </r>
       <r>   9.5132  -0.0002  40.0000 </r>
       <r>   9.5640   0.0000  40.0000 </r>
       <r>   9.6147   0.0000  40.0000 </r>
       <r>   9.6654   0.0000  40.0000 </r>
       <r>   9.7162   0.0000  40.0000 </r>
       <r>   9.7669   0.0000  40.0000 </r>
       <r>   9.8177   0.0000  40.0000 </r>
       <r>   9.8684   0.0000  40.0000 </r>
       <r>   9.9192   0.0000  40.0000 </r>
       <r>   9.9699   0.0000  40.0000 </r>
       <r>  10.0206   0.0000  40.0000 </r>
       <r>  10.0714   0.0000  40.0000 </r>
       <r>  10.1221   0.0000  40.0000 </r>
       <r>  10.1729   0.0000  40.0000 </r>
       <r>  10.2236   0.0000  40.0000 </r>
       <r>  10.2744   0.0000  40.0000 </r>
       <r>  10.3251   0.0000  40.0000 </r>
       <r>  10.3758   0.0000  40.0000 </r>
       <r>  10.4266   0.0000  40.0000 </r>
       <r>  10.4773   0.0000  40.0000 </r>
       <r>  10.5281   0.0000  40.0000 </r>
       <r>  10.5788   0.0000  40.0000 </r>
       <r>  10.6296   0.0000  40.0000 </r>
       <r>  10.6803   0.0000  40.0000 </r>
       <r>  10.7310   0.0000  40.0000 </r>
      </set>
     </set>
    </array>
   </total>
  </dos>
 </calculation>
 <structure name="finalpos" >
  <crystal>
   <varray name="basis" >
    <v>       3.58505124       0.00000000       0.00000000 </v>
    <v>       0.00000000       3.58505124       0.00000000 </v>
    <v>       0.00000000       0.00000000       3.58505124 </v>
   </varray>
   <i name="volume">     46.07720238 </i>
   <varray name="rec_basis" >
    <v>       0.27893604       0.00000000       0.00000000 </v>
    <v>       0.00000000       0.27893604       0.00000000 </v>
    <v>       0.00000000       0.00000000       0.27893604 </v>
   </varray>
  </crystal>
  <varray name="positions" >
   <v>       0.00000000       0.00000000       0.00000000 </v>
   <v>       0.00000000       0.50000000       0.50000000 </v>
   <v>       0.50000000       0.00000000       0.50000000 </v>
   <v>       0.50000000       0.50000000       0.00000000 </v>
  </varray>
 </structure>
</modeling>
