    4    4    1    1
  0.1695473E+02  0.4078029E-09  0.4078029E-09  0.4078029E-09  0.5000000E-15
  1.000000000000000E-004
  CAR 
 unknown system                          
   12    1   10
 
  0.2500000E+00  0.2500000E+00  0.2500000E+00  0.1000000E+01
   1       -1.567020
   2        2.762714
   3        2.762714
   4        2.762714
   5        6.980851
   6        6.980851
   7        6.980851
   8       11.109719
   9       11.311570
  10       11.311570
