    7    7    1    2
  0.2544720E+02  0.5626600E-09  0.5626600E-09  0.5626600E-09  0.5000000E-15
  1.000000000000000E-004
  CAR 
 unknown system                          
   61    1   40
 
  0.2500000E+00  0.2500000E+00  0.2500000E+00  0.1000000E+01
   1      -12.528103    -12.514676
   2      -12.501698    -12.489770
   3      -12.501697    -12.489770
   4      -12.472984    -12.462761
   5      -12.448920    -12.439999
   6      -12.448920    -12.439999
   7      -12.424822    -12.417347
   8      -12.424821    -12.417346
   9      -12.419633    -12.412263
  10      -12.407792    -12.401215
  11      -12.407791    -12.401215
  12      -12.394826    -12.388626
  13      -12.393130    -12.388459
  14      -12.379420    -12.375193
  15      -12.379419    -12.375192
  16       -9.208857     -9.051981
  17       -7.997088     -7.825232
  18       -7.997088     -7.825232
  19       -7.708713     -7.518414
  20       -3.705152     -3.609756
  21       -3.705152     -3.609756
  22       -2.266901     -2.126919
  23       -0.696522     -0.583724
  24       -0.696522     -0.583724
  25       -0.552519     -0.365197
  26        0.442599      0.563806
  27        0.598155      0.821195
  28        1.160689      1.324558
  29        1.160689      1.324558
  30        2.422214      2.658134
  31        2.422214      2.658134
  32        4.290912      4.394447
  33        4.653975      4.740015
  34        4.653975      4.740015
  35        6.038910      6.141099
  36        7.012276      7.117635
  37        7.012276      7.117635
  38        7.514224      7.624912
  39        7.514224      7.624912
  40        8.246740      8.372263
