 vasp.5.2.2 15Apr09 complex 
 executed on             LinuxIFC date 2013.11.25  22:24:53
 running on    1 nodes
 distr:  one band on    1 nodes,    1 groups


--------------------------------------------------------------------------------------------------------


 INCAR:
 POTCAR:   PAW_PBE Ga_d 06Sep2000                 
 POTCAR:   PAW_PBE As 06Sep2000                   
 POTCAR:   PAW_PBE Ga_d 06Sep2000                 
   VRHFIN =Ga: s2p1                                                             
   LEXCH  = PE                                                                  
   EATOM  =  2149.0616 eV,  157.9516 Ry                                         
                                                                                
   TITEL  = PAW_PBE Ga_d 06Sep2000                                              
   LULTRA =        F    use ultrasoft PP ?                                      
   IUNSCR =        1    unscreen: 0-lin 1-nonlin 2-no                           
   RPACOR =    2.000    partial core radius                                     
   POMASS =   69.723; ZVAL   =   13.000    mass and valenz                      
   RCORE  =    2.300    outmost cutoff radius                                   
   RWIGS  =    2.300; RWIGS  =    1.217    wigner-seitz radius (au A)           
   ENMAX  =  282.697; ENMIN  =  212.022 eV                                      
   ICORE  =        3    local potential                                         
   LCOR   =        T    correct aug charges                                     
   LPAW   =        T    paw PP                                                  
   EAUG   =  490.690                                                            
   DEXC   =    -.001                                                            
   RMAX   =    2.742    core radius for proj-oper                               
   RAUG   =    1.300    factor for augmentation sphere                          
   RDEP   =    2.413    radius for radial grids                                 
   QCUT   =   -4.558; QGAM   =    9.117    optimization parameters              
                                                                                
   Description                                                                  
     l     E      TYP  RCUT    TYP  RCUT                                        
     2   .000     23  2.300                                                     
     2  -.400     23  2.300                                                     
     0   .000     23  2.300                                                     
     0   .000     23  2.300                                                     
     1   .000     23  2.300                                                     
     1   .000     23  2.300                                                     
     3  -.100      7  2.300                                                     
  local pseudopotential read in
  partial core-charges read in
  atomic valenz-charges read in
  non local Contribution for L=           2  read in
    real space projection operators read in
  non local Contribution for L=           2  read in
    real space projection operators read in
  non local Contribution for L=           0  read in
    real space projection operators read in
  non local Contribution for L=           0  read in
    real space projection operators read in
  non local Contribution for L=           1  read in
    real space projection operators read in
  non local Contribution for L=           1  read in
    real space projection operators read in
    PAW grid and wavefunctions read in
 
   number of l-projection  operators is LMAX  =           6
   number of lm-projection operators is LMMAX =          18
 
 POTCAR:   PAW_PBE As 06Sep2000                   
   VRHFIN =As: s2p3                                                             
   LEXCH  = PE                                                                  
   EATOM  =   170.0753 eV,   12.5002 Ry                                         
                                                                                
   TITEL  = PAW_PBE As 06Sep2000                                                
   LULTRA =        F    use ultrasoft PP ?                                      
   IUNSCR =        1    unscreen: 0-lin 1-nonlin 2-no                           
   RPACOR =    1.900    partial core radius                                     
   POMASS =   74.922; ZVAL   =    5.000    mass and valenz                      
   RCORE  =    2.100    outmost cutoff radius                                   
   RWIGS  =    2.300; RWIGS  =    1.217    wigner-seitz radius (au A)           
   ENMAX  =  208.680; ENMIN  =  156.510 eV                                      
   ICORE  =        3    local potential                                         
   LCOR   =        T    correct aug charges                                     
   LPAW   =        T    paw PP                                                  
   EAUG   =  462.758                                                            
   DEXC   =    -.108                                                            
   RMAX   =    3.192    core radius for proj-oper                               
   RAUG   =    1.300    factor for augmentation sphere                          
   RDEP   =    2.140    radius for radial grids                                 
   QCUT   =   -3.916; QGAM   =    7.833    optimization parameters              
                                                                                
   Description                                                                  
     l     E      TYP  RCUT    TYP  RCUT                                        
     0   .000     23  2.100                                                     
     0   .000     23  2.100                                                     
     1   .000     23  2.100                                                     
     1   .000     23  2.100                                                     
     2   .000     23  2.100                                                     
     3  -.100      7  2.100                                                     
  local pseudopotential read in
  partial core-charges read in
  atomic valenz-charges read in
  non local Contribution for L=           0  read in
    real space projection operators read in
  non local Contribution for L=           0  read in
    real space projection operators read in
  non local Contribution for L=           1  read in
    real space projection operators read in
  non local Contribution for L=           1  read in
    real space projection operators read in
  non local Contribution for L=           2  read in
    real space projection operators read in
    PAW grid and wavefunctions read in
 
   number of l-projection  operators is LMAX  =           5
   number of lm-projection operators is LMMAX =          13
 
 PAW_PBE Ga_d 06Sep2000                 :
 energy of atom  1       EATOM=-2149.0616
 kinetic energy error for atom=    0.0253 (will be added to EATOM!!)
 PAW_PBE As 06Sep2000                   :
 energy of atom  2       EATOM= -170.0753
 kinetic energy error for atom=    0.0022 (will be added to EATOM!!)
 
 
 POSCAR: Ga3 As4                                 
  positions in direct lattice
  velocities in cartesian coordinates
 exchange correlation table for  LEXCH =        8
   RHO(1)=    0.500       N(1)  =     2000
   RHO(2)=  100.500       N(2)  =     4000

 VTST: version 2.03d, (02/18/09)

 CHAIN: initializing optimizer
 
 OPT: Using VASP Dynamics algorithm
 CHAIN: Read ICHAIN            0
 


--------------------------------------------------------------------------------------------------------


 ion  position               nearest neighbor table
   1  0.500  0.500  0.000-   4 2.50   5 2.50   6 2.50   7 2.50
   2  0.000  0.500  0.500-   4 2.50   5 2.50   6 2.50   7 2.50
   3  0.500  0.000  0.500-   4 2.50   5 2.50   6 2.50   7 2.50
   4  0.232  0.232  0.232-   1 2.50   2 2.50   3 2.50
   5  0.768  0.768  0.232-   1 2.50   2 2.50   3 2.50
   6  0.232  0.768  0.768-   1 2.50   2 2.50   3 2.50
   7  0.768  0.232  0.768-   1 2.50   2 2.50   3 2.50
 
  LATTYP: Found a simple cubic cell.
 ALAT       =     5.6266000000
  
  Lattice vectors:
  
 A1 = (   5.6266000000,   0.0000000000,   0.0000000000)
 A2 = (   0.0000000000,   5.6266000000,   0.0000000000)
 A3 = (   0.0000000000,   0.0000000000,   5.6266000000)
 Subroutine PRICEL returns:
 Original cell was already a primitive cell.
 

Analysis of symmetry for initial positions (statically):

 Routine SETGRP: Setting up the symmetry group for a 
 simple cubic supercell.


 Subroutine GETGRP returns: Found 24 space group operations
 (whereof 24 operations were pure point group operations)
 out of a pool of 48 trial point group operations.


The static configuration has the point symmetry T_d .

Analysis of symmetry for dynamics (positions and initial velocities):

 Subroutine DYNSYM returns: Found 24 space group operations
 (whereof 24 operations were pure point group operations)
 out of a pool of 24 trial space group operations
 (whereof 24 operations were pure point group operations)
 and found also     1 'primitive' translations


The dynamic configuration has the point symmetry T_d .

Analysis of magnetic symmetry:

 Subroutine MAGSYM returns: Found 24 space group operations
 (whereof 24 operations were pure point group operations)
 out of a pool of 24 trial space group operations
 (whereof 24 operations were pure point group operations)
 and found also     1 'primitive' translations


The magnetic configuration has the point symmetry T_d .
 
 
 KPOINTS: Automatic kpoint scheme                 

Automatic generation of k-mesh.
 
 Subroutine IBZKPT returns following result:
 ===========================================
 
 Found      1 irreducible k-points:
 
 Following reciprocal coordinates:
            Coordinates               Weight
  0.250000  0.250000  0.250000      8.000000
 
 Following cartesian coordinates:
            Coordinates               Weight
  0.044432  0.044432  0.044432      8.000000
 


--------------------------------------------------------------------------------------------------------




 Dimension of arrays:
   k-points           NKPTS =      1   k-points in BZ     NKDIM =      1   number of bands    NBANDS=     40
   number of dos      NEDOS =    301   number of ions     NIONS =      7
   non local maximal  LDIM  =      6   non local SUM 2l+1 LMDIM =     18
   total plane-waves  NPLWV =  13824
   max r-space proj   IRMAX =      1   max aug-charges    IRDMAX=   3410
   dimension x,y,z NGX =    24 NGY =   24 NGZ =   24
   dimension x,y,z NGXF=    48 NGYF=   48 NGZF=   48
   support grid    NGXF=    48 NGYF=   48 NGZF=   48
   ions per type =               3   4
 NGX,Y,Z   is equivalent  to a cutoff of   7.09,  7.09,  7.09 a.u.
 NGXF,Y,Z  is equivalent  to a cutoff of  14.18, 14.18, 14.18 a.u.


 I would recommend the setting:
   dimension x,y,z NGX =    24 NGY =   24 NGZ =   24
 SYSTEM =  unknown system                          
 POSCAR =  Ga3 As4                                 

 Startparameter for this run:
   NWRITE =      2    write-flag & timer
   PREC   = normal    medium, high low
   ISTART =      0    job   : 0-new  1-cont  2-samecut
   ICHARG =      2    charge: 1-file 2-atom 10-const
   ISPIN  =      2    spin polarized calculation?
   LNONCOLLINEAR =      F non collinear calculations
   LSORBIT =      F    spin-orbit coupling
   INIWAV =      1    electr: 0-lowe 1-rand  2-diag
   LASPH  =      F    aspherical Exc in radial PAW
   METAGGA=      F    non-selfconsistent MetaGGA calc.

 Electronic Relaxation 1
   ENCUT  =  313.0 eV  23.00 Ry    4.80 a.u.   8.12  8.12  8.12*2*pi/ulx,y,z
   ENINI  =  313.0     initial cutoff
   ENAUG  =  490.7 eV  augmentation charge cutoff
   NELM   =     60;   NELMIN=  2; NELMDL= -5     # of ELM steps 
   EDIFF  = 0.1E-03   stopping-criterion for ELM
   LREAL  =      F    real-space projection
   LCOMPAT=      F    compatible to vasp.4.4
   LREAL_COMPAT= F    compatible to vasp.4.5.1-3
   GGA_COMPAT  = T    GGA compatible to vasp.4.4-vasp.4.6
   LMAXPAW     = -100 max onsite density
   LMAXMIX     =    2 max onsite mixed and CHGCAR
   VOSKOWN=      0    Vosko Wilk Nusair interpolation
   ROPT   =    0.00000   0.00000
 Ionic relaxation
   EDIFFG = 0.1E-02   stopping-criterion for IOM
   NSW    =      0    number of steps for IOM
   NBLOCK =      1;   KBLOCK =      1    inner block; outer block 
   IBRION =     -1    ionic relax: 0-MD 1-quasi-New 2-CG
   NFREE  =      0    steps in history (QN), initial steepest desc. (CG)
   ISIF   =      2    stress and relaxation
   IWAVPR =     10    prediction:  0-non 1-charg 2-wave 3-comb
   ISYM   =      2    0-nonsym 1-usesym 2-fastsym
   LCORR  =      T    Harris-Foulkes like correction to forces

   POTIM  = 0.5000    time-step for ionic-motion
   TEIN   =    0.0    initial temperature
   TEBEG  =    0.0;   TEEND  =   0.0 temperature during run
   SMASS  =  -3.00    Nose mass-parameter (am)
   estimated Nose-frequenzy (Omega)   =  0.10E-29 period in steps =****** mass=  -0.723E-27a.u.
   NPACO  =    256;   APACO  = 16.0  distance and # of slots for P.C.
   PSTRESS=    0.0 pullay stress

  Mass of Ions in am
   POMASS =  69.72 74.92
  Ionic Valenz
   ZVAL   =  13.00  5.00
  Atomic Wigner-Seitz radii
   RWIGS  =  -1.00 -1.00
   NELECT =      61.0000    total number of electrons
   NUPDOWN=      -1.0000    fix difference up-down

 DOS related values:
   EMIN   =  10.00;   EMAX   =-10.00  energy-range for DOS
   EFERMI =   0.00
   ISMEAR =     1;   SIGMA  =   0.20  broadening in eV -4-tet -1-fermi 0-gaus

 Electronic relaxation 2 (details)
   IALGO  =     38    algorithm
   LDIAG  =      T    sub-space diagonalisation
   IMIX   =      4    mixing-type and parameters
     AMIX     =   0.40;   BMIX     =  1.00
     AMIX_MAG =   1.60;   BMIX_MAG =  1.00
     AMIN     =   0.10
     WC   =   100.;   INIMIX=   1;  MIXPRE=   1

 Intra band minimization:
   WEIMIN = 0.0000     energy-eigenvalue tresh-hold
   EBREAK =  0.63E-06  absolut break condition
   DEPER  =   0.30     relativ break condition  

   TIME   =   0.40     timestep for ELM

  volume/ion in A,a.u.               =      25.45       171.73
  Fermi-wavevector in a.u.,A,eV,Ry     =   1.145351  2.164400 17.848527  1.311830
  Thomas-Fermi vector in A             =   2.282040
 
 Write flags
   LWAVE  =      F    write WAVECAR
   LCHARG =      F    write CHGCAR
   LVTOT  =      F    write LOCPOT, local potential
   LELF   =      F    write electronic localiz. function (ELF)
   LORBIT =      0    0 simple, 1 ext, 2 COOP (PROOUT)


 Dipole corrections
   LMONO  =      F    monopole corrections only (constant potential shift)
   LDIPOL =      F    correct potential (dipole corrections)
   IDIPOL =      0    1-x, 2-y, 3-z, 4-all directions 
   EPSILON=  1.0000000 bulk dielectric constant

 Exchange correlation treatment:
   GGA     =    --    GGA type
   LEXCH   =     8    internal setting for exchange type
   VOSKOWN=      0    Vosko Wilk Nusair interpolation
   LHFCALC =     F    Hartree Fock is set to
   LHFONE  =     F    Hartree Fock one center treatment
   AEXX    =    0.0000 exact exchange contribution

 Linear response parameters
   LEPSILON=     F    determine dielectric tensor
   LRPA    =     F    only Hartree local field effects (RPA)
   LNABLA  =     F    use nabla operator in PAW spheres
   LVEL    =     F    velocity operator in full k-point grid
   LINTERFAST=   F  fast interpolation
   KINTER  =     0    interpolate to denser k-point grid
   CSHIFT  =0.1000    complex shift for real part using Kramers Kronig
   OMEGAMAX=  -1.0    maximum frequency

 Orbital magnetization related:
   ORBITALMAG=     F  switch on orbital magnetization
   LCHIMAG   =     F  perturbation theory with respect to B field



--------------------------------------------------------------------------------------------------------


 Static calculation
 charge density and potential will be updated during run
 spin polarized calculation
 Variant of blocked Davidson
 Davidson routine will perform the subspace rotation
 perform sub-space diagonalisation
    after iterative eigenvector-optimisation
 modified Broyden-mixing scheme, WC =      100.0
 initial mixing is a Kerker type mixing with AMIX =  0.4000 and BMIX =      1.0000
 Hartree-type preconditioning will be used
 using additional bands            9
 reciprocal scheme for non local part
 use partial core corrections
 calculate Harris-corrections to forces 
   (improved forces if not selfconsistent)
 use gradient corrections 
 use of overlap-Matrix (Vanderbilt PP)
 Methfessel and Paxton  Order N= 1 SIGMA  =   0.20


--------------------------------------------------------------------------------------------------------


  energy-cutoff  :      313.00
  volume of cell :      178.13
      direct lattice vectors                 reciprocal lattice vectors
     5.626600000  0.000000000  0.000000000     0.177727224  0.000000000  0.000000000
     0.000000000  5.626600000  0.000000000     0.000000000  0.177727224  0.000000000
     0.000000000  0.000000000  5.626600000     0.000000000  0.000000000  0.177727224

  length of vectors
     5.626600000  5.626600000  5.626600000     0.177727224  0.177727224  0.177727224


 
 k-points in units of 2pi/SCALE and weight: Automatic kpoint scheme                 
   0.04443181  0.04443181  0.04443181       1.000
 
 k-points in reciprocal lattice and weights: Automatic kpoint scheme                 
   0.25000000  0.25000000  0.25000000       1.000
 
 position of ions in fractional coordinates (direct lattice) 
   0.50000000  0.50000000  0.00000000
   0.00000000  0.50000000  0.50000000
   0.50000000  0.00000000  0.50000000
   0.23165600  0.23165600  0.23165600
   0.76834400  0.76834400  0.23165600
   0.23165600  0.76834400  0.76834400
   0.76834400  0.23165600  0.76834400
 
 position of ions in cartesian coordinates  (Angst):
   2.81330000  2.81330000  0.00000000
   0.00000000  2.81330000  2.81330000
   2.81330000  0.00000000  2.81330000
   1.30343565  1.30343565  1.30343565
   4.32316435  4.32316435  1.30343565
   1.30343565  4.32316435  4.32316435
   4.32316435  1.30343565  4.32316435
 


--------------------------------------------------------------------------------------------------------


 k-point  1 :  0.25000.25000.2500  plane waves:    2238

 maximum and minimum number of plane-waves per node :    2238   2238

 maximum number of plane-waves:    2238
 maximal index in each direction: 
   IXMAX=  7   IYMAX=  7   IZMAX=  7
   IXMIN= -8   IYMIN= -8   IZMIN= -8

 WARNING: aliasing errors must be expected set NGX to  32 to avoid them
 WARNING: aliasing errors must be expected set NGY to  32 to avoid them
 WARNING: aliasing errors must be expected set NGZ to  32 to avoid them
 aliasing errors are usually negligible using standard VASP settings
 and one can safely disregard these warnings

 serial   3D FFT for wavefunctions
 parallel 3D FFT for charge:
    minimum data exchange during FFTs selected (reduces bandwidth)


 total amount of memory used by VASP on root node  48294. kBytes
========================================================================

   base      :    30000. kBytes
   nonl-proj :      895. kBytes
   fftplans  :     3916. kBytes
   grid      :    10266. kBytes
   one-center:      217. kBytes
   wavefun   :     3000. kBytes
 
 Broyden mixing: mesh for mixing (old mesh)
   NGX = 17   NGY = 17   NGZ = 17
  (NGX  = 48   NGY  = 48   NGZ  = 48)
  gives a total of   4913 points

 initial charge density was supplied:
 charge density of overlapping atoms calculated
 number of electron   59.0000000 magnetization    7.0000000
 keeping initial charge density in first step


--------------------------------------------------------------------------------------------------------


 Maximum index for augmentation-charges         3101 (set IRDMAX)


--------------------------------------------------------------------------------------------------------


 First call to EWALD:  gamma=   0.315
 Maximum number of real-space cells 3x 3x 3
 Maximum number of reciprocal cells 3x 3x 3

    FEWALD:  cpu time    0.03: real time    0.01
   RESPFUN:  cpu time    0.01: real time    0.00


----------------------------------------- Iteration    1(   1)  ---------------------------------------


    POTLOK:  cpu time    1.12: real time    0.95
    SETDIJ:  cpu time    0.17: real time    0.17
     EDDAV:  cpu time    5.38: real time    1.36
       DOS:  cpu time    0.00: real time    0.00
    --------------------------------------------
      LOOP:  cpu time    6.67: real time    2.49

 eigenvalue-minimisations  :   184
 total energy-change (2. order) : 0.4391669E+03  (-0.2073342E+04)
 number of electron   59.0000000 magnetization    7.0000000
 augmentation part    59.0000000 magnetization    7.0000000

 Free energy of the ion-electron system (eV)
  ---------------------------------------------------
  alpha Z        PSCENC =       204.23112898
  Ewald energy   TEWEN  =     -3667.69441475
  -1/2 Hartree   DENC   =     -2416.16303548
  -exchange  EXHF       =         0.00000000
  -V(xc)+E(xc)   XCENC  =       140.60908790
  PAW double counting   =      4537.24972380    -5510.40829286
  entropy T*S    EENTRO =         0.00040309
  eigenvalues    EBANDS =        23.94087597
  atomic energy  EATOM  =      7127.40138498
  ---------------------------------------------------
  free energy    TOTEN  =       439.16686162 eV

  energy without entropy =      439.16645853  energy(sigma->0) =      439.16672726


--------------------------------------------------------------------------------------------------------




----------------------------------------- Iteration    1(   2)  ---------------------------------------


     EDDAV:  cpu time    4.54: real time    1.14
       DOS:  cpu time    0.00: real time    0.00
    --------------------------------------------
      LOOP:  cpu time    4.55: real time    1.14

 eigenvalue-minimisations  :   160
 total energy-change (2. order) :-0.3902682E+03  (-0.3736370E+03)
 number of electron   59.0000000 magnetization    7.0000000
 augmentation part    59.0000000 magnetization    7.0000000

 Free energy of the ion-electron system (eV)
  ---------------------------------------------------
  alpha Z        PSCENC =       204.23112898
  Ewald energy   TEWEN  =     -3667.69441475
  -1/2 Hartree   DENC   =     -2416.16303548
  -exchange  EXHF       =         0.00000000
  -V(xc)+E(xc)   XCENC  =       140.60908790
  PAW double counting   =      4537.24972380    -5510.40829286
  entropy T*S    EENTRO =         0.00582979
  eigenvalues    EBANDS =      -366.33275204
  atomic energy  EATOM  =      7127.40138498
  ---------------------------------------------------
  free energy    TOTEN  =        48.89866031 eV

  energy without entropy =       48.89283052  energy(sigma->0) =       48.89671704


--------------------------------------------------------------------------------------------------------




----------------------------------------- Iteration    1(   3)  ---------------------------------------


     EDDAV:  cpu time    5.30: real time    1.35
       DOS:  cpu time    0.00: real time    0.00
    --------------------------------------------
      LOOP:  cpu time    5.30: real time    1.35

 eigenvalue-minimisations  :   200
 total energy-change (2. order) :-0.6787090E+02  (-0.6683343E+02)
 number of electron   59.0000000 magnetization    7.0000000
 augmentation part    59.0000000 magnetization    7.0000000

 Free energy of the ion-electron system (eV)
  ---------------------------------------------------
  alpha Z        PSCENC =       204.23112898
  Ewald energy   TEWEN  =     -3667.69441475
  -1/2 Hartree   DENC   =     -2416.16303548
  -exchange  EXHF       =         0.00000000
  -V(xc)+E(xc)   XCENC  =       140.60908790
  PAW double counting   =      4537.24972380    -5510.40829286
  entropy T*S    EENTRO =        -0.04393360
  eigenvalues    EBANDS =      -434.15388996
  atomic energy  EATOM  =      7127.40138498
  ---------------------------------------------------
  free energy    TOTEN  =       -18.97224100 eV

  energy without entropy =      -18.92830740  energy(sigma->0) =      -18.95759647


--------------------------------------------------------------------------------------------------------




----------------------------------------- Iteration    1(   4)  ---------------------------------------


     EDDAV:  cpu time    5.16: real time    1.31
       DOS:  cpu time    0.00: real time    0.00
    --------------------------------------------
      LOOP:  cpu time    5.17: real time    1.31

 eigenvalue-minimisations  :   192
 total energy-change (2. order) :-0.3091041E+01  (-0.3073506E+01)
 number of electron   59.0000000 magnetization    7.0000000
 augmentation part    59.0000000 magnetization    7.0000000

 Free energy of the ion-electron system (eV)
  ---------------------------------------------------
  alpha Z        PSCENC =       204.23112898
  Ewald energy   TEWEN  =     -3667.69441475
  -1/2 Hartree   DENC   =     -2416.16303548
  -exchange  EXHF       =         0.00000000
  -V(xc)+E(xc)   XCENC  =       140.60908790
  PAW double counting   =      4537.24972380    -5510.40829286
  entropy T*S    EENTRO =        -0.05640356
  eigenvalues    EBANDS =      -437.23246079
  atomic energy  EATOM  =      7127.40138498
  ---------------------------------------------------
  free energy    TOTEN  =       -22.06328179 eV

  energy without entropy =      -22.00687823  energy(sigma->0) =      -22.04448061


--------------------------------------------------------------------------------------------------------




----------------------------------------- Iteration    1(   5)  ---------------------------------------


     EDDAV:  cpu time    5.00: real time    1.26
       DOS:  cpu time    0.00: real time    0.00
    CHARGE:  cpu time    0.22: real time    0.13
    MIXING:  cpu time    0.01: real time    0.01
    --------------------------------------------
      LOOP:  cpu time    5.25: real time    1.40

 eigenvalue-minimisations  :   184
 total energy-change (2. order) :-0.5271027E-01  (-0.5269362E-01)
 number of electron   60.9999035 magnetization    1.6723584
 augmentation part    21.8071171 magnetization    0.6436514

 Broyden mixing:
  rms(total) = 0.12412E+01    rms(broyden)= 0.12321E+01
  rms(prec ) = 0.14944E+01
  weight for this iteration     100.00

 Free energy of the ion-electron system (eV)
  ---------------------------------------------------
  alpha Z        PSCENC =       204.23112898
  Ewald energy   TEWEN  =     -3667.69441475
  -1/2 Hartree   DENC   =     -2416.16303548
  -exchange  EXHF       =         0.00000000
  -V(xc)+E(xc)   XCENC  =       140.60908790
  PAW double counting   =      4537.24972380    -5510.40829286
  entropy T*S    EENTRO =        -0.05641801
  eigenvalues    EBANDS =      -437.28515661
  atomic energy  EATOM  =      7127.40138498
  ---------------------------------------------------
  free energy    TOTEN  =       -22.11599206 eV

  energy without entropy =      -22.05957405  energy(sigma->0) =      -22.09718606


--------------------------------------------------------------------------------------------------------




----------------------------------------- Iteration    1(   6)  ---------------------------------------


    POTLOK:  cpu time    0.49: real time    0.49
    SETDIJ:  cpu time    0.13: real time    0.13
     EDDAV:  cpu time    5.98: real time    1.55
       DOS:  cpu time    0.00: real time    0.00
    CHARGE:  cpu time    0.22: real time    0.12
    MIXING:  cpu time    0.01: real time    0.01
    --------------------------------------------
      LOOP:  cpu time    6.84: real time    2.30

 eigenvalue-minimisations  :   208
 total energy-change (2. order) :-0.1834913E+00  (-0.1972651E+00)
 number of electron   60.9999036 magnetization    1.2376896
 augmentation part    21.9167544 magnetization    0.0461607

 Broyden mixing:
  rms(total) = 0.47345E+00    rms(broyden)= 0.47344E+00
  rms(prec ) = 0.60258E+00
  weight for this iteration     100.00

 eigenvalues of (default mixing * dielectric matrix)
  average eigenvalue GAMMA=   0.7442
  0.7442

 Free energy of the ion-electron system (eV)
  ---------------------------------------------------
  alpha Z        PSCENC =       204.23112898
  Ewald energy   TEWEN  =     -3667.69441475
  -1/2 Hartree   DENC   =     -2406.24887857
  -exchange  EXHF       =         0.00000000
  -V(xc)+E(xc)   XCENC  =       145.84630225
  PAW double counting   =      4613.45334553    -5587.55867006
  entropy T*S    EENTRO =        -0.03648274
  eigenvalues    EBANDS =      -451.69319899
  atomic energy  EATOM  =      7127.40138498
  ---------------------------------------------------
  free energy    TOTEN  =       -22.29948339 eV

  energy without entropy =      -22.26300065  energy(sigma->0) =      -22.28732248


--------------------------------------------------------------------------------------------------------




----------------------------------------- Iteration    1(   7)  ---------------------------------------


    POTLOK:  cpu time    0.49: real time    0.49
    SETDIJ:  cpu time    0.13: real time    0.13
     EDDAV:  cpu time    6.78: real time    1.79
       DOS:  cpu time    0.00: real time    0.00
    CHARGE:  cpu time    0.22: real time    0.12
    MIXING:  cpu time    0.02: real time    0.01
    --------------------------------------------
      LOOP:  cpu time    7.64: real time    2.54

 eigenvalue-minimisations  :   200
 total energy-change (2. order) :-0.1061163E+00  (-0.3788016E-01)
 number of electron   60.9999036 magnetization    1.0485731
 augmentation part    21.9519146 magnetization   -0.1458627

 Broyden mixing:
  rms(total) = 0.18098E+00    rms(broyden)= 0.18098E+00
  rms(prec ) = 0.29822E+00
  weight for this iteration     100.00

 eigenvalues of (default mixing * dielectric matrix)
  average eigenvalue GAMMA=   0.9219
  0.7142  1.1296

 Free energy of the ion-electron system (eV)
  ---------------------------------------------------
  alpha Z        PSCENC =       204.23112898
  Ewald energy   TEWEN  =     -3667.69441475
  -1/2 Hartree   DENC   =     -2404.00595243
  -exchange  EXHF       =         0.00000000
  -V(xc)+E(xc)   XCENC  =       145.82250028
  PAW double counting   =      4660.84353895    -5637.60780923
  entropy T*S    EENTRO =        -0.03281552
  eigenvalues    EBANDS =      -451.36316090
  atomic energy  EATOM  =      7127.40138498
  ---------------------------------------------------
  free energy    TOTEN  =       -22.40559965 eV

  energy without entropy =      -22.37278413  energy(sigma->0) =      -22.39466115


--------------------------------------------------------------------------------------------------------




----------------------------------------- Iteration    1(   8)  ---------------------------------------


    POTLOK:  cpu time    0.51: real time    0.49
    SETDIJ:  cpu time    0.13: real time    0.13
     EDDAV:  cpu time    6.41: real time    1.69
       DOS:  cpu time    0.00: real time    0.00
    CHARGE:  cpu time    0.22: real time    0.12
    MIXING:  cpu time    0.02: real time    0.01
    --------------------------------------------
      LOOP:  cpu time    7.30: real time    2.44

 eigenvalue-minimisations  :   184
 total energy-change (2. order) : 0.1101239E-01  (-0.9351084E-02)
 number of electron   60.9999036 magnetization    1.1244952
 augmentation part    21.9621769 magnetization   -0.0977029

 Broyden mixing:
  rms(total) = 0.75160E-01    rms(broyden)= 0.75160E-01
  rms(prec ) = 0.12697E+00
  weight for this iteration     100.00

 eigenvalues of (default mixing * dielectric matrix)
  average eigenvalue GAMMA=   1.1430
  0.6991  0.8870  1.8429

 Free energy of the ion-electron system (eV)
  ---------------------------------------------------
  alpha Z        PSCENC =       204.23112898
  Ewald energy   TEWEN  =     -3667.69441475
  -1/2 Hartree   DENC   =     -2403.24105290
  -exchange  EXHF       =         0.00000000
  -V(xc)+E(xc)   XCENC  =       145.97257611
  PAW double counting   =      4718.59270076    -5699.17489922
  entropy T*S    EENTRO =        -0.03147214
  eigenvalues    EBANDS =      -448.45053908
  atomic energy  EATOM  =      7127.40138498
  ---------------------------------------------------
  free energy    TOTEN  =       -22.39458727 eV

  energy without entropy =      -22.36311513  energy(sigma->0) =      -22.38409655


--------------------------------------------------------------------------------------------------------




----------------------------------------- Iteration    1(   9)  ---------------------------------------


    POTLOK:  cpu time    0.54: real time    0.51
    SETDIJ:  cpu time    0.13: real time    0.13
     EDDAV:  cpu time    5.16: real time    1.32
       DOS:  cpu time    0.00: real time    0.00
    CHARGE:  cpu time    0.22: real time    0.12
    MIXING:  cpu time    0.03: real time    0.01
    --------------------------------------------
      LOOP:  cpu time    6.12: real time    2.11

 eigenvalue-minimisations  :   192
 total energy-change (2. order) :-0.5487116E-02  (-0.2126931E-02)
 number of electron   60.9999037 magnetization    1.1449608
 augmentation part    21.9629477 magnetization   -0.0763711

 Broyden mixing:
  rms(total) = 0.28760E-01    rms(broyden)= 0.28760E-01
  rms(prec ) = 0.39195E-01
  weight for this iteration     100.00

 eigenvalues of (default mixing * dielectric matrix)
  average eigenvalue GAMMA=   1.2290
  2.4351  1.0221  0.7871  0.6718

 Free energy of the ion-electron system (eV)
  ---------------------------------------------------
  alpha Z        PSCENC =       204.23112898
  Ewald energy   TEWEN  =     -3667.69441475
  -1/2 Hartree   DENC   =     -2403.43309795
  -exchange  EXHF       =         0.00000000
  -V(xc)+E(xc)   XCENC  =       146.08533417
  PAW double counting   =      4753.46088997    -5736.38036373
  entropy T*S    EENTRO =        -0.03124597
  eigenvalues    EBANDS =      -446.03969007
  atomic energy  EATOM  =      7127.40138498
  ---------------------------------------------------
  free energy    TOTEN  =       -22.40007438 eV

  energy without entropy =      -22.36882841  energy(sigma->0) =      -22.38965906


--------------------------------------------------------------------------------------------------------




----------------------------------------- Iteration    1(  10)  ---------------------------------------


    POTLOK:  cpu time    0.53: real time    0.51
    SETDIJ:  cpu time    0.13: real time    0.13
     EDDAV:  cpu time    5.25: real time    1.32
       DOS:  cpu time    0.00: real time    0.00
    CHARGE:  cpu time    0.22: real time    0.12
    MIXING:  cpu time    0.03: real time    0.02
    --------------------------------------------
      LOOP:  cpu time    6.23: real time    2.13

 eigenvalue-minimisations  :   176
 total energy-change (2. order) :-0.1643308E-02  (-0.3325446E-03)
 number of electron   60.9999037 magnetization    1.1396716
 augmentation part    21.9630790 magnetization   -0.0779943

 Broyden mixing:
  rms(total) = 0.92472E-02    rms(broyden)= 0.92471E-02
  rms(prec ) = 0.14579E-01
  weight for this iteration     100.00

 eigenvalues of (default mixing * dielectric matrix)
  average eigenvalue GAMMA=   1.2367
  2.6277  0.6468  0.7471  1.2033  0.9587

 Free energy of the ion-electron system (eV)
  ---------------------------------------------------
  alpha Z        PSCENC =       204.23112898
  Ewald energy   TEWEN  =     -3667.69441475
  -1/2 Hartree   DENC   =     -2403.52908418
  -exchange  EXHF       =         0.00000000
  -V(xc)+E(xc)   XCENC  =       146.11172591
  PAW double counting   =      4758.82935029    -5742.01244402
  entropy T*S    EENTRO =        -0.03147233
  eigenvalues    EBANDS =      -445.70789256
  atomic energy  EATOM  =      7127.40138498
  ---------------------------------------------------
  free energy    TOTEN  =       -22.40171769 eV

  energy without entropy =      -22.37024536  energy(sigma->0) =      -22.39122691


--------------------------------------------------------------------------------------------------------




----------------------------------------- Iteration    1(  11)  ---------------------------------------


    POTLOK:  cpu time    0.59: real time    0.51
    SETDIJ:  cpu time    0.13: real time    0.13
     EDDAV:  cpu time    5.19: real time    1.32
       DOS:  cpu time    0.00: real time    0.00
    CHARGE:  cpu time    0.23: real time    0.13
    MIXING:  cpu time    0.03: real time    0.02
    --------------------------------------------
      LOOP:  cpu time    6.18: real time    2.10

 eigenvalue-minimisations  :   192
 total energy-change (2. order) :-0.3553142E-03  (-0.6246163E-04)
 number of electron   60.9999037 magnetization    1.1352855
 augmentation part    21.9632320 magnetization   -0.0826531

 Broyden mixing:
  rms(total) = 0.42091E-02    rms(broyden)= 0.42090E-02
  rms(prec ) = 0.69702E-02
  weight for this iteration     100.00

 eigenvalues of (default mixing * dielectric matrix)
  average eigenvalue GAMMA=   1.2487
  2.6495  1.5337  0.6380  0.7404  0.9150  1.0159

 Free energy of the ion-electron system (eV)
  ---------------------------------------------------
  alpha Z        PSCENC =       204.23112898
  Ewald energy   TEWEN  =     -3667.69441475
  -1/2 Hartree   DENC   =     -2403.61130402
  -exchange  EXHF       =         0.00000000
  -V(xc)+E(xc)   XCENC  =       146.12106996
  PAW double counting   =      4757.76274579    -5740.81523791
  entropy T*S    EENTRO =        -0.03155053
  eigenvalues    EBANDS =      -445.76589550
  atomic energy  EATOM  =      7127.40138498
  ---------------------------------------------------
  free energy    TOTEN  =       -22.40207300 eV

  energy without entropy =      -22.37052248  energy(sigma->0) =      -22.39155616


--------------------------------------------------------------------------------------------------------




----------------------------------------- Iteration    1(  12)  ---------------------------------------


    POTLOK:  cpu time    0.48: real time    0.48
    SETDIJ:  cpu time    0.13: real time    0.13
     EDDAV:  cpu time    5.63: real time    1.48
       DOS:  cpu time    0.00: real time    0.00
    CHARGE:  cpu time    0.22: real time    0.13
    MIXING:  cpu time    0.04: real time    0.02
    --------------------------------------------
      LOOP:  cpu time    6.58: real time    2.35

 eigenvalue-minimisations  :   144
 total energy-change (2. order) :-0.1405403E-03  (-0.1804295E-04)
 number of electron   60.9999037 magnetization    1.1361152
 augmentation part    21.9633760 magnetization   -0.0814186

 Broyden mixing:
  rms(total) = 0.19272E-02    rms(broyden)= 0.19272E-02
  rms(prec ) = 0.32440E-02
  weight for this iteration     100.00

 eigenvalues of (default mixing * dielectric matrix)
  average eigenvalue GAMMA=   1.3234
  2.6501  2.3245  1.1534  1.0001  0.6312  0.7371  0.7674

 Free energy of the ion-electron system (eV)
  ---------------------------------------------------
  alpha Z        PSCENC =       204.23112898
  Ewald energy   TEWEN  =     -3667.69441475
  -1/2 Hartree   DENC   =     -2403.71776422
  -exchange  EXHF       =         0.00000000
  -V(xc)+E(xc)   XCENC  =       146.12821783
  PAW double counting   =      4756.17257128    -5739.12716034
  entropy T*S    EENTRO =        -0.03154472
  eigenvalues    EBANDS =      -445.76463258
  atomic energy  EATOM  =      7127.40138498
  ---------------------------------------------------
  free energy    TOTEN  =       -22.40221354 eV

  energy without entropy =      -22.37066882  energy(sigma->0) =      -22.39169864


--------------------------------------------------------------------------------------------------------




----------------------------------------- Iteration    1(  13)  ---------------------------------------


    POTLOK:  cpu time    0.58: real time    0.51
    SETDIJ:  cpu time    0.13: real time    0.13
     EDDAV:  cpu time    3.59: real time    0.91
       DOS:  cpu time    0.00: real time    0.00
    --------------------------------------------
      LOOP:  cpu time    4.31: real time    1.55

 eigenvalue-minimisations  :   112
 total energy-change (2. order) :-0.2901539E-04  (-0.4262490E-05)
 number of electron   60.9999037 magnetization    1.1361152
 augmentation part    21.9633760 magnetization   -0.0814186

 Free energy of the ion-electron system (eV)
  ---------------------------------------------------
  alpha Z        PSCENC =       204.23112898
  Ewald energy   TEWEN  =     -3667.69441475
  -1/2 Hartree   DENC   =     -2403.80491197
  -exchange  EXHF       =         0.00000000
  -V(xc)+E(xc)   XCENC  =       146.13293017
  PAW double counting   =      4755.47869046    -5738.41591759
  entropy T*S    EENTRO =        -0.03155533
  eigenvalues    EBANDS =      -445.69957750
  atomic energy  EATOM  =      7127.40138498
  ---------------------------------------------------
  free energy    TOTEN  =       -22.40224256 eV

  energy without entropy =      -22.37068723  energy(sigma->0) =      -22.39172412


--------------------------------------------------------------------------------------------------------




 average (electrostatic) potential at core
  the test charge radii are     1.0314  1.0621
  (the norm of the test charge is              1.0000)
       1 -31.0895       2 -31.0895       3 -31.0895       4 -51.6938       5 -51.6938
       6 -51.6938       7 -51.6938
 
 
 
 E-fermi :   2.6500     XC(G=0):  -9.3438     alpha+bet : -8.1231
   add alpha+bet to get absolut eigen values

 spin component 1

 k-point   1 :       0.2500    0.2500    0.2500
  band No.  band energies     occupation 
      1     -12.5281      1.00000
      2     -12.5017      1.00000
      3     -12.5017      1.00000
      4     -12.4730      1.00000
      5     -12.4489      1.00000
      6     -12.4489      1.00000
      7     -12.4248      1.00000
      8     -12.4248      1.00000
      9     -12.4196      1.00000
     10     -12.4078      1.00000
     11     -12.4078      1.00000
     12     -12.3948      1.00000
     13     -12.3931      1.00000
     14     -12.3794      1.00000
     15     -12.3794      1.00000
     16      -9.2089      1.00000
     17      -7.9971      1.00000
     18      -7.9971      1.00000
     19      -7.7087      1.00000
     20      -3.7052      1.00000
     21      -3.7052      1.00000
     22      -2.2669      1.00000
     23      -0.6965      1.00000
     24      -0.6965      1.00000
     25      -0.5525      1.00000
     26       0.4426      1.00000
     27       0.5982      1.00000
     28       1.1607      1.00000
     29       1.1607      1.00000
     30       2.4222      1.03419
     31       2.4222      1.03419
     32       4.2909      0.00000
     33       4.6540      0.00000
     34       4.6540      0.00000
     35       6.0389      0.00000
     36       7.0123      0.00000
     37       7.0123      0.00000
     38       7.5142      0.00000
     39       7.5142      0.00000
     40       8.2467      0.00000

 spin component 2

 k-point   1 :       0.2500    0.2500    0.2500
  band No.  band energies     occupation 
      1     -12.5147      1.00000
      2     -12.4898      1.00000
      3     -12.4898      1.00000
      4     -12.4628      1.00000
      5     -12.4400      1.00000
      6     -12.4400      1.00000
      7     -12.4173      1.00000
      8     -12.4173      1.00000
      9     -12.4123      1.00000
     10     -12.4012      1.00000
     11     -12.4012      1.00000
     12     -12.3886      1.00000
     13     -12.3885      1.00000
     14     -12.3752      1.00000
     15     -12.3752      1.00000
     16      -9.0520      1.00000
     17      -7.8252      1.00000
     18      -7.8252      1.00000
     19      -7.5184      1.00000
     20      -3.6098      1.00000
     21      -3.6098      1.00000
     22      -2.1269      1.00000
     23      -0.5837      1.00000
     24      -0.5837      1.00000
     25      -0.3652      1.00000
     26       0.5638      1.00000
     27       0.8212      1.00000
     28       1.3246      1.00000
     29       1.3246      1.00000
     30       2.6581      0.46581
     31       2.6581      0.46581
     32       4.3944      0.00000
     33       4.7400      0.00000
     34       4.7400      0.00000
     35       6.1411      0.00000
     36       7.1176      0.00000
     37       7.1176      0.00000
     38       7.6249      0.00000
     39       7.6249      0.00000
     40       8.3723      0.00000


--------------------------------------------------------------------------------------------------------


 soft charge-density along one line, spin component           1
         0         1         2         3         4         5         6         7         8         9
 total charge-density along one line
 
 soft charge-density along one line, spin component           2
         0         1         2         3         4         5         6         7         8         9
 total charge-density along one line
 
 pseudopotential strength for first ion, spin component:           1
-16.151   0.000   0.000   0.000   0.000  10.128   0.000   0.000
  0.000 -16.144   0.000   0.000   0.000   0.000  10.122   0.000
  0.000   0.000 -16.138   0.000   0.000   0.000   0.000  10.117
  0.000   0.000   0.000 -16.144   0.000   0.000   0.000   0.000
  0.000   0.000   0.000   0.000 -16.151   0.000   0.000   0.000
 10.128   0.000   0.000   0.000   0.000  -4.342   0.000   0.000
  0.000  10.122   0.000   0.000   0.000   0.000  -4.338   0.000
  0.000   0.000  10.117   0.000   0.000   0.000   0.000  -4.334
  0.000   0.000   0.000  10.122   0.000   0.000   0.000   0.000
  0.000   0.000   0.000   0.000  10.129   0.000   0.000   0.000
  0.000   0.000   0.001   0.000   0.000   0.000   0.000  -0.002
  0.000   0.000   0.000   0.000   0.000   0.000   0.000   0.000
  0.000   0.000   0.000  -0.001   0.000   0.000   0.000   0.000
 -0.001   0.000   0.000   0.000   0.000   0.001   0.000   0.000
  0.000  -0.001   0.000   0.000   0.000   0.000   0.001   0.000
  0.000   0.000   0.000   0.000   0.000   0.000   0.000   0.000
  0.000   0.000   0.000   0.000   0.000   0.000   0.000   0.000
  0.000   0.000   0.000   0.000   0.000   0.000   0.000   0.000
 pseudopotential strength for first ion, spin component:           2
-16.146   0.000   0.000   0.000   0.000  10.124   0.000   0.000
  0.000 -16.139   0.000   0.000   0.000   0.000  10.118   0.000
  0.000   0.000 -16.135   0.000   0.000   0.000   0.000  10.115
  0.000   0.000   0.000 -16.139   0.000   0.000   0.000   0.000
  0.000   0.000   0.000   0.000 -16.148   0.000   0.000   0.000
 10.124   0.000   0.000   0.000   0.000  -4.337   0.000   0.000
  0.000  10.118   0.000   0.000   0.000   0.000  -4.333   0.000
  0.000   0.000  10.115   0.000   0.000   0.000   0.000  -4.331
  0.000   0.000   0.000  10.118   0.000   0.000   0.000   0.000
  0.000   0.000   0.000   0.000  10.126   0.000   0.000   0.000
  0.000   0.000   0.000   0.000   0.000   0.000   0.000  -0.002
  0.000   0.000   0.000   0.000   0.000   0.000   0.000   0.000
  0.000   0.000   0.000  -0.001   0.000   0.000   0.000   0.000
 -0.001   0.000   0.000   0.000   0.000   0.002   0.000   0.000
  0.000  -0.001   0.000   0.000   0.000   0.000   0.002   0.000
  0.000   0.000   0.000   0.000   0.000   0.000   0.000   0.000
  0.000   0.000   0.000   0.000   0.000   0.000   0.000   0.000
  0.000   0.000   0.000   0.000   0.000   0.000   0.000   0.000
 total augmentation occupancy for first ion, spin component:           1
  2.053   0.000   0.000   0.000   0.000   0.074   0.000   0.000   0.000   0.000   0.000   0.000   0.000   0.111   0.000   0.000
  0.000   2.037   0.000   0.000   0.000   0.000   0.053   0.000   0.000   0.000   0.000   0.000   0.000   0.000   0.108   0.000
  0.000   0.000   2.014   0.000   0.000   0.000   0.000   0.023   0.000   0.000  -0.002   0.013   0.000   0.000   0.000   0.000
  0.000   0.000   0.000   2.037   0.000   0.000   0.000   0.000   0.053   0.000   0.000   0.000   0.108   0.000   0.000  -0.051
  0.000   0.000   0.000   0.000   2.016   0.000   0.000   0.000   0.000   0.022   0.000   0.000   0.000   0.000   0.000   0.000
  0.074   0.000   0.000   0.000   0.000   0.101   0.000   0.000   0.000   0.000   0.000   0.000   0.000   0.192   0.000   0.000
  0.000   0.053   0.000   0.000   0.000   0.000   0.069   0.000   0.000   0.000   0.000   0.000   0.000   0.000   0.187   0.000
  0.000   0.000   0.023   0.000   0.000   0.000   0.000   0.033   0.000   0.000  -0.002   0.017   0.000   0.000   0.000   0.000
  0.000   0.000   0.000   0.053   0.000   0.000   0.000   0.000   0.069   0.000   0.000   0.000   0.187   0.000   0.000  -0.055
  0.000   0.000   0.000   0.000   0.022   0.000   0.000   0.000   0.000   0.025   0.000   0.000   0.000   0.000   0.000   0.000
  0.000   0.000  -0.002   0.000   0.000   0.000   0.000  -0.002   0.000   0.000   1.470  -0.257   0.000   0.000   0.000   0.000
  0.000   0.000   0.013   0.000   0.000   0.000   0.000   0.017   0.000   0.000  -0.257   0.118   0.000   0.000   0.000   0.000
  0.000   0.000   0.000   0.108   0.000   0.000   0.000   0.000   0.187   0.000   0.000   0.000   0.929   0.000   0.000  -0.259
  0.111   0.000   0.000   0.000   0.000   0.192   0.000   0.000   0.000   0.000   0.000   0.000   0.000   0.936   0.000   0.000
  0.000   0.108   0.000   0.000   0.000   0.000   0.187   0.000   0.000   0.000   0.000   0.000   0.000   0.000   0.929   0.000
  0.000   0.000   0.000  -0.051   0.000   0.000   0.000   0.000  -0.055   0.000   0.000   0.000  -0.259   0.000   0.000   0.092
 -0.052   0.000   0.000   0.000   0.000  -0.057   0.000   0.000   0.000   0.000   0.000   0.000   0.000  -0.237   0.000   0.000
  0.000  -0.051   0.000   0.000   0.000   0.000  -0.055   0.000   0.000   0.000   0.000   0.000   0.000   0.000  -0.259   0.000
 total augmentation occupancy for first ion, spin component:           2
  0.003   0.000   0.000   0.000   0.000   0.004   0.000   0.000   0.000   0.000   0.000   0.000   0.000   0.000   0.000   0.000
  0.000   0.002   0.000   0.000   0.000   0.000   0.004   0.000   0.000   0.000   0.000   0.000   0.000   0.000   0.009   0.000
  0.000   0.000   0.001   0.000   0.000   0.000   0.000   0.002   0.000   0.000   0.001   0.000   0.000   0.000   0.000   0.000
  0.000   0.000   0.000   0.002   0.000   0.000   0.000   0.000   0.004   0.000   0.000   0.000   0.009   0.000   0.000  -0.002
  0.000   0.000   0.000   0.000   0.000   0.000   0.000   0.000   0.000   0.000   0.000   0.000   0.000   0.000   0.000   0.000
  0.004   0.000   0.000   0.000   0.000   0.008   0.000   0.000   0.000   0.000   0.000   0.000   0.000   0.000   0.000   0.000
  0.000   0.004   0.000   0.000   0.000   0.000   0.007   0.000   0.000   0.000   0.000   0.000   0.000   0.000   0.016   0.000
  0.000   0.000   0.002   0.000   0.000   0.000   0.000   0.003   0.000   0.000   0.002   0.001   0.000   0.000   0.000   0.000
  0.000   0.000   0.000   0.004   0.000   0.000   0.000   0.000   0.007   0.000   0.000   0.000   0.016   0.000   0.000  -0.003
  0.000   0.000   0.000   0.000   0.000   0.000   0.000   0.000   0.000   0.000   0.000   0.000   0.000   0.000   0.000   0.000
  0.000   0.000   0.001   0.000   0.000   0.000   0.000   0.002   0.000   0.000  -0.008  -0.005   0.000   0.000   0.000   0.000
  0.000   0.000   0.000   0.000   0.000   0.000   0.000   0.001   0.000   0.000  -0.005   0.002   0.000   0.000   0.000   0.000
  0.000   0.000   0.000   0.009   0.000   0.000   0.000   0.000   0.016   0.000   0.000   0.000   0.038   0.000   0.000  -0.006
  0.000   0.000   0.000   0.000   0.000   0.000   0.000   0.000   0.000   0.000   0.000   0.000   0.000  -0.001   0.000   0.000
  0.000   0.009   0.000   0.000   0.000   0.000   0.016   0.000   0.000   0.000   0.000   0.000   0.000   0.000   0.038   0.000
  0.000   0.000   0.000  -0.002   0.000   0.000   0.000   0.000  -0.003   0.000   0.000   0.000  -0.006   0.000   0.000   0.002
 -0.001   0.000   0.000   0.000   0.000  -0.001   0.000   0.000   0.000   0.000   0.000   0.000   0.000  -0.003   0.000   0.000
  0.000  -0.002   0.000   0.000   0.000   0.000  -0.003   0.000   0.000   0.000   0.000   0.000   0.000   0.000  -0.006   0.000


------------------------ aborting loop because EDIFF is reached ----------------------------------------




--------------------------------------------------------------------------------------------------------



  FREE ENERGIE OF THE ION-ELECTRON SYSTEM (eV)
  ---------------------------------------------------
  free  energy   TOTEN  =       -22.402243 eV

  energy  without entropy=      -22.370687  energy(sigma->0) =      -22.391724
 
    CHARGE:  cpu time    0.20: real time    0.13
    FORLOC:  cpu time    0.03: real time    0.03
    FORNL :  cpu time    0.69: real time    0.69
    STRESS:  cpu time    2.76: real time    0.89
    FORCOR:  cpu time    0.56: real time    0.56
    FORHAR:  cpu time    0.08: real time    0.08
    MIXING:  cpu time    0.05: real time    0.02

  FORCE on cell =-STRESS in cart. coord.  units (eV):
  Direction    XX          YY          ZZ          XY          YZ          ZX
  --------------------------------------------------------------------------------------
  Alpha Z   204.23113   204.23113   204.23113
  Ewald   -1222.56607 -1222.56607 -1222.56607     0.00000     0.00000     0.00000
  Hartree   801.29383   801.29383   801.29383     0.00000     0.00000     0.00000
  E(xc)    -305.48195  -305.48195  -305.48195     0.00000     0.00000     0.00000
  Local     166.33789   166.33789   166.33789     0.00000     0.00000     0.00000
  n-local   112.66880   112.66881   112.66878    -2.45619    -2.45618    -2.45618
  augment  -134.31010  -134.31011  -134.31009    -0.00001     0.00000     0.00000
  Kinetic   391.63602   391.63602   391.63601    -7.42415    -7.42415    -7.42415
  Fock        0.00000     0.00000     0.00000     0.00000     0.00000     0.00000
  -------------------------------------------------------------------------------------
  Total      13.80954    13.80954    13.80954     0.00000     0.00000     0.00000
  in kB     124.20861   124.20861   124.20861     0.00000     0.00000     0.00000
  external pressure =      124.21 kB  Pullay stress =        0.00 kB


 VOLUME and BASIS-vectors are now :
 -----------------------------------------------------------------------------
  energy-cutoff  :      313.00
  volume of cell :      178.13
      direct lattice vectors                 reciprocal lattice vectors
     5.626600000  0.000000000  0.000000000     0.177727224  0.000000000  0.000000000
     0.000000000  5.626600000  0.000000000     0.000000000  0.177727224  0.000000000
     0.000000000  0.000000000  5.626600000     0.000000000  0.000000000  0.177727224

  length of vectors
     5.626600000  5.626600000  5.626600000     0.177727224  0.177727224  0.177727224


 FORCES acting on ions
    electron-ion (+dipol)            ewald-force                    non-local-force                 convergence-correction
 -----------------------------------------------------------------------------------------------
   0.951E-12 -.371E-11 -.471E-11   0.888E-14 -.888E-14 0.133E-13   -.416E-16 0.000E+00 0.000E+00   -.238E-12 -.175E-12 0.359E-12
   0.127E-12 0.898E-12 0.495E-12   -.151E-13 -.266E-14 0.266E-14   0.000E+00 0.694E-16 0.000E+00   -.159E-12 -.186E-12 0.154E-12
   0.948E-12 0.595E-13 -.524E-11   0.888E-14 0.711E-14 -.115E-13   0.000E+00 0.000E+00 0.139E-16   -.186E-12 -.185E-12 0.196E-12
   0.634E+02 0.634E+02 0.634E+02   -.657E+02 -.657E+02 -.657E+02   0.225E+01 0.225E+01 0.225E+01   -.240E-02 -.240E-02 -.241E-02
   -.634E+02 -.634E+02 0.634E+02   0.657E+02 0.657E+02 -.657E+02   -.225E+01 -.225E+01 0.225E+01   0.240E-02 0.240E-02 -.241E-02
   0.634E+02 -.634E+02 -.634E+02   -.657E+02 0.657E+02 0.657E+02   0.225E+01 -.225E+01 -.225E+01   -.240E-02 0.240E-02 0.241E-02
   -.634E+02 0.634E+02 -.634E+02   0.657E+02 -.657E+02 0.657E+02   -.225E+01 0.225E+01 -.225E+01   0.240E-02 -.240E-02 0.241E-02
 -----------------------------------------------------------------------------------------------
   -.614E-06 -.614E-06 0.205E-07   -.142E-13 0.000E+00 0.000E+00   -.133E-14 -.133E-14 -.888E-15   -.611E-12 -.534E-12 0.723E-12
 
 
 POSITION                                       TOTAL-FORCE (eV/Angst)
 -----------------------------------------------------------------------------------
      2.81330      2.81330      0.00000         0.000000      0.000000      0.000000
      0.00000      2.81330      2.81330         0.000000      0.000000      0.000000
      2.81330      0.00000      2.81330         0.000000      0.000000      0.000000
      1.30344      1.30344      1.30344        -0.008439     -0.008439     -0.008439
      4.32316      4.32316      1.30344         0.008439      0.008439     -0.008439
      1.30344      4.32316      4.32316        -0.008439      0.008439      0.008439
      4.32316      1.30344      4.32316         0.008439     -0.008439      0.008439
 -----------------------------------------------------------------------------------
    total drift:                               -0.000001     -0.000001      0.000000


--------------------------------------------------------------------------------------------------------


    POTLOK:  cpu time    0.80: real time    0.67


--------------------------------------------------------------------------------------------------------


  FORCES: max atom, RMS     0.014617    0.011049
  FORCE total and by dimension    0.029234    0.008439
     LOOP+:  cpu time   83.51: real time   28.44
    4ORBIT:  cpu time    0.00: real time    0.00

 total amount of memory used by VASP on root node  48294. kBytes
========================================================================

   base      :    30000. kBytes
   nonl-proj :      895. kBytes
   fftplans  :     3916. kBytes
   grid      :    10266. kBytes
   one-center:      217. kBytes
   wavefun   :     3000. kBytes
 
  
  
 General timing and accounting informations for this job:
 ========================================================
  
                  Total CPU time used (sec):       85.145
                            User time (sec):       84.502
                          System time (sec):        0.643
                         Elapsed time (sec):       29.494
  
                   Maximum memory used (kb):           0.
                   Average memory used (kb):           0.
  
                          Minor page faults:        34128
                          Major page faults:            0
                 Voluntary context switches:          369
