   7   7   0   0
  0.2544720E+02  0.5626600E-09  0.5626600E-09  0.5626600E-09  0.5000000E-15
  1.000000000000000E-004
  CAR 
 unknown system                          
     10.47535648    -14.53090355  301      2.50362665      1.00000000
    -14.531  0.0000E+00  0.0000E+00  0.0000E+00  0.0000E+00
    -14.448  0.0000E+00  0.0000E+00  0.0000E+00  0.0000E+00
    -14.364  0.0000E+00  0.0000E+00  0.0000E+00  0.0000E+00
    -14.281  0.0000E+00  0.0000E+00  0.0000E+00  0.0000E+00
    -14.197 -0.1968E-30  0.0000E+00 -0.1640E-31  0.0000E+00
    -14.114 -0.2012E-27 -0.2683E-28 -0.1679E-28 -0.2237E-29
    -14.031 -0.1205E-24 -0.1800E-25 -0.1006E-25 -0.1503E-26
    -13.947 -0.5098E-22 -0.8507E-23 -0.4260E-23 -0.7106E-24
    -13.864 -0.1523E-19 -0.2840E-20 -0.1274E-20 -0.2374E-21
    -13.781 -0.3214E-17 -0.6697E-18 -0.2691E-18 -0.5606E-19
    -13.697 -0.4721E-15 -0.1115E-15 -0.3962E-16 -0.9353E-17
    -13.614 -0.4872E-13 -0.1271E-13 -0.4100E-14 -0.1069E-14
    -13.531 -0.3597E-11 -0.1050E-11 -0.3039E-12 -0.8862E-13
    -13.447 -0.1872E-09 -0.6122E-10 -0.1591E-10 -0.5192E-11
    -13.364 -0.6859E-08 -0.2515E-08 -0.5876E-09 -0.2148E-09
    -13.281 -0.1767E-06 -0.7272E-07 -0.1532E-07 -0.6276E-08
    -13.197 -0.3196E-05 -0.1477E-05 -0.2817E-06 -0.1294E-06
    -13.114 -0.4040E-04 -0.2103E-04 -0.3649E-05 -0.1882E-05
    -13.031 -0.3546E-03 -0.2083E-03 -0.3321E-04 -0.1924E-04
    -12.947 -0.2130E-02 -0.1418E-02 -0.2108E-03 -0.1375E-03
    -12.864 -0.8465E-02 -0.6453E-02 -0.9164E-03 -0.6754E-03
    -12.780 -0.2009E-01 -0.1818E-01 -0.2591E-02 -0.2190E-02
    -12.697 -0.1570E-01 -0.2279E-01 -0.3900E-02 -0.4090E-02
    -12.614  0.6523E-01  0.3569E-01  0.1537E-02 -0.1115E-02
    -12.530  0.2668E+00  0.2199E+00  0.2377E-01  0.1722E-01
    -12.447  0.4966E+00  0.4685E+00  0.6517E-01  0.5627E-01
    -12.364  0.5536E+00  0.5730E+00  0.1113E+00  0.1040E+00
    -12.280  0.3754E+00  0.4224E+00  0.1426E+00  0.1392E+00
    -12.197  0.1331E+00  0.1679E+00  0.1537E+00  0.1532E+00
    -12.114 -0.1515E-02  0.8940E-02  0.1536E+00  0.1540E+00
    -12.030 -0.2557E-01 -0.2696E-01  0.1514E+00  0.1517E+00
    -11.947 -0.1304E-01 -0.1536E-01  0.1504E+00  0.1505E+00
    -11.864 -0.3582E-02 -0.4484E-02  0.1501E+00  0.1501E+00
    -11.780 -0.6246E-03 -0.8200E-03  0.1500E+00  0.1500E+00
    -11.697 -0.7279E-04 -0.9969E-04  0.1500E+00  0.1500E+00
    -11.614 -0.5803E-05 -0.8265E-05  0.1500E+00  0.1500E+00
    -11.530 -0.3202E-06 -0.4734E-06  0.1500E+00  0.1500E+00
    -11.447 -0.1232E-07 -0.1888E-07  0.1500E+00  0.1500E+00
    -11.363 -0.3317E-09 -0.5264E-09  0.1500E+00  0.1500E+00
    -11.280 -0.6272E-11 -0.1030E-10  0.1500E+00  0.1500E+00
    -11.197 -0.8341E-13 -0.1416E-12  0.1500E+00  0.1500E+00
    -11.113 -0.7459E-15 -0.1385E-14  0.1500E+00  0.1500E+00
    -11.030  0.0000E+00  0.0000E+00  0.1500E+00  0.1500E+00
    -10.947 -0.2211E-28  0.0000E+00  0.1500E+00  0.1500E+00
    -10.863 -0.1435E-25  0.0000E+00  0.1500E+00  0.1500E+00
    -10.780 -0.6563E-23  0.0000E+00  0.1500E+00  0.1500E+00
    -10.697 -0.2114E-20 -0.2251E-30  0.1500E+00  0.1500E+00
    -10.613 -0.4789E-18 -0.1853E-27  0.1500E+00  0.1500E+00
    -10.530 -0.7630E-16 -0.1075E-24  0.1500E+00  0.1500E+00
    -10.447 -0.8267E-14 -0.4391E-22  0.1500E+00  0.1500E+00
    -10.363 -0.6456E-12 -0.1263E-19  0.1500E+00  0.1500E+00
    -10.280 -0.3528E-10 -0.2554E-17  0.1500E+00  0.1500E+00
    -10.196 -0.1345E-08 -0.3498E-15  0.1500E+00  0.1500E+00
    -10.113 -0.3565E-07 -0.3504E-13  0.1500E+00  0.1500E+00
    -10.030 -0.6530E-06 -0.2440E-11  0.1500E+00  0.1500E+00
     -9.946 -0.8195E-05 -0.1187E-09  0.1500E+00  0.1500E+00
     -9.863 -0.6940E-04 -0.4028E-08  0.1500E+00  0.1500E+00
     -9.780 -0.3852E-03 -0.9484E-07  0.1500E+00  0.1500E+00
     -9.696 -0.1310E-02 -0.1540E-05  0.1499E+00  0.1500E+00
     -9.613 -0.2146E-02 -0.1706E-04  0.1497E+00  0.1500E+00
     -9.530  0.1508E-02 -0.1266E-03  0.1498E+00  0.1500E+00
     -9.446  0.1542E-01 -0.6064E-03  0.1511E+00  0.1499E+00
     -9.363  0.3451E-01 -0.1706E-02  0.1540E+00  0.1498E+00
     -9.280  0.4084E-01 -0.1793E-02  0.1574E+00  0.1496E+00
     -9.196  0.2720E-01  0.4769E-02  0.1596E+00  0.1500E+00
     -9.113  0.8461E-02  0.2176E-01  0.1603E+00  0.1519E+00
     -9.030 -0.9694E-03  0.3879E-01  0.1603E+00  0.1551E+00
     -8.946 -0.1993E-02  0.3823E-01  0.1601E+00  0.1583E+00
     -8.863 -0.8530E-03  0.2073E-01  0.1600E+00  0.1600E+00
     -8.779 -0.2136E-03  0.4170E-02  0.1600E+00  0.1604E+00
     -8.696 -0.1300E-03 -0.1888E-02  0.1600E+00  0.1602E+00
     -8.613 -0.5980E-03 -0.1644E-02  0.1599E+00  0.1601E+00
     -8.529 -0.2219E-02 -0.5671E-03  0.1598E+00  0.1600E+00
     -8.446 -0.4307E-02 -0.1254E-03  0.1594E+00  0.1600E+00
     -8.363  0.3650E-03 -0.1071E-03  0.1594E+00  0.1600E+00
     -8.279  0.2391E-01 -0.5602E-03  0.1614E+00  0.1599E+00
     -8.196  0.6141E-01 -0.2127E-02  0.1665E+00  0.1598E+00
     -8.113  0.8127E-01 -0.4261E-02  0.1733E+00  0.1594E+00
     -8.029  0.6791E-01 -0.2407E-04  0.1790E+00  0.1594E+00
     -7.946  0.4763E-01  0.2291E-01  0.1829E+00  0.1613E+00
     -7.863  0.4001E-01  0.6056E-01  0.1863E+00  0.1664E+00
     -7.779  0.3176E-01  0.8048E-01  0.1889E+00  0.1731E+00
     -7.696  0.1522E-01  0.6389E-01  0.1902E+00  0.1784E+00
     -7.613  0.1828E-02  0.3929E-01  0.1903E+00  0.1817E+00
     -7.529 -0.2184E-02  0.3483E-01  0.1902E+00  0.1846E+00
     -7.446 -0.1439E-02  0.3654E-01  0.1900E+00  0.1876E+00
     -7.362 -0.4448E-03  0.2488E-01  0.1900E+00  0.1897E+00
     -7.279 -0.8361E-04  0.7770E-02  0.1900E+00  0.1903E+00
     -7.196 -0.1027E-04 -0.1096E-02  0.1900E+00  0.1903E+00
     -7.112 -0.8494E-06 -0.1996E-02  0.1900E+00  0.1901E+00
     -7.029 -0.4808E-07 -0.8449E-03  0.1900E+00  0.1900E+00
     -6.946 -0.1880E-08 -0.2000E-03  0.1900E+00  0.1900E+00
     -6.862 -0.5108E-10 -0.3009E-04  0.1900E+00  0.1900E+00
     -6.779 -0.9679E-12 -0.3012E-05  0.1900E+00  0.1900E+00
     -6.696 -0.1281E-13 -0.2049E-06  0.1900E+00  0.1900E+00
     -6.612 -0.1332E-15 -0.9593E-08  0.1900E+00  0.1900E+00
     -6.529  0.0000E+00 -0.3112E-09  0.1900E+00  0.1900E+00
     -6.446  0.0000E+00 -0.7029E-11  0.1900E+00  0.1900E+00
     -6.362  0.0000E+00 -0.1109E-12  0.1900E+00  0.1900E+00
     -6.279  0.0000E+00 -0.1225E-14  0.1900E+00  0.1900E+00
     -6.195  0.0000E+00  0.0000E+00  0.1900E+00  0.1900E+00
     -6.112  0.0000E+00  0.0000E+00  0.1900E+00  0.1900E+00
     -6.029  0.0000E+00  0.0000E+00  0.1900E+00  0.1900E+00
     -5.945  0.0000E+00  0.0000E+00  0.1900E+00  0.1900E+00
     -5.862  0.0000E+00  0.0000E+00  0.1900E+00  0.1900E+00
     -5.779  0.0000E+00  0.0000E+00  0.1900E+00  0.1900E+00
     -5.695  0.0000E+00  0.0000E+00  0.1900E+00  0.1900E+00
     -5.612  0.0000E+00  0.0000E+00  0.1900E+00  0.1900E+00
     -5.529  0.0000E+00  0.0000E+00  0.1900E+00  0.1900E+00
     -5.445  0.0000E+00  0.0000E+00  0.1900E+00  0.1900E+00
     -5.362 -0.1462E-28  0.0000E+00  0.1900E+00  0.1900E+00
     -5.279 -0.1005E-25  0.0000E+00  0.1900E+00  0.1900E+00
     -5.195 -0.4873E-23 -0.6080E-29  0.1900E+00  0.1900E+00
     -5.112 -0.1664E-20 -0.4377E-26  0.1900E+00  0.1900E+00
     -5.029 -0.3996E-18 -0.2221E-23  0.1900E+00  0.1900E+00
     -4.945 -0.6749E-16 -0.7937E-21  0.1900E+00  0.1900E+00
     -4.862 -0.7757E-14 -0.1996E-18  0.1900E+00  0.1900E+00
     -4.778 -0.6428E-12 -0.3529E-16  0.1900E+00  0.1900E+00
     -4.695 -0.3727E-10 -0.4253E-14  0.1900E+00  0.1900E+00
     -4.612 -0.1509E-08 -0.3689E-12  0.1900E+00  0.1900E+00
     -4.528 -0.4248E-07 -0.2241E-10  0.1900E+00  0.1900E+00
     -4.445 -0.8278E-06 -0.9509E-09  0.1900E+00  0.1900E+00
     -4.362 -0.1107E-04 -0.2808E-07  0.1900E+00  0.1900E+00
     -4.278 -0.1002E-03 -0.5742E-06  0.1900E+00  0.1900E+00
     -4.195 -0.5984E-03 -0.8069E-05  0.1899E+00  0.1900E+00
     -4.112 -0.2226E-02 -0.7694E-04  0.1898E+00  0.1900E+00
     -4.028 -0.4285E-02 -0.4861E-03  0.1894E+00  0.1900E+00
     -3.945  0.5865E-03 -0.1934E-02  0.1894E+00  0.1898E+00
     -3.862  0.2481E-01 -0.4156E-02  0.1915E+00  0.1894E+00
     -3.778  0.6344E-01 -0.9198E-03  0.1968E+00  0.1894E+00
     -3.695  0.8259E-01  0.2039E-01  0.2037E+00  0.1911E+00
     -3.612  0.6073E-01  0.5865E-01  0.2087E+00  0.1960E+00
     -3.528  0.2223E-01  0.8242E-01  0.2106E+00  0.2028E+00
     -3.445 -0.3188E-03  0.6539E-01  0.2106E+00  0.2083E+00
     -3.361 -0.4222E-02  0.2678E-01  0.2102E+00  0.2105E+00
     -3.278 -0.2056E-02  0.1335E-02  0.2101E+00  0.2106E+00
     -3.195 -0.5317E-03 -0.4309E-02  0.2100E+00  0.2103E+00
     -3.111 -0.8620E-04 -0.2356E-02  0.2100E+00  0.2101E+00
     -3.028 -0.9482E-05 -0.6523E-03  0.2100E+00  0.2100E+00
     -2.945 -0.4134E-05 -0.1119E-03  0.2100E+00  0.2100E+00
     -2.861 -0.3386E-04 -0.1265E-04  0.2100E+00  0.2100E+00
     -2.778 -0.2195E-03 -0.1083E-05  0.2100E+00  0.2100E+00
     -2.695 -0.9012E-03 -0.1901E-05  0.2099E+00  0.2100E+00
     -2.611 -0.2033E-02 -0.1994E-04  0.2097E+00  0.2100E+00
     -2.528 -0.7611E-03 -0.1436E-03  0.2097E+00  0.2100E+00
     -2.445  0.9200E-02 -0.6655E-03  0.2104E+00  0.2099E+00
     -2.361  0.2813E-01 -0.1788E-02  0.2128E+00  0.2098E+00
     -2.278  0.4104E-01 -0.1631E-02  0.2162E+00  0.2096E+00
     -2.194  0.3374E-01  0.5653E-02  0.2190E+00  0.2101E+00
     -2.111  0.1453E-01  0.2320E-01  0.2202E+00  0.2121E+00
     -2.028  0.1125E-02  0.3947E-01  0.2203E+00  0.2153E+00
     -1.944 -0.2156E-02  0.3738E-01  0.2201E+00  0.2185E+00
     -1.861 -0.1252E-02  0.1931E-01  0.2200E+00  0.2201E+00
     -1.778 -0.3585E-03  0.3389E-02  0.2200E+00  0.2203E+00
     -1.694 -0.6322E-04 -0.1994E-02  0.2200E+00  0.2202E+00
     -1.611 -0.7323E-05 -0.1558E-02  0.2200E+00  0.2201E+00
     -1.528 -0.5962E-06 -0.5138E-03  0.2200E+00  0.2200E+00
     -1.444 -0.5248E-06 -0.1013E-03  0.2200E+00  0.2200E+00
     -1.361 -0.7195E-05 -0.1299E-04  0.2200E+00  0.2200E+00
     -1.278 -0.7152E-04 -0.1212E-05  0.2200E+00  0.2200E+00
     -1.194 -0.4763E-03 -0.1729E-05  0.2200E+00  0.2200E+00
     -1.111 -0.2040E-02 -0.2018E-04  0.2198E+00  0.2200E+00
     -1.028 -0.5021E-02 -0.1648E-03  0.2194E+00  0.2200E+00
     -0.944 -0.3598E-02 -0.8792E-03  0.2191E+00  0.2199E+00
     -0.861  0.1787E-01 -0.2851E-02  0.2206E+00  0.2197E+00
     -0.777  0.6626E-01 -0.4284E-02  0.2261E+00  0.2193E+00
     -0.694  0.1112E+00  0.4156E-02  0.2353E+00  0.2197E+00
     -0.611  0.1087E+00  0.3288E-01  0.2444E+00  0.2224E+00
     -0.527  0.6195E-01  0.6963E-01  0.2496E+00  0.2282E+00
     -0.444  0.1584E-01  0.8277E-01  0.2509E+00  0.2351E+00
     -0.361 -0.3569E-02  0.6757E-01  0.2506E+00  0.2407E+00
     -0.277 -0.4664E-02  0.4986E-01  0.2502E+00  0.2449E+00
     -0.194 -0.1933E-02  0.3786E-01  0.2500E+00  0.2481E+00
     -0.111 -0.6324E-03  0.2203E-01  0.2500E+00  0.2499E+00
     -0.027 -0.8602E-03  0.5918E-02  0.2499E+00  0.2504E+00
      0.056 -0.2123E-02 -0.1625E-02  0.2497E+00  0.2502E+00
      0.139 -0.2241E-02 -0.2255E-02  0.2496E+00  0.2501E+00
      0.223  0.4963E-02 -0.1844E-02  0.2500E+00  0.2499E+00
      0.306  0.2443E-01 -0.2304E-02  0.2520E+00  0.2497E+00
      0.389  0.4942E-01 -0.6202E-04  0.2561E+00  0.2497E+00
      0.473  0.6406E-01  0.1142E-01  0.2615E+00  0.2507E+00
      0.556  0.5804E-01  0.3032E-01  0.2663E+00  0.2532E+00
      0.640  0.3469E-01  0.3983E-01  0.2692E+00  0.2565E+00
      0.723  0.8718E-02  0.2923E-01  0.2699E+00  0.2589E+00
      0.806 -0.3070E-02  0.1467E-01  0.2697E+00  0.2602E+00
      0.890  0.1096E-01  0.1777E-01  0.2706E+00  0.2616E+00
      0.973  0.4846E-01  0.3258E-01  0.2746E+00  0.2644E+00
      1.056  0.7994E-01  0.3482E-01  0.2813E+00  0.2673E+00
      1.140  0.7243E-01  0.2278E-01  0.2873E+00  0.2692E+00
      1.223  0.3529E-01  0.2529E-01  0.2903E+00  0.2713E+00
      1.306  0.5075E-02  0.5536E-01  0.2907E+00  0.2759E+00
      1.390 -0.4165E-02  0.8031E-01  0.2903E+00  0.2826E+00
      1.473 -0.2906E-02  0.6628E-01  0.2901E+00  0.2881E+00
      1.556 -0.9128E-03  0.2836E-01  0.2900E+00  0.2905E+00
      1.640 -0.1835E-03  0.2006E-02  0.2900E+00  0.2906E+00
      1.723 -0.1170E-03 -0.4316E-02  0.2900E+00  0.2903E+00
      1.807 -0.5782E-03 -0.2469E-02  0.2899E+00  0.2901E+00
      1.890 -0.2171E-02 -0.7015E-03  0.2898E+00  0.2900E+00
      1.973 -0.4268E-02 -0.1230E-03  0.2894E+00  0.2900E+00
      2.057  0.2861E-03 -0.1568E-04  0.2894E+00  0.2900E+00
      2.140  0.2398E-01 -0.1981E-04  0.2914E+00  0.2900E+00
      2.223  0.6259E-01 -0.1549E-03  0.2966E+00  0.2900E+00
      2.307  0.8262E-01 -0.8379E-03  0.3035E+00  0.2899E+00
      2.390  0.6160E-01 -0.2761E-02  0.3087E+00  0.2897E+00
      2.473  0.2304E-01 -0.4245E-02  0.3106E+00  0.2893E+00
      2.557 -0.4309E-04  0.3991E-02  0.3106E+00  0.2897E+00
      2.640 -0.4246E-02  0.3302E-01  0.3102E+00  0.2924E+00
      2.723 -0.2109E-02  0.7078E-01  0.3101E+00  0.2983E+00
      2.807 -0.5522E-03  0.8108E-01  0.3100E+00  0.3051E+00
      2.890 -0.9044E-04  0.5214E-01  0.3100E+00  0.3094E+00
      2.973 -0.9790E-05  0.1523E-01  0.3100E+00  0.3107E+00
      3.057 -0.7180E-06 -0.2381E-02  0.3100E+00  0.3105E+00
      3.140 -0.3616E-07 -0.3880E-02  0.3100E+00  0.3102E+00
      3.224 -0.1261E-08 -0.1592E-02  0.3100E+00  0.3100E+00
      3.307 -0.4022E-10 -0.3682E-03  0.3100E+00  0.3100E+00
      3.390 -0.4155E-09 -0.5427E-04  0.3100E+00  0.3100E+00
      3.474 -0.1243E-07 -0.5328E-05  0.3100E+00  0.3100E+00
      3.557 -0.2577E-06 -0.3559E-06  0.3100E+00  0.3100E+00
      3.640 -0.3674E-05 -0.1945E-07  0.3100E+00  0.3100E+00
      3.724 -0.3557E-04 -0.7545E-07  0.3100E+00  0.3100E+00
      3.807 -0.2284E-03 -0.1253E-05  0.3100E+00  0.3100E+00
      3.890 -0.9265E-03 -0.1431E-04  0.3099E+00  0.3100E+00
      3.974 -0.2052E-02 -0.1097E-03  0.3097E+00  0.3100E+00
      4.057 -0.6512E-03 -0.5454E-03  0.3097E+00  0.3099E+00
      4.140  0.9550E-02 -0.1611E-02  0.3105E+00  0.3098E+00
      4.224  0.2836E-01 -0.1936E-02  0.3128E+00  0.3096E+00
      4.307  0.3997E-01  0.3826E-02  0.3162E+00  0.3100E+00
      4.390  0.3003E-01  0.1994E-01  0.3187E+00  0.3116E+00
      4.474  0.1033E-01  0.3673E-01  0.3195E+00  0.3147E+00
      4.557  0.9465E-02  0.3570E-01  0.3203E+00  0.3177E+00
      4.641  0.3963E-01  0.1865E-01  0.3236E+00  0.3192E+00
      4.724  0.7542E-01  0.1415E-01  0.3299E+00  0.3204E+00
      4.807  0.7706E-01  0.4096E-01  0.3363E+00  0.3238E+00
      4.891  0.4314E-01  0.7539E-01  0.3399E+00  0.3301E+00
      4.974  0.9341E-02  0.7629E-01  0.3407E+00  0.3365E+00
      5.057 -0.3618E-02  0.4217E-01  0.3404E+00  0.3400E+00
      5.141 -0.3392E-02  0.8800E-02  0.3401E+00  0.3407E+00
      5.224 -0.1200E-02 -0.3704E-02  0.3400E+00  0.3404E+00
      5.307 -0.2496E-03 -0.3339E-02  0.3400E+00  0.3401E+00
      5.391 -0.3355E-04 -0.1165E-02  0.3400E+00  0.3400E+00
      5.474 -0.3614E-05 -0.2397E-03  0.3400E+00  0.3400E+00
      5.557 -0.7783E-05 -0.3190E-04  0.3400E+00  0.3400E+00
      5.641 -0.6519E-04 -0.3037E-05  0.3400E+00  0.3400E+00
      5.724 -0.3671E-03 -0.3023E-05  0.3400E+00  0.3400E+00
      5.808 -0.1271E-02 -0.2873E-04  0.3399E+00  0.3400E+00
      5.891 -0.2154E-02 -0.1927E-03  0.3397E+00  0.3400E+00
      5.974  0.1247E-02 -0.8222E-03  0.3398E+00  0.3399E+00
      6.058  0.1482E-01 -0.1965E-02  0.3410E+00  0.3397E+00
      6.141  0.3400E-01 -0.1090E-02  0.3439E+00  0.3397E+00
      6.224  0.4098E-01  0.8009E-02  0.3473E+00  0.3403E+00
      6.308  0.2783E-01  0.2660E-01  0.3496E+00  0.3425E+00
      6.391  0.8949E-02  0.4069E-01  0.3503E+00  0.3459E+00
      6.474 -0.8941E-03  0.3498E-01  0.3503E+00  0.3489E+00
      6.558 -0.2433E-02  0.1599E-01  0.3501E+00  0.3502E+00
      6.641 -0.2612E-02  0.1734E-02  0.3498E+00  0.3503E+00
      6.724 -0.4219E-02 -0.2345E-02  0.3495E+00  0.3501E+00
      6.808 -0.1877E-02 -0.2399E-02  0.3493E+00  0.3499E+00
      6.891  0.1726E-01 -0.3560E-02  0.3508E+00  0.3496E+00
      6.974  0.5480E-01 -0.4016E-02  0.3553E+00  0.3493E+00
      7.058  0.8154E-01  0.7133E-02  0.3621E+00  0.3499E+00
      7.141  0.6752E-01  0.3930E-01  0.3678E+00  0.3532E+00
      7.225  0.2710E-01  0.7510E-01  0.3700E+00  0.3594E+00
      7.308 -0.9055E-03  0.7813E-01  0.3699E+00  0.3659E+00
      7.391  0.4313E-02  0.4372E-01  0.3703E+00  0.3696E+00
      7.475  0.3935E-01  0.6684E-02  0.3736E+00  0.3701E+00
      7.558  0.7597E-01 -0.4019E-02  0.3799E+00  0.3698E+00
      7.641  0.7717E-01  0.1762E-01  0.3863E+00  0.3713E+00
      7.725  0.4294E-01  0.5823E-01  0.3899E+00  0.3761E+00
      7.808  0.8782E-02  0.8223E-01  0.3907E+00  0.3830E+00
      7.891 -0.5114E-02  0.6452E-01  0.3902E+00  0.3884E+00
      7.975 -0.5445E-02  0.2582E-01  0.3898E+00  0.3905E+00
      8.058  0.1568E-02  0.4292E-03  0.3899E+00  0.3906E+00
      8.141  0.1785E-01 -0.5969E-02  0.3914E+00  0.3901E+00
      8.225  0.3653E-01 -0.4154E-02  0.3944E+00  0.3897E+00
      8.308  0.3998E-01  0.3766E-02  0.3978E+00  0.3900E+00
      8.392  0.2443E-01  0.2102E-01  0.3998E+00  0.3918E+00
      8.475  0.6466E-02  0.3844E-01  0.4004E+00  0.3950E+00
      8.558 -0.1461E-02  0.3858E-01  0.4002E+00  0.3982E+00
      8.642 -0.1856E-02  0.2137E-01  0.4001E+00  0.4000E+00
      8.725 -0.7197E-03  0.4536E-02  0.4000E+00  0.4004E+00
      8.808 -0.1600E-03 -0.1831E-02  0.4000E+00  0.4002E+00
      8.892 -0.2278E-04 -0.1682E-02  0.4000E+00  0.4001E+00
      8.975 -0.2166E-05 -0.5909E-03  0.4000E+00  0.4000E+00
      9.058 -0.1402E-06 -0.1222E-03  0.4000E+00  0.4000E+00
      9.142 -0.6255E-08 -0.1633E-04  0.4000E+00  0.4000E+00
      9.225 -0.1935E-09 -0.1463E-05  0.4000E+00  0.4000E+00
      9.308 -0.4169E-11 -0.8947E-07  0.4000E+00  0.4000E+00
      9.392 -0.6279E-13 -0.3773E-08  0.4000E+00  0.4000E+00
      9.475 -0.6660E-15 -0.1104E-09  0.4000E+00  0.4000E+00
      9.558  0.0000E+00 -0.2253E-11  0.4000E+00  0.4000E+00
      9.642  0.0000E+00 -0.3213E-13  0.4000E+00  0.4000E+00
      9.725  0.0000E+00 -0.3463E-15  0.4000E+00  0.4000E+00
      9.809  0.0000E+00  0.0000E+00  0.4000E+00  0.4000E+00
      9.892  0.0000E+00  0.0000E+00  0.4000E+00  0.4000E+00
      9.975  0.0000E+00  0.0000E+00  0.4000E+00  0.4000E+00
     10.059  0.0000E+00  0.0000E+00  0.4000E+00  0.4000E+00
     10.142  0.0000E+00  0.0000E+00  0.4000E+00  0.4000E+00
     10.225  0.0000E+00  0.0000E+00  0.4000E+00  0.4000E+00
     10.309  0.0000E+00  0.0000E+00  0.4000E+00  0.4000E+00
     10.392  0.0000E+00  0.0000E+00  0.4000E+00  0.4000E+00
     10.475  0.0000E+00  0.0000E+00  0.4000E+00  0.4000E+00
