    7    7  100    2
  0.2544720E+02  0.5626600E-09  0.5626600E-09  0.5626600E-09  0.5000000E-15
  1.000000000000000E-004
  CAR 
 unknown system                          
   60    1   40
 
  0.2500000E+00  0.2500000E+00  0.2500000E+00  0.1000000E+01
   1      -12.530904    -12.505002
   2      -12.503234    -12.479884
   3      -12.503234    -12.479884
   4      -12.471665    -12.451713
   5      -12.445714    -12.428853
   6      -12.445714    -12.428853
   7      -12.419497    -12.405043
   8      -12.419496    -12.405042
   9      -12.414281    -12.399959
  10      -12.401376    -12.388799
  11      -12.401375    -12.388798
  12      -12.388485    -12.376317
  13      -12.381916    -12.372977
  14      -12.368110    -12.359728
  15      -12.368108    -12.359727
  16       -9.338192     -9.031657
  17       -8.157099     -7.820384
  18       -8.157099     -7.820384
  19       -7.879211     -7.505065
  20       -3.739649     -3.562081
  21       -3.739649     -3.562081
  22       -2.306588     -2.035828
  23       -0.722815     -0.510109
  24       -0.722815     -0.510109
  25       -0.643805     -0.258271
  26        0.373125      0.599055
  27        0.527663      0.986268
  28        1.041224      1.359788
  29        1.041224      1.359788
  30        2.263835      2.743418
  31        2.263835      2.743418
  32        4.276384      4.478296
  33        4.725385      4.890221
  34        4.725385      4.890222
  35        6.168382      6.368761
  36        7.032134      7.231175
  37        7.032134      7.231175
  38        7.559103      7.772135
  39        7.559103      7.772135
  40        8.237978      8.475356
