       N       E                     dE             d eps       ncg     rms          rms(c)
DAV:   1     0.432639845473E+03    0.43264E+03   -0.20189E+04   176   0.164E+03
DAV:   2     0.427663019077E+02   -0.38987E+03   -0.37252E+03   176   0.478E+02
DAV:   3    -0.214474215060E+02   -0.64214E+02   -0.63097E+02   192   0.145E+02
DAV:   4    -0.245065375249E+02   -0.30591E+01   -0.30527E+01   192   0.379E+01
DAV:   5    -0.245581223178E+02   -0.51585E-01   -0.51570E-01   176   0.470E+00    0.120E+01
DAV:   6    -0.247073815806E+02   -0.14926E+00   -0.13832E+00   200   0.100E+01    0.472E+00
DAV:   7    -0.248101375951E+02   -0.10276E+00   -0.31396E-01   216   0.443E+00    0.178E+00
DAV:   8    -0.247923171189E+02    0.17820E-01   -0.11610E-01   168   0.151E+00    0.687E-01
DAV:   9    -0.247984303826E+02   -0.61133E-02   -0.24259E-02   192   0.774E-01    0.268E-01
DAV:  10    -0.247998279105E+02   -0.13975E-02   -0.32442E-03   168   0.367E-01    0.986E-02
DAV:  11    -0.248001722337E+02   -0.34432E-03   -0.77934E-04   176   0.185E-01    0.404E-02
DAV:  12    -0.248002822548E+02   -0.11002E-03   -0.13965E-04   136   0.786E-02    0.193E-02
DAV:  13    -0.248003193857E+02   -0.37131E-04   -0.52160E-05   112   0.405E-02
   1 F= -.24800319E+02 E0= -.24811007E+02  d E =-.248003E+02  mag=     2.0708
       N       E                     dE             d eps       ncg     rms          rms(c)
DAV:   1    -0.248773525894E+02   -0.77070E-01   -0.22222E+00   192   0.429E+00    0.261E-01
DAV:   2    -0.248884353398E+02   -0.11083E-01   -0.11663E-01   192   0.138E+00    0.117E-01
DAV:   3    -0.248884502014E+02   -0.14862E-04   -0.16821E-03   184   0.214E-01    0.608E-02
DAV:   4    -0.248883594231E+02    0.90778E-04   -0.36907E-04   144   0.101E-01
   2 F= -.24888359E+02 E0= -.24900258E+02  d E =-.880400E-01  mag=     2.0843
       N       E                     dE             d eps       ncg     rms          rms(c)
DAV:   1    -0.249049774739E+02   -0.16527E-01   -0.19512E+01   208   0.128E+01    0.818E-01
DAV:   2    -0.250163939042E+02   -0.11142E+00   -0.11811E+00   192   0.417E+00    0.364E-01
DAV:   3    -0.250161856094E+02    0.20829E-03   -0.16283E-02   200   0.664E-01    0.192E-01
DAV:   4    -0.250154453509E+02    0.74026E-03   -0.35243E-03   168   0.301E-01    0.102E-01
DAV:   5    -0.250156780181E+02   -0.23267E-03   -0.10384E-03   176   0.186E-01    0.358E-02
DAV:   6    -0.250156706406E+02    0.73774E-05   -0.60788E-05   120   0.696E-02
   3 F= -.25015671E+02 E0= -.25032454E+02  d E =-.215351E+00  mag=     2.1418
       N       E                     dE             d eps       ncg     rms          rms(c)
DAV:   1    -0.250160760345E+02   -0.39802E-03   -0.41886E-01   224   0.186E+00    0.118E-01
DAV:   2    -0.250181115885E+02   -0.20356E-02   -0.21311E-02   184   0.565E-01    0.518E-02
DAV:   3    -0.250180967341E+02    0.14854E-04   -0.28699E-04   192   0.900E-02
   4 F= -.25018097E+02 E0= -.25034848E+02  d E =-.217777E+00  mag=     2.1414
