<?xml version="1.0" encoding="ISO-8859-1"?>
<modeling>
 <generator>
  <i name="program" type="string">vasp </i>
  <i name="version" type="string">5.2.2  </i>
  <i name="subversion" type="string">15Apr09 complex  parallel </i>
  <i name="platform" type="string">LinuxIFC </i>
  <i name="date" type="string">2013 11 25 </i>
  <i name="time" type="string">22:21:41 </i>
 </generator>
 <incar>
  <i type="string" name="PREC">normal</i>
  <i type="int" name="ISPIN">     2</i>
  <i type="int" name="IBRION">     2</i>
  <i type="int" name="NSW">   100</i>
  <i name="ENCUT">    313.00000000</i>
  <i name="NELECT">     60.00000000</i>
  <i type="logical" name="LWAVE"> F  </i>
  <i type="logical" name="LCHARG"> F  </i>
  <i type="logical" name="LPEAD"> F  </i>
  <i type="logical" name="LCALCPOL"> F  </i>
  <i type="logical" name="LCALCEPS"> F  </i>
  <v name="EFIELD_PEAD">      0.00000000      0.00000000      0.00000000</v>
  <i type="logical" name="LEFG"> F  </i>
 </incar>
 <kpoints>
  <generation param="Monkhorst-Pack">
   <v type="int" name="divisions">       2        2        2 </v>
   <v name="usershift">      0.00000000       0.00000000       0.00000000 </v>
   <v name="genvec1">      0.50000000       0.00000000       0.00000000 </v>
   <v name="genvec2">      0.00000000       0.50000000       0.00000000 </v>
   <v name="genvec3">      0.00000000       0.00000000       0.50000000 </v>
   <v name="shift">      0.50000000       0.50000000       0.50000000 </v>
  </generation>
  <varray name="kpointlist" >
   <v>       0.25000000       0.25000000       0.25000000 </v>
  </varray>
  <varray name="weights" >
   <v>       1.00000000 </v>
  </varray>
 </kpoints>
 <parameters>
  <separator name="general" >
   <i type="string" name="SYSTEM">unknown system</i>
   <i type="logical" name="LCOMPAT"> F  </i>
  </separator>
  <separator name="electronic" >
   <i type="string" name="PREC">normal</i>
   <i name="ENMAX">    313.00000000</i>
   <i name="ENAUG">    490.69000000</i>
   <i name="EDIFF">      0.00010000</i>
   <i type="int" name="IALGO">    38</i>
   <i type="int" name="IWAVPR">    11</i>
   <i type="int" name="NBANDS">    40</i>
   <i name="NELECT">     60.00000000</i>
   <separator name="electronic smearing" >
    <i type="int" name="ISMEAR">     1</i>
    <i name="SIGMA">      0.20000000</i>
   </separator>
   <separator name="electronic projectors" >
    <i type="logical" name="LREAL"> F  </i>
    <v name="ROPT">      0.00000000      0.00000000</v>
    <i type="int" name="LMAXPAW">  -100</i>
    <i type="int" name="LMAXMIX">     2</i>
   </separator>
   <separator name="electronic startup" >
    <i type="int" name="ISTART">     0</i>
    <i type="int" name="ICHARG">     2</i>
    <i type="int" name="INIWAV">     1</i>
   </separator>
   <separator name="electronic spin" >
    <i type="int" name="ISPIN">     2</i>
    <i type="logical" name="LNONCOLLINEAR"> F  </i>
    <v name="MAGMOM">      1.00000000      1.00000000      1.00000000      1.00000000      1.00000000      1.00000000      1.00000000</v>
    <i name="NUPDOWN">     -1.00000000</i>
    <i type="logical" name="LSORBIT"> F  </i>
    <v name="SAXIS">      0.00000000      0.00000000      1.00000000</v>
    <i type="logical" name="LSPIRAL"> F  </i>
    <v name="QSPIRAL">      0.00000000      0.00000000      0.00000000</v>
    <i type="logical" name="LZEROZ"> F  </i>
   </separator>
   <separator name="electronic exchange-correlation" >
    <i type="logical" name="LASPH"> F  </i>
    <i type="logical" name="LMETAGGA"> F  </i>
   </separator>
   <separator name="electronic convergence" >
    <i type="int" name="NELM">    60</i>
    <i type="int" name="NELMDL">    -5</i>
    <i type="int" name="NELMIN">     2</i>
    <i name="ENINI">    313.00000000</i>
    <separator name="electronic convergence detail" >
     <i type="logical" name="LDIAG"> T  </i>
     <i name="WEIMIN">      0.00100000</i>
     <i name="EBREAK">      0.00000063</i>
     <i name="DEPER">      0.30000000</i>
     <i type="int" name="NRMM">     4</i>
     <i name="TIME">      0.40000000</i>
    </separator>
   </separator>
   <separator name="electronic mixer" >
    <i name="AMIX">      0.40000000</i>
    <i name="BMIX">      1.00000000</i>
    <i name="AMIN">      0.10000000</i>
    <i name="AMIX_MAG">      1.60000000</i>
    <i name="BMIX_MAG">      1.00000000</i>
    <separator name="electronic mixer details" >
     <i type="int" name="IMIX">     4</i>
     <i type="int" name="MAXMIX">   -45</i>
     <i name="WC">    100.00000000</i>
     <i type="int" name="INIMIX">     1</i>
     <i type="int" name="MIXPRE">     1</i>
     <i type="int" name="MREMOVE">     5</i>
    </separator>
   </separator>
   <separator name="electronic dipolcorrection" >
    <i type="logical" name="LDIPOL"> F  </i>
    <i type="logical" name="LMONO"> F  </i>
    <i type="int" name="IDIPOL">     0</i>
    <i name="EPSILON">      1.00000000</i>
    <v name="DIPOL">   -100.00000000   -100.00000000   -100.00000000</v>
    <i name="EFIELD">      0.00000000</i>
   </separator>
  </separator>
  <separator name="grids" >
   <i type="int" name="NGX">    24</i>
   <i type="int" name="NGY">    24</i>
   <i type="int" name="NGZ">    24</i>
   <i type="int" name="NGXF">    48</i>
   <i type="int" name="NGYF">    48</i>
   <i type="int" name="NGZF">    48</i>
   <i type="logical" name="ADDGRID"> F  </i>
  </separator>
  <separator name="ionic" >
   <i type="int" name="NSW">   100</i>
   <i type="int" name="IBRION">     2</i>
   <i type="int" name="ISIF">     2</i>
   <i name="PSTRESS">      0.00000000</i>
   <i name="EDIFFG">      0.00100000</i>
   <i type="int" name="NFREE">     1</i>
   <i name="POTIM">      0.50000000</i>
   <i name="SMASS">     -3.00000000</i>
  </separator>
  <separator name="ionic md" >
   <i name="TEBEG">      0.00010000</i>
   <i name="TEEND">      0.00010000</i>
   <i type="int" name="NBLOCK">     1</i>
   <i type="int" name="KBLOCK">   100</i>
   <i type="int" name="NPACO">   256</i>
   <i name="APACO">     16.00000000</i>
  </separator>
  <separator name="symmetry" >
   <i type="int" name="ISYM">     2</i>
   <i name="SYMPREC">      0.00001000</i>
  </separator>
  <separator name="dos" >
   <i type="logical" name="LORBIT"> F  </i>
   <v name="RWIGS">     -1.00000000     -1.00000000</v>
   <i type="int" name="NEDOS">   301</i>
   <i name="EMIN">     10.00000000</i>
   <i name="EMAX">    -10.00000000</i>
   <i name="EFERMI">      0.00000000</i>
  </separator>
  <separator name="writing" >
   <i type="int" name="NWRITE">     2</i>
   <i type="logical" name="LWAVE"> F  </i>
   <i type="logical" name="LCHARG"> F  </i>
   <i type="logical" name="LPARD"> F  </i>
   <i type="logical" name="LVTOT"> F  </i>
   <i type="logical" name="LELF"> F  </i>
   <i type="logical" name="LOPTICS"> F  </i>
   <v name="STM">      0.00000000      0.00000000      0.00000000      0.00000000      0.00000000</v>
  </separator>
  <separator name="performance" >
   <i type="int" name="NPAR">     1</i>
   <i type="int" name="NSIM">     4</i>
   <i type="int" name="NBLK">    32</i>
   <i type="logical" name="LPLANE"> T  </i>
   <i type="logical" name="LSCALAPACK"> F  </i>
   <i type="logical" name="LSCAAWARE"> F  </i>
   <i type="logical" name="LSCALU"> F  </i>
   <i type="logical" name="LASYNC"> F  </i>
  </separator>
  <separator name="miscellaneous" >
   <i type="int" name="IDIOT">     3</i>
   <i type="logical" name="LMUSIC"> F  </i>
   <v name="POMASS">     69.72300000     74.92200000</v>
   <i type="logical" name="LCORR"> T  </i>
  </separator>
  <i type="logical" name="LREAL_COMPAT"> F  </i>
  <i type="logical" name="GGA_COMPAT"> T  </i>
  <i type="logical" name="LBERRY"> F  </i>
  <i type="int" name="ICORELEVEL">     0</i>
  <i type="logical" name="LDAU"> F  </i>
  <i type="int" name="I_CONSTRAINED_M">     0</i>
  <separator name="electronic exchange-correlation" >
   <i type="string" name="GGA">--</i>
   <i type="int" name="VOSKOWN">     0</i>
   <i type="logical" name="LHFCALC"> F  </i>
   <i type="logical" name="LHFONE"> F  </i>
   <i type="logical" name="LRHFCALC"> F  </i>
   <i type="logical" name="LTHOMAS"> F  </i>
   <i type="logical" name="LMODELHF"> F  </i>
   <i name="ENCUTFOCK">      0.00000000</i>
   <i name="ENCUT4O">     -1.00000000</i>
   <i type="int" name="EXXOEP">     0</i>
   <i type="int" name="FOURORBIT">     0</i>
   <i name="AEXX">      0.00000000</i>
   <i name="HFALPHA">      0.00000000</i>
   <i name="ALDAX">      1.00000000</i>
   <i name="AGGAX">      1.00000000</i>
   <i name="ALDAC">      1.00000000</i>
   <i name="AGGAC">      1.00000000</i>
   <i type="int" name="NKREDX">     1</i>
   <i type="int" name="NKREDY">     1</i>
   <i type="int" name="NKREDZ">     1</i>
   <i type="logical" name="SHIFTRED"> F  </i>
   <i type="logical" name="ODDONLY"> F  </i>
   <i type="logical" name="EVENONLY"> F  </i>
   <i type="int" name="LMAXFOCK">     0</i>
   <i type="int" name="NMAXFOCKAE">     0</i>
   <i name="HFSCREEN">      0.00000000</i>
   <i name="HFSCREENC">      0.00000000</i>
  </separator>
  <separator name="model GW" >
   <i type="int" name="MODEL_GW">     0</i>
   <i name="MODEL_EPS0">     15.26832290</i>
   <i name="MODEL_ALPHA">      1.00000000</i>
  </separator>
  <separator name="linear response parameters" >
   <i type="logical" name="LEPSILON"> F  </i>
   <i type="logical" name="LRPA"> F  </i>
   <i type="logical" name="LNABLA"> F  </i>
   <i type="logical" name="LVEL"> F  </i>
   <i type="int" name="KINTER">     0</i>
   <i name="CSHIFT">      0.10000000</i>
   <i name="OMEGAMAX">     -1.00000000</i>
  </separator>
  <separator name="orbital magnetization" >
   <i type="logical" name="ORBITALMAG"> F  </i>
   <i type="logical" name="LMAGBLOCH"> F  </i>
   <i type="logical" name="LCHIMAG"> F  </i>
   <i type="logical" name="LGAUGE"> T  </i>
   <i type="int" name="MAGATOM">     0</i>
   <v name="MAGDIPOL">      0.00000000      0.00000000      0.00000000</v>
   <v name="AVECCONST">      0.00000000      0.00000000      0.00000000</v>
  </separator>
  <separator name="response functions" >
   <i type="logical" name="LRPA"> T  </i>
   <i type="logical" name="LTCTE"> F  </i>
   <i type="logical" name="LTETE"> F  </i>
   <i type="logical" name="L2ORDER"> F  </i>
   <i type="logical" name="LGWLF"> F  </i>
   <i name="ENCUTGW">    208.66666667</i>
   <i name="ENCUTGWSOFT">     -2.00000000</i>
   <i name="ENCUTLF">     -1.00000000</i>
   <i type="int" name="LMAXMP2">    -1</i>
   <i name="SCISSOR">      0.00000000</i>
   <i type="int" name="NOMEGA">     0</i>
   <i type="int" name="NOMEGAR">     0</i>
   <i type="int" name="NBANDSGW">    -1</i>
   <i type="int" name="NBANDSLF">    -1</i>
   <i type="int" name="NELM">     1</i>
   <i type="int" name="DIM">     3</i>
   <i type="int" name="ANTIRES">     0</i>
   <i type="logical" name="LUSEW"> F  </i>
   <i name="OMEGAMAX">    -30.00000000</i>
   <i name="OMEGATL">   -200.00000000</i>
   <i type="int" name="OMEGAGRID">     0</i>
   <i name="CSHIFT">     -0.10000000</i>
   <i type="logical" name="SELFENERGY"> F  </i>
   <i type="logical" name="LSPECTRAL"> F  </i>
   <i type="logical" name="ODDONLYGW"> F  </i>
   <i type="logical" name="EVENONLYGW"> F  </i>
   <i type="int" name="NKREDLFX">     1</i>
   <i type="int" name="NKREDLFY">     1</i>
   <i type="int" name="NKREDLFZ">     1</i>
   <i type="int" name="MAXMEM">  1024</i>
   <i type="int" name="TELESCOPE">     0</i>
  </separator>
 </parameters>
 <atominfo>
  <atoms>       7 </atoms>
  <types>       2 </types>
  <array name="atoms" >
   <dimension dim="1">ion</dimension>
   <field type="string">element</field>
   <field type="int">atomtype</field>
   <set>
    <rc><c>Ga</c><c>   1</c></rc>
    <rc><c>Ga</c><c>   1</c></rc>
    <rc><c>Ga</c><c>   1</c></rc>
    <rc><c>As</c><c>   2</c></rc>
    <rc><c>As</c><c>   2</c></rc>
    <rc><c>As</c><c>   2</c></rc>
    <rc><c>As</c><c>   2</c></rc>
   </set>
  </array>
  <array name="atomtypes" >
   <dimension dim="1">type</dimension>
   <field type="int">atomspertype</field>
   <field type="string">element</field>
   <field>mass</field>
   <field>valence</field>
   <field type="string">pseudopotential</field>
   <set>
    <rc><c>   3</c><c>Ga</c><c>     69.72300000</c><c>     13.00000000</c><c> PAW_PBE Ga_d 06Sep2000                 </c></rc>
    <rc><c>   4</c><c>As</c><c>     74.92200000</c><c>      5.00000000</c><c> PAW_PBE As 06Sep2000                   </c></rc>
   </set>
  </array>
 </atominfo>
 <structure name="initialpos" >
  <crystal>
   <varray name="basis" >
    <v>       5.62660000       0.00000000       0.00000000 </v>
    <v>       0.00000000       5.62660000       0.00000000 </v>
    <v>       0.00000000       0.00000000       5.62660000 </v>
   </varray>
   <i name="volume">    178.13043383 </i>
   <varray name="rec_basis" >
    <v>       0.17772722       0.00000000       0.00000000 </v>
    <v>       0.00000000       0.17772722       0.00000000 </v>
    <v>       0.00000000       0.00000000       0.17772722 </v>
   </varray>
  </crystal>
  <varray name="positions" >
   <v>       0.50000000       0.50000000       0.00000000 </v>
   <v>       0.00000000       0.50000000       0.50000000 </v>
   <v>       0.50000000       0.00000000       0.50000000 </v>
   <v>       0.25000000       0.25000000       0.25000000 </v>
   <v>       0.75000000       0.75000000       0.25000000 </v>
   <v>       0.25000000       0.75000000       0.75000000 </v>
   <v>       0.75000000       0.25000000       0.75000000 </v>
  </varray>
 </structure>
 <calculation>
  <scstep>
   <time name="dav">    5.35    1.35</time>
   <time name="total">    6.15    1.99</time>
   <energy>
    <i name="alphaZ">    204.23112898 </i>
    <i name="ewald">  -3583.47555494 </i>
    <i name="hartreedc">  -2490.52185602 </i>
    <i name="XCdc">    141.24592053 </i>
    <i name="pawpsdc">   4537.24972380 </i>
    <i name="pawaedc">  -5510.40829286 </i>
    <i name="eentropy">      0.00655301 </i>
    <i name="bandstr">      6.91083800 </i>
    <i name="atom">   7127.40138498 </i>
    <i name="e_fr_energy">    432.63984547 </i>
    <i name="e_wo_entrp">    432.63329246 </i>
    <i name="e_0_energy">    432.63766114 </i>
   </energy>
  </scstep>
  <scstep>
   <time name="dav">    4.89    1.23</time>
   <time name="total">    4.90    1.23</time>
   <energy>
    <i name="e_fr_energy">     42.76630191 </i>
    <i name="e_wo_entrp">     42.82784995 </i>
    <i name="e_0_energy">     42.78681792 </i>
   </energy>
  </scstep>
  <scstep>
   <time name="dav">    5.19    1.32</time>
   <time name="total">    5.20    1.32</time>
   <energy>
    <i name="e_fr_energy">    -21.44742151 </i>
    <i name="e_wo_entrp">    -21.46012127 </i>
    <i name="e_0_energy">    -21.45165476 </i>
   </energy>
  </scstep>
  <scstep>
   <time name="dav">    5.19    1.32</time>
   <time name="total">    5.20    1.32</time>
   <energy>
    <i name="e_fr_energy">    -24.50653752 </i>
    <i name="e_wo_entrp">    -24.51826078 </i>
    <i name="e_0_energy">    -24.51044528 </i>
   </energy>
  </scstep>
  <scstep>
   <time name="dav">    4.89    1.23</time>
   <time name="total">    5.13    1.36</time>
   <energy>
    <i name="e_fr_energy">    -24.55812232 </i>
    <i name="e_wo_entrp">    -24.56984065 </i>
    <i name="e_0_energy">    -24.56202843 </i>
   </energy>
  </scstep>
  <scstep>
   <time name="dav">    5.71    1.45</time>
   <time name="total">    6.57    2.20</time>
   <energy>
    <i name="e_fr_energy">    -24.70738158 </i>
    <i name="e_wo_entrp">    -24.72432068 </i>
    <i name="e_0_energy">    -24.71302795 </i>
   </energy>
  </scstep>
  <scstep>
   <time name="dav">    5.72    1.46</time>
   <time name="total">    6.57    2.21</time>
   <energy>
    <i name="e_fr_energy">    -24.81013760 </i>
    <i name="e_wo_entrp">    -24.84664100 </i>
    <i name="e_0_energy">    -24.82230540 </i>
   </energy>
  </scstep>
  <scstep>
   <time name="dav">    5.05    1.27</time>
   <time name="total">    5.94    2.03</time>
   <energy>
    <i name="e_fr_energy">    -24.79231712 </i>
    <i name="e_wo_entrp">    -24.82032112 </i>
    <i name="e_0_energy">    -24.80165179 </i>
   </energy>
  </scstep>
  <scstep>
   <time name="dav">    5.25    1.34</time>
   <time name="total">    6.18    2.09</time>
   <energy>
    <i name="e_fr_energy">    -24.79843038 </i>
    <i name="e_wo_entrp">    -24.83076096 </i>
    <i name="e_0_energy">    -24.80920724 </i>
   </energy>
  </scstep>
  <scstep>
   <time name="dav">    4.82    1.23</time>
   <time name="total">    5.79    1.98</time>
   <energy>
    <i name="e_fr_energy">    -24.79982791 </i>
    <i name="e_wo_entrp">    -24.83240357 </i>
    <i name="e_0_energy">    -24.81068646 </i>
   </energy>
  </scstep>
  <scstep>
   <time name="dav">    5.21    1.32</time>
   <time name="total">    6.17    2.08</time>
   <energy>
    <i name="e_fr_energy">    -24.80017223 </i>
    <i name="e_wo_entrp">    -24.83182834 </i>
    <i name="e_0_energy">    -24.81072427 </i>
   </energy>
  </scstep>
  <scstep>
   <time name="dav">    4.10    1.04</time>
   <time name="total">    5.06    1.80</time>
   <energy>
    <i name="e_fr_energy">    -24.80028225 </i>
    <i name="e_wo_entrp">    -24.83269167 </i>
    <i name="e_0_energy">    -24.81108539 </i>
   </energy>
  </scstep>
  <scstep>
   <time name="dav">    3.62    0.92</time>
   <time name="total">    4.32    1.54</time>
   <energy>
    <i name="alphaZ">    204.23112898 </i>
    <i name="ewald">  -3583.47555494 </i>
    <i name="hartreedc">  -2478.16088143 </i>
    <i name="XCdc">    143.87428587 </i>
    <i name="pawpsdc">   4763.44001427 </i>
    <i name="pawaedc">  -5745.95778761 </i>
    <i name="eentropy">      0.03206331 </i>
    <i name="bandstr">   -456.18497281 </i>
    <i name="atom">   7127.40138498 </i>
    <i name="e_fr_energy">    -24.80031939 </i>
    <i name="e_wo_entrp">    -24.83238269 </i>
    <i name="e_0_energy">    -24.81100716 </i>
   </energy>
  </scstep>
  <structure>
   <crystal>
    <varray name="basis" >
     <v>       5.62660000       0.00000000       0.00000000 </v>
     <v>       0.00000000       5.62660000       0.00000000 </v>
     <v>       0.00000000       0.00000000       5.62660000 </v>
    </varray>
    <i name="volume">    178.13043383 </i>
    <varray name="rec_basis" >
     <v>       0.17772722       0.00000000       0.00000000 </v>
     <v>       0.00000000       0.17772722       0.00000000 </v>
     <v>       0.00000000       0.00000000       0.17772722 </v>
    </varray>
   </crystal>
   <varray name="positions" >
    <v>       0.50000000       0.50000000       0.00000000 </v>
    <v>       0.00000000       0.50000000       0.50000000 </v>
    <v>       0.50000000       0.00000000       0.50000000 </v>
    <v>       0.25000000       0.25000000       0.25000000 </v>
    <v>       0.75000000       0.75000000       0.25000000 </v>
    <v>       0.25000000       0.75000000       0.75000000 </v>
    <v>       0.75000000       0.25000000       0.75000000 </v>
   </varray>
  </structure>
  <varray name="forces" >
   <v>       0.00000000       0.00000000       0.00000000 </v>
   <v>       0.00000000       0.00000000       0.00000000 </v>
   <v>       0.00000000       0.00000000       0.00000000 </v>
   <v>      -0.41526706      -0.41526706      -0.41526706 </v>
   <v>       0.41526706       0.41526706      -0.41526706 </v>
   <v>      -0.41526706       0.41526706       0.41526706 </v>
   <v>       0.41526706      -0.41526706       0.41526706 </v>
  </varray>
  <varray name="stress" >
   <v>      84.68420767       0.00000000       0.00000000 </v>
   <v>       0.00000000      84.68420767       0.00000000 </v>
   <v>       0.00000000       0.00000000      84.68420767 </v>
  </varray>
  <energy>
   <i name="e_fr_energy">    -24.80031939 </i>
   <i name="e_wo_entrp">    -24.81100716 </i>
   <i name="e_0_energy">      0.03206331 </i>
  </energy>
  <time name="totalsc">   79.32   26.58</time>
 </calculation>
 <calculation>
  <scstep>
   <time name="dav">    5.61    1.43</time>
   <time name="total">    6.62    2.18</time>
   <energy>
    <i name="alphaZ">    204.23112898 </i>
    <i name="ewald">  -3600.17890066 </i>
    <i name="hartreedc">  -2463.30275570 </i>
    <i name="XCdc">    143.71089581 </i>
    <i name="pawpsdc">   4763.21611185 </i>
    <i name="pawaedc">  -5745.73252124 </i>
    <i name="eentropy">      0.03683017 </i>
    <i name="bandstr">   -454.25952677 </i>
    <i name="atom">   7127.40138498 </i>
    <i name="e_fr_energy">    -24.87735259 </i>
    <i name="e_wo_entrp">    -24.91418276 </i>
    <i name="e_0_energy">    -24.88962931 </i>
   </energy>
  </scstep>
  <scstep>
   <time name="dav">    5.24    1.34</time>
   <time name="total">    6.10    2.09</time>
   <energy>
    <i name="e_fr_energy">    -24.88843534 </i>
    <i name="e_wo_entrp">    -24.92400920 </i>
    <i name="e_0_energy">    -24.90029329 </i>
   </energy>
  </scstep>
  <scstep>
   <time name="dav">    5.41    1.37</time>
   <time name="total">    6.27    2.12</time>
   <energy>
    <i name="e_fr_energy">    -24.88845020 </i>
    <i name="e_wo_entrp">    -24.92440670 </i>
    <i name="e_0_energy">    -24.90043570 </i>
   </energy>
  </scstep>
  <scstep>
   <time name="dav">    4.52    1.14</time>
   <time name="total">    5.18    1.76</time>
   <energy>
    <i name="alphaZ">    204.23112898 </i>
    <i name="ewald">  -3600.17890066 </i>
    <i name="hartreedc">  -2463.38867732 </i>
    <i name="XCdc">    143.73638435 </i>
    <i name="pawpsdc">   4756.13065543 </i>
    <i name="pawaedc">  -5738.41876444 </i>
    <i name="eentropy">      0.03569560 </i>
    <i name="bandstr">   -454.43726635 </i>
    <i name="atom">   7127.40138498 </i>
    <i name="e_fr_energy">    -24.88835942 </i>
    <i name="e_wo_entrp">    -24.92405503 </i>
    <i name="e_0_energy">    -24.90025796 </i>
   </energy>
  </scstep>
  <structure>
   <crystal>
    <varray name="basis" >
     <v>       5.62660000       0.00000000       0.00000000 </v>
     <v>       0.00000000       5.62660000       0.00000000 </v>
     <v>       0.00000000       0.00000000       5.62660000 </v>
    </varray>
    <i name="volume">    178.13043383 </i>
    <varray name="rec_basis" >
     <v>       0.17772722       0.00000000       0.00000000 </v>
     <v>       0.00000000       0.17772722       0.00000000 </v>
     <v>       0.00000000       0.00000000       0.17772722 </v>
    </varray>
   </crystal>
   <varray name="positions" >
    <v>       0.50000000       0.50000000       0.00000000 </v>
    <v>       0.00000000       0.50000000       0.50000000 </v>
    <v>       0.50000000       0.00000000       0.50000000 </v>
    <v>       0.24643949       0.24643949       0.24643949 </v>
    <v>       0.75356051       0.75356051       0.24643949 </v>
    <v>       0.24643949       0.75356051       0.75356051 </v>
    <v>       0.75356051       0.24643949       0.75356051 </v>
   </varray>
  </structure>
  <varray name="forces" >
   <v>       0.00000000       0.00000000       0.00000000 </v>
   <v>       0.00000000       0.00000000       0.00000000 </v>
   <v>       0.00000000       0.00000000       0.00000000 </v>
   <v>      -0.31844319      -0.31844319      -0.31844319 </v>
   <v>       0.31844319       0.31844319      -0.31844319 </v>
   <v>      -0.31844319       0.31844319       0.31844319 </v>
   <v>       0.31844319      -0.31844319       0.31844319 </v>
  </varray>
  <varray name="stress" >
   <v>      78.58523758       0.00000000       0.00000000 </v>
   <v>       0.00000000      78.58523758       0.00000000 </v>
   <v>       0.00000000       0.00000000      78.58523758 </v>
  </varray>
  <energy>
   <i name="e_fr_energy">    -24.88835942 </i>
   <i name="e_wo_entrp">    -24.90025796 </i>
   <i name="e_0_energy">      0.03569560 </i>
  </energy>
  <time name="totalsc">   29.51   11.37</time>
 </calculation>
 <calculation>
  <scstep>
   <time name="dav">    5.97    1.52</time>
   <time name="total">    6.99    2.28</time>
   <energy>
    <i name="alphaZ">    204.23112898 </i>
    <i name="ewald">  -3649.32838191 </i>
    <i name="hartreedc">  -2419.51201703 </i>
    <i name="XCdc">    143.23957453 </i>
    <i name="pawpsdc">   4755.55361765 </i>
    <i name="pawaedc">  -5737.83261050 </i>
    <i name="eentropy">      0.05022691 </i>
    <i name="bandstr">   -448.70790107 </i>
    <i name="atom">   7127.40138498 </i>
    <i name="e_fr_energy">    -24.90497747 </i>
    <i name="e_wo_entrp">    -24.95520438 </i>
    <i name="e_0_energy">    -24.92171978 </i>
   </energy>
  </scstep>
  <scstep>
   <time name="dav">    5.24    1.34</time>
   <time name="total">    6.10    2.09</time>
   <energy>
    <i name="e_fr_energy">    -25.01639390 </i>
    <i name="e_wo_entrp">    -25.06674742 </i>
    <i name="e_0_energy">    -25.03317841 </i>
   </energy>
  </scstep>
  <scstep>
   <time name="dav">    5.70    1.45</time>
   <time name="total">    6.56    2.20</time>
   <energy>
    <i name="e_fr_energy">    -25.01618561 </i>
    <i name="e_wo_entrp">    -25.06653195 </i>
    <i name="e_0_energy">    -25.03296772 </i>
   </energy>
  </scstep>
  <scstep>
   <time name="dav">    4.78    1.22</time>
   <time name="total">    5.68    1.97</time>
   <energy>
    <i name="e_fr_energy">    -25.01544535 </i>
    <i name="e_wo_entrp">    -25.06579815 </i>
    <i name="e_0_energy">    -25.03222962 </i>
   </energy>
  </scstep>
  <scstep>
   <time name="dav">    4.92    1.25</time>
   <time name="total">    5.86    2.01</time>
   <energy>
    <i name="e_fr_energy">    -25.01567802 </i>
    <i name="e_wo_entrp">    -25.06602686 </i>
    <i name="e_0_energy">    -25.03246096 </i>
   </energy>
  </scstep>
  <scstep>
   <time name="dav">    4.10    1.04</time>
   <time name="total">    4.81    1.66</time>
   <energy>
    <i name="alphaZ">    204.23112898 </i>
    <i name="ewald">  -3649.32838191 </i>
    <i name="hartreedc">  -2419.56785908 </i>
    <i name="XCdc">    143.32856504 </i>
    <i name="pawpsdc">   4729.46180163 </i>
    <i name="pawaedc">  -5710.99784730 </i>
    <i name="eentropy">      0.05034894 </i>
    <i name="bandstr">   -449.59481191 </i>
    <i name="atom">   7127.40138498 </i>
    <i name="e_fr_energy">    -25.01567064 </i>
    <i name="e_wo_entrp">    -25.06601958 </i>
    <i name="e_0_energy">    -25.03245362 </i>
   </energy>
  </scstep>
  <structure>
   <crystal>
    <varray name="basis" >
     <v>       5.62660000       0.00000000       0.00000000 </v>
     <v>       0.00000000       5.62660000       0.00000000 </v>
     <v>       0.00000000       0.00000000       5.62660000 </v>
    </varray>
    <i name="volume">    178.13043383 </i>
    <varray name="rec_basis" >
     <v>       0.17772722       0.00000000       0.00000000 </v>
     <v>       0.00000000       0.17772722       0.00000000 </v>
     <v>       0.00000000       0.00000000       0.17772722 </v>
    </varray>
   </crystal>
   <varray name="positions" >
    <v>       0.50000000       0.50000000       0.00000000 </v>
    <v>       0.00000000       0.50000000       0.50000000 </v>
    <v>       0.50000000       0.00000000       0.50000000 </v>
    <v>       0.23575795       0.23575795       0.23575795 </v>
    <v>       0.76424205       0.76424205       0.23575795 </v>
    <v>       0.23575795       0.76424205       0.76424205 </v>
    <v>       0.76424205       0.23575795       0.76424205 </v>
   </varray>
  </structure>
  <varray name="forces" >
   <v>       0.00000000       0.00000000       0.00000000 </v>
   <v>       0.00000000       0.00000000       0.00000000 </v>
   <v>       0.00000000       0.00000000       0.00000000 </v>
   <v>      -0.04048443      -0.04048443      -0.04048443 </v>
   <v>       0.04048443       0.04048443      -0.04048443 </v>
   <v>      -0.04048443       0.04048443       0.04048443 </v>
   <v>       0.04048443      -0.04048443       0.04048443 </v>
  </varray>
  <varray name="stress" >
   <v>      58.87764922       0.00000000       0.00000000 </v>
   <v>       0.00000000      58.87764922       0.00000000 </v>
   <v>       0.00000000       0.00000000      58.87764922 </v>
  </varray>
  <energy>
   <i name="e_fr_energy">    -25.01567064 </i>
   <i name="e_wo_entrp">    -25.03245362 </i>
   <i name="e_0_energy">      0.05034894 </i>
  </energy>
  <time name="totalsc">   42.00   15.55</time>
 </calculation>
 <calculation>
  <scstep>
   <time name="dav">    6.41    1.63</time>
   <time name="total">    7.42    2.38</time>
   <energy>
    <i name="alphaZ">    204.23112898 </i>
    <i name="ewald">  -3656.33303950 </i>
    <i name="hartreedc">  -2413.32591428 </i>
    <i name="XCdc">    143.25827863 </i>
    <i name="pawpsdc">   4729.15152071 </i>
    <i name="pawaedc">  -5710.66653209 </i>
    <i name="eentropy">      0.05028279 </i>
    <i name="bandstr">   -448.78318626 </i>
    <i name="atom">   7127.40138498 </i>
    <i name="e_fr_energy">    -25.01607603 </i>
    <i name="e_wo_entrp">    -25.06635883 </i>
    <i name="e_0_energy">    -25.03283697 </i>
   </energy>
  </scstep>
  <scstep>
   <time name="dav">    5.35    1.35</time>
   <time name="total">    6.20    2.11</time>
   <energy>
    <i name="e_fr_energy">    -25.01811159 </i>
    <i name="e_wo_entrp">    -25.06836878 </i>
    <i name="e_0_energy">    -25.03486398 </i>
   </energy>
  </scstep>
  <scstep>
   <time name="dav">    5.22    1.33</time>
   <time name="total">    5.84    1.95</time>
   <energy>
    <i name="alphaZ">    204.23112898 </i>
    <i name="ewald">  -3656.33303950 </i>
    <i name="hartreedc">  -2413.25262729 </i>
    <i name="XCdc">    143.26517320 </i>
    <i name="pawpsdc">   4726.61470094 </i>
    <i name="pawaedc">  -5708.06039260 </i>
    <i name="eentropy">      0.05025254 </i>
    <i name="bandstr">   -448.93467797 </i>
    <i name="atom">   7127.40138498 </i>
    <i name="e_fr_energy">    -25.01809673 </i>
    <i name="e_wo_entrp">    -25.06834927 </i>
    <i name="e_0_energy">    -25.03484758 </i>
   </energy>
  </scstep>
  <structure>
   <crystal>
    <varray name="basis" >
     <v>       5.62660000       0.00000000       0.00000000 </v>
     <v>       0.00000000       5.62660000       0.00000000 </v>
     <v>       0.00000000       0.00000000       5.62660000 </v>
    </varray>
    <i name="volume">    178.13043383 </i>
    <varray name="rec_basis" >
     <v>       0.17772722       0.00000000       0.00000000 </v>
     <v>       0.00000000       0.17772722       0.00000000 </v>
     <v>       0.00000000       0.00000000       0.17772722 </v>
    </varray>
   </crystal>
   <varray name="positions" >
    <v>       0.50000000       0.50000000       0.00000000 </v>
    <v>       0.00000000       0.50000000       0.50000000 </v>
    <v>       0.50000000       0.00000000       0.50000000 </v>
    <v>       0.23420219       0.23420219       0.23420219 </v>
    <v>       0.76579781       0.76579781       0.23420219 </v>
    <v>       0.23420219       0.76579781       0.76579781 </v>
    <v>       0.76579781       0.23420219       0.76579781 </v>
   </varray>
  </structure>
  <varray name="forces" >
   <v>       0.00000000       0.00000000       0.00000000 </v>
   <v>       0.00000000       0.00000000       0.00000000 </v>
   <v>       0.00000000       0.00000000       0.00000000 </v>
   <v>      -0.00531167      -0.00531167      -0.00531167 </v>
   <v>       0.00531167       0.00531167      -0.00531167 </v>
   <v>      -0.00531167       0.00531167       0.00531167 </v>
   <v>       0.00531167      -0.00531167       0.00531167 </v>
  </varray>
  <varray name="stress" >
   <v>      56.49566899       0.00000000       0.00000000 </v>
   <v>       0.00000000      56.49566899       0.00000000 </v>
   <v>       0.00000000       0.00000000      56.49566899 </v>
  </varray>
  <energy>
   <i name="e_fr_energy">    -25.01809673 </i>
   <i name="e_wo_entrp">    -25.03484758 </i>
   <i name="e_0_energy">      0.05025254 </i>
  </energy>
  <time name="totalsc">   24.95    9.61</time>
  <eigenvalues>
   <array>
    <dimension dim="1">band</dimension>
    <dimension dim="2">kpoint</dimension>
    <dimension dim="3">spin</dimension>
    <field>eigene</field>
    <field>occ</field>
    <set>
     <set comment="spin 1">
      <set comment="kpoint 1">
       <r>  -12.5309    1.0000 </r>
       <r>  -12.5032    1.0000 </r>
       <r>  -12.5032    1.0000 </r>
       <r>  -12.4717    1.0000 </r>
       <r>  -12.4457    1.0000 </r>
       <r>  -12.4457    1.0000 </r>
       <r>  -12.4195    1.0000 </r>
       <r>  -12.4195    1.0000 </r>
       <r>  -12.4143    1.0000 </r>
       <r>  -12.4014    1.0000 </r>
       <r>  -12.4014    1.0000 </r>
       <r>  -12.3885    1.0000 </r>
       <r>  -12.3819    1.0000 </r>
       <r>  -12.3681    1.0000 </r>
       <r>  -12.3681    1.0000 </r>
       <r>   -9.3382    1.0000 </r>
       <r>   -8.1571    1.0000 </r>
       <r>   -8.1571    1.0000 </r>
       <r>   -7.8792    1.0000 </r>
       <r>   -3.7396    1.0000 </r>
       <r>   -3.7396    1.0000 </r>
       <r>   -2.3066    1.0000 </r>
       <r>   -0.7228    1.0000 </r>
       <r>   -0.7228    1.0000 </r>
       <r>   -0.6438    1.0000 </r>
       <r>    0.3731    1.0000 </r>
       <r>    0.5277    1.0000 </r>
       <r>    1.0412    1.0000 </r>
       <r>    1.0412    1.0000 </r>
       <r>    2.2638    1.0354 </r>
       <r>    2.2638    1.0354 </r>
       <r>    4.2764    0.0000 </r>
       <r>    4.7254    0.0000 </r>
       <r>    4.7254    0.0000 </r>
       <r>    6.1684    0.0000 </r>
       <r>    7.0321    0.0000 </r>
       <r>    7.0321    0.0000 </r>
       <r>    7.5591    0.0000 </r>
       <r>    7.5591    0.0000 </r>
       <r>    8.2380    0.0000 </r>
      </set>
     </set>
     <set comment="spin 2">
      <set comment="kpoint 1">
       <r>  -12.5050    1.0000 </r>
       <r>  -12.4799    1.0000 </r>
       <r>  -12.4799    1.0000 </r>
       <r>  -12.4517    1.0000 </r>
       <r>  -12.4289    1.0000 </r>
       <r>  -12.4289    1.0000 </r>
       <r>  -12.4050    1.0000 </r>
       <r>  -12.4050    1.0000 </r>
       <r>  -12.4000    1.0000 </r>
       <r>  -12.3888    1.0000 </r>
       <r>  -12.3888    1.0000 </r>
       <r>  -12.3763    1.0000 </r>
       <r>  -12.3730    1.0000 </r>
       <r>  -12.3597    1.0000 </r>
       <r>  -12.3597    1.0000 </r>
       <r>   -9.0317    1.0000 </r>
       <r>   -7.8204    1.0000 </r>
       <r>   -7.8204    1.0000 </r>
       <r>   -7.5051    1.0000 </r>
       <r>   -3.5621    1.0000 </r>
       <r>   -3.5621    1.0000 </r>
       <r>   -2.0358    1.0000 </r>
       <r>   -0.5101    1.0000 </r>
       <r>   -0.5101    1.0000 </r>
       <r>   -0.2583    1.0000 </r>
       <r>    0.5991    1.0000 </r>
       <r>    0.9863    1.0000 </r>
       <r>    1.3598    1.0000 </r>
       <r>    1.3598    1.0000 </r>
       <r>    2.7434   -0.0354 </r>
       <r>    2.7434   -0.0354 </r>
       <r>    4.4783    0.0000 </r>
       <r>    4.8902    0.0000 </r>
       <r>    4.8902    0.0000 </r>
       <r>    6.3688    0.0000 </r>
       <r>    7.2312    0.0000 </r>
       <r>    7.2312    0.0000 </r>
       <r>    7.7721    0.0000 </r>
       <r>    7.7721    0.0000 </r>
       <r>    8.4754    0.0000 </r>
      </set>
     </set>
    </set>
   </array>
  </eigenvalues>
  <separator name="orbital magnetization" >
   <v name="MAGDIPOLOUT">      0.00000000      0.00000000      0.00000000</v>
  </separator>
  <dos>
   <i name="efermi">      2.50362665 </i>
   <total>
    <array>
     <dimension dim="1">gridpoints</dimension>
     <dimension dim="2">spin</dimension>
     <field>energy</field>
     <field>total</field>
     <field>integrated</field>
     <set>
      <set comment="spin 1">
       <r> -14.5309   0.0000   0.0000 </r>
       <r> -14.4475   0.0000   0.0000 </r>
       <r> -14.3642   0.0000   0.0000 </r>
       <r> -14.2808   0.0000   0.0000 </r>
       <r> -14.1975   0.0000   0.0000 </r>
       <r> -14.1141   0.0000   0.0000 </r>
       <r> -14.0308   0.0000   0.0000 </r>
       <r> -13.9474   0.0000   0.0000 </r>
       <r> -13.8641   0.0000   0.0000 </r>
       <r> -13.7807   0.0000   0.0000 </r>
       <r> -13.6974   0.0000   0.0000 </r>
       <r> -13.6140   0.0000   0.0000 </r>
       <r> -13.5307   0.0000   0.0000 </r>
       <r> -13.4473   0.0000   0.0000 </r>
       <r> -13.3639   0.0000   0.0000 </r>
       <r> -13.2806   0.0000   0.0000 </r>
       <r> -13.1972  -0.0003   0.0000 </r>
       <r> -13.1139  -0.0040  -0.0004 </r>
       <r> -13.0305  -0.0355  -0.0033 </r>
       <r> -12.9472  -0.2130  -0.0211 </r>
       <r> -12.8638  -0.8465  -0.0916 </r>
       <r> -12.7805  -2.0092  -0.2591 </r>
       <r> -12.6971  -1.5698  -0.3900 </r>
       <r> -12.6138   6.5225   0.1537 </r>
       <r> -12.5304  26.6786   2.3775 </r>
       <r> -12.4470  49.6579   6.5167 </r>
       <r> -12.3637  55.3649  11.1316 </r>
       <r> -12.2803  37.5418  14.2608 </r>
       <r> -12.1970  13.3089  15.3702 </r>
       <r> -12.1136  -0.1515  15.3576 </r>
       <r> -12.0303  -2.5569  15.1444 </r>
       <r> -11.9469  -1.3042  15.0357 </r>
       <r> -11.8636  -0.3582  15.0059 </r>
       <r> -11.7802  -0.0625  15.0007 </r>
       <r> -11.6969  -0.0073  15.0001 </r>
       <r> -11.6135  -0.0006  15.0000 </r>
       <r> -11.5302   0.0000  15.0000 </r>
       <r> -11.4468   0.0000  15.0000 </r>
       <r> -11.3634   0.0000  15.0000 </r>
       <r> -11.2801   0.0000  15.0000 </r>
       <r> -11.1967   0.0000  15.0000 </r>
       <r> -11.1134   0.0000  15.0000 </r>
       <r> -11.0300   0.0000  15.0000 </r>
       <r> -10.9467   0.0000  15.0000 </r>
       <r> -10.8633   0.0000  15.0000 </r>
       <r> -10.7800   0.0000  15.0000 </r>
       <r> -10.6966   0.0000  15.0000 </r>
       <r> -10.6133   0.0000  15.0000 </r>
       <r> -10.5299   0.0000  15.0000 </r>
       <r> -10.4465   0.0000  15.0000 </r>
       <r> -10.3632   0.0000  15.0000 </r>
       <r> -10.2798   0.0000  15.0000 </r>
       <r> -10.1965   0.0000  15.0000 </r>
       <r> -10.1131   0.0000  15.0000 </r>
       <r> -10.0298  -0.0001  15.0000 </r>
       <r>  -9.9464  -0.0008  14.9999 </r>
       <r>  -9.8631  -0.0069  14.9993 </r>
       <r>  -9.7797  -0.0385  14.9961 </r>
       <r>  -9.6964  -0.1310  14.9852 </r>
       <r>  -9.6130  -0.2146  14.9673 </r>
       <r>  -9.5297   0.1508  14.9799 </r>
       <r>  -9.4463   1.5424  15.1085 </r>
       <r>  -9.3629   3.4514  15.3962 </r>
       <r>  -9.2796   4.0839  15.7366 </r>
       <r>  -9.1962   2.7195  15.9632 </r>
       <r>  -9.1129   0.8461  16.0338 </r>
       <r>  -9.0295  -0.0969  16.0257 </r>
       <r>  -8.9462  -0.1993  16.0091 </r>
       <r>  -8.8628  -0.0853  16.0020 </r>
       <r>  -8.7795  -0.0214  16.0002 </r>
       <r>  -8.6961  -0.0130  15.9991 </r>
       <r>  -8.6128  -0.0598  15.9941 </r>
       <r>  -8.5294  -0.2219  15.9756 </r>
       <r>  -8.4460  -0.4307  15.9397 </r>
       <r>  -8.3627   0.0365  15.9428 </r>
       <r>  -8.2793   2.3912  16.1421 </r>
       <r>  -8.1960   6.1405  16.6539 </r>
       <r>  -8.1126   8.1267  17.3313 </r>
       <r>  -8.0293   6.7910  17.8974 </r>
       <r>  -7.9459   4.7629  18.2944 </r>
       <r>  -7.8626   4.0008  18.6279 </r>
       <r>  -7.7792   3.1757  18.8926 </r>
       <r>  -7.6959   1.5223  19.0195 </r>
       <r>  -7.6125   0.1828  19.0347 </r>
       <r>  -7.5292  -0.2184  19.0165 </r>
       <r>  -7.4458  -0.1439  19.0045 </r>
       <r>  -7.3624  -0.0445  19.0008 </r>
       <r>  -7.2791  -0.0084  19.0001 </r>
       <r>  -7.1957  -0.0010  19.0000 </r>
       <r>  -7.1124  -0.0001  19.0000 </r>
       <r>  -7.0290   0.0000  19.0000 </r>
       <r>  -6.9457   0.0000  19.0000 </r>
       <r>  -6.8623   0.0000  19.0000 </r>
       <r>  -6.7790   0.0000  19.0000 </r>
       <r>  -6.6956   0.0000  19.0000 </r>
       <r>  -6.6123   0.0000  19.0000 </r>
       <r>  -6.5289   0.0000  19.0000 </r>
       <r>  -6.4455   0.0000  19.0000 </r>
       <r>  -6.3622   0.0000  19.0000 </r>
       <r>  -6.2788   0.0000  19.0000 </r>
       <r>  -6.1955   0.0000  19.0000 </r>
       <r>  -6.1121   0.0000  19.0000 </r>
       <r>  -6.0288   0.0000  19.0000 </r>
       <r>  -5.9454   0.0000  19.0000 </r>
       <r>  -5.8621   0.0000  19.0000 </r>
       <r>  -5.7787   0.0000  19.0000 </r>
       <r>  -5.6954   0.0000  19.0000 </r>
       <r>  -5.6120   0.0000  19.0000 </r>
       <r>  -5.5286   0.0000  19.0000 </r>
       <r>  -5.4453   0.0000  19.0000 </r>
       <r>  -5.3619   0.0000  19.0000 </r>
       <r>  -5.2786   0.0000  19.0000 </r>
       <r>  -5.1952   0.0000  19.0000 </r>
       <r>  -5.1119   0.0000  19.0000 </r>
       <r>  -5.0285   0.0000  19.0000 </r>
       <r>  -4.9452   0.0000  19.0000 </r>
       <r>  -4.8618   0.0000  19.0000 </r>
       <r>  -4.7785   0.0000  19.0000 </r>
       <r>  -4.6951   0.0000  19.0000 </r>
       <r>  -4.6118   0.0000  19.0000 </r>
       <r>  -4.5284   0.0000  19.0000 </r>
       <r>  -4.4450  -0.0001  19.0000 </r>
       <r>  -4.3617  -0.0011  18.9999 </r>
       <r>  -4.2783  -0.0100  18.9991 </r>
       <r>  -4.1950  -0.0598  18.9941 </r>
       <r>  -4.1116  -0.2226  18.9755 </r>
       <r>  -4.0283  -0.4285  18.9398 </r>
       <r>  -3.9449   0.0587  18.9447 </r>
       <r>  -3.8616   2.4805  19.1515 </r>
       <r>  -3.7782   6.3443  19.6803 </r>
       <r>  -3.6949   8.2591  20.3687 </r>
       <r>  -3.6115   6.0727  20.8749 </r>
       <r>  -3.5281   2.2232  21.0602 </r>
       <r>  -3.4448  -0.0319  21.0576 </r>
       <r>  -3.3614  -0.4222  21.0224 </r>
       <r>  -3.2781  -0.2056  21.0052 </r>
       <r>  -3.1947  -0.0532  21.0008 </r>
       <r>  -3.1114  -0.0086  21.0001 </r>
       <r>  -3.0280  -0.0009  21.0000 </r>
       <r>  -2.9447  -0.0004  21.0000 </r>
       <r>  -2.8613  -0.0034  20.9997 </r>
       <r>  -2.7780  -0.0220  20.9979 </r>
       <r>  -2.6946  -0.0901  20.9903 </r>
       <r>  -2.6113  -0.2033  20.9734 </r>
       <r>  -2.5279  -0.0761  20.9671 </r>
       <r>  -2.4445   0.9200  21.0437 </r>
       <r>  -2.3612   2.8131  21.2782 </r>
       <r>  -2.2778   4.1035  21.6203 </r>
       <r>  -2.1945   3.3740  21.9015 </r>
       <r>  -2.1111   1.4528  22.0226 </r>
       <r>  -2.0278   0.1125  22.0320 </r>
       <r>  -1.9444  -0.2156  22.0140 </r>
       <r>  -1.8611  -0.1252  22.0036 </r>
       <r>  -1.7777  -0.0359  22.0006 </r>
       <r>  -1.6944  -0.0063  22.0001 </r>
       <r>  -1.6110  -0.0007  22.0000 </r>
       <r>  -1.5276  -0.0001  22.0000 </r>
       <r>  -1.4443  -0.0001  22.0000 </r>
       <r>  -1.3609  -0.0007  21.9999 </r>
       <r>  -1.2776  -0.0072  21.9993 </r>
       <r>  -1.1942  -0.0476  21.9954 </r>
       <r>  -1.1109  -0.2040  21.9784 </r>
       <r>  -1.0275  -0.5021  21.9365 </r>
       <r>  -0.9442  -0.3598  21.9065 </r>
       <r>  -0.8608   1.7871  22.0555 </r>
       <r>  -0.7775   6.6265  22.6078 </r>
       <r>  -0.6941  11.1189  23.5346 </r>
       <r>  -0.6108  10.8686  24.4406 </r>
       <r>  -0.5274   6.1949  24.9570 </r>
       <r>  -0.4440   1.5840  25.0890 </r>
       <r>  -0.3607  -0.3569  25.0592 </r>
       <r>  -0.2773  -0.4664  25.0204 </r>
       <r>  -0.1940  -0.1933  25.0043 </r>
       <r>  -0.1106  -0.0632  24.9990 </r>
       <r>  -0.0273  -0.0860  24.9918 </r>
       <r>   0.0561  -0.2123  24.9741 </r>
       <r>   0.1394  -0.2241  24.9554 </r>
       <r>   0.2228   0.4963  24.9968 </r>
       <r>   0.3061   2.4429  25.2004 </r>
       <r>   0.3895   4.9418  25.6124 </r>
       <r>   0.4729   6.4065  26.1464 </r>
       <r>   0.5562   5.8044  26.6302 </r>
       <r>   0.6396   3.4693  26.9194 </r>
       <r>   0.7229   0.8718  26.9920 </r>
       <r>   0.8063  -0.3070  26.9664 </r>
       <r>   0.8896   1.0964  27.0578 </r>
       <r>   0.9730   4.8455  27.4617 </r>
       <r>   1.0563   7.9939  28.1281 </r>
       <r>   1.1397   7.2426  28.7318 </r>
       <r>   1.2230   3.5286  29.0259 </r>
       <r>   1.3064   0.5075  29.0682 </r>
       <r>   1.3897  -0.4165  29.0335 </r>
       <r>   1.4731  -0.2906  29.0092 </r>
       <r>   1.5565  -0.0913  29.0016 </r>
       <r>   1.6398  -0.0184  29.0001 </r>
       <r>   1.7232  -0.0117  28.9991 </r>
       <r>   1.8065  -0.0578  28.9943 </r>
       <r>   1.8899  -0.2171  28.9762 </r>
       <r>   1.9732  -0.4268  28.9406 </r>
       <r>   2.0566   0.0286  28.9430 </r>
       <r>   2.1399   2.3976  29.1429 </r>
       <r>   2.2233   6.2591  29.6646 </r>
       <r>   2.3066   8.2619  30.3532 </r>
       <r>   2.3900   6.1603  30.8667 </r>
       <r>   2.4734   2.3040  31.0588 </r>
       <r>   2.5567  -0.0043  31.0584 </r>
       <r>   2.6401  -0.4246  31.0230 </r>
       <r>   2.7234  -0.2109  31.0054 </r>
       <r>   2.8068  -0.0552  31.0008 </r>
       <r>   2.8901  -0.0090  31.0001 </r>
       <r>   2.9735  -0.0010  31.0000 </r>
       <r>   3.0568  -0.0001  31.0000 </r>
       <r>   3.1402   0.0000  31.0000 </r>
       <r>   3.2235   0.0000  31.0000 </r>
       <r>   3.3069   0.0000  31.0000 </r>
       <r>   3.3902   0.0000  31.0000 </r>
       <r>   3.4736   0.0000  31.0000 </r>
       <r>   3.5570   0.0000  31.0000 </r>
       <r>   3.6403  -0.0004  31.0000 </r>
       <r>   3.7237  -0.0036  30.9997 </r>
       <r>   3.8070  -0.0228  30.9978 </r>
       <r>   3.8904  -0.0926  30.9900 </r>
       <r>   3.9737  -0.2052  30.9729 </r>
       <r>   4.0571  -0.0651  30.9675 </r>
       <r>   4.1404   0.9550  31.0471 </r>
       <r>   4.2238   2.8362  31.2835 </r>
       <r>   4.3071   3.9970  31.6167 </r>
       <r>   4.3905   3.0032  31.8670 </r>
       <r>   4.4739   1.0334  31.9532 </r>
       <r>   4.5572   0.9465  32.0321 </r>
       <r>   4.6406   3.9631  32.3624 </r>
       <r>   4.7239   7.5415  32.9910 </r>
       <r>   4.8073   7.7058  33.6333 </r>
       <r>   4.8906   4.3145  33.9930 </r>
       <r>   4.9740   0.9341  34.0708 </r>
       <r>   5.0573  -0.3618  34.0407 </r>
       <r>   5.1407  -0.3392  34.0124 </r>
       <r>   5.2240  -0.1200  34.0024 </r>
       <r>   5.3074  -0.0250  34.0003 </r>
       <r>   5.3908  -0.0034  34.0000 </r>
       <r>   5.4741  -0.0004  34.0000 </r>
       <r>   5.5575  -0.0008  33.9999 </r>
       <r>   5.6408  -0.0065  33.9994 </r>
       <r>   5.7242  -0.0367  33.9963 </r>
       <r>   5.8075  -0.1271  33.9857 </r>
       <r>   5.8909  -0.2154  33.9678 </r>
       <r>   5.9742   0.1247  33.9782 </r>
       <r>   6.0576   1.4819  34.1017 </r>
       <r>   6.1409   3.3997  34.3851 </r>
       <r>   6.2243   4.0977  34.7266 </r>
       <r>   6.3076   2.7826  34.9586 </r>
       <r>   6.3910   0.8949  35.0332 </r>
       <r>   6.4744  -0.0894  35.0257 </r>
       <r>   6.5577  -0.2433  35.0054 </r>
       <r>   6.6411  -0.2612  34.9837 </r>
       <r>   6.7244  -0.4219  34.9485 </r>
       <r>   6.8078  -0.1877  34.9329 </r>
       <r>   6.8911   1.7261  35.0767 </r>
       <r>   6.9745   5.4805  35.5336 </r>
       <r>   7.0578   8.1544  36.2133 </r>
       <r>   7.1412   6.7516  36.7760 </r>
       <r>   7.2245   2.7103  37.0020 </r>
       <r>   7.3079  -0.0906  36.9944 </r>
       <r>   7.3913   0.4313  37.0304 </r>
       <r>   7.4746   3.9352  37.3584 </r>
       <r>   7.5580   7.5967  37.9916 </r>
       <r>   7.6413   7.7175  38.6349 </r>
       <r>   7.7247   4.2942  38.9928 </r>
       <r>   7.8080   0.8782  39.0660 </r>
       <r>   7.8914  -0.5114  39.0234 </r>
       <r>   7.9747  -0.5445  38.9780 </r>
       <r>   8.0581   0.1568  38.9911 </r>
       <r>   8.1414   1.7851  39.1399 </r>
       <r>   8.2248   3.6532  39.4444 </r>
       <r>   8.3081   3.9980  39.7776 </r>
       <r>   8.3915   2.4434  39.9813 </r>
       <r>   8.4749   0.6466  40.0352 </r>
       <r>   8.5582  -0.1461  40.0230 </r>
       <r>   8.6416  -0.1856  40.0075 </r>
       <r>   8.7249  -0.0720  40.0015 </r>
       <r>   8.8083  -0.0160  40.0002 </r>
       <r>   8.8916  -0.0023  40.0000 </r>
       <r>   8.9750  -0.0002  40.0000 </r>
       <r>   9.0583   0.0000  40.0000 </r>
       <r>   9.1417   0.0000  40.0000 </r>
       <r>   9.2250   0.0000  40.0000 </r>
       <r>   9.3084   0.0000  40.0000 </r>
       <r>   9.3918   0.0000  40.0000 </r>
       <r>   9.4751   0.0000  40.0000 </r>
       <r>   9.5585   0.0000  40.0000 </r>
       <r>   9.6418   0.0000  40.0000 </r>
       <r>   9.7252   0.0000  40.0000 </r>
       <r>   9.8085   0.0000  40.0000 </r>
       <r>   9.8919   0.0000  40.0000 </r>
       <r>   9.9752   0.0000  40.0000 </r>
       <r>  10.0586   0.0000  40.0000 </r>
       <r>  10.1419   0.0000  40.0000 </r>
       <r>  10.2253   0.0000  40.0000 </r>
       <r>  10.3086   0.0000  40.0000 </r>
       <r>  10.3920   0.0000  40.0000 </r>
       <r>  10.4754   0.0000  40.0000 </r>
      </set>
      <set comment="spin 2">
       <r> -14.5309   0.0000   0.0000 </r>
       <r> -14.4475   0.0000   0.0000 </r>
       <r> -14.3642   0.0000   0.0000 </r>
       <r> -14.2808   0.0000   0.0000 </r>
       <r> -14.1975   0.0000   0.0000 </r>
       <r> -14.1141   0.0000   0.0000 </r>
       <r> -14.0308   0.0000   0.0000 </r>
       <r> -13.9474   0.0000   0.0000 </r>
       <r> -13.8641   0.0000   0.0000 </r>
       <r> -13.7807   0.0000   0.0000 </r>
       <r> -13.6974   0.0000   0.0000 </r>
       <r> -13.6140   0.0000   0.0000 </r>
       <r> -13.5307   0.0000   0.0000 </r>
       <r> -13.4473   0.0000   0.0000 </r>
       <r> -13.3639   0.0000   0.0000 </r>
       <r> -13.2806   0.0000   0.0000 </r>
       <r> -13.1972  -0.0001   0.0000 </r>
       <r> -13.1139  -0.0021  -0.0002 </r>
       <r> -13.0305  -0.0208  -0.0019 </r>
       <r> -12.9472  -0.1418  -0.0137 </r>
       <r> -12.8638  -0.6453  -0.0675 </r>
       <r> -12.7805  -1.8175  -0.2190 </r>
       <r> -12.6971  -2.2788  -0.4090 </r>
       <r> -12.6138   3.5694  -0.1115 </r>
       <r> -12.5304  21.9901   1.7215 </r>
       <r> -12.4470  46.8494   5.6266 </r>
       <r> -12.3637  57.2960  10.4025 </r>
       <r> -12.2803  42.2448  13.9238 </r>
       <r> -12.1970  16.7908  15.3233 </r>
       <r> -12.1136   0.8940  15.3979 </r>
       <r> -12.0303  -2.6957  15.1732 </r>
       <r> -11.9469  -1.5362  15.0451 </r>
       <r> -11.8636  -0.4484  15.0077 </r>
       <r> -11.7802  -0.0820  15.0009 </r>
       <r> -11.6969  -0.0100  15.0001 </r>
       <r> -11.6135  -0.0008  15.0000 </r>
       <r> -11.5302   0.0000  15.0000 </r>
       <r> -11.4468   0.0000  15.0000 </r>
       <r> -11.3634   0.0000  15.0000 </r>
       <r> -11.2801   0.0000  15.0000 </r>
       <r> -11.1967   0.0000  15.0000 </r>
       <r> -11.1134   0.0000  15.0000 </r>
       <r> -11.0300   0.0000  15.0000 </r>
       <r> -10.9467   0.0000  15.0000 </r>
       <r> -10.8633   0.0000  15.0000 </r>
       <r> -10.7800   0.0000  15.0000 </r>
       <r> -10.6966   0.0000  15.0000 </r>
       <r> -10.6133   0.0000  15.0000 </r>
       <r> -10.5299   0.0000  15.0000 </r>
       <r> -10.4465   0.0000  15.0000 </r>
       <r> -10.3632   0.0000  15.0000 </r>
       <r> -10.2798   0.0000  15.0000 </r>
       <r> -10.1965   0.0000  15.0000 </r>
       <r> -10.1131   0.0000  15.0000 </r>
       <r> -10.0298   0.0000  15.0000 </r>
       <r>  -9.9464   0.0000  15.0000 </r>
       <r>  -9.8631   0.0000  15.0000 </r>
       <r>  -9.7797   0.0000  15.0000 </r>
       <r>  -9.6964  -0.0002  15.0000 </r>
       <r>  -9.6130  -0.0017  14.9998 </r>
       <r>  -9.5297  -0.0127  14.9988 </r>
       <r>  -9.4463  -0.0606  14.9937 </r>
       <r>  -9.3629  -0.1706  14.9795 </r>
       <r>  -9.2796  -0.1793  14.9646 </r>
       <r>  -9.1962   0.4769  15.0043 </r>
       <r>  -9.1129   2.1762  15.1857 </r>
       <r>  -9.0295   3.8785  15.5090 </r>
       <r>  -8.9462   3.8230  15.8277 </r>
       <r>  -8.8628   2.0735  16.0005 </r>
       <r>  -8.7795   0.4170  16.0353 </r>
       <r>  -8.6961  -0.1888  16.0195 </r>
       <r>  -8.6128  -0.1644  16.0058 </r>
       <r>  -8.5294  -0.0567  16.0011 </r>
       <r>  -8.4460  -0.0125  16.0000 </r>
       <r>  -8.3627  -0.0107  15.9992 </r>
       <r>  -8.2793  -0.0560  15.9945 </r>
       <r>  -8.1960  -0.2127  15.9768 </r>
       <r>  -8.1126  -0.4261  15.9412 </r>
       <r>  -8.0293  -0.0024  15.9410 </r>
       <r>  -7.9459   2.2907  16.1320 </r>
       <r>  -7.8626   6.0557  16.6368 </r>
       <r>  -7.7792   8.0479  17.3076 </r>
       <r>  -7.6959   6.3893  17.8401 </r>
       <r>  -7.6125   3.9291  18.1677 </r>
       <r>  -7.5292   3.4834  18.4580 </r>
       <r>  -7.4458   3.6539  18.7626 </r>
       <r>  -7.3624   2.4884  18.9700 </r>
       <r>  -7.2791   0.7770  19.0348 </r>
       <r>  -7.1957  -0.1096  19.0256 </r>
       <r>  -7.1124  -0.1996  19.0090 </r>
       <r>  -7.0290  -0.0845  19.0019 </r>
       <r>  -6.9457  -0.0200  19.0003 </r>
       <r>  -6.8623  -0.0030  19.0000 </r>
       <r>  -6.7790  -0.0003  19.0000 </r>
       <r>  -6.6956   0.0000  19.0000 </r>
       <r>  -6.6123   0.0000  19.0000 </r>
       <r>  -6.5289   0.0000  19.0000 </r>
       <r>  -6.4455   0.0000  19.0000 </r>
       <r>  -6.3622   0.0000  19.0000 </r>
       <r>  -6.2788   0.0000  19.0000 </r>
       <r>  -6.1955   0.0000  19.0000 </r>
       <r>  -6.1121   0.0000  19.0000 </r>
       <r>  -6.0288   0.0000  19.0000 </r>
       <r>  -5.9454   0.0000  19.0000 </r>
       <r>  -5.8621   0.0000  19.0000 </r>
       <r>  -5.7787   0.0000  19.0000 </r>
       <r>  -5.6954   0.0000  19.0000 </r>
       <r>  -5.6120   0.0000  19.0000 </r>
       <r>  -5.5286   0.0000  19.0000 </r>
       <r>  -5.4453   0.0000  19.0000 </r>
       <r>  -5.3619   0.0000  19.0000 </r>
       <r>  -5.2786   0.0000  19.0000 </r>
       <r>  -5.1952   0.0000  19.0000 </r>
       <r>  -5.1119   0.0000  19.0000 </r>
       <r>  -5.0285   0.0000  19.0000 </r>
       <r>  -4.9452   0.0000  19.0000 </r>
       <r>  -4.8618   0.0000  19.0000 </r>
       <r>  -4.7785   0.0000  19.0000 </r>
       <r>  -4.6951   0.0000  19.0000 </r>
       <r>  -4.6118   0.0000  19.0000 </r>
       <r>  -4.5284   0.0000  19.0000 </r>
       <r>  -4.4450   0.0000  19.0000 </r>
       <r>  -4.3617   0.0000  19.0000 </r>
       <r>  -4.2783  -0.0001  19.0000 </r>
       <r>  -4.1950  -0.0008  18.9999 </r>
       <r>  -4.1116  -0.0077  18.9993 </r>
       <r>  -4.0283  -0.0486  18.9952 </r>
       <r>  -3.9449  -0.1934  18.9791 </r>
       <r>  -3.8616  -0.4156  18.9445 </r>
       <r>  -3.7782  -0.0920  18.9368 </r>
       <r>  -3.6949   2.0388  19.1067 </r>
       <r>  -3.6115   5.8645  19.5956 </r>
       <r>  -3.5281   8.2425  20.2826 </r>
       <r>  -3.4448   6.5389  20.8277 </r>
       <r>  -3.3614   2.6783  21.0509 </r>
       <r>  -3.2781   0.1335  21.0620 </r>
       <r>  -3.1947  -0.4309  21.0261 </r>
       <r>  -3.1114  -0.2356  21.0065 </r>
       <r>  -3.0280  -0.0652  21.0010 </r>
       <r>  -2.9447  -0.0112  21.0001 </r>
       <r>  -2.8613  -0.0013  21.0000 </r>
       <r>  -2.7780  -0.0001  21.0000 </r>
       <r>  -2.6946  -0.0002  21.0000 </r>
       <r>  -2.6113  -0.0020  20.9998 </r>
       <r>  -2.5279  -0.0144  20.9986 </r>
       <r>  -2.4445  -0.0665  20.9931 </r>
       <r>  -2.3612  -0.1788  20.9782 </r>
       <r>  -2.2778  -0.1631  20.9646 </r>
       <r>  -2.1945   0.5653  21.0117 </r>
       <r>  -2.1111   2.3195  21.2050 </r>
       <r>  -2.0278   3.9472  21.5341 </r>
       <r>  -1.9444   3.7376  21.8456 </r>
       <r>  -1.8611   1.9315  22.0066 </r>
       <r>  -1.7777   0.3389  22.0348 </r>
       <r>  -1.6944  -0.1994  22.0182 </r>
       <r>  -1.6110  -0.1558  22.0052 </r>
       <r>  -1.5276  -0.0514  22.0010 </r>
       <r>  -1.4443  -0.0101  22.0001 </r>
       <r>  -1.3609  -0.0013  22.0000 </r>
       <r>  -1.2776  -0.0001  22.0000 </r>
       <r>  -1.1942  -0.0002  22.0000 </r>
       <r>  -1.1109  -0.0020  21.9998 </r>
       <r>  -1.0275  -0.0165  21.9984 </r>
       <r>  -0.9442  -0.0879  21.9911 </r>
       <r>  -0.8608  -0.2851  21.9674 </r>
       <r>  -0.7775  -0.4284  21.9316 </r>
       <r>  -0.6941   0.4156  21.9663 </r>
       <r>  -0.6108   3.2881  22.2404 </r>
       <r>  -0.5274   6.9627  22.8207 </r>
       <r>  -0.4440   8.2766  23.5106 </r>
       <r>  -0.3607   6.7568  24.0738 </r>
       <r>  -0.2773   4.9857  24.4894 </r>
       <r>  -0.1940   3.7861  24.8050 </r>
       <r>  -0.1106   2.2030  24.9886 </r>
       <r>  -0.0273   0.5918  25.0380 </r>
       <r>   0.0561  -0.1625  25.0244 </r>
       <r>   0.1394  -0.2255  25.0056 </r>
       <r>   0.2228  -0.1844  24.9902 </r>
       <r>   0.3061  -0.2304  24.9710 </r>
       <r>   0.3895  -0.0062  24.9705 </r>
       <r>   0.4729   1.1419  25.0657 </r>
       <r>   0.5562   3.0322  25.3185 </r>
       <r>   0.6396   3.9829  25.6504 </r>
       <r>   0.7229   2.9233  25.8941 </r>
       <r>   0.8063   1.4675  26.0164 </r>
       <r>   0.8896   1.7770  26.1646 </r>
       <r>   0.9730   3.2581  26.4361 </r>
       <r>   1.0563   3.4819  26.7264 </r>
       <r>   1.1397   2.2783  26.9163 </r>
       <r>   1.2230   2.5293  27.1271 </r>
       <r>   1.3064   5.5360  27.5885 </r>
       <r>   1.3897   8.0311  28.2580 </r>
       <r>   1.4731   6.6280  28.8104 </r>
       <r>   1.5565   2.8359  29.0468 </r>
       <r>   1.6398   0.2006  29.0636 </r>
       <r>   1.7232  -0.4316  29.0276 </r>
       <r>   1.8065  -0.2469  29.0070 </r>
       <r>   1.8899  -0.0701  29.0012 </r>
       <r>   1.9732  -0.0123  29.0001 </r>
       <r>   2.0566  -0.0016  29.0000 </r>
       <r>   2.1399  -0.0020  28.9998 </r>
       <r>   2.2233  -0.0155  28.9985 </r>
       <r>   2.3066  -0.0838  28.9916 </r>
       <r>   2.3900  -0.2761  28.9685 </r>
       <r>   2.4734  -0.4245  28.9332 </r>
       <r>   2.5567   0.3991  28.9664 </r>
       <r>   2.6401   3.3018  29.2416 </r>
       <r>   2.7234   7.0784  29.8317 </r>
       <r>   2.8068   8.1077  30.5075 </r>
       <r>   2.8901   5.2139  30.9421 </r>
       <r>   2.9735   1.5231  31.0690 </r>
       <r>   3.0568  -0.2381  31.0492 </r>
       <r>   3.1402  -0.3880  31.0168 </r>
       <r>   3.2235  -0.1592  31.0036 </r>
       <r>   3.3069  -0.0368  31.0005 </r>
       <r>   3.3902  -0.0054  31.0000 </r>
       <r>   3.4736  -0.0005  31.0000 </r>
       <r>   3.5570   0.0000  31.0000 </r>
       <r>   3.6403   0.0000  31.0000 </r>
       <r>   3.7237   0.0000  31.0000 </r>
       <r>   3.8070  -0.0001  31.0000 </r>
       <r>   3.8904  -0.0014  30.9999 </r>
       <r>   3.9737  -0.0110  30.9990 </r>
       <r>   4.0571  -0.0545  30.9944 </r>
       <r>   4.1404  -0.1611  30.9810 </r>
       <r>   4.2238  -0.1936  30.9648 </r>
       <r>   4.3071   0.3826  30.9967 </r>
       <r>   4.3905   1.9935  31.1629 </r>
       <r>   4.4739   3.6728  31.4690 </r>
       <r>   4.5572   3.5703  31.7666 </r>
       <r>   4.6406   1.8655  31.9221 </r>
       <r>   4.7239   1.4152  32.0401 </r>
       <r>   4.8073   4.0957  32.3815 </r>
       <r>   4.8906   7.5394  33.0099 </r>
       <r>   4.9740   7.6293  33.6459 </r>
       <r>   5.0573   4.2168  33.9974 </r>
       <r>   5.1407   0.8800  34.0707 </r>
       <r>   5.2240  -0.3704  34.0398 </r>
       <r>   5.3074  -0.3339  34.0120 </r>
       <r>   5.3908  -0.1165  34.0023 </r>
       <r>   5.4741  -0.0240  34.0003 </r>
       <r>   5.5575  -0.0032  34.0000 </r>
       <r>   5.6408  -0.0003  34.0000 </r>
       <r>   5.7242  -0.0003  34.0000 </r>
       <r>   5.8075  -0.0029  33.9997 </r>
       <r>   5.8909  -0.0193  33.9981 </r>
       <r>   5.9742  -0.0822  33.9913 </r>
       <r>   6.0576  -0.1965  33.9749 </r>
       <r>   6.1409  -0.1090  33.9658 </r>
       <r>   6.2243   0.8009  34.0326 </r>
       <r>   6.3076   2.6602  34.2543 </r>
       <r>   6.3910   4.0689  34.5935 </r>
       <r>   6.4744   3.4984  34.8851 </r>
       <r>   6.5577   1.5993  35.0184 </r>
       <r>   6.6411   0.1734  35.0328 </r>
       <r>   6.7244  -0.2345  35.0133 </r>
       <r>   6.8078  -0.2399  34.9933 </r>
       <r>   6.8911  -0.3560  34.9636 </r>
       <r>   6.9745  -0.4016  34.9301 </r>
       <r>   7.0578   0.7133  34.9896 </r>
       <r>   7.1412   3.9299  35.3172 </r>
       <r>   7.2245   7.5099  35.9432 </r>
       <r>   7.3079   7.8128  36.5944 </r>
       <r>   7.3913   4.3717  36.9588 </r>
       <r>   7.4746   0.6684  37.0145 </r>
       <r>   7.5580  -0.4019  36.9810 </r>
       <r>   7.6413   1.7622  37.1279 </r>
       <r>   7.7247   5.8228  37.6132 </r>
       <r>   7.8080   8.2232  38.2987 </r>
       <r>   7.8914   6.4521  38.8365 </r>
       <r>   7.9747   2.5819  39.0517 </r>
       <r>   8.0581   0.0429  39.0553 </r>
       <r>   8.1414  -0.5969  39.0055 </r>
       <r>   8.2248  -0.4154  38.9709 </r>
       <r>   8.3081   0.3766  39.0023 </r>
       <r>   8.3915   2.1020  39.1775 </r>
       <r>   8.4749   3.8436  39.4979 </r>
       <r>   8.5582   3.8578  39.8194 </r>
       <r>   8.6416   2.1369  39.9976 </r>
       <r>   8.7249   0.4536  40.0354 </r>
       <r>   8.8083  -0.1831  40.0201 </r>
       <r>   8.8916  -0.1682  40.0061 </r>
       <r>   8.9750  -0.0591  40.0012 </r>
       <r>   9.0583  -0.0122  40.0001 </r>
       <r>   9.1417  -0.0016  40.0000 </r>
       <r>   9.2250  -0.0001  40.0000 </r>
       <r>   9.3084   0.0000  40.0000 </r>
       <r>   9.3918   0.0000  40.0000 </r>
       <r>   9.4751   0.0000  40.0000 </r>
       <r>   9.5585   0.0000  40.0000 </r>
       <r>   9.6418   0.0000  40.0000 </r>
       <r>   9.7252   0.0000  40.0000 </r>
       <r>   9.8085   0.0000  40.0000 </r>
       <r>   9.8919   0.0000  40.0000 </r>
       <r>   9.9752   0.0000  40.0000 </r>
       <r>  10.0586   0.0000  40.0000 </r>
       <r>  10.1419   0.0000  40.0000 </r>
       <r>  10.2253   0.0000  40.0000 </r>
       <r>  10.3086   0.0000  40.0000 </r>
       <r>  10.3920   0.0000  40.0000 </r>
       <r>  10.4754   0.0000  40.0000 </r>
      </set>
     </set>
    </array>
   </total>
  </dos>
 </calculation>
 <structure name="finalpos" >
  <crystal>
   <varray name="basis" >
    <v>       5.62660000       0.00000000       0.00000000 </v>
    <v>       0.00000000       5.62660000       0.00000000 </v>
    <v>       0.00000000       0.00000000       5.62660000 </v>
   </varray>
   <i name="volume">    178.13043383 </i>
   <varray name="rec_basis" >
    <v>       0.17772722       0.00000000       0.00000000 </v>
    <v>       0.00000000       0.17772722       0.00000000 </v>
    <v>       0.00000000       0.00000000       0.17772722 </v>
   </varray>
  </crystal>
  <varray name="positions" >
   <v>       0.50000000       0.50000000       0.00000000 </v>
   <v>       0.00000000       0.50000000       0.50000000 </v>
   <v>       0.50000000       0.00000000       0.50000000 </v>
   <v>       0.23420219       0.23420219       0.23420219 </v>
   <v>       0.76579781       0.76579781       0.23420219 </v>
   <v>       0.23420219       0.76579781       0.76579781 </v>
   <v>       0.76579781       0.23420219       0.76579781 </v>
  </varray>
 </structure>
</modeling>
