   7   7   0   0
  0.2544720E+02  0.5626600E-09  0.5626600E-09  0.5626600E-09  0.5000000E-15
  1.000000000000000E-004
  CAR 
 unknown system                          
     10.37226317    -14.52810263  301      2.65004570      1.00000000
    -14.528  0.0000E+00  0.0000E+00  0.0000E+00  0.0000E+00
    -14.445  0.0000E+00  0.0000E+00  0.0000E+00  0.0000E+00
    -14.362  0.0000E+00  0.0000E+00  0.0000E+00  0.0000E+00
    -14.279  0.0000E+00  0.0000E+00  0.0000E+00  0.0000E+00
    -14.196 -0.1758E-28 -0.5758E-29 -0.1459E-29 -0.4779E-30
    -14.113 -0.1799E-25 -0.6386E-26 -0.1495E-26 -0.5305E-27
    -14.030 -0.1059E-22 -0.3983E-23 -0.8806E-24 -0.3311E-24
    -13.947 -0.4416E-20 -0.1759E-20 -0.3675E-21 -0.1463E-21
    -13.864 -0.1305E-17 -0.5503E-18 -0.1087E-18 -0.4582E-19
    -13.781 -0.2730E-15 -0.1220E-15 -0.2277E-16 -0.1017E-16
    -13.698 -0.3981E-13 -0.1849E-13 -0.3327E-14 -0.1545E-14
    -13.615 -0.4113E-11 -0.2064E-11 -0.3447E-12 -0.1729E-12
    -13.532 -0.3041E-09 -0.1618E-09 -0.2559E-10 -0.1360E-10
    -13.449 -0.1591E-07 -0.8974E-08 -0.1346E-08 -0.7585E-09
    -13.366 -0.5880E-06 -0.3519E-06 -0.5015E-07 -0.2996E-07
    -13.283 -0.1534E-04 -0.9741E-05 -0.1323E-05 -0.8385E-06
    -13.200 -0.2819E-03 -0.1901E-03 -0.2472E-04 -0.1662E-04
    -13.117 -0.3635E-02 -0.2605E-02 -0.3264E-03 -0.2328E-03
    -13.034 -0.3268E-01 -0.2491E-01 -0.3039E-02 -0.2301E-02
    -12.951 -0.2018E+00 -0.1640E+00 -0.1979E-01 -0.1591E-01
    -12.868 -0.8281E+00 -0.7208E+00 -0.8852E-01 -0.7574E-01
    -12.785 -0.2051E+01 -0.1947E+01 -0.2587E+00 -0.2373E+00
    -12.702 -0.1840E+01 -0.2212E+01 -0.4115E+00 -0.4209E+00
    -12.619  0.6004E+01  0.4440E+01  0.8690E-01 -0.5243E-01
    -12.536  0.2639E+02  0.2391E+02  0.2277E+01  0.1932E+01
    -12.453  0.5012E+02  0.4866E+02  0.6437E+01  0.5971E+01
    -12.370  0.5627E+02  0.5734E+02  0.1111E+02  0.1073E+02
    -12.287  0.3814E+02  0.4063E+02  0.1427E+02  0.1410E+02
    -12.204  0.1341E+02  0.1521E+02  0.1539E+02  0.1537E+02
    -12.121 -0.2527E+00  0.2651E+00  0.1537E+02  0.1539E+02
    -12.038 -0.2635E+01 -0.2718E+01  0.1515E+02  0.1516E+02
    -11.955 -0.1332E+01 -0.1453E+01  0.1504E+02  0.1504E+02
    -11.872 -0.3646E+00 -0.4106E+00  0.1501E+02  0.1501E+02
    -11.789 -0.6352E-01 -0.7335E-01  0.1500E+02  0.1500E+02
    -11.706 -0.7414E-02 -0.8753E-02  0.1500E+02  0.1500E+02
    -11.623 -0.5931E-03 -0.7147E-03  0.1500E+02  0.1500E+02
    -11.540 -0.3291E-04 -0.4044E-04  0.1500E+02  0.1500E+02
    -11.457 -0.1276E-05 -0.1598E-05  0.1500E+02  0.1500E+02
    -11.374 -0.3471E-07 -0.4426E-07  0.1500E+02  0.1500E+02
    -11.291 -0.6643E-09 -0.8624E-09  0.1500E+02  0.1500E+02
    -11.208 -0.8959E-11 -0.1184E-10  0.1500E+02  0.1500E+02
    -11.125 -0.8828E-13 -0.1204E-12  0.1500E+02  0.1500E+02
    -11.042  0.0000E+00  0.0000E+00  0.1500E+02  0.1500E+02
    -10.959  0.0000E+00  0.0000E+00  0.1500E+02  0.1500E+02
    -10.876 -0.1879E-28  0.0000E+00  0.1500E+02  0.1500E+02
    -10.793 -0.1518E-25  0.0000E+00  0.1500E+02  0.1500E+02
    -10.710 -0.8672E-23 -0.3991E-28  0.1500E+02  0.1500E+02
    -10.627 -0.3499E-20 -0.3103E-25  0.1500E+02  0.1500E+02
    -10.544 -0.9968E-18 -0.1706E-22  0.1500E+02  0.1500E+02
    -10.461 -0.2003E-15 -0.6627E-20  0.1500E+02  0.1500E+02
    -10.378 -0.2772E-13 -0.1817E-17  0.1500E+02  0.1500E+02
    -10.295 -0.2739E-11 -0.3514E-15  0.1500E+02  0.1500E+02
    -10.212 -0.1912E-09 -0.4657E-13  0.1500E+02  0.1500E+02
    -10.129 -0.9363E-08 -0.4445E-11  0.1500E+02  0.1500E+02
    -10.046 -0.3206E-06 -0.2985E-09  0.1500E+02  0.1500E+02
     -9.963 -0.7643E-05 -0.1405E-07  0.1500E+02  0.1500E+02
     -9.880 -0.1261E-03 -0.4625E-06  0.1500E+02  0.1500E+02
     -9.797 -0.1426E-02 -0.1059E-04  0.1500E+02  0.1500E+02
     -9.714 -0.1086E-01 -0.1678E-03  0.1500E+02  0.1500E+02
     -9.631 -0.5381E-01 -0.1818E-02  0.1499E+02  0.1500E+02
     -9.548 -0.1594E+00 -0.1323E-01  0.1498E+02  0.1500E+02
     -9.465 -0.1961E+00 -0.6234E-01  0.1496E+02  0.1499E+02
     -9.382  0.3612E+00 -0.1726E+00  0.1499E+02  0.1498E+02
     -9.299  0.1965E+01 -0.1768E+00  0.1516E+02  0.1496E+02
     -9.216  0.3754E+01  0.4867E+00  0.1547E+02  0.1500E+02
     -9.133  0.3940E+01  0.2185E+01  0.1580E+02  0.1519E+02
     -9.050  0.2311E+01  0.3879E+01  0.1599E+02  0.1551E+02
     -8.967  0.5648E+00  0.3828E+01  0.1604E+02  0.1583E+02
     -8.884 -0.1623E+00  0.2090E+01  0.1602E+02  0.1600E+02
     -8.801 -0.1798E+00  0.4311E+00  0.1601E+02  0.1604E+02
     -8.718 -0.6766E-01 -0.1861E+00  0.1600E+02  0.1602E+02
     -8.635 -0.1548E-01 -0.1670E+00  0.1600E+02  0.1601E+02
     -8.552 -0.8838E-02 -0.5861E-01  0.1600E+02  0.1600E+02
     -8.469 -0.4375E-01 -0.1275E-01  0.1600E+02  0.1600E+02
     -8.386 -0.1785E+00 -0.7469E-02  0.1598E+02  0.1600E+02
     -8.303 -0.4058E+00 -0.3887E-01  0.1595E+02  0.1600E+02
     -8.220 -0.1778E+00 -0.1643E+00  0.1593E+02  0.1598E+02
     -8.137  0.1724E+01 -0.3929E+00  0.1608E+02  0.1595E+02
     -8.054  0.5376E+01 -0.2311E+00  0.1652E+02  0.1593E+02
     -7.971  0.7980E+01  0.1529E+01  0.1718E+02  0.1606E+02
     -7.888  0.7145E+01  0.5135E+01  0.1778E+02  0.1648E+02
     -7.805  0.4868E+01  0.7900E+01  0.1818E+02  0.1714E+02
     -7.722  0.3950E+01  0.7121E+01  0.1851E+02  0.1773E+02
     -7.639  0.3572E+01  0.4587E+01  0.1881E+02  0.1811E+02
     -7.556  0.2196E+01  0.3609E+01  0.1899E+02  0.1841E+02
     -7.473  0.5845E+00  0.3706E+01  0.1904E+02  0.1872E+02
     -7.390 -0.1557E+00  0.2747E+01  0.1902E+02  0.1895E+02
     -7.307 -0.1895E+00  0.1023E+01  0.1901E+02  0.1903E+02
     -7.224 -0.7432E-01 -0.3074E-01  0.1900E+02  0.1903E+02
     -7.141 -0.1681E-01 -0.2136E+00  0.1900E+02  0.1901E+02
     -7.058 -0.2442E-02 -0.1042E+00  0.1900E+02  0.1900E+02
     -6.975 -0.2376E-03 -0.2725E-01  0.1900E+02  0.1900E+02
     -6.892 -0.1579E-04 -0.4483E-02  0.1900E+02  0.1900E+02
     -6.809 -0.7245E-06 -0.4892E-03  0.1900E+02  0.1900E+02
     -6.726 -0.2313E-07 -0.3629E-04  0.1900E+02  0.1900E+02
     -6.643 -0.5157E-09 -0.1855E-05  0.1900E+02  0.1900E+02
     -6.560 -0.8063E-11 -0.6580E-07  0.1900E+02  0.1900E+02
     -6.477 -0.8828E-13 -0.1629E-08  0.1900E+02  0.1900E+02
     -6.394  0.0000E+00 -0.2824E-10  0.1900E+02  0.1900E+02
     -6.311  0.0000E+00 -0.3451E-12  0.1900E+02  0.1900E+02
     -6.228  0.0000E+00 -0.2675E-14  0.1900E+02  0.1900E+02
     -6.145  0.0000E+00  0.0000E+00  0.1900E+02  0.1900E+02
     -6.062  0.0000E+00  0.0000E+00  0.1900E+02  0.1900E+02
     -5.979  0.0000E+00  0.0000E+00  0.1900E+02  0.1900E+02
     -5.896  0.0000E+00  0.0000E+00  0.1900E+02  0.1900E+02
     -5.813  0.0000E+00  0.0000E+00  0.1900E+02  0.1900E+02
     -5.730  0.0000E+00  0.0000E+00  0.1900E+02  0.1900E+02
     -5.647  0.0000E+00  0.0000E+00  0.1900E+02  0.1900E+02
     -5.564  0.0000E+00  0.0000E+00  0.1900E+02  0.1900E+02
     -5.481  0.0000E+00  0.0000E+00  0.1900E+02  0.1900E+02
     -5.398  0.0000E+00  0.0000E+00  0.1900E+02  0.1900E+02
     -5.315 -0.3992E-26  0.0000E+00  0.1900E+02  0.1900E+02
     -5.232 -0.2536E-23 -0.1478E-26  0.1900E+02  0.1900E+02
     -5.149 -0.1139E-20 -0.9887E-24  0.1900E+02  0.1900E+02
     -5.066 -0.3614E-18 -0.4679E-21  0.1900E+02  0.1900E+02
     -4.983 -0.8090E-16 -0.1563E-18  0.1900E+02  0.1900E+02
     -4.900 -0.1277E-13 -0.3687E-16  0.1900E+02  0.1900E+02
     -4.817 -0.1375E-11 -0.6132E-14  0.1900E+02  0.1900E+02
     -4.734 -0.1071E-09 -0.6960E-12  0.1900E+02  0.1900E+02
     -4.651 -0.5852E-08 -0.5715E-10  0.1900E+02  0.1900E+02
     -4.568 -0.2238E-06 -0.3293E-08  0.1900E+02  0.1900E+02
     -4.485 -0.5970E-05 -0.1329E-06  0.1900E+02  0.1900E+02
     -4.402 -0.1105E-03 -0.3741E-05  0.1900E+02  0.1900E+02
     -4.319 -0.1405E-02 -0.7314E-04  0.1900E+02  0.1900E+02
     -4.236 -0.1212E-01 -0.9849E-03  0.1900E+02  0.1900E+02
     -4.153 -0.6898E-01 -0.9014E-02  0.1899E+02  0.1900E+02
     -4.070 -0.2433E+00 -0.5472E-01  0.1897E+02  0.1899E+02
     -3.987 -0.4316E+00 -0.2088E+00  0.1894E+02  0.1898E+02
     -3.904  0.1674E+00 -0.4234E+00  0.1895E+02  0.1894E+02
     -3.821  0.2750E+01 -0.2593E-01  0.1918E+02  0.1894E+02
     -3.738  0.6594E+01  0.2228E+01  0.1973E+02  0.1912E+02
     -3.655  0.8239E+01  0.6064E+01  0.2041E+02  0.1963E+02
     -3.572  0.5837E+01  0.8260E+01  0.2089E+02  0.2031E+02
     -3.489  0.2028E+01  0.6384E+01  0.2106E+02  0.2084E+02
     -3.406 -0.9148E-01  0.2534E+01  0.2106E+02  0.2105E+02
     -3.323 -0.4165E+00  0.8352E-01  0.2102E+02  0.2106E+02
     -3.240 -0.1954E+00 -0.4300E+00  0.2100E+02  0.2103E+02
     -3.157 -0.4968E-01 -0.2291E+00  0.2100E+02  0.2101E+02
     -3.074 -0.7975E-02 -0.6288E-01  0.2100E+02  0.2100E+02
     -2.991 -0.8727E-03 -0.1076E-01  0.2100E+02  0.2100E+02
     -2.908 -0.3799E-03 -0.1221E-02  0.2100E+02  0.2100E+02
     -2.825 -0.3127E-02 -0.1466E-03  0.2100E+02  0.2100E+02
     -2.742 -0.2046E-01 -0.6840E-03  0.2100E+02  0.2100E+02
     -2.659 -0.8540E-01 -0.5891E-02  0.2099E+02  0.2100E+02
     -2.576 -0.1991E+00 -0.3373E-01  0.2097E+02  0.2100E+02
     -2.493 -0.9990E-01 -0.1199E+00  0.2097E+02  0.2099E+02
     -2.410  0.8295E+00 -0.2157E+00  0.2103E+02  0.2097E+02
     -2.327  0.2690E+01  0.7325E-01  0.2126E+02  0.2097E+02
     -2.244  0.4075E+01  0.1349E+01  0.2160E+02  0.2109E+02
     -2.161  0.3489E+01  0.3272E+01  0.2189E+02  0.2136E+02
     -2.078  0.1595E+01  0.4123E+01  0.2202E+02  0.2170E+02
     -1.995  0.1772E+00  0.2946E+01  0.2203E+02  0.2195E+02
     -1.912 -0.2135E+00  0.1038E+01  0.2202E+02  0.2203E+02
     -1.829 -0.1360E+00 -0.3817E-01  0.2200E+02  0.2203E+02
     -1.746 -0.4112E-01 -0.2092E+00  0.2200E+02  0.2201E+02
     -1.663 -0.7613E-02 -0.9931E-01  0.2200E+02  0.2200E+02
     -1.580 -0.9256E-03 -0.2543E-01  0.2200E+02  0.2200E+02
     -1.497 -0.7883E-04 -0.4107E-02  0.2200E+02  0.2200E+02
     -1.414 -0.5986E-04 -0.4415E-03  0.2200E+02  0.2200E+02
     -1.331 -0.7783E-03 -0.5180E-04  0.2200E+02  0.2200E+02
     -1.248 -0.7433E-02 -0.3157E-03  0.2200E+02  0.2200E+02
     -1.165 -0.4743E-01 -0.3438E-02  0.2200E+02  0.2200E+02
     -1.082 -0.1936E+00 -0.2531E-01  0.2198E+02  0.2200E+02
     -0.999 -0.4466E+00 -0.1209E+00  0.2194E+02  0.2199E+02
     -0.916 -0.2529E+00 -0.3429E+00  0.2192E+02  0.2196E+02
     -0.833  0.1690E+01 -0.3878E+00  0.2206E+02  0.2193E+02
     -0.750  0.5788E+01  0.8177E+00  0.2254E+02  0.2199E+02
     -0.667  0.9623E+01  0.4060E+01  0.2334E+02  0.2233E+02
     -0.584  0.1005E+02  0.7643E+01  0.2417E+02  0.2297E+02
     -0.501  0.7005E+01  0.8679E+01  0.2476E+02  0.2369E+02
     -0.418  0.3111E+01  0.7145E+01  0.2501E+02  0.2428E+02
     -0.335  0.5552E+00  0.5033E+01  0.2506E+02  0.2470E+02
     -0.252 -0.3069E+00  0.2985E+01  0.2503E+02  0.2495E+02
     -0.169 -0.2809E+00  0.1090E+01  0.2501E+02  0.2504E+02
     -0.086 -0.1154E+00 -0.1547E-01  0.2500E+02  0.2503E+02
     -0.003 -0.6267E-01 -0.2437E+00  0.2500E+02  0.2501E+02
      0.080 -0.1371E+00 -0.1459E+00  0.2499E+02  0.2500E+02
      0.163 -0.2595E+00 -0.1119E+00  0.2496E+02  0.2499E+02
      0.246 -0.3602E-01 -0.1975E+00  0.2496E+02  0.2498E+02
      0.329  0.1214E+01 -0.1528E+00  0.2506E+02  0.2496E+02
      0.412  0.3552E+01  0.6129E+00  0.2536E+02  0.2501E+02
      0.495  0.5774E+01  0.2305E+01  0.2584E+02  0.2521E+02
      0.578  0.6405E+01  0.3845E+01  0.2637E+02  0.2552E+02
      0.661  0.5001E+01  0.4187E+01  0.2678E+02  0.2587E+02
      0.744  0.2443E+01  0.4073E+01  0.2699E+02  0.2621E+02
      0.827  0.2357E+00  0.4174E+01  0.2700E+02  0.2656E+02
      0.910 -0.5789E+00  0.3444E+01  0.2696E+02  0.2684E+02
      0.993  0.6536E+00  0.1505E+01  0.2701E+02  0.2697E+02
      1.076  0.4114E+01 -0.3089E-01  0.2735E+02  0.2697E+02
      1.159  0.7648E+01  0.7303E+00  0.2799E+02  0.2703E+02
      1.242  0.7746E+01  0.4140E+01  0.2863E+02  0.2737E+02
      1.325  0.4350E+01  0.7668E+01  0.2899E+02  0.2801E+02
      1.408  0.9619E+00  0.7683E+01  0.2907E+02  0.2864E+02
      1.491 -0.3557E+00  0.4246E+01  0.2904E+02  0.2900E+02
      1.574 -0.3440E+00  0.9009E+00  0.2901E+02  0.2907E+02
      1.657 -0.1239E+00 -0.3659E+00  0.2900E+02  0.2904E+02
      1.740 -0.2642E-01 -0.3380E+00  0.2900E+02  0.2901E+02
      1.823 -0.5719E-02 -0.1198E+00  0.2900E+02  0.2900E+02
      1.906 -0.1736E-01 -0.2508E-01  0.2900E+02  0.2900E+02
      1.989 -0.8959E-01 -0.3671E-02  0.2899E+02  0.2900E+02
      2.072 -0.2865E+00 -0.3334E-02  0.2897E+02  0.2900E+02
      2.155 -0.4201E+00 -0.2280E-01  0.2893E+02  0.2900E+02
      2.238  0.4597E+00 -0.1115E+00  0.2897E+02  0.2899E+02
      2.321  0.3416E+01 -0.3252E+00  0.2925E+02  0.2896E+02
      2.404  0.7154E+01 -0.3844E+00  0.2985E+02  0.2893E+02
      2.487  0.8083E+01  0.7799E+00  0.3052E+02  0.2899E+02
      2.570  0.5147E+01  0.4035E+01  0.3095E+02  0.2933E+02
      2.653  0.1486E+01  0.7572E+01  0.3107E+02  0.2996E+02
      2.736 -0.2448E+00  0.7831E+01  0.3105E+02  0.3061E+02
      2.819 -0.3873E+00  0.4516E+01  0.3102E+02  0.3098E+02
      2.902 -0.1592E+00  0.1063E+01  0.3100E+02  0.3107E+02
      2.985 -0.3706E-01 -0.3374E+00  0.3100E+02  0.3104E+02
      3.068 -0.5519E-02 -0.3536E+00  0.3100E+02  0.3101E+02
      3.151 -0.5491E-03 -0.1307E+00  0.3100E+02  0.3100E+02
      3.234 -0.3728E-04 -0.2823E-01  0.3100E+02  0.3100E+02
      3.317 -0.1748E-05 -0.3937E-02  0.3100E+02  0.3100E+02
      3.400 -0.9110E-07 -0.3685E-03  0.3100E+02  0.3100E+02
      3.483 -0.1030E-05 -0.2360E-04  0.3100E+02  0.3100E+02
      3.566 -0.2155E-04 -0.1502E-05  0.3100E+02  0.3100E+02
      3.649 -0.3114E-03 -0.1054E-04  0.3100E+02  0.3100E+02
      3.732 -0.3068E-02 -0.1666E-03  0.3100E+02  0.3100E+02
      3.815 -0.2017E-01 -0.1807E-02  0.3100E+02  0.3100E+02
      3.898 -0.8455E-01 -0.1317E-01  0.3099E+02  0.3100E+02
      3.981 -0.1986E+00 -0.6213E-01  0.3097E+02  0.3099E+02
      4.064 -0.1061E+00 -0.1725E+00  0.3097E+02  0.3098E+02
      4.147  0.7957E+00 -0.1799E+00  0.3103E+02  0.3096E+02
      4.230  0.2569E+01  0.4638E+00  0.3124E+02  0.3100E+02
      4.313  0.3757E+01  0.2080E+01  0.3156E+02  0.3118E+02
      4.396  0.3104E+01  0.3571E+01  0.3181E+02  0.3147E+02
      4.479  0.2292E+01  0.3425E+01  0.3200E+02  0.3176E+02
      4.562  0.4037E+01  0.2701E+01  0.3234E+02  0.3198E+02
      4.645  0.7246E+01  0.4142E+01  0.3294E+02  0.3232E+02
      4.728  0.7778E+01  0.7178E+01  0.3359E+02  0.3292E+02
      4.811  0.4659E+01  0.7809E+01  0.3397E+02  0.3357E+02
      4.894  0.1173E+01  0.4789E+01  0.3407E+02  0.3397E+02
      4.977 -0.3152E+00  0.1265E+01  0.3404E+02  0.3407E+02
      5.060 -0.3640E+00 -0.2953E+00  0.3401E+02  0.3405E+02
      5.143 -0.1386E+00 -0.3720E+00  0.3400E+02  0.3402E+02
      5.226 -0.3060E-01 -0.1452E+00  0.3400E+02  0.3400E+02
      5.309 -0.4367E-02 -0.3260E-01  0.3400E+02  0.3400E+02
      5.392 -0.6825E-03 -0.4714E-02  0.3400E+02  0.3400E+02
      5.475 -0.2732E-02 -0.6034E-03  0.3400E+02  0.3400E+02
      5.558 -0.1824E-01 -0.1672E-02  0.3400E+02  0.3400E+02
      5.641 -0.7869E-01 -0.1218E-01  0.3399E+02  0.3400E+02
      5.724 -0.1927E+00 -0.5863E-01  0.3398E+02  0.3399E+02
      5.807 -0.1257E+00 -0.1671E+00  0.3397E+02  0.3398E+02
      5.890  0.7295E+00 -0.1859E+00  0.3403E+02  0.3396E+02
      5.973  0.2555E+01  0.4319E+00  0.3424E+02  0.3400E+02
      6.056  0.4036E+01  0.2092E+01  0.3457E+02  0.3417E+02
      6.139  0.3591E+01  0.3829E+01  0.3487E+02  0.3449E+02
      6.222  0.1726E+01  0.3879E+01  0.3501E+02  0.3481E+02
      6.305  0.2385E+00  0.2183E+01  0.3503E+02  0.3500E+02
      6.388 -0.2104E+00  0.4858E+00  0.3502E+02  0.3504E+02
      6.471 -0.1539E+00 -0.1775E+00  0.3500E+02  0.3502E+02
      6.554 -0.1024E+00 -0.1779E+00  0.3500E+02  0.3501E+02
      6.637 -0.2232E+00 -0.9897E-01  0.3498E+02  0.3500E+02
      6.720 -0.4269E+00 -0.1713E+00  0.3494E+02  0.3498E+02
      6.803  0.3809E-02 -0.3879E+00  0.3494E+02  0.3495E+02
      6.886  0.2314E+01 -0.2491E+00  0.3513E+02  0.3493E+02
      6.969  0.6149E+01  0.1469E+01  0.3564E+02  0.3505E+02
      7.052  0.8210E+01  0.5119E+01  0.3633E+02  0.3548E+02
      7.135  0.6090E+01  0.8046E+01  0.3683E+02  0.3615E+02
      7.218  0.2023E+01  0.7034E+01  0.3700E+02  0.3673E+02
      7.301 -0.1306E-03  0.3076E+01  0.3700E+02  0.3698E+02
      7.384  0.1726E+01  0.1532E+00  0.3714E+02  0.3700E+02
      7.467  0.5759E+01  0.7458E+00  0.3762E+02  0.3706E+02
      7.550  0.8193E+01  0.4389E+01  0.3830E+02  0.3742E+02
      7.633  0.6450E+01  0.7815E+01  0.3884E+02  0.3807E+02
      7.716  0.2604E+01  0.7457E+01  0.3905E+02  0.3869E+02
      7.799  0.7822E-01  0.3871E+01  0.3906E+02  0.3901E+02
      7.882 -0.5529E+00  0.6777E+00  0.3901E+02  0.3907E+02
      7.965 -0.4500E+00 -0.4646E+00  0.3897E+02  0.3903E+02
      8.048  0.2117E-01 -0.4963E+00  0.3898E+02  0.3899E+02
      8.131  0.1370E+01 -0.2654E+00  0.3909E+02  0.3897E+02
      8.214  0.3301E+01  0.5560E+00  0.3936E+02  0.3901E+02
      8.297  0.4119E+01  0.2328E+01  0.3971E+02  0.3921E+02
      8.380  0.2912E+01  0.3949E+01  0.3995E+02  0.3953E+02
      8.463  0.1008E+01  0.3742E+01  0.4003E+02  0.3984E+02
      8.546 -0.4748E-01  0.1946E+01  0.4003E+02  0.4001E+02
      8.629 -0.2080E+00  0.3508E+00  0.4001E+02  0.4003E+02
      8.712 -0.9736E-01 -0.1975E+00  0.4000E+02  0.4002E+02
      8.795 -0.2470E-01 -0.1582E+00  0.4000E+02  0.4001E+02
      8.878 -0.3959E-02 -0.5311E-01  0.4000E+02  0.4000E+02
      8.961 -0.4218E-03 -0.1067E-01  0.4000E+02  0.4000E+02
      9.044 -0.3058E-04 -0.1395E-02  0.4000E+02  0.4000E+02
      9.127 -0.1528E-05 -0.1230E-03  0.4000E+02  0.4000E+02
      9.210 -0.5302E-07 -0.7425E-05  0.4000E+02  0.4000E+02
      9.293 -0.1284E-08 -0.3103E-06  0.4000E+02  0.4000E+02
      9.376 -0.2179E-10 -0.9033E-08  0.4000E+02  0.4000E+02
      9.459 -0.2595E-12 -0.1839E-09  0.4000E+02  0.4000E+02
      9.542 -0.2675E-14 -0.2624E-11  0.4000E+02  0.4000E+02
      9.625  0.0000E+00 -0.2675E-13  0.4000E+02  0.4000E+02
      9.708  0.0000E+00  0.0000E+00  0.4000E+02  0.4000E+02
      9.791  0.0000E+00  0.0000E+00  0.4000E+02  0.4000E+02
      9.874  0.0000E+00  0.0000E+00  0.4000E+02  0.4000E+02
      9.957  0.0000E+00  0.0000E+00  0.4000E+02  0.4000E+02
     10.040  0.0000E+00  0.0000E+00  0.4000E+02  0.4000E+02
     10.123  0.0000E+00  0.0000E+00  0.4000E+02  0.4000E+02
     10.206  0.0000E+00  0.0000E+00  0.4000E+02  0.4000E+02
     10.289  0.0000E+00  0.0000E+00  0.4000E+02  0.4000E+02
     10.372  0.0000E+00  0.0000E+00  0.4000E+02  0.4000E+02
