       N       E                     dE             d eps       ncg     rms          rms(c)
DAV:   1     0.256156379338E+01    0.25616E+01   -0.25741E+03    16   0.597E+02
DAV:   2    -0.884051534219E+01   -0.11402E+02   -0.11408E+02    24   0.697E+01
DAV:   3    -0.892644538877E+01   -0.85930E-01   -0.71111E-01    24   0.697E+00
DAV:   4    -0.892656574003E+01   -0.12035E-03   -0.12031E-03    32   0.242E-01
DAV:   5    -0.892656575387E+01   -0.13833E-07   -0.14331E-07    32   0.268E-03    0.211E+00
DAV:   6    -0.875553411622E+01    0.17103E+00   -0.23461E-01    16   0.263E+00    0.118E+00
DAV:   7    -0.870553306027E+01    0.50001E-01   -0.18542E-01    16   0.246E+00    0.292E-01
DAV:   8    -0.870560439878E+01   -0.71339E-04   -0.88665E-03    32   0.806E-01    0.231E-02
DAV:   9    -0.870558980692E+01    0.14592E-04   -0.10163E-04    24   0.731E-02
   1 F= -.87055898E+01 E0= -.86780822E+01  d E =-.870559E+01
