   7   7   0   0
  0.2544720E+02  0.5626600E-09  0.5626600E-09  0.5626600E-09  0.5000000E-15
  1.000000000000000E-004
  CAR 
 unknown system                          
      9.75317872    -14.51673295  301      2.30630552      1.00000000
    -14.517  0.0000E+00  0.0000E+00  0.0000E+00  0.0000E+00
    -14.436  0.0000E+00  0.0000E+00  0.0000E+00  0.0000E+00
    -14.355  0.0000E+00  0.0000E+00  0.0000E+00  0.0000E+00
    -14.274  0.0000E+00  0.0000E+00  0.0000E+00  0.0000E+00
    -14.193 -0.8977E-29  0.0000E+00 -0.7262E-30  0.0000E+00
    -14.112 -0.7889E-26 -0.2516E-26 -0.6389E-27 -0.2036E-27
    -14.031 -0.4134E-23 -0.1403E-23 -0.3351E-24 -0.1137E-24
    -13.950 -0.1561E-20 -0.5628E-21 -0.1266E-21 -0.4564E-22
    -13.870 -0.4249E-18 -0.1627E-18 -0.3450E-19 -0.1321E-19
    -13.789 -0.8333E-16 -0.3391E-16 -0.6776E-17 -0.2757E-17
    -13.708 -0.1177E-13 -0.5092E-14 -0.9594E-15 -0.4147E-15
    -13.627 -0.1161E-11 -0.5338E-12 -0.9488E-13 -0.4360E-13
    -13.546 -0.8471E-10 -0.4144E-10 -0.6948E-11 -0.3396E-11
    -13.465 -0.4445E-08 -0.2313E-08 -0.3665E-09 -0.1905E-09
    -13.384 -0.1676E-06 -0.9283E-07 -0.1393E-07 -0.7700E-08
    -13.303 -0.4540E-05 -0.2677E-05 -0.3812E-06 -0.2242E-06
    -13.222 -0.8812E-04 -0.5536E-04 -0.7510E-05 -0.4703E-05
    -13.141 -0.1223E-02 -0.8194E-03 -0.1065E-03 -0.7099E-04
    -13.061 -0.1208E-01 -0.8642E-02 -0.1084E-02 -0.7702E-03
    -12.980 -0.8417E-01 -0.6441E-01 -0.7893E-02 -0.5981E-02
    -12.899 -0.4057E+00 -0.3333E+00 -0.4071E-01 -0.3294E-01
    -12.818 -0.1289E+01 -0.1148E+01 -0.1450E+00 -0.1258E+00
    -12.737 -0.2296E+01 -0.2306E+01 -0.3308E+00 -0.3124E+00
    -12.656 -0.7621E-01 -0.9046E+00 -0.3370E+00 -0.3856E+00
    -12.575  0.1160E+02  0.9412E+01  0.6012E+00  0.3759E+00
    -12.494  0.3386E+02  0.3123E+02  0.3340E+01  0.2902E+01
    -12.413  0.5366E+02  0.5276E+02  0.7682E+01  0.7170E+01
    -12.332  0.5319E+02  0.5493E+02  0.1198E+02  0.1161E+02
    -12.252  0.3248E+02  0.3521E+02  0.1461E+02  0.1446E+02
    -12.171  0.9936E+01  0.1166E+02  0.1542E+02  0.1541E+02
    -12.090 -0.1070E+01 -0.6410E+00  0.1533E+02  0.1535E+02
    -12.009 -0.2496E+01 -0.2608E+01  0.1513E+02  0.1514E+02
    -11.928 -0.1191E+01 -0.1317E+01  0.1503E+02  0.1504E+02
    -11.847 -0.3257E+00 -0.3729E+00  0.1501E+02  0.1501E+02
    -11.766 -0.5829E-01 -0.6865E-01  0.1500E+02  0.1500E+02
    -11.685 -0.7139E-02 -0.8623E-02  0.1500E+02  0.1500E+02
    -11.604 -0.6108E-03 -0.7556E-03  0.1500E+02  0.1500E+02
    -11.523 -0.3692E-04 -0.4672E-04  0.1500E+02  0.1500E+02
    -11.443 -0.1587E-05 -0.2053E-05  0.1500E+02  0.1500E+02
    -11.362 -0.4869E-07 -0.6438E-07  0.1500E+02  0.1500E+02
    -11.281 -0.1070E-08 -0.1445E-08  0.1500E+02  0.1500E+02
    -11.200 -0.1686E-10 -0.2325E-10  0.1500E+02  0.1500E+02
    -11.119 -0.1976E-12 -0.2690E-12  0.1500E+02  0.1500E+02
    -11.038  0.0000E+00  0.0000E+00  0.1500E+02  0.1500E+02
    -10.957 -0.7397E-28  0.0000E+00  0.1500E+02  0.1500E+02
    -10.876 -0.4738E-25  0.0000E+00  0.1500E+02  0.1500E+02
    -10.795 -0.2184E-22 -0.3893E-28  0.1500E+02  0.1500E+02
    -10.714 -0.7235E-20 -0.2574E-25  0.1500E+02  0.1500E+02
    -10.634 -0.1722E-17 -0.1225E-22  0.1500E+02  0.1500E+02
    -10.553 -0.2941E-15 -0.4190E-20  0.1500E+02  0.1500E+02
    -10.472 -0.3466E-13 -0.1029E-17  0.1500E+02  0.1500E+02
    -10.391 -0.3060E-11 -0.1816E-15  0.1500E+02  0.1500E+02
    -10.310 -0.1913E-09 -0.2229E-13  0.1500E+02  0.1500E+02
    -10.229 -0.8537E-08 -0.2016E-11  0.1500E+02  0.1500E+02
    -10.148 -0.2712E-06 -0.1302E-09  0.1500E+02  0.1500E+02
    -10.067 -0.6111E-05 -0.6003E-08  0.1500E+02  0.1500E+02
     -9.986 -0.9709E-04 -0.1971E-06  0.1500E+02  0.1500E+02
     -9.905 -0.1078E-02 -0.4592E-05  0.1500E+02  0.1500E+02
     -9.825 -0.8245E-02 -0.7548E-04  0.1500E+02  0.1500E+02
     -9.744 -0.4219E-01 -0.8682E-03  0.1500E+02  0.1500E+02
     -9.663 -0.1353E+00 -0.6889E-02  0.1498E+02  0.1500E+02
     -9.582 -0.2155E+00 -0.3672E-01  0.1497E+02  0.1500E+02
     -9.501  0.1288E+00 -0.1238E+00  0.1498E+02  0.1499E+02
     -9.420  0.1441E+01 -0.2165E+00  0.1509E+02  0.1497E+02
     -9.339  0.3319E+01  0.5894E-01  0.1536E+02  0.1497E+02
     -9.258  0.4127E+01  0.1271E+01  0.1570E+02  0.1508E+02
     -9.177  0.2993E+01  0.3155E+01  0.1594E+02  0.1533E+02
     -9.096  0.1118E+01  0.4137E+01  0.1603E+02  0.1567E+02
     -9.016  0.1910E-02  0.3166E+01  0.1603E+02  0.1592E+02
     -8.935 -0.2146E+00  0.1281E+01  0.1601E+02  0.1603E+02
     -8.854 -0.1134E+00  0.6287E-01  0.1600E+02  0.1603E+02
     -8.773 -0.3328E-01 -0.2165E+00  0.1600E+02  0.1601E+02
     -8.692 -0.1579E-01 -0.1245E+00  0.1600E+02  0.1600E+02
     -8.611 -0.5784E-01 -0.3762E-01  0.1599E+02  0.1600E+02
     -8.530 -0.2099E+00 -0.1248E-01  0.1598E+02  0.1600E+02
     -8.449 -0.4252E+00 -0.3642E-01  0.1594E+02  0.1600E+02
     -8.368 -0.9947E-01 -0.1501E+00  0.1594E+02  0.1598E+02
     -8.287  0.1910E+01 -0.3738E+00  0.1609E+02  0.1595E+02
     -8.207  0.5511E+01 -0.3169E+00  0.1654E+02  0.1593E+02
     -8.126  0.8065E+01  0.1108E+01  0.1719E+02  0.1602E+02
     -8.045  0.7500E+01  0.4427E+01  0.1779E+02  0.1638E+02
     -7.964  0.5504E+01  0.7592E+01  0.1824E+02  0.1699E+02
     -7.883  0.4318E+01  0.7749E+01  0.1859E+02  0.1762E+02
     -7.802  0.3378E+01  0.5609E+01  0.1886E+02  0.1807E+02
     -7.721  0.1798E+01  0.4182E+01  0.1901E+02  0.1841E+02
     -7.640  0.3624E+00  0.3795E+01  0.1904E+02  0.1872E+02
     -7.559 -0.1968E+00  0.2768E+01  0.1902E+02  0.1894E+02
     -7.478 -0.1784E+00  0.1105E+01  0.1901E+02  0.1903E+02
     -7.398 -0.6682E-01  0.1643E-01  0.1900E+02  0.1903E+02
     -7.317 -0.1511E-01 -0.2212E+00  0.1900E+02  0.1901E+02
     -7.236 -0.2256E-02 -0.1225E+00  0.1900E+02  0.1900E+02
     -7.155 -0.2302E-03 -0.3591E-01  0.1900E+02  0.1900E+02
     -7.074 -0.1636E-04 -0.6687E-02  0.1900E+02  0.1900E+02
     -6.993 -0.8173E-06 -0.8375E-03  0.1900E+02  0.1900E+02
     -6.912 -0.2892E-07 -0.7239E-04  0.1900E+02  0.1900E+02
     -6.831 -0.7274E-09 -0.4379E-05  0.1900E+02  0.1900E+02
     -6.750 -0.1305E-10 -0.1869E-06  0.1900E+02  0.1900E+02
     -6.669 -0.1647E-12 -0.5662E-08  0.1900E+02  0.1900E+02
     -6.589 -0.2745E-14 -0.1221E-09  0.1900E+02  0.1900E+02
     -6.508  0.0000E+00 -0.1880E-11  0.1900E+02  0.1900E+02
     -6.427  0.0000E+00 -0.2196E-13  0.1900E+02  0.1900E+02
     -6.346  0.0000E+00  0.0000E+00  0.1900E+02  0.1900E+02
     -6.265  0.0000E+00  0.0000E+00  0.1900E+02  0.1900E+02
     -6.184  0.0000E+00  0.0000E+00  0.1900E+02  0.1900E+02
     -6.103  0.0000E+00  0.0000E+00  0.1900E+02  0.1900E+02
     -6.022  0.0000E+00  0.0000E+00  0.1900E+02  0.1900E+02
     -5.941  0.0000E+00  0.0000E+00  0.1900E+02  0.1900E+02
     -5.860  0.0000E+00  0.0000E+00  0.1900E+02  0.1900E+02
     -5.780  0.0000E+00  0.0000E+00  0.1900E+02  0.1900E+02
     -5.699  0.0000E+00  0.0000E+00  0.1900E+02  0.1900E+02
     -5.618  0.0000E+00  0.0000E+00  0.1900E+02  0.1900E+02
     -5.537  0.0000E+00  0.0000E+00  0.1900E+02  0.1900E+02
     -5.456  0.0000E+00  0.0000E+00  0.1900E+02  0.1900E+02
     -5.375  0.0000E+00  0.0000E+00  0.1900E+02  0.1900E+02
     -5.294 -0.7012E-27  0.0000E+00  0.1900E+02  0.1900E+02
     -5.213 -0.4154E-24 -0.2306E-27  0.1900E+02  0.1900E+02
     -5.132 -0.1771E-21 -0.1445E-24  0.1900E+02  0.1900E+02
     -5.051 -0.5427E-19 -0.6514E-22  0.1900E+02  0.1900E+02
     -4.971 -0.1194E-16 -0.2110E-19  0.1900E+02  0.1900E+02
     -4.890 -0.1886E-14 -0.4911E-17  0.1900E+02  0.1900E+02
     -4.809 -0.2068E-12 -0.8205E-15  0.1900E+02  0.1900E+02
     -4.728 -0.1675E-10 -0.9558E-13  0.1900E+02  0.1900E+02
     -4.647 -0.9671E-09 -0.8160E-11  0.1900E+02  0.1900E+02
     -4.566 -0.3984E-07 -0.4989E-09  0.1900E+02  0.1900E+02
     -4.485 -0.1168E-05 -0.2176E-07  0.1900E+02  0.1900E+02
     -4.404 -0.2424E-04 -0.6758E-06  0.1900E+02  0.1900E+02
     -4.323 -0.3542E-03 -0.1488E-04  0.1900E+02  0.1900E+02
     -4.242 -0.3608E-02 -0.2308E-03  0.1900E+02  0.1900E+02
     -4.162 -0.2518E-01 -0.2501E-02  0.1900E+02  0.1900E+02
     -4.081 -0.1164E+00 -0.1864E-01  0.1899E+02  0.1900E+02
     -4.000 -0.3273E+00 -0.9269E-01  0.1896E+02  0.1899E+02
     -3.919 -0.3921E+00 -0.2867E+00  0.1893E+02  0.1897E+02
     -3.838  0.6828E+00 -0.4252E+00  0.1899E+02  0.1893E+02
     -3.757  0.3764E+01  0.3660E+00  0.1929E+02  0.1896E+02
     -3.676  0.7342E+01  0.3127E+01  0.1988E+02  0.1922E+02
     -3.595  0.8040E+01  0.6854E+01  0.2053E+02  0.1977E+02
     -3.514  0.5093E+01  0.8218E+01  0.2095E+02  0.2043E+02
     -3.433  0.1514E+01  0.5739E+01  0.2107E+02  0.2090E+02
     -3.353 -0.2210E+00  0.2020E+01  0.2105E+02  0.2106E+02
     -3.272 -0.3995E+00 -0.7023E-01  0.2102E+02  0.2106E+02
     -3.191 -0.1762E+00 -0.4233E+00  0.2100E+02  0.2102E+02
     -3.110 -0.4451E-01 -0.2117E+00  0.2100E+02  0.2101E+02
     -3.029 -0.7305E-02 -0.5800E-01  0.2100E+02  0.2100E+02
     -2.948 -0.8763E-03 -0.1019E-01  0.2100E+02  0.2100E+02
     -2.867 -0.8060E-03 -0.1215E-02  0.2100E+02  0.2100E+02
     -2.786 -0.6056E-02 -0.1907E-03  0.2100E+02  0.2100E+02
     -2.705 -0.3320E-01 -0.1029E-02  0.2100E+02  0.2100E+02
     -2.624 -0.1159E+00 -0.7898E-02  0.2099E+02  0.2100E+02
     -2.544 -0.2153E+00 -0.4082E-01  0.2097E+02  0.2100E+02
     -2.463  0.1524E-01 -0.1325E+00  0.2097E+02  0.2099E+02
     -2.382  0.1155E+01 -0.2160E+00  0.2106E+02  0.2097E+02
     -2.301  0.3034E+01  0.1110E+00  0.2131E+02  0.2098E+02
     -2.220  0.4131E+01  0.1400E+01  0.2164E+02  0.2109E+02
     -2.139  0.3282E+01  0.3281E+01  0.2191E+02  0.2136E+02
     -2.058  0.1401E+01  0.4131E+01  0.2202E+02  0.2169E+02
     -1.977  0.1117E+00  0.3036E+01  0.2203E+02  0.2194E+02
     -1.896 -0.2160E+00  0.1157E+01  0.2201E+02  0.2203E+02
     -1.815 -0.1326E+00  0.1578E-01  0.2200E+02  0.2203E+02
     -1.735 -0.4087E-01 -0.2153E+00  0.2200E+02  0.2201E+02
     -1.654 -0.7911E-02 -0.1160E+00  0.2200E+02  0.2200E+02
     -1.573 -0.1026E-02 -0.3324E-01  0.2200E+02  0.2200E+02
     -1.492 -0.9197E-04 -0.6063E-02  0.2200E+02  0.2200E+02
     -1.411 -0.1436E-04 -0.7448E-03  0.2200E+02  0.2200E+02
     -1.330 -0.1447E-03 -0.6557E-04  0.2200E+02  0.2200E+02
     -1.249 -0.1695E-02 -0.4961E-04  0.2200E+02  0.2200E+02
     -1.168 -0.1380E-01 -0.6187E-03  0.2200E+02  0.2200E+02
     -1.087 -0.7631E-01 -0.5799E-02  0.2199E+02  0.2200E+02
     -1.006 -0.2728E+00 -0.3709E-01  0.2197E+02  0.2200E+02
     -0.926 -0.5435E+00 -0.1557E+00  0.2193E+02  0.2198E+02
     -0.845 -0.1298E+00 -0.3878E+00  0.2192E+02  0.2195E+02
     -0.764  0.2445E+01 -0.3453E+00  0.2211E+02  0.2192E+02
     -0.683  0.7306E+01  0.1058E+01  0.2270E+02  0.2201E+02
     -0.602  0.1123E+02  0.4436E+01  0.2361E+02  0.2237E+02
     -0.521  0.1054E+02  0.8069E+01  0.2447E+02  0.2302E+02
     -0.440  0.6003E+01  0.9256E+01  0.2495E+02  0.2377E+02
     -0.359  0.1639E+01  0.7692E+01  0.2508E+02  0.2439E+02
     -0.278 -0.2886E+00  0.5027E+01  0.2506E+02  0.2480E+02
     -0.197 -0.4702E+00  0.2447E+01  0.2502E+02  0.2500E+02
     -0.117 -0.2183E+00  0.5975E+00  0.2501E+02  0.2505E+02
     -0.036 -0.8088E-01 -0.1899E+00  0.2500E+02  0.2503E+02
      0.045 -0.1042E+00 -0.2498E+00  0.2499E+02  0.2501E+02
      0.126 -0.2340E+00 -0.1539E+00  0.2497E+02  0.2500E+02
      0.207 -0.2282E+00 -0.1738E+00  0.2495E+02  0.2498E+02
      0.288  0.5361E+00 -0.2206E+00  0.2500E+02  0.2497E+02
      0.369  0.2555E+01  0.1720E+00  0.2520E+02  0.2498E+02
      0.450  0.5175E+01  0.1499E+01  0.2562E+02  0.2510E+02
      0.531  0.6709E+01  0.3248E+01  0.2616E+02  0.2536E+02
      0.612  0.5992E+01  0.4023E+01  0.2665E+02  0.2569E+02
      0.692  0.3495E+01  0.3702E+01  0.2693E+02  0.2599E+02
      0.773  0.8553E+00  0.3656E+01  0.2700E+02  0.2628E+02
      0.854 -0.4175E+00  0.3922E+01  0.2697E+02  0.2660E+02
      0.935  0.5919E+00  0.3053E+01  0.2702E+02  0.2685E+02
      1.016  0.3949E+01  0.1216E+01  0.2733E+02  0.2695E+02
      1.097  0.7513E+01  0.7175E+00  0.2794E+02  0.2701E+02
      1.178  0.7898E+01  0.3157E+01  0.2858E+02  0.2726E+02
      1.259  0.4760E+01  0.6896E+01  0.2897E+02  0.2782E+02
      1.340  0.1282E+01  0.8111E+01  0.2907E+02  0.2847E+02
      1.421 -0.2792E+00  0.5484E+01  0.2905E+02  0.2892E+02
      1.501 -0.3836E+00  0.1817E+01  0.2902E+02  0.2907E+02
      1.582 -0.1598E+00 -0.1341E+00  0.2900E+02  0.2905E+02
      1.663 -0.3955E-01 -0.4156E+00  0.2900E+02  0.2902E+02
      1.744 -0.1319E-01 -0.1977E+00  0.2900E+02  0.2901E+02
      1.825 -0.4392E-01 -0.5251E-01  0.2900E+02  0.2900E+02
      1.906 -0.1727E+00 -0.9352E-02  0.2898E+02  0.2900E+02
      1.987 -0.3963E+00 -0.4805E-02  0.2895E+02  0.2900E+02
      2.068 -0.2341E+00 -0.2615E-01  0.2893E+02  0.2900E+02
      2.149  0.1464E+01 -0.1194E+00  0.2905E+02  0.2899E+02
      2.230  0.5024E+01 -0.3320E+00  0.2946E+02  0.2896E+02
      2.310  0.8014E+01 -0.3862E+00  0.3010E+02  0.2893E+02
      2.391  0.7389E+01  0.7244E+00  0.3070E+02  0.2899E+02
      2.472  0.3833E+01  0.3841E+01  0.3101E+02  0.2930E+02
      2.553  0.7199E+00  0.7395E+01  0.3107E+02  0.2990E+02
      2.634 -0.3869E+00  0.8011E+01  0.3104E+02  0.3055E+02
      2.715 -0.3315E+00  0.5015E+01  0.3101E+02  0.3095E+02
      2.796 -0.1191E+00  0.1458E+01  0.3100E+02  0.3107E+02
      2.877 -0.2597E-01 -0.2357E+00  0.3100E+02  0.3105E+02
      2.958 -0.3748E-02 -0.3959E+00  0.3100E+02  0.3102E+02
      3.039 -0.3703E-03 -0.1723E+00  0.3100E+02  0.3100E+02
      3.119 -0.2550E-04 -0.4310E-01  0.3100E+02  0.3100E+02
      3.200 -0.1236E-05 -0.7013E-02  0.3100E+02  0.3100E+02
      3.281 -0.4244E-07 -0.7754E-03  0.3100E+02  0.3100E+02
      3.362 -0.1166E-08 -0.5948E-04  0.3100E+02  0.3100E+02
      3.443 -0.6009E-08 -0.3204E-05  0.3100E+02  0.3100E+02
      3.524 -0.1968E-06 -0.1234E-06  0.3100E+02  0.3100E+02
      3.605 -0.4584E-05 -0.5539E-07  0.3100E+02  0.3100E+02
      3.686 -0.7537E-04 -0.1389E-05  0.3100E+02  0.3100E+02
      3.767 -0.8671E-03 -0.2621E-04  0.3100E+02  0.3100E+02
      3.848 -0.6882E-02 -0.3473E-03  0.3100E+02  0.3100E+02
      3.928 -0.3669E-01 -0.3196E-02  0.3100E+02  0.3100E+02
      4.009 -0.1238E+00 -0.2001E-01  0.3099E+02  0.3100E+02
      4.090 -0.2165E+00 -0.8168E-01  0.3097E+02  0.3099E+02
      4.171  0.5819E-01 -0.1937E+00  0.3097E+02  0.3098E+02
      4.252  0.1266E+01 -0.1338E+00  0.3108E+02  0.3096E+02
      4.333  0.3127E+01  0.6634E+00  0.3133E+02  0.3102E+02
      4.414  0.4014E+01  0.2396E+01  0.3165E+02  0.3121E+02
      4.495  0.2830E+01  0.3864E+01  0.3188E+02  0.3153E+02
      4.576  0.9025E+00  0.3445E+01  0.3196E+02  0.3180E+02
      4.656  0.8321E+00  0.1599E+01  0.3202E+02  0.3193E+02
      4.737  0.3706E+01  0.9460E+00  0.3232E+02  0.3201E+02
      4.818  0.7323E+01  0.3292E+01  0.3292E+02  0.3228E+02
      4.899  0.7942E+01  0.6964E+01  0.3356E+02  0.3284E+02
      4.980  0.4927E+01  0.8070E+01  0.3396E+02  0.3349E+02
      5.061  0.1400E+01  0.5369E+01  0.3407E+02  0.3393E+02
      5.142 -0.2504E+00  0.1730E+01  0.3405E+02  0.3407E+02
      5.223 -0.3921E+00 -0.1603E+00  0.3402E+02  0.3405E+02
      5.304 -0.1682E+00 -0.4115E+00  0.3400E+02  0.3402E+02
      5.385 -0.4168E-01 -0.1916E+00  0.3400E+02  0.3400E+02
      5.465 -0.6726E-02 -0.5015E-01  0.3400E+02  0.3400E+02
      5.546 -0.7619E-03 -0.8480E-02  0.3400E+02  0.3400E+02
      5.627 -0.3801E-03 -0.9803E-03  0.3400E+02  0.3400E+02
      5.708 -0.3016E-02 -0.2111E-03  0.3400E+02  0.3400E+02
      5.789 -0.1908E-01 -0.1426E-02  0.3400E+02  0.3400E+02
      5.870 -0.7895E-01 -0.1036E-01  0.3399E+02  0.3400E+02
      5.951 -0.1909E+00 -0.5022E-01  0.3398E+02  0.3399E+02
      6.032 -0.1425E+00 -0.1504E+00  0.3396E+02  0.3398E+02
      6.113  0.6283E+00 -0.2085E+00  0.3402E+02  0.3397E+02
      6.194  0.2361E+01  0.2343E+00  0.3421E+02  0.3398E+02
      6.274  0.3944E+01  0.1672E+01  0.3453E+02  0.3412E+02
      6.355  0.3789E+01  0.3516E+01  0.3483E+02  0.3440E+02
      6.436  0.2066E+01  0.4085E+01  0.3500E+02  0.3474E+02
      6.517  0.4415E+00  0.2759E+01  0.3504E+02  0.3496E+02
      6.598 -0.1999E+00  0.9176E+00  0.3502E+02  0.3503E+02
      6.679 -0.2724E+00 -0.7513E-01  0.3500E+02  0.3503E+02
      6.760 -0.3616E+00 -0.2701E+00  0.3497E+02  0.3500E+02
      6.841 -0.4350E+00 -0.3206E+00  0.3493E+02  0.3498E+02
      6.922  0.4297E+00 -0.4538E+00  0.3497E+02  0.3494E+02
      7.003  0.3267E+01 -0.2892E-01  0.3523E+02  0.3494E+02
      7.083  0.6964E+01  0.2155E+01  0.3579E+02  0.3511E+02
      7.164  0.8146E+01  0.5894E+01  0.3645E+02  0.3559E+02
      7.245  0.5426E+01  0.8223E+01  0.3689E+02  0.3626E+02
      7.326  0.1507E+01  0.6618E+01  0.3701E+02  0.3679E+02
      7.407 -0.3542E+00  0.2670E+01  0.3699E+02  0.3701E+02
      7.488  0.1001E+01 -0.1203E+00  0.3707E+02  0.3700E+02
      7.569  0.4758E+01  0.4413E-01  0.3745E+02  0.3700E+02
      7.650  0.7935E+01  0.3078E+01  0.3809E+02  0.3725E+02
      7.731  0.7421E+01  0.6953E+01  0.3869E+02  0.3781E+02
      7.812  0.3894E+01  0.8150E+01  0.3901E+02  0.3847E+02
      7.892  0.7539E+00  0.5506E+01  0.3907E+02  0.3892E+02
      7.973 -0.3818E+00  0.1830E+01  0.3904E+02  0.3907E+02
      8.054 -0.3353E+00 -0.1306E+00  0.3901E+02  0.3905E+02
      8.135 -0.1216E+00 -0.4161E+00  0.3900E+02  0.3902E+02
      8.216 -0.2671E-01 -0.1985E+00  0.3900E+02  0.3901E+02
      8.297 -0.3878E-02 -0.5278E-01  0.3900E+02  0.3900E+02
      8.378 -0.3855E-03 -0.9044E-02  0.3900E+02  0.3900E+02
      8.459 -0.2670E-04 -0.1049E-02  0.3900E+02  0.3900E+02
      8.540 -0.1302E-05 -0.8425E-04  0.3900E+02  0.3900E+02
      8.621 -0.4493E-07 -0.4746E-05  0.3900E+02  0.3900E+02
      8.701 -0.1103E-08 -0.1889E-06  0.3900E+02  0.3900E+02
      8.782 -0.1933E-10 -0.5339E-08  0.3900E+02  0.3900E+02
      8.863 -0.2415E-12 -0.1075E-09  0.3900E+02  0.3900E+02
      8.944  0.0000E+00 -0.1548E-11  0.3900E+02  0.3900E+02
      9.025  0.0000E+00 -0.1647E-13  0.3900E+02  0.3900E+02
      9.106  0.0000E+00  0.0000E+00  0.3900E+02  0.3900E+02
      9.187  0.0000E+00  0.0000E+00  0.3900E+02  0.3900E+02
      9.268  0.0000E+00  0.0000E+00  0.3900E+02  0.3900E+02
      9.349  0.0000E+00  0.0000E+00  0.3900E+02  0.3900E+02
      9.430  0.0000E+00  0.0000E+00  0.3900E+02  0.3900E+02
      9.510  0.0000E+00  0.0000E+00  0.3900E+02  0.3900E+02
      9.591  0.0000E+00  0.0000E+00  0.3900E+02  0.3900E+02
      9.672  0.0000E+00  0.0000E+00  0.3900E+02  0.3900E+02
      9.753  0.0000E+00  0.0000E+00  0.3900E+02  0.3900E+02
