   3   3   0   0
  0.1429167E+02  0.3500000E-09  0.3500000E-09  0.3500000E-09  0.1000000E-16
  1.000000000000000E-004
  CAR 
 unknown system                          
     17.87976296     -2.62791117  301     10.29027320      1.00000000
     -2.628  0.0000E+00  0.0000E+00
     -2.560  0.0000E+00  0.0000E+00
     -2.491  0.0000E+00  0.0000E+00
     -2.423  0.0000E+00  0.0000E+00
     -2.354  0.0000E+00  0.0000E+00
     -2.286 -0.8701E-28 -0.5948E-29
     -2.218 -0.2147E-25 -0.1474E-26
     -2.149 -0.4200E-23 -0.2886E-24
     -2.081 -0.6487E-21 -0.4464E-22
     -2.013 -0.7913E-19 -0.5454E-20
     -1.944 -0.7620E-17 -0.5263E-18
     -1.876 -0.5789E-15 -0.4010E-16
     -1.808 -0.3306E-13 -0.2300E-14
     -1.739 -0.1586E-11 -0.1107E-12
     -1.671 -0.5875E-10 -0.4127E-11
     -1.603 -0.1711E-08 -0.1211E-09
     -1.534 -0.3911E-07 -0.2795E-08
     -1.466 -0.7007E-06 -0.5069E-07
     -1.397 -0.9813E-05 -0.7215E-06
     -1.329 -0.1070E-03 -0.8039E-05
     -1.261 -0.9049E-03 -0.6990E-04
     -1.192 -0.5884E-02 -0.4721E-03
     -1.124 -0.2906E-01 -0.2458E-02
     -1.056 -0.1065E+00 -0.9741E-02
     -0.987 -0.2763E+00 -0.2863E-01
     -0.919 -0.4395E+00 -0.5867E-01
     -0.851 -0.1215E+00 -0.6698E-01
     -0.782  0.1445E+01  0.3179E-01
     -0.714  0.4425E+01  0.3343E+00
     -0.646  0.7420E+01  0.8415E+00
     -0.577  0.8247E+01  0.1405E+01
     -0.509  0.6220E+01  0.1830E+01
     -0.440  0.2961E+01  0.2033E+01
     -0.372  0.5466E+00  0.2070E+01
     -0.304 -0.3726E+00  0.2045E+01
     -0.235 -0.3864E+00  0.2018E+01
     -0.167 -0.1889E+00  0.2005E+01
     -0.099 -0.6179E-01  0.2001E+01
     -0.030 -0.1468E-01  0.2000E+01
      0.038 -0.2623E-02  0.2000E+01
      0.106 -0.3581E-03  0.2000E+01
      0.175 -0.3774E-04  0.2000E+01
      0.243 -0.3091E-05  0.2000E+01
      0.312 -0.1975E-06  0.2000E+01
      0.380 -0.9878E-08  0.2000E+01
      0.448 -0.3875E-09  0.2000E+01
      0.517 -0.1193E-10  0.2000E+01
      0.585 -0.2923E-12  0.2000E+01
      0.653 -0.6496E-14  0.2000E+01
      0.722  0.0000E+00  0.2000E+01
      0.790  0.0000E+00  0.2000E+01
      0.858  0.0000E+00  0.2000E+01
      0.927  0.0000E+00  0.2000E+01
      0.995  0.0000E+00  0.2000E+01
      1.063  0.0000E+00  0.2000E+01
      1.132  0.0000E+00  0.2000E+01
      1.200  0.0000E+00  0.2000E+01
      1.269  0.0000E+00  0.2000E+01
      1.337  0.0000E+00  0.2000E+01
      1.405  0.0000E+00  0.2000E+01
      1.474  0.0000E+00  0.2000E+01
      1.542  0.0000E+00  0.2000E+01
      1.610  0.0000E+00  0.2000E+01
      1.679  0.0000E+00  0.2000E+01
      1.747  0.0000E+00  0.2000E+01
      1.815  0.0000E+00  0.2000E+01
      1.884  0.0000E+00  0.2000E+01
      1.952  0.0000E+00  0.2000E+01
      2.020  0.0000E+00  0.2000E+01
      2.089  0.0000E+00  0.2000E+01
      2.157  0.0000E+00  0.2000E+01
      2.226  0.0000E+00  0.2000E+01
      2.294  0.0000E+00  0.2000E+01
      2.362  0.0000E+00  0.2000E+01
      2.431  0.0000E+00  0.2000E+01
      2.499  0.0000E+00  0.2000E+01
      2.567  0.0000E+00  0.2000E+01
      2.636  0.0000E+00  0.2000E+01
      2.704  0.0000E+00  0.2000E+01
      2.772  0.0000E+00  0.2000E+01
      2.841  0.0000E+00  0.2000E+01
      2.909  0.0000E+00  0.2000E+01
      2.978  0.0000E+00  0.2000E+01
      3.046  0.0000E+00  0.2000E+01
      3.114  0.0000E+00  0.2000E+01
      3.183  0.0000E+00  0.2000E+01
      3.251  0.0000E+00  0.2000E+01
      3.319  0.0000E+00  0.2000E+01
      3.388  0.0000E+00  0.2000E+01
      3.456 -0.1782E-26  0.2000E+01
      3.524 -0.3801E-24  0.2000E+01
      3.593 -0.6435E-22  0.2000E+01
      3.661 -0.8610E-20  0.2000E+01
      3.729 -0.9104E-18  0.2000E+01
      3.798 -0.7606E-16  0.2000E+01
      3.866 -0.5019E-14  0.2000E+01
      3.935 -0.2542E-12  0.2000E+01
      4.003 -0.1038E-10  0.2000E+01
      4.071 -0.3348E-09  0.2000E+01
      4.140 -0.8499E-08  0.2000E+01
      4.208 -0.1696E-06  0.2000E+01
      4.276 -0.2654E-05  0.2000E+01
      4.345 -0.3250E-04  0.2000E+01
      4.413 -0.3104E-03  0.2000E+01
      4.481 -0.2299E-02  0.2000E+01
      4.550 -0.1312E-01  0.1999E+01
      4.618 -0.5690E-01  0.1995E+01
      4.686 -0.1836E+00  0.1982E+01
      4.755 -0.4200E+00  0.1954E+01
      4.823 -0.5868E+00  0.1914E+01
      4.892 -0.9208E-01  0.1907E+01
      4.960  0.1886E+01  0.2036E+01
      5.028  0.5686E+01  0.2425E+01
      5.097  0.1065E+02  0.3153E+01
      5.165  0.1538E+02  0.4204E+01
      5.233  0.1814E+02  0.5444E+01
      5.302  0.1738E+02  0.6632E+01
      5.370  0.1294E+02  0.7517E+01
      5.438  0.6874E+01  0.7987E+01
      5.507  0.2009E+01  0.8124E+01
      5.575 -0.3290E+00  0.8102E+01
      5.644 -0.7556E+00  0.8050E+01
      5.712 -0.4738E+00  0.8018E+01
      5.780 -0.1897E+00  0.8005E+01
      5.849 -0.5478E-01  0.8001E+01
      5.917 -0.1191E-01  0.8000E+01
      5.985 -0.1988E-02  0.8000E+01
      6.054 -0.2574E-03  0.8000E+01
      6.122 -0.2601E-04  0.8000E+01
      6.190 -0.2059E-05  0.8000E+01
      6.259 -0.1280E-06  0.8000E+01
      6.327 -0.6262E-08  0.8000E+01
      6.395 -0.2413E-09  0.8000E+01
      6.464 -0.7331E-11  0.8000E+01
      6.532 -0.1754E-12  0.8000E+01
      6.601 -0.3248E-14  0.8000E+01
      6.669  0.0000E+00  0.8000E+01
      6.737  0.0000E+00  0.8000E+01
      6.806  0.0000E+00  0.8000E+01
      6.874  0.0000E+00  0.8000E+01
      6.942  0.0000E+00  0.8000E+01
      7.011  0.0000E+00  0.8000E+01
      7.079  0.0000E+00  0.8000E+01
      7.147  0.0000E+00  0.8000E+01
      7.216  0.0000E+00  0.8000E+01
      7.284  0.0000E+00  0.8000E+01
      7.352  0.0000E+00  0.8000E+01
      7.421  0.0000E+00  0.8000E+01
      7.489  0.0000E+00  0.8000E+01
      7.558  0.0000E+00  0.8000E+01
      7.626  0.0000E+00  0.8000E+01
      7.694  0.0000E+00  0.8000E+01
      7.763  0.0000E+00  0.8000E+01
      7.831  0.0000E+00  0.8000E+01
      7.899  0.0000E+00  0.8000E+01
      7.968  0.0000E+00  0.8000E+01
      8.036  0.0000E+00  0.8000E+01
      8.104  0.0000E+00  0.8000E+01
      8.173  0.0000E+00  0.8000E+01
      8.241  0.0000E+00  0.8000E+01
      8.310  0.0000E+00  0.8000E+01
      8.378  0.0000E+00  0.8000E+01
      8.446 -0.6195E-27  0.8000E+01
      8.515 -0.1366E-24  0.8000E+01
      8.583 -0.2388E-22  0.8000E+01
      8.651 -0.3297E-20  0.8000E+01
      8.720 -0.3594E-18  0.8000E+01
      8.788 -0.3092E-16  0.8000E+01
      8.856 -0.2098E-14  0.8000E+01
      8.925 -0.1090E-12  0.8000E+01
      8.993 -0.4573E-11  0.8000E+01
      9.061 -0.1511E-09  0.8000E+01
      9.130 -0.3921E-08  0.8000E+01
      9.198 -0.7984E-07  0.8000E+01
      9.267 -0.1272E-05  0.8000E+01
      9.335 -0.1583E-04  0.8000E+01
      9.403 -0.1530E-03  0.8000E+01
      9.472 -0.1143E-02  0.8000E+01
      9.540 -0.6530E-02  0.7999E+01
      9.608 -0.2809E-01  0.7998E+01
      9.677 -0.8809E-01  0.7992E+01
      9.745 -0.1866E+00  0.7979E+01
      9.813 -0.1972E+00  0.7965E+01
      9.882  0.2148E+00  0.7980E+01
      9.950  0.1364E+01  0.8073E+01
     10.018  0.2978E+01  0.8277E+01
     10.087  0.4028E+01  0.8552E+01
     10.155  0.3630E+01  0.8800E+01
     10.224  0.2112E+01  0.8945E+01
     10.292  0.8243E+00  0.9001E+01
     10.360  0.8709E+00  0.9061E+01
     10.429  0.2145E+01  0.9207E+01
     10.497  0.3475E+01  0.9445E+01
     10.565  0.3830E+01  0.9707E+01
     10.634  0.3497E+01  0.9946E+01
     10.702  0.3692E+01  0.1020E+02
     10.770  0.4931E+01  0.1054E+02
     10.839  0.6307E+01  0.1097E+02
     10.907  0.6501E+01  0.1141E+02
     10.976  0.5049E+01  0.1176E+02
     11.044  0.2660E+01  0.1194E+02
     11.112  0.6567E+00  0.1198E+02
     11.181  0.2316E+00  0.1200E+02
     11.249  0.1882E+01  0.1213E+02
     11.317  0.4928E+01  0.1246E+02
     11.386  0.7476E+01  0.1297E+02
     11.454  0.7671E+01  0.1350E+02
     11.522  0.5422E+01  0.1387E+02
     11.591  0.2430E+01  0.1404E+02
     11.659  0.3845E+00  0.1406E+02
     11.727 -0.3459E+00  0.1404E+02
     11.796 -0.3346E+00  0.1402E+02
     11.864 -0.1624E+00  0.1400E+02
     11.933 -0.5367E-01  0.1400E+02
     12.001 -0.1302E-01  0.1400E+02
     12.069 -0.2391E-02  0.1400E+02
     12.138 -0.3377E-03  0.1400E+02
     12.206 -0.3699E-04  0.1400E+02
     12.274 -0.3160E-05  0.1400E+02
     12.343 -0.2113E-06  0.1400E+02
     12.411 -0.1108E-07  0.1400E+02
     12.479 -0.4569E-09  0.1400E+02
     12.548 -0.1482E-10  0.1400E+02
     12.616 -0.3800E-12  0.1400E+02
     12.684 -0.6496E-14  0.1400E+02
     12.753  0.0000E+00  0.1400E+02
     12.821  0.0000E+00  0.1400E+02
     12.890  0.0000E+00  0.1400E+02
     12.958  0.0000E+00  0.1400E+02
     13.026  0.0000E+00  0.1400E+02
     13.095  0.0000E+00  0.1400E+02
     13.163  0.0000E+00  0.1400E+02
     13.231  0.0000E+00  0.1400E+02
     13.300  0.0000E+00  0.1400E+02
     13.368  0.0000E+00  0.1400E+02
     13.436  0.0000E+00  0.1400E+02
     13.505  0.0000E+00  0.1400E+02
     13.573  0.0000E+00  0.1400E+02
     13.642  0.0000E+00  0.1400E+02
     13.710  0.0000E+00  0.1400E+02
     13.778  0.0000E+00  0.1400E+02
     13.847  0.0000E+00  0.1400E+02
     13.915  0.0000E+00  0.1400E+02
     13.983  0.0000E+00  0.1400E+02
     14.052  0.0000E+00  0.1400E+02
     14.120  0.0000E+00  0.1400E+02
     14.188  0.0000E+00  0.1400E+02
     14.257 -0.4111E-26  0.1400E+02
     14.325 -0.8542E-24  0.1400E+02
     14.393 -0.1408E-21  0.1400E+02
     14.462 -0.1834E-19  0.1400E+02
     14.530 -0.1887E-17  0.1400E+02
     14.599 -0.1533E-15  0.1400E+02
     14.667 -0.9831E-14  0.1400E+02
     14.735 -0.4819E-12  0.1400E+02
     14.804 -0.1914E-10  0.1400E+02
     14.872 -0.5984E-09  0.1400E+02
     14.940 -0.1470E-07  0.1400E+02
     15.009 -0.2835E-06  0.1400E+02
     15.077 -0.4280E-05  0.1400E+02
     15.145 -0.5043E-04  0.1400E+02
     15.214 -0.4618E-03  0.1400E+02
     15.282 -0.3264E-02  0.1400E+02
     15.350 -0.1762E-01  0.1400E+02
     15.419 -0.7135E-01  0.1399E+02
     15.487 -0.2089E+00  0.1398E+02
     15.556 -0.4022E+00  0.1395E+02
     15.624 -0.3252E+00  0.1393E+02
     15.692  0.7414E+00  0.1398E+02
     15.761  0.3301E+01  0.1421E+02
     15.829  0.6523E+01  0.1465E+02
     15.897  0.8281E+01  0.1522E+02
     15.966  0.7156E+01  0.1571E+02
     16.034  0.4072E+01  0.1599E+02
     16.102  0.1215E+01  0.1607E+02
     16.171 -0.1924E+00  0.1606E+02
     16.239 -0.4300E+00  0.1603E+02
     16.308 -0.2549E+00  0.1601E+02
     16.376 -0.9498E-01  0.1600E+02
     16.444 -0.2522E-01  0.1600E+02
     16.513 -0.4991E-02  0.1600E+02
     16.581 -0.7518E-03  0.1600E+02
     16.649 -0.8725E-04  0.1600E+02
     16.718 -0.7858E-05  0.1600E+02
     16.786 -0.5518E-06  0.1600E+02
     16.854 -0.3032E-07  0.1600E+02
     16.923 -0.1307E-08  0.1600E+02
     16.991 -0.4426E-10  0.1600E+02
     17.059 -0.1179E-11  0.1600E+02
     17.128 -0.2599E-13  0.1600E+02
     17.196  0.0000E+00  0.1600E+02
     17.265  0.0000E+00  0.1600E+02
     17.333  0.0000E+00  0.1600E+02
     17.401  0.0000E+00  0.1600E+02
     17.470  0.0000E+00  0.1600E+02
     17.538  0.0000E+00  0.1600E+02
     17.606  0.0000E+00  0.1600E+02
     17.675  0.0000E+00  0.1600E+02
     17.743  0.0000E+00  0.1600E+02
     17.811  0.0000E+00  0.1600E+02
     17.880  0.0000E+00  0.1600E+02
