unknown system
           1
     4.086266    0.000000    0.000000
     0.000000    4.086266    0.000000
     0.000000    0.000000    4.086266
   Al
   4
Direct configuration=     1
   0.00000000  0.00000000  0.00000000
   0.50000000  0.50000000  0.00000000
   0.00000000  0.50000000  0.50000000
   0.50000000  0.00000000  0.50000000
Direct configuration=     2
   0.00000000  0.00000000  0.00000000
   0.50244722  0.50000000  0.00000000
   0.00000000  0.50000000  0.50000000
   0.50000000  0.00000000  0.50000000
Direct configuration=     3
   0.00000000  0.00000000  0.00000000
   0.49755278  0.50000000  0.00000000
   0.00000000  0.50000000  0.50000000
   0.50000000  0.00000000  0.50000000
