ITEM: TIMESTEP
350
ITEM: NUMBER OF ATOMS
309
ITEM: BOX BOUNDS pp pp pp
0 500
0 500
0 500
ITEM: ATOMS id type x y z c_pea 
1 1 266.889 258.662 268.86 -1.73903 
2 1 268.996 268.542 264.018 -1.59845 
3 1 257.434 256.146 254.714 -1.83365 
4 1 259.252 266.322 264.801 -2.97304 
5 1 262.318 255.85 257.711 -2.94401 
6 1 257.33 268.456 260.424 -2.6911 
7 1 263.48 268.754 257.264 -2.18072 
8 1 262.593 266.895 268.166 -2.49902 
9 1 260.964 255.626 265.153 -2.37683 
10 1 266.197 266.404 260.21 -2.77992 
11 1 253.172 267.024 262.004 -1.87896 
12 1 264.52 255.347 254.106 -1.5786 
13 1 258.757 265.488 252.194 -1.871 
14 1 258.57 268.235 266.528 -2.3119 
15 1 270.486 261.336 265.567 -1.84685 
16 1 256.37 267.795 255.774 -2.31384 
17 1 260.568 271.348 262.986 -1.69285 
18 1 260.861 264.317 250.781 -1.43201 
19 1 266.563 256.078 258.113 -2.26693 
20 1 260.431 268.483 268.524 -1.72114 
21 1 268.378 261.785 263.705 -3.0934 
22 1 260.248 270.721 260.39 -2.42666 
23 1 261.238 261.518 268.571 -3.00377 
24 1 264.221 258.131 253.525 -2.25514 
25 1 258.012 258.982 263.087 -2.86925 
26 1 257.398 262.75 256.697 -2.93943 
27 1 257.198 265.813 260.82 -3.12906 
28 1 261.052 266.815 254.667 -2.2283 
29 1 252.437 264.075 261.618 -2.09485 
30 1 255.626 261.361 258.17 -2.76219 
31 1 266.602 263.746 260.833 -2.99247 
32 1 265.133 257.133 256.028 -2.73181 
33 1 268.095 264.011 268.856 -1.9484 
34 1 256.937 269.444 264.638 -1.77247 
35 1 265.595 256.06 265.465 -2.08921 
36 1 261.533 258.521 253.227 -2.00297 
37 1 258.972 267.307 256.545 -2.86003 
38 1 256.358 265.948 253.592 -2.10981 
39 1 260.022 262.472 257.642 -3.2183 
40 1 261.592 257.988 259.601 -3.24297 
41 1 259.671 257.968 265.058 -3.26468 
42 1 265.789 252.927 261.858 -1.30231 
43 1 265.009 270.976 258.093 -1.11886 
44 1 268.734 263.457 266.194 -2.6351 
45 1 261.349 261.373 253.619 -3.063 
46 1 268.558 264.014 253.872 -1.3648 
47 1 262.056 255.414 260.318 -3.0355 
48 1 255.475 266.012 262.933 -2.82251 
49 1 263.56 265.347 270.211 -1.81594 
50 1 263.074 259.607 268.103 -2.91606 
51 1 255.372 264.326 265.362 -2.51621 
52 1 256.928 263.177 261.33 -3.05599 
53 1 262.232 254.124 255.596 -1.67495 
54 1 267.145 258.248 266.103 -2.4029 
55 1 264.739 257.559 267.534 -2.45318 
56 1 264.217 253.963 264.225 -1.82579 
57 1 256.667 254.982 261.454 -2.49773 
58 1 261.599 259.87 261.521 -3.14069 
59 1 266.861 257.599 253.872 -1.81819 
60 1 267.438 268.127 266.236 -2.01724 
61 1 260.843 258.051 256.98 -2.98816 
62 1 262.155 257.836 266.352 -3.08744 
63 1 252.97 261.28 257.821 -1.74934 
64 1 255.514 254.106 255.936 -0.958298 
65 1 260.034 255.82 255.791 -2.40045 
66 1 254.67 259.089 257.236 -2.12992 
67 1 265.805 264.705 254.115 -1.94866 
68 1 258.73 265.254 254.859 -2.88047 
69 1 269.955 265.903 266.161 -1.67087 
70 1 267.729 257.875 256.452 -2.20665 
71 1 259.532 265.596 262.097 -3.25601 
72 1 264.195 267.369 261.866 -3.24037 
73 1 261.262 267.922 265.949 -2.87896 
74 1 254.635 265.129 260.564 -2.87508 
75 1 263.217 257.73 261.745 -3.07415 
76 1 262.265 271.005 258.467 -1.95146 
77 1 260.287 270.416 266.421 -1.5847 
78 1 260.089 265.954 267.35 -2.92281 
79 1 257.738 267.457 262.926 -2.96881 
80 1 259.501 266.596 259.418 -3.26053 
81 1 262.755 253.286 258.443 -1.92213 
82 1 257.962 261.743 259.198 -3.10922 
83 1 258.193 258.235 267.414 -2.86942 
84 1 258.216 269.866 256.003 -1.74849 
85 1 268.162 266.982 261.927 -2.35388 
86 1 261.438 266.879 257.433 -2.77448 
87 1 263.603 267.846 264.553 -2.977 
88 1 263.226 264.275 254.606 -2.56437 
89 1 262.983 263.104 252.167 -2.23497 
90 1 264.289 260.038 262.687 -3.36587 
91 1 259.379 253.976 263.787 -1.88979 
92 1 255.86 259.794 266.663 -2.74408 
93 1 262.74 259.61 255.35 -3.12873 
94 1 259.01 262.623 252.329 -2.38644 
95 1 262.43 265.532 265.839 -3.20788 
96 1 269.854 264.54 257.513 -1.57102 
97 1 256.682 254.112 264.042 -1.7597 
98 1 265.698 262.742 252.166 -1.72066 
99 1 255.637 255.499 266.224 -1.72647 
100 1 269.163 262.264 256.063 -2.1656 
101 1 264.509 269.991 262.84 -2.37339 
102 1 256.98 266.774 258.305 -3.11442 
103 1 254.138 259.825 259.871 -2.54538 
104 1 262.876 262.667 270.426 -2.09064 
105 1 263.304 265.185 263.244 -3.25204 
106 1 267.9 266.098 264.5 -2.72747 
107 1 266.088 266.162 269.336 -1.79044 
108 1 260.069 260.599 263.673 -2.96581 
109 1 261.562 268.6 259.393 -2.93805 
110 1 257.627 271.139 259.7 -1.59487 
111 1 256.739 259.761 269.323 -2.0038 
112 1 261.382 266.988 263.437 -2.99019 
113 1 255.723 256.615 256.967 -2.2182 
114 1 257.698 260.189 256.856 -2.90987 
115 1 259.636 271.584 257.768 -1.51215 
116 1 262.146 259.01 263.988 -3.06886 
117 1 254.519 263.356 256.795 -2.43023 
118 1 257.562 264.507 263.671 -3.29976 
119 1 252.005 261.592 260.432 -1.63533 
120 1 257.924 260.67 254.212 -2.61025 
121 1 267.335 261.343 268.866 -2.15957 
122 1 254.573 262.501 260.275 -2.89368 
123 1 265.498 263.437 269.604 -2.27118 
124 1 263.338 260.292 252.025 -1.96958 
125 1 266.453 268.97 261.17 -2.14008 
126 1 264.807 263.041 262.77 -3.04854 
127 1 268.345 261.609 252.487 -1.27927 
128 1 268.26 257.205 262.72 -1.8904 
129 1 268.871 259.685 261.806 -2.38887 
130 1 258.487 267.804 253.914 -1.77066 
131 1 262.316 262.053 263.474 -3.31417 
132 1 253.192 260.111 266.978 -1.39703 
133 1 260.726 260.181 266.227 -3.14496 
134 1 252.743 263.841 258.85 -2.0387 
135 1 262.18 259.926 270.62 -1.86891 
136 1 254.456 263.841 254.097 -1.50691 
137 1 261.85 266.456 260.902 -3.14599 
138 1 267.84 260.904 266.146 -2.87179 
139 1 258.11 253.778 259.411 -2.0973 
140 1 255.576 257.551 268.074 -1.78385 
141 1 264.639 258.656 265.074 -3.10901 
142 1 259.37 260.57 270.45 -1.95384 
143 1 258.085 270.259 262.272 -2.1528 
144 1 259.454 263.312 267.721 -2.78905 
145 1 265.466 260.231 267.161 -3.04406 
146 1 260.984 264.563 256.174 -2.92557 
147 1 257.349 258.216 252.679 -1.25633 
148 1 258.975 260.478 261.224 -2.7704 
149 1 268.301 257.819 259.386 -2.03613 
150 1 258.137 256.369 263.242 -3.00087 
151 1 256.795 259.06 259.114 -3.18403 
152 1 253.102 265.203 264.088 -1.81893 
153 1 265.075 254.185 259.498 -2.11488 
154 1 259.021 257.824 260.803 -3.11342 
155 1 257.037 263.274 254.126 -2.53157 
156 1 265.97 268.397 258.411 -2.02401 
157 1 260.611 253.01 260.261 -1.94551 
158 1 258.714 260.8 267.863 -2.74284 
159 1 254.623 261.665 265.094 -2.6842 
160 1 261.911 264.225 268.358 -2.97617 
161 1 265.608 264.518 258.448 -3.02003 
162 1 254.499 265.766 257.954 -2.51433 
163 1 254.842 267.724 259.84 -2.41086 
164 1 256.358 269.396 258.026 -2.05441 
165 1 254.018 255.497 261.298 -1.43147 
166 1 265.951 265.501 262.661 -3.02998 
167 1 266.68 263.73 264.54 -2.96534 
168 1 261.819 254.521 262.819 -2.45422 
169 1 264.835 260.808 269.808 -2.18209 
170 1 267.334 264.283 256.293 -2.50707 
171 1 270.401 266.229 263.296 -1.73104 
172 1 254.112 267.779 264.561 -1.47822 
173 1 268.892 265.047 260.105 -2.36138 
174 1 256.314 257.76 261.47 -3.0207 
175 1 267.758 266.317 258.009 -1.94353 
176 1 269.343 259.816 257.381 -1.83246 
177 1 260.552 258.881 268.585 -2.69916 
178 1 259.454 259.52 258.753 -3.13329 
179 1 265.611 259.61 255.324 -2.9084 
180 1 270.345 262.017 258.71 -1.6676 
181 1 266.687 256.009 260.823 -2.37045 
182 1 266.911 259.378 263.64 -2.82165 
183 1 260.257 253.729 257.576 -2.00637 
184 1 255.494 261.225 255.411 -2.28963 
185 1 257.57 255.73 268.41 -1.51591 
186 1 263.706 262.28 267.822 -3.11313 
187 1 259.462 255.187 261.273 -2.88599 
188 1 269.365 259.23 267.522 -1.51573 
189 1 260.896 269.371 256.551 -2.1282 
190 1 258.111 260.154 265.413 -2.90784 
191 1 254.188 257.826 265.665 -2.0366 
192 1 264.965 267.561 267.125 -2.39019 
193 1 264.017 264.621 260.626 -3.35652 
194 1 260.86 264.332 264.078 -3.00738 
195 1 260.805 261.948 260.055 -3.00284 
196 1 260.21 260.362 255.951 -2.96596 
197 1 268.27 259.93 254.747 -2.10926 
198 1 263.22 255.353 266.68 -1.8791 
199 1 263.778 266.828 259.096 -3.03369 
200 1 266.054 260.084 252.745 -2.08626 
201 1 258.562 257.792 270.063 -1.53232 
202 1 263.877 259.59 259.853 -3.26513 
203 1 257.278 256.427 259.308 -2.86339 
204 1 259.071 263.992 260.024 -3.08019 
205 1 265.511 266.463 256.422 -2.06697 
206 1 252.372 266.483 259.469 -1.51865 
207 1 263.327 261.907 260.967 -2.93574 
208 1 263.153 262.818 258.516 -3.09674 
209 1 259.064 262.675 265.137 -3.07268 
210 1 259.476 259.882 252.188 -1.77724 
211 1 253.867 260.98 262.339 -2.53544 
212 1 260.117 263.302 270.337 -2.05476 
213 1 256.53 263.955 251.587 -1.18357 
214 1 261.361 264.661 258.932 -3.17985 
215 1 266.527 261.264 261.794 -3.06776 
216 1 262.515 256.871 255.221 -2.61797 
217 1 264.607 254.63 256.838 -2.12422 
218 1 268.483 264.32 262.666 -2.81681 
219 1 259.841 256.123 258.723 -3.10128 
220 1 264.369 256.82 259.531 -3.1215 
221 1 255.76 264.319 268.146 -1.81387 
222 1 262.118 269.152 262.082 -2.91231 
223 1 262.451 256.951 268.938 -1.84077 
224 1 260.162 256.38 267.624 -2.18668 
225 1 265.537 257.244 263.014 -2.7242 
226 1 257.794 264.843 266.441 -2.76073 
227 1 256.967 261.779 263.643 -3.22654 
228 1 254.093 266.275 255.301 -1.62726 
229 1 267.786 260.457 259.482 -2.72482 
230 1 253.705 258.212 262.071 -2.11828 
231 1 256.86 262.321 266.577 -2.96677 
232 1 269.862 261.928 268.146 -1.47554 
233 1 256.419 265.142 256.173 -2.9079 
234 1 252.699 259.679 264.326 -1.70922 
235 1 261.548 262.789 266.128 -3.06866 
236 1 267.01 265.453 266.895 -2.73231 
237 1 264.28 255.245 261.855 -2.82672 
238 1 270.567 263.706 264.265 -1.98958 
239 1 266.92 261.116 257.047 -2.94384 
240 1 265.61 261.338 264.689 -3.04449 
241 1 255.433 268.752 262.351 -2.0644 
242 1 261.622 263.915 261.562 -3.0565 
243 1 266.734 262.132 254.601 -2.75947 
244 1 259.777 268.248 261.447 -2.99985 
245 1 260.782 257.082 262.704 -3.11405 
246 1 252.315 262.531 263.927 -1.64273 
247 1 267.02 255.286 255.476 -1.44405 
248 1 265.949 258.818 258.221 -3.17142 
249 1 256.316 260.528 261.319 -3.13601 
250 1 260.846 264.25 253.463 -2.65153 
251 1 267.865 263.041 258.591 -2.84366 
252 1 265.126 265.817 265.126 -2.92374 
253 1 266.818 254.897 263.358 -1.6924 
254 1 262.36 270.178 264.631 -2.23828 
255 1 262.71 265.911 252.449 -1.38105 
256 1 261.843 260.405 258.158 -3.20495 
257 1 264.941 263.079 256.337 -2.98901 
258 1 264.003 263.395 265.306 -3.2651 
259 1 258.342 255.538 265.809 -2.35632 
260 1 255.477 259.422 263.796 -3.03769 
261 1 264.465 258.2 270.211 -1.4874 
262 1 258.115 252.663 261.85 -1.43046 
263 1 271.003 263.999 261.551 -1.62557 
264 1 265.498 261.823 259.339 -3.14755 
265 1 262.235 262.207 256.069 -3.26244 
266 1 270.206 291.008 274.693 0 
267 1 265.201 269.819 265.528 -1.94569 
268 1 266.202 258.729 260.941 -3.10539 
269 1 257.444 262.523 269.453 -2.16903 
270 1 254.951 261.699 268.4 -1.68915 
271 1 262.978 269.502 267.246 -1.80957 
272 1 258.754 264.851 257.555 -3.07894 
273 1 259.057 269.072 258.539 -2.82302 
274 1 262.782 271.605 261.186 -1.6492 
275 1 254.664 257.249 259.367 -2.21722 
276 1 260.77 266.037 270.04 -1.78331 
277 1 259.344 262.827 262.431 -3.14675 
278 1 259.476 262.686 255.046 -2.82732 
279 1 266.166 262.882 266.997 -3.09376 
280 1 255.441 254.545 258.854 -1.81225 
281 1 269.388 259.114 264.546 -1.99335 
282 1 267.116 270.502 263.529 -1.33688 
283 1 254.81 263.406 262.893 -2.95882 
284 1 264.004 269.404 260.076 -2.67365 
285 1 263.385 258.272 257.561 -2.84839 
286 1 266.179 267.97 263.723 -2.934 
287 1 259.231 258.254 254.663 -2.64232 
288 1 268.94 262.31 261.017 -2.7011 
289 1 261.148 261.566 250.859 -1.55 
290 1 258.217 257.612 257.09 -3.03247 
291 1 256.651 266.926 267.947 -1.47729 
292 1 258.253 265.162 269.259 -2.01648 
293 1 253.981 268.297 257.244 -1.46476 
294 1 256.428 264.046 258.815 -3.33402 
295 1 264.27 260.734 257.264 -2.92063 
296 1 263.366 265.087 257.136 -2.59886 
297 1 268.681 266.831 268.472 -1.28453 
298 1 263.226 260.781 265.664 -2.98484 
299 1 255.28 256.42 263.547 -2.40376 
300 1 256.383 258.596 255.18 -2.19623 
301 1 264.12 261.641 254.209 -3.00136 
302 1 257.839 254.917 257.075 -2.24741 
303 1 259.696 269.011 264.078 -2.85282 
304 1 256.55 266.825 265.24 -2.47995 
305 1 264.412 264.899 267.579 -3.04334 
306 1 270.875 261.374 262.762 -1.70266 
307 1 256.889 257.706 265.23 -2.85309 
308 1 263.222 256.517 264.137 -2.98061 
309 1 263.176 252.874 261.128 -1.78279 
