       N       E                     dE             d eps       ncg     rms          rms(c)
DAV:   1    -0.141082075157E+02   -0.14108E+02   -0.15664E-01    20   0.630E+00    0.173E+00
DAV:   2    -0.140649095711E+02    0.43298E-01   -0.65847E-03    20   0.616E-01    0.108E+00
DAV:   3    -0.140348074358E+02    0.30102E-01   -0.17514E-02    20   0.989E-01    0.500E-02
DAV:   4    -0.140348497999E+02   -0.42364E-04   -0.18140E-04    20   0.128E-01    0.969E-03
DAV:   5    -0.140348556315E+02   -0.58316E-05   -0.26692E-06    36   0.129E-02    0.202E-03
DAV:   6    -0.140348541873E+02    0.14443E-05   -0.34496E-08    18   0.156E-03    0.417E-04
DAV:   7    -0.140348541171E+02    0.70131E-07   -0.18870E-09    10   0.495E-04
   1 F= -.14034854E+02 E0= -.13985073E+02  d E =-.149344E+00
       N       E                     dE             d eps       ncg     rms          rms(c)
DAV:   1    -0.140350364280E+02   -0.18224E-03   -0.12270E-02    20   0.803E-01    0.769E-02
DAV:   2    -0.140348314376E+02    0.20499E-03   -0.50965E-04    40   0.154E-01    0.126E-02
DAV:   3    -0.140348279573E+02    0.34803E-05   -0.16483E-05    22   0.226E-02    0.545E-03
DAV:   4    -0.140348285565E+02   -0.59913E-06   -0.25183E-06    40   0.105E-02
   2 F= -.14034829E+02 E0= -.13985081E+02  d E =-.149241E+00
       N       E                     dE             d eps       ncg     rms          rms(c)
DAV:   1    -0.140356714683E+02   -0.84351E-03   -0.61624E-02    20   0.159E+00    0.154E-01
DAV:   2    -0.140348398466E+02    0.83162E-03   -0.19665E-03    36   0.303E-01    0.253E-02
DAV:   3    -0.140348257408E+02    0.14106E-04   -0.67725E-05    24   0.457E-02    0.109E-02
DAV:   4    -0.140348281371E+02   -0.23962E-05   -0.99397E-06    38   0.209E-02    0.417E-03
DAV:   5    -0.140348287092E+02   -0.57211E-06   -0.72554E-07    32   0.709E-03
   3 F= -.14034829E+02 E0= -.13985081E+02  d E =-.149244E+00
