    8    8  100    2
  0.2226630E+02  0.5626600E-09  0.5626600E-09  0.5626600E-09  0.5000000E-15
  1.000000000000000E-004
  CAR 
 unknown system                          
   64    1   42
 
  0.2500000E+00  0.2500000E+00  0.2500000E+00  0.1000000E+01
   1      -11.381570    -11.381801
   2      -11.351799    -11.352031
   3      -11.351798    -11.352031
   4      -11.309544    -11.309781
   5      -11.266270    -11.266514
   6      -11.266270    -11.266514
   7      -11.246393    -11.246633
   8      -11.246392    -11.246632
   9      -11.242399    -11.242639
  10      -11.215192    -11.215437
  11      -11.215191    -11.215436
  12      -11.201515    -11.201761
  13      -11.198237    -11.198460
  14      -11.179439    -11.179664
  15      -11.179438    -11.179662
  16       -9.320137     -9.320171
  17       -7.879567     -7.879600
  18       -7.346384     -7.346419
  19       -7.346384     -7.346419
  20       -5.303441     -5.303465
  21       -2.934336     -2.934400
  22       -2.934335     -2.934400
  23       -1.183474     -1.183525
  24       -0.493426     -0.493476
  25       -0.084035     -0.084081
  26       -0.084035     -0.084081
  27        0.840246      0.840192
  28        0.840246      0.840192
  29        1.419100      1.419045
  30        2.494714      2.494665
  31        2.494714      2.494665
  32        3.614239      3.614210
  33        5.207303      5.207241
  34        5.425579      5.425528
  35        5.425579      5.425529
  36        6.629598      6.629556
  37        7.179112      7.179054
  38        7.179112      7.179054
  39        8.277079      8.277018
  40        8.277079      8.277018
  41        8.775978      8.775924
  42        9.444945      9.448171
