Processors received = 12
script running on host compute-1-31.local
PBS_NODEFILE
compute-1-31
compute-1-31
compute-1-31
compute-1-31
compute-1-31
compute-1-31
compute-1-31
compute-1-31
compute-1-31
compute-1-31
compute-1-31
compute-1-31
 running on   12 nodes
 each image running on   12 nodes
 distr:  one band on    1 nodes,   12 groups
 vasp.5.2.2 15Apr09 complex 
 POSCAR found type information on POSCAR  Al
 01/POSCAR found :  1 types and   31 ions

 ----------------------------------------------------------------------------- 
|                                                                             |
|  ADVICE TO THIS USER RUNNING 'VASP/VAMP'   (HEAR YOUR MASTER'S VOICE ...):  |
|                                                                             |
|      You have a (more or less) 'large supercell' and for larger cells       |
|      it might be more efficient to use real space projection operators      |
|      So try LREAL= Auto  in the INCAR   file.                               |
|      Mind: If you want to do a very accurate calculations keep the          |
|      reciprocal projection scheme          (i.e. LREAL=.FALSE.)             |
|                                                                             |
 ----------------------------------------------------------------------------- 

 LDA part: xc-table for Pade appr. of Perdew
 POSCAR found type information on POSCAR  Al
 00/POSCAR found :  1 types and   31 ions
 POSCAR found type information on POSCAR  Al
 02/POSCAR found :  1 types and   31 ions
 POSCAR, INCAR and KPOINTS ok, starting setup
 FFT: planning ...(           1 )
 reading WAVECAR
 entering main loop
       N       E                     dE             d eps       ncg     rms          rms(c)
RMM:   1     0.230940264924E+03    0.23094E+03   -0.15609E+04   144   0.535E+02
RMM:   2    -0.387768724917E+02   -0.26972E+03   -0.25942E+03   144   0.111E+02
RMM:   3    -0.958506453339E+02   -0.57074E+02   -0.55521E+02   144   0.362E+01
RMM:   4    -0.108127082645E+03   -0.12276E+02   -0.11248E+02   144   0.199E+01
RMM:   5    -0.112515375441E+03   -0.43883E+01   -0.33245E+01   144   0.978E+00
RMM:   6    -0.114054483467E+03   -0.15391E+01   -0.11214E+01   144   0.544E+00
RMM:   7    -0.114539686956E+03   -0.48520E+00   -0.38607E+00   144   0.295E+00
RMM:   8    -0.114705819161E+03   -0.16613E+00   -0.13881E+00   144   0.167E+00
RMM:   9    -0.114787867397E+03   -0.82048E-01   -0.74213E-01   325   0.944E-01
RMM:  10    -0.114801409806E+03   -0.13542E-01   -0.96929E-02   281   0.242E-01
RMM:  11    -0.114802083964E+03   -0.67416E-03   -0.36441E-03   231   0.547E-02
RMM:  12    -0.114802096151E+03   -0.12187E-04   -0.90724E-05   169   0.170E-02    0.554E+00
RMM:  13    -0.114067401477E+03    0.73469E+00   -0.90300E-01   288   0.129E+00    0.334E+00
RMM:  14    -0.113823768055E+03    0.24363E+00   -0.14583E-01   288   0.747E-01    0.147E+00
RMM:  15    -0.113763450538E+03    0.60318E-01   -0.41990E-02   288   0.458E-01    0.180E-01
RMM:  16    -0.113761859058E+03    0.15915E-02   -0.24207E-03   290   0.107E-01    0.609E-02
RMM:  17    -0.113761741544E+03    0.11751E-03   -0.53152E-04   267   0.478E-02    0.133E-02
RMM:  18    -0.113761748827E+03   -0.72827E-05   -0.33540E-05   181   0.172E-02
   1 F= -.11376175E+03 E0= -.11375313E+03  d E =-.113762E+03
 BRION: g(F)=  0.171E+00 g(S)=  0.000E+00
 bond charge predicted
       N       E                     dE             d eps       ncg     rms          rms(c)
RMM:   1    -0.113909955379E+03   -0.14821E+00   -0.11627E+00   288   0.275E+00    0.276E-01
RMM:   2    -0.113901314605E+03    0.86408E-02   -0.20268E-02   290   0.354E-01    0.973E-02
RMM:   3    -0.113900859392E+03    0.45521E-03   -0.18103E-03   286   0.926E-02    0.433E-02
RMM:   4    -0.113900842021E+03    0.17371E-04   -0.11415E-04   185   0.268E-02
   2 F= -.11390084E+03 E0= -.11388515E+03  d E =-.139093E+00
 BRION: g(F)=  0.700E-01 g(S)=  0.000E+00 retain N=  1 mean eig= 2.52
 eig:   2.518
 bond charge predicted
       N       E                     dE             d eps       ncg     rms          rms(c)
RMM:   1    -0.114027632485E+03   -0.12677E+00   -0.28333E+00   288   0.435E+00    0.428E-01
RMM:   2    -0.114007652516E+03    0.19980E-01   -0.49334E-02   291   0.556E-01    0.157E-01
RMM:   3    -0.114006724765E+03    0.92775E-03   -0.40880E-03   288   0.142E-01    0.745E-02
RMM:   4    -0.114006698663E+03    0.26102E-04   -0.26564E-04   205   0.414E-02
   3 F= -.11400670E+03 E0= -.11398251E+03  d E =-.105857E+00
 BRION: g(F)=  0.709E-02 g(S)=  0.000E+00 retain N=  1 mean eig= 2.91
 eig:   2.914
 bond charge predicted
       N       E                     dE             d eps       ncg     rms          rms(c)
RMM:   1    -0.114016560014E+03   -0.98352E-02   -0.11522E-01   288   0.929E-01    0.847E-02
RMM:   2    -0.114015978743E+03    0.58127E-03   -0.18562E-03   286   0.115E-01    0.372E-02
RMM:   3    -0.114015960568E+03    0.18175E-04   -0.11959E-04   184   0.296E-02
   4 F= -.11401596E+03 E0= -.11399086E+03  d E =-.926191E-02
 BRION: g(F)=  0.333E-02 g(S)=  0.000E+00 retain N=  1 mean eig= 3.80
 eig:   3.798
 reached required accuracy - stopping structural energy minimisation
