<?xml version="1.0" encoding="ISO-8859-1"?>
<modeling>
 <generator>
  <i name="program" type="string">vasp </i>
  <i name="version" type="string">5.2.2  </i>
  <i name="subversion" type="string">15Apr09 complex  parallel </i>
  <i name="platform" type="string">LinuxIFC </i>
  <i name="date" type="string">2017 03 17 </i>
  <i name="time" type="string">11:31:58 </i>
 </generator>
 <incar>
  <i type="string" name="PREC">accurate</i>
  <i type="int" name="IALGO">    48</i>
  <i type="int" name="IBRION">     1</i>
  <i name="EDIFFG">      0.05000000</i>
  <i type="int" name="NSW">   191</i>
  <i type="int" name="ISIF">     2</i>
  <i name="ENCUT">    300.00000000</i>
  <i name="POTIM">      0.50000000</i>
  <i name="NELECT">     93.00000000</i>
  <i type="int" name="ISMEAR">     1</i>
  <i name="SIGMA">      0.20000000</i>
  <i type="logical" name="LWAVE"> F  </i>
  <i type="logical" name="LCHARG"> F  </i>
  <i type="logical" name="LPEAD"> F  </i>
  <i type="logical" name="LCALCPOL"> F  </i>
  <i type="logical" name="LCALCEPS"> F  </i>
  <v name="EFIELD_PEAD">      0.00000000      0.00000000      0.00000000</v>
  <i type="logical" name="LEFG"> F  </i>
 </incar>
 <kpoints>
  <generation param="Monkhorst-Pack">
   <v type="int" name="divisions">       2        2        2 </v>
   <v name="usershift">      0.00000000       0.00000000       0.00000000 </v>
   <v name="genvec1">      0.50000000       0.00000000       0.00000000 </v>
   <v name="genvec2">      0.00000000       0.50000000       0.00000000 </v>
   <v name="genvec3">      0.00000000       0.00000000       0.50000000 </v>
   <v name="shift">      0.50000000       0.50000000       0.50000000 </v>
  </generation>
  <varray name="kpointlist" >
   <v>       0.25000000       0.25000000       0.25000000 </v>
   <v>      -0.25000000       0.25000000       0.25000000 </v>
  </varray>
  <varray name="weights" >
   <v>       0.50000000 </v>
   <v>       0.50000000 </v>
  </varray>
 </kpoints>
 <parameters>
  <separator name="general" >
   <i type="string" name="SYSTEM">unknown system</i>
   <i type="logical" name="LCOMPAT"> F  </i>
  </separator>
  <separator name="electronic" >
   <i type="string" name="PREC">accura</i>
   <i name="ENMAX">    300.00000000</i>
   <i name="ENAUG">    291.05200000</i>
   <i name="EDIFF">      0.00010000</i>
   <i type="int" name="IALGO">    48</i>
   <i type="int" name="IWAVPR">    11</i>
   <i type="int" name="NBANDS">    72</i>
   <i name="NELECT">     93.00000000</i>
   <separator name="electronic smearing" >
    <i type="int" name="ISMEAR">     1</i>
    <i name="SIGMA">      0.20000000</i>
   </separator>
   <separator name="electronic projectors" >
    <i type="logical" name="LREAL"> F  </i>
    <v name="ROPT">      0.00000000</v>
    <i type="int" name="LMAXPAW">  -100</i>
    <i type="int" name="LMAXMIX">     2</i>
   </separator>
   <separator name="electronic startup" >
    <i type="int" name="ISTART">     0</i>
    <i type="int" name="ICHARG">     2</i>
    <i type="int" name="INIWAV">     1</i>
   </separator>
   <separator name="electronic spin" >
    <i type="int" name="ISPIN">     1</i>
    <i type="logical" name="LNONCOLLINEAR"> F  </i>
    <v name="MAGMOM">      1.00000000      1.00000000      1.00000000      1.00000000      1.00000000      1.00000000      1.00000000      1.00000000      1.00000000      1.00000000      1.00000000      1.00000000      1.00000000      1.00000000      1.00000000      1.00000000      1.00000000      1.00000000      1.00000000      1.00000000
      1.00000000      1.00000000      1.00000000      1.00000000      1.00000000      1.00000000      1.00000000      1.00000000      1.00000000      1.00000000      1.00000000</v>
    <i name="NUPDOWN">     -1.00000000</i>
    <i type="logical" name="LSORBIT"> F  </i>
    <v name="SAXIS">      0.00000000      0.00000000      1.00000000</v>
    <i type="logical" name="LSPIRAL"> F  </i>
    <v name="QSPIRAL">      0.00000000      0.00000000      0.00000000</v>
    <i type="logical" name="LZEROZ"> F  </i>
   </separator>
   <separator name="electronic exchange-correlation" >
    <i type="logical" name="LASPH"> F  </i>
    <i type="logical" name="LMETAGGA"> F  </i>
   </separator>
   <separator name="electronic convergence" >
    <i type="int" name="NELM">    60</i>
    <i type="int" name="NELMDL">   -12</i>
    <i type="int" name="NELMIN">     2</i>
    <i name="ENINI">    300.00000000</i>
    <separator name="electronic convergence detail" >
     <i type="logical" name="LDIAG"> T  </i>
     <i name="WEIMIN">      0.00100000</i>
     <i name="EBREAK">      0.00000040</i>
     <i name="DEPER">      0.30000000</i>
     <i type="int" name="NRMM">     4</i>
     <i name="TIME">      0.40000000</i>
    </separator>
   </separator>
   <separator name="electronic mixer" >
    <i name="AMIX">      0.40000000</i>
    <i name="BMIX">      1.00000000</i>
    <i name="AMIN">      0.10000000</i>
    <i name="AMIX_MAG">      1.60000000</i>
    <i name="BMIX_MAG">      1.00000000</i>
    <separator name="electronic mixer details" >
     <i type="int" name="IMIX">     4</i>
     <i type="int" name="MAXMIX">   -45</i>
     <i name="WC">    100.00000000</i>
     <i type="int" name="INIMIX">     1</i>
     <i type="int" name="MIXPRE">     1</i>
     <i type="int" name="MREMOVE">     5</i>
    </separator>
   </separator>
   <separator name="electronic dipolcorrection" >
    <i type="logical" name="LDIPOL"> F  </i>
    <i type="logical" name="LMONO"> F  </i>
    <i type="int" name="IDIPOL">     0</i>
    <i name="EPSILON">      1.00000000</i>
    <v name="DIPOL">   -100.00000000   -100.00000000   -100.00000000</v>
    <i name="EFIELD">      0.00000000</i>
   </separator>
  </separator>
  <separator name="grids" >
   <i type="int" name="NGX">    48</i>
   <i type="int" name="NGY">    48</i>
   <i type="int" name="NGZ">    48</i>
   <i type="int" name="NGXF">    96</i>
   <i type="int" name="NGYF">    96</i>
   <i type="int" name="NGZF">    96</i>
   <i type="logical" name="ADDGRID"> F  </i>
  </separator>
  <separator name="ionic" >
   <i type="int" name="NSW">   191</i>
   <i type="int" name="IBRION">     1</i>
   <i type="int" name="ISIF">     2</i>
   <i name="PSTRESS">      0.00000000</i>
   <i name="EDIFFG">      0.05000000</i>
   <i type="int" name="NFREE">     0</i>
   <i name="POTIM">      0.50000000</i>
   <i name="SMASS">     -3.00000000</i>
  </separator>
  <separator name="ionic md" >
   <i name="TEBEG">      0.00010000</i>
   <i name="TEEND">      0.00010000</i>
   <i type="int" name="NBLOCK">     1</i>
   <i type="int" name="KBLOCK">   191</i>
   <i type="int" name="NPACO">   256</i>
   <i name="APACO">     16.00000000</i>
  </separator>
  <separator name="symmetry" >
   <i type="int" name="ISYM">     2</i>
   <i name="SYMPREC">      0.00001000</i>
  </separator>
  <separator name="dos" >
   <i type="logical" name="LORBIT"> F  </i>
   <v name="RWIGS">     -1.00000000</v>
   <i type="int" name="NEDOS">   301</i>
   <i name="EMIN">     10.00000000</i>
   <i name="EMAX">    -10.00000000</i>
   <i name="EFERMI">      0.00000000</i>
  </separator>
  <separator name="writing" >
   <i type="int" name="NWRITE">     2</i>
   <i type="logical" name="LWAVE"> F  </i>
   <i type="logical" name="LCHARG"> F  </i>
   <i type="logical" name="LPARD"> F  </i>
   <i type="logical" name="LVTOT"> F  </i>
   <i type="logical" name="LELF"> F  </i>
   <i type="logical" name="LOPTICS"> F  </i>
   <v name="STM">      0.00000000      0.00000000      0.00000000      0.00000000      0.00000000</v>
  </separator>
  <separator name="performance" >
   <i type="int" name="NPAR">    12</i>
   <i type="int" name="NSIM">     4</i>
   <i type="int" name="NBLK">    32</i>
   <i type="logical" name="LPLANE"> T  </i>
   <i type="logical" name="LSCALAPACK"> F  </i>
   <i type="logical" name="LSCAAWARE"> F  </i>
   <i type="logical" name="LSCALU"> F  </i>
   <i type="logical" name="LASYNC"> F  </i>
  </separator>
  <separator name="miscellaneous" >
   <i type="int" name="IDIOT">     3</i>
   <i type="logical" name="LMUSIC"> F  </i>
   <v name="POMASS">     26.98200000</v>
   <i type="logical" name="LCORR"> T  </i>
  </separator>
  <i type="logical" name="LREAL_COMPAT"> F  </i>
  <i type="logical" name="GGA_COMPAT"> T  </i>
  <i type="logical" name="LBERRY"> F  </i>
  <i type="int" name="ICORELEVEL">     0</i>
  <i type="logical" name="LDAU"> F  </i>
  <i type="int" name="I_CONSTRAINED_M">     0</i>
  <separator name="electronic exchange-correlation" >
   <i type="string" name="GGA">--</i>
   <i type="int" name="VOSKOWN">     0</i>
   <i type="logical" name="LHFCALC"> F  </i>
   <i type="logical" name="LHFONE"> F  </i>
   <i type="logical" name="LRHFCALC"> F  </i>
   <i type="logical" name="LTHOMAS"> F  </i>
   <i type="logical" name="LMODELHF"> F  </i>
   <i name="ENCUTFOCK">      0.00000000</i>
   <i name="ENCUT4O">     -1.00000000</i>
   <i type="int" name="EXXOEP">     0</i>
   <i type="int" name="FOURORBIT">     0</i>
   <i name="AEXX">      0.00000000</i>
   <i name="HFALPHA">      0.00000000</i>
   <i name="ALDAX">      1.00000000</i>
   <i name="AGGAX">      1.00000000</i>
   <i name="ALDAC">      1.00000000</i>
   <i name="AGGAC">      1.00000000</i>
   <i type="int" name="NKREDX">     1</i>
   <i type="int" name="NKREDY">     1</i>
   <i type="int" name="NKREDZ">     1</i>
   <i type="logical" name="SHIFTRED"> F  </i>
   <i type="logical" name="ODDONLY"> F  </i>
   <i type="logical" name="EVENONLY"> F  </i>
   <i type="int" name="LMAXFOCK">     0</i>
   <i type="int" name="NMAXFOCKAE">     0</i>
   <i name="HFSCREEN">      0.00000000</i>
   <i name="HFSCREENC">      0.00000000</i>
  </separator>
  <separator name="model GW" >
   <i type="int" name="MODEL_GW">     0</i>
   <i name="MODEL_EPS0">     10.23670678</i>
   <i name="MODEL_ALPHA">      1.00000000</i>
  </separator>
  <separator name="linear response parameters" >
   <i type="logical" name="LEPSILON"> F  </i>
   <i type="logical" name="LRPA"> F  </i>
   <i type="logical" name="LNABLA"> F  </i>
   <i type="logical" name="LVEL"> F  </i>
   <i type="int" name="KINTER">     0</i>
   <i name="CSHIFT">      0.10000000</i>
   <i name="OMEGAMAX">     -1.00000000</i>
  </separator>
  <separator name="orbital magnetization" >
   <i type="logical" name="ORBITALMAG"> F  </i>
   <i type="logical" name="LMAGBLOCH"> F  </i>
   <i type="logical" name="LCHIMAG"> F  </i>
   <i type="logical" name="LGAUGE"> T  </i>
   <i type="int" name="MAGATOM">     0</i>
   <v name="MAGDIPOL">      0.00000000      0.00000000      0.00000000</v>
   <v name="AVECCONST">      0.00000000      0.00000000      0.00000000</v>
  </separator>
  <separator name="response functions" >
   <i type="logical" name="LRPA"> T  </i>
   <i type="logical" name="LTCTE"> F  </i>
   <i type="logical" name="LTETE"> F  </i>
   <i type="logical" name="L2ORDER"> F  </i>
   <i type="logical" name="LGWLF"> F  </i>
   <i name="ENCUTGW">    200.00000000</i>
   <i name="ENCUTGWSOFT">     -2.00000000</i>
   <i name="ENCUTLF">     -1.00000000</i>
   <i type="int" name="LMAXMP2">    -1</i>
   <i name="SCISSOR">      0.00000000</i>
   <i type="int" name="NOMEGA">     0</i>
   <i type="int" name="NOMEGAR">     0</i>
   <i type="int" name="NBANDSGW">    -1</i>
   <i type="int" name="NBANDSLF">    -1</i>
   <i type="int" name="NELM">     1</i>
   <i type="int" name="DIM">     3</i>
   <i type="int" name="ANTIRES">     0</i>
   <i type="logical" name="LUSEW"> F  </i>
   <i name="OMEGAMAX">    -30.00000000</i>
   <i name="OMEGATL">   -200.00000000</i>
   <i type="int" name="OMEGAGRID">     0</i>
   <i name="CSHIFT">     -0.10000000</i>
   <i type="logical" name="SELFENERGY"> F  </i>
   <i type="logical" name="LSPECTRAL"> F  </i>
   <i type="logical" name="ODDONLYGW"> F  </i>
   <i type="logical" name="EVENONLYGW"> F  </i>
   <i type="int" name="NKREDLFX">     1</i>
   <i type="int" name="NKREDLFY">     1</i>
   <i type="int" name="NKREDLFZ">     1</i>
   <i type="int" name="MAXMEM">  1024</i>
   <i type="int" name="TELESCOPE">     0</i>
  </separator>
 </parameters>
 <atominfo>
  <atoms>      31 </atoms>
  <types>       1 </types>
  <array name="atoms" >
   <dimension dim="1">ion</dimension>
   <field type="string">element</field>
   <field type="int">atomtype</field>
   <set>
    <rc><c>Al</c><c>   1</c></rc>
    <rc><c>Al</c><c>   1</c></rc>
    <rc><c>Al</c><c>   1</c></rc>
    <rc><c>Al</c><c>   1</c></rc>
    <rc><c>Al</c><c>   1</c></rc>
    <rc><c>Al</c><c>   1</c></rc>
    <rc><c>Al</c><c>   1</c></rc>
    <rc><c>Al</c><c>   1</c></rc>
    <rc><c>Al</c><c>   1</c></rc>
    <rc><c>Al</c><c>   1</c></rc>
    <rc><c>Al</c><c>   1</c></rc>
    <rc><c>Al</c><c>   1</c></rc>
    <rc><c>Al</c><c>   1</c></rc>
    <rc><c>Al</c><c>   1</c></rc>
    <rc><c>Al</c><c>   1</c></rc>
    <rc><c>Al</c><c>   1</c></rc>
    <rc><c>Al</c><c>   1</c></rc>
    <rc><c>Al</c><c>   1</c></rc>
    <rc><c>Al</c><c>   1</c></rc>
    <rc><c>Al</c><c>   1</c></rc>
    <rc><c>Al</c><c>   1</c></rc>
    <rc><c>Al</c><c>   1</c></rc>
    <rc><c>Al</c><c>   1</c></rc>
    <rc><c>Al</c><c>   1</c></rc>
    <rc><c>Al</c><c>   1</c></rc>
    <rc><c>Al</c><c>   1</c></rc>
    <rc><c>Al</c><c>   1</c></rc>
    <rc><c>Al</c><c>   1</c></rc>
    <rc><c>Al</c><c>   1</c></rc>
    <rc><c>Al</c><c>   1</c></rc>
    <rc><c>Al</c><c>   1</c></rc>
   </set>
  </array>
  <array name="atomtypes" >
   <dimension dim="1">type</dimension>
   <field type="int">atomspertype</field>
   <field type="string">element</field>
   <field>mass</field>
   <field>valence</field>
   <field type="string">pseudopotential</field>
   <set>
    <rc><c>  31</c><c>Al</c><c>     26.98200000</c><c>      3.00000000</c><c> PAW_PBE Al 04Jan2001                   </c></rc>
   </set>
  </array>
 </atominfo>
 <structure name="initialpos" >
  <crystal>
   <varray name="basis" >
    <v>       8.08705200       0.00000000       0.00000000 </v>
    <v>       0.00000000       8.08705200       0.00000000 </v>
    <v>       0.00000000       0.00000000       8.08705200 </v>
   </varray>
   <i name="volume">    528.89651690 </i>
   <varray name="rec_basis" >
    <v>       0.12365445       0.00000000       0.00000000 </v>
    <v>       0.00000000       0.12365445       0.00000000 </v>
    <v>       0.00000000       0.00000000       0.12365445 </v>
   </varray>
  </crystal>
  <varray name="positions" >
   <v>       0.99338300       0.00000000       0.99338300 </v>
   <v>       0.24962100       0.00000000       0.24962100 </v>
   <v>       0.24915000       0.24918600       0.00033800 </v>
   <v>       0.00033800       0.24918600       0.24915000 </v>
   <v>       0.50494700       0.00000000       0.99728800 </v>
   <v>       0.75271100       0.00000000       0.24505400 </v>
   <v>       0.74874300       0.24151700       0.00125600 </v>
   <v>       0.50863100       0.23921100       0.24136700 </v>
   <v>       0.00241200       0.50000000       0.00241200 </v>
   <v>       0.24915000       0.75081400       0.00033800 </v>
   <v>       0.00033800       0.75081400       0.24915000 </v>
   <v>       0.49843700       0.50000000       0.00913700 </v>
   <v>       0.74086500       0.50000000       0.25156100 </v>
   <v>       0.74874300       0.75848200       0.00125600 </v>
   <v>       0.50863100       0.76079000       0.24136700 </v>
   <v>       0.99728800       0.00000000       0.50494700 </v>
   <v>       0.24505400       0.00000000       0.75271100 </v>
   <v>       0.24136700       0.23921100       0.50863100 </v>
   <v>       0.00125600       0.24151700       0.74874300 </v>
   <v>       0.50038000       0.00000000       0.50038000 </v>
   <v>       0.75661600       0.00000000       0.75661600 </v>
   <v>       0.74966400       0.24918400       0.50085100 </v>
   <v>       0.50085100       0.24918400       0.74966400 </v>
   <v>       0.00913700       0.50000000       0.49843700 </v>
   <v>       0.25156100       0.50000000       0.74086500 </v>
   <v>       0.24136700       0.76079000       0.50863100 </v>
   <v>       0.00125600       0.75848200       0.74874300 </v>
   <v>       0.74759000       0.50000000       0.74759000 </v>
   <v>       0.74966400       0.75081600       0.50085100 </v>
   <v>       0.50085100       0.75081600       0.74966400 </v>
   <v>       0.37500000       0.50000000       0.37500000 </v>
  </varray>
 </structure>
 <calculation>
  <scstep>
   <time name="diag">    0.30    0.30</time>
   <time name="diis">    0.68    0.68</time>
   <time name="orth">    0.02    0.02</time>
   <time name="total">    1.16    1.17</time>
   <energy>
    <i name="alphaZ">     -6.10292983 </i>
    <i name="ewald">  -2227.07253304 </i>
    <i name="hartreedc">    -19.36597891 </i>
    <i name="XCdc">   -814.80811990 </i>
    <i name="pawpsdc">   1102.18190231 </i>
    <i name="pawaedc">   -111.56847430 </i>
    <i name="eentropy">     -0.04337445 </i>
    <i name="bandstr">    648.05342897 </i>
    <i name="atom">   1659.66634407 </i>
    <i name="e_fr_energy">    230.94026492 </i>
    <i name="e_wo_entrp">    230.98363938 </i>
    <i name="e_0_energy">    230.95472307 </i>
   </energy>
  </scstep>
  <scstep>
   <time name="diag">    0.30    0.30</time>
   <time name="diis">    0.68    0.69</time>
   <time name="orth">    0.02    0.02</time>
   <time name="total">    1.00    1.01</time>
   <energy>
    <i name="e_fr_energy">    -38.77687249 </i>
    <i name="e_wo_entrp">    -38.79431533 </i>
    <i name="e_0_energy">    -38.78268677 </i>
   </energy>
  </scstep>
  <scstep>
   <time name="diag">    0.30    0.30</time>
   <time name="diis">    0.67    0.68</time>
   <time name="orth">    0.02    0.02</time>
   <time name="total">    0.98    1.00</time>
   <energy>
    <i name="e_fr_energy">    -95.85064533 </i>
    <i name="e_wo_entrp">    -95.85075663 </i>
    <i name="e_0_energy">    -95.85068243 </i>
   </energy>
  </scstep>
  <scstep>
   <time name="diag">    0.30    0.30</time>
   <time name="diis">    0.68    0.68</time>
   <time name="orth">    0.02    0.02</time>
   <time name="total">    1.00    1.00</time>
   <energy>
    <i name="e_fr_energy">   -108.12708264 </i>
    <i name="e_wo_entrp">   -108.01643262 </i>
    <i name="e_0_energy">   -108.09019930 </i>
   </energy>
  </scstep>
  <scstep>
   <time name="diag">    0.30    0.30</time>
   <time name="diis">    0.67    0.67</time>
   <time name="orth">    0.02    0.02</time>
   <time name="total">    0.99    0.99</time>
   <energy>
    <i name="e_fr_energy">   -112.51537544 </i>
    <i name="e_wo_entrp">   -112.49384828 </i>
    <i name="e_0_energy">   -112.50819972 </i>
   </energy>
  </scstep>
  <scstep>
   <time name="diag">    0.30    0.30</time>
   <time name="diis">    0.68    0.68</time>
   <time name="orth">    0.02    0.02</time>
   <time name="total">    0.99    1.00</time>
   <energy>
    <i name="e_fr_energy">   -114.05448347 </i>
    <i name="e_wo_entrp">   -114.04564270 </i>
    <i name="e_0_energy">   -114.05153654 </i>
   </energy>
  </scstep>
  <scstep>
   <time name="diag">    0.30    0.30</time>
   <time name="diis">    0.68    0.68</time>
   <time name="orth">    0.02    0.02</time>
   <time name="total">    1.00    1.00</time>
   <energy>
    <i name="e_fr_energy">   -114.53968696 </i>
    <i name="e_wo_entrp">   -114.54625966 </i>
    <i name="e_0_energy">   -114.54187786 </i>
   </energy>
  </scstep>
  <scstep>
   <time name="diag">    0.31    0.31</time>
   <time name="diis">    0.67    0.68</time>
   <time name="orth">    0.02    0.02</time>
   <time name="total">    1.00    1.00</time>
   <energy>
    <i name="e_fr_energy">   -114.70581916 </i>
    <i name="e_wo_entrp">   -114.71421545 </i>
    <i name="e_0_energy">   -114.70861792 </i>
   </energy>
  </scstep>
  <scstep>
   <time name="diag">    0.30    0.30</time>
   <time name="diis">    1.37    1.37</time>
   <time name="orth">    0.02    0.02</time>
   <time name="total">    1.69    1.69</time>
   <energy>
    <i name="e_fr_energy">   -114.78786740 </i>
    <i name="e_wo_entrp">   -114.79815635 </i>
    <i name="e_0_energy">   -114.79129705 </i>
   </energy>
  </scstep>
  <scstep>
   <time name="diag">    0.30    0.30</time>
   <time name="diis">    1.18    1.18</time>
   <time name="orth">    0.02    0.02</time>
   <time name="total">    1.50    1.50</time>
   <energy>
    <i name="e_fr_energy">   -114.80140981 </i>
    <i name="e_wo_entrp">   -114.81020756 </i>
    <i name="e_0_energy">   -114.80434239 </i>
   </energy>
  </scstep>
  <scstep>
   <time name="diag">    0.30    0.30</time>
   <time name="diis">    0.99    0.99</time>
   <time name="orth">    0.02    0.02</time>
   <time name="total">    1.30    1.31</time>
   <energy>
    <i name="e_fr_energy">   -114.80208396 </i>
    <i name="e_wo_entrp">   -114.81083178 </i>
    <i name="e_0_energy">   -114.80499990 </i>
   </energy>
  </scstep>
  <scstep>
   <time name="diag">    0.30    0.30</time>
   <time name="diis">    0.79    0.79</time>
   <time name="orth">    0.02    0.02</time>
   <time name="total">    1.30    1.30</time>
   <energy>
    <i name="e_fr_energy">   -114.80209615 </i>
    <i name="e_wo_entrp">   -114.81084353 </i>
    <i name="e_0_energy">   -114.80501194 </i>
   </energy>
  </scstep>
  <scstep>
   <time name="diag">    0.30    0.30</time>
   <time name="diis">    1.18    1.18</time>
   <time name="orth">    0.02    0.02</time>
   <time name="total">    1.85    1.85</time>
   <energy>
    <i name="e_fr_energy">   -114.06740148 </i>
    <i name="e_wo_entrp">   -114.04370893 </i>
    <i name="e_0_energy">   -114.05950396 </i>
   </energy>
  </scstep>
  <scstep>
   <time name="diag">    0.30    0.30</time>
   <time name="diis">    1.19    1.19</time>
   <time name="orth">    0.02    0.02</time>
   <time name="total">    1.86    1.86</time>
   <energy>
    <i name="e_fr_energy">   -113.82376806 </i>
    <i name="e_wo_entrp">   -113.79675873 </i>
    <i name="e_0_energy">   -113.81476495 </i>
   </energy>
  </scstep>
  <scstep>
   <time name="diag">    0.30    0.30</time>
   <time name="diis">    1.19    1.19</time>
   <time name="orth">    0.02    0.02</time>
   <time name="total">    1.85    1.86</time>
   <energy>
    <i name="e_fr_energy">   -113.76345054 </i>
    <i name="e_wo_entrp">   -113.73667559 </i>
    <i name="e_0_energy">   -113.75452555 </i>
   </energy>
  </scstep>
  <scstep>
   <time name="diag">    0.30    0.30</time>
   <time name="diis">    1.18    1.18</time>
   <time name="orth">    0.02    0.02</time>
   <time name="total">    1.85    1.85</time>
   <energy>
    <i name="e_fr_energy">   -113.76185906 </i>
    <i name="e_wo_entrp">   -113.73597308 </i>
    <i name="e_0_energy">   -113.75323040 </i>
   </energy>
  </scstep>
  <scstep>
   <time name="diag">    0.30    0.30</time>
   <time name="diis">    1.13    1.14</time>
   <time name="orth">    0.02    0.02</time>
   <time name="total">    1.81    1.81</time>
   <energy>
    <i name="e_fr_energy">   -113.76174154 </i>
    <i name="e_wo_entrp">   -113.73604153 </i>
    <i name="e_0_energy">   -113.75317487 </i>
   </energy>
  </scstep>
  <scstep>
   <time name="diag">    0.30    0.30</time>
   <time name="diis">    0.83    0.83</time>
   <time name="orth">    0.02    0.02</time>
   <time name="total">    1.30    1.31</time>
   <energy>
    <i name="alphaZ">     -6.10292983 </i>
    <i name="ewald">  -2227.07253304 </i>
    <i name="hartreedc">    -22.48827212 </i>
    <i name="XCdc">   -811.33249725 </i>
    <i name="pawpsdc">   1108.31510562 </i>
    <i name="pawaedc">   -118.18823497 </i>
    <i name="eentropy">     -0.02584680 </i>
    <i name="bandstr">    303.46711551 </i>
    <i name="atom">   1659.66634407 </i>
    <i name="e_fr_energy">   -113.76174883 </i>
    <i name="e_wo_entrp">   -113.73590203 </i>
    <i name="e_0_energy">   -113.75313323 </i>
   </energy>
  </scstep>
  <structure>
   <crystal>
    <varray name="basis" >
     <v>       8.08705200       0.00000000       0.00000000 </v>
     <v>       0.00000000       8.08705200       0.00000000 </v>
     <v>       0.00000000       0.00000000       8.08705200 </v>
    </varray>
    <i name="volume">    528.89651690 </i>
    <varray name="rec_basis" >
     <v>       0.12365445       0.00000000       0.00000000 </v>
     <v>       0.00000000       0.12365445       0.00000000 </v>
     <v>       0.00000000       0.00000000       0.12365445 </v>
    </varray>
   </crystal>
   <varray name="positions" >
    <v>       0.99338300       0.00000000       0.99338300 </v>
    <v>       0.24962100       0.00000000       0.24962100 </v>
    <v>       0.24915000       0.24918600       0.00033800 </v>
    <v>       0.00033800       0.24918600       0.24915000 </v>
    <v>       0.50494700       0.00000000       0.99728800 </v>
    <v>       0.75271100       0.00000000       0.24505400 </v>
    <v>       0.74874300       0.24151700       0.00125600 </v>
    <v>       0.50863100       0.23921100       0.24136700 </v>
    <v>       0.00241200       0.50000000       0.00241200 </v>
    <v>       0.24915000       0.75081400       0.00033800 </v>
    <v>       0.00033800       0.75081400       0.24915000 </v>
    <v>       0.49843700       0.50000000       0.00913700 </v>
    <v>       0.74086500       0.50000000       0.25156100 </v>
    <v>       0.74874300       0.75848200       0.00125600 </v>
    <v>       0.50863100       0.76079000       0.24136700 </v>
    <v>       0.99728800       0.00000000       0.50494700 </v>
    <v>       0.24505400       0.00000000       0.75271100 </v>
    <v>       0.24136700       0.23921100       0.50863100 </v>
    <v>       0.00125600       0.24151700       0.74874300 </v>
    <v>       0.50038000       0.00000000       0.50038000 </v>
    <v>       0.75661600       0.00000000       0.75661600 </v>
    <v>       0.74966400       0.24918400       0.50085100 </v>
    <v>       0.50085100       0.24918400       0.74966400 </v>
    <v>       0.00913700       0.50000000       0.49843700 </v>
    <v>       0.25156100       0.50000000       0.74086500 </v>
    <v>       0.24136700       0.76079000       0.50863100 </v>
    <v>       0.00125600       0.75848200       0.74874300 </v>
    <v>       0.74759000       0.50000000       0.74759000 </v>
    <v>       0.74966400       0.75081600       0.50085100 </v>
    <v>       0.50085100       0.75081600       0.74966400 </v>
    <v>       0.37500000       0.50000000       0.37500000 </v>
   </varray>
  </structure>
  <varray name="forces" >
   <v>       0.36193287       0.00000000       0.36193287 </v>
   <v>      -0.04742665       0.00000000      -0.04742665 </v>
   <v>      -0.04974846       0.19721758       0.07918756 </v>
   <v>       0.07918756       0.19721758      -0.04974846 </v>
   <v>      -0.30979593       0.00000000      -0.23961411 </v>
   <v>       0.23961411       0.00000000       0.30979593 </v>
   <v>       0.19039631       0.50287961      -0.19039631 </v>
   <v>      -0.16606583      -0.06782038       0.16606583 </v>
   <v>      -0.07756907       0.00000000      -0.07756907 </v>
   <v>      -0.04974846      -0.19721758       0.07918756 </v>
   <v>       0.07918756      -0.19721758      -0.04974846 </v>
   <v>      -0.22855404       0.00000000      -0.24556903 </v>
   <v>       0.24556903       0.00000000       0.22855404 </v>
   <v>       0.19039631      -0.50287961      -0.19039631 </v>
   <v>      -0.16606583       0.06782038       0.16606583 </v>
   <v>      -0.23961411       0.00000000      -0.30979593 </v>
   <v>       0.30979593       0.00000000       0.23961411 </v>
   <v>       0.16606583      -0.06782038      -0.16606583 </v>
   <v>      -0.19039631       0.50287961       0.19039631 </v>
   <v>       0.04742665       0.00000000       0.04742665 </v>
   <v>      -0.36193287       0.00000000      -0.36193287 </v>
   <v>      -0.07918756       0.19721758       0.04974846 </v>
   <v>       0.04974846       0.19721758      -0.07918756 </v>
   <v>      -0.24556903       0.00000000      -0.22855404 </v>
   <v>       0.22855404       0.00000000       0.24556903 </v>
   <v>       0.16606583       0.06782038      -0.16606583 </v>
   <v>      -0.19039631      -0.50287961       0.19039631 </v>
   <v>       0.07756907       0.00000000       0.07756907 </v>
   <v>      -0.07918756      -0.19721758       0.04974846 </v>
   <v>       0.04974846      -0.19721758      -0.07918756 </v>
   <v>       0.00000000       0.00000000       0.00000000 </v>
  </varray>
  <varray name="stress" >
   <v>      -2.21070833       0.00000000      -7.30654604 </v>
   <v>       0.00000000       8.04139103       0.00000000 </v>
   <v>      -7.30654604       0.00000000      -2.21070833 </v>
  </varray>
  <energy>
   <i name="e_fr_energy">   -113.76174883 </i>
   <i name="e_wo_entrp">   -113.75313323 </i>
   <i name="e_0_energy">     -0.02584680 </i>
  </energy>
  <time name="totalsc">   26.62   26.68</time>
 </calculation>
 <calculation>
  <scstep>
   <time name="diag">    0.30    0.30</time>
   <time name="diis">    1.19    1.19</time>
   <time name="orth">    0.02    0.02</time>
   <time name="total">    1.86    1.87</time>
   <energy>
    <i name="alphaZ">     -6.10292983 </i>
    <i name="ewald">  -2229.72316177 </i>
    <i name="hartreedc">    -20.51449361 </i>
    <i name="XCdc">   -811.36915714 </i>
    <i name="pawpsdc">   1108.31064199 </i>
    <i name="pawaedc">   -118.18539453 </i>
    <i name="eentropy">     -0.05193284 </i>
    <i name="bandstr">    304.06012827 </i>
    <i name="atom">   1659.66634407 </i>
    <i name="e_fr_energy">   -113.90995538 </i>
    <i name="e_wo_entrp">   -113.85802254 </i>
    <i name="e_0_energy">   -113.89264443 </i>
   </energy>
  </scstep>
  <scstep>
   <time name="diag">    0.30    0.30</time>
   <time name="diis">    1.19    1.20</time>
   <time name="orth">    0.02    0.02</time>
   <time name="total">    1.87    1.87</time>
   <energy>
    <i name="e_fr_energy">   -113.90131460 </i>
    <i name="e_wo_entrp">   -113.85390538 </i>
    <i name="e_0_energy">   -113.88551153 </i>
   </energy>
  </scstep>
  <scstep>
   <time name="diag">    0.30    0.30</time>
   <time name="diis">    1.15    1.17</time>
   <time name="orth">    0.02    0.02</time>
   <time name="total">    1.83    1.85</time>
   <energy>
    <i name="e_fr_energy">   -113.90085939 </i>
    <i name="e_wo_entrp">   -113.85385609 </i>
    <i name="e_0_energy">   -113.88519163 </i>
   </energy>
  </scstep>
  <scstep>
   <time name="diag">    0.30    0.30</time>
   <time name="diis">    0.82    0.82</time>
   <time name="orth">    0.02    0.02</time>
   <time name="total">    1.30    1.30</time>
   <energy>
    <i name="alphaZ">     -6.10292983 </i>
    <i name="ewald">  -2229.72316177 </i>
    <i name="hartreedc">    -20.38817703 </i>
    <i name="XCdc">   -811.37884552 </i>
    <i name="pawpsdc">   1108.11999559 </i>
    <i name="pawaedc">   -117.98619426 </i>
    <i name="eentropy">     -0.04709077 </i>
    <i name="bandstr">    303.93921750 </i>
    <i name="atom">   1659.66634407 </i>
    <i name="e_fr_energy">   -113.90084202 </i>
    <i name="e_wo_entrp">   -113.85375125 </i>
    <i name="e_0_energy">   -113.88514510 </i>
   </energy>
  </scstep>
  <structure>
   <crystal>
    <varray name="basis" >
     <v>       8.08705200       0.00000000       0.00000000 </v>
     <v>       0.00000000       8.08705200       0.00000000 </v>
     <v>       0.00000000       0.00000000       8.08705200 </v>
    </varray>
    <i name="volume">    528.89651690 </i>
    <varray name="rec_basis" >
     <v>       0.12365445       0.00000000       0.00000000 </v>
     <v>       0.00000000       0.12365445       0.00000000 </v>
     <v>       0.00000000       0.00000000       0.12365445 </v>
    </varray>
   </crystal>
   <varray name="positions" >
    <v>       0.99554208       0.00000000       0.99554208 </v>
    <v>       0.24933808       0.00000000       0.24933808 </v>
    <v>       0.24885323       0.25036249       0.00081039 </v>
    <v>       0.00081039       0.25036249       0.24885323 </v>
    <v>       0.50309894       0.00000000       0.99585860 </v>
    <v>       0.75414040       0.00000000       0.24690206 </v>
    <v>       0.74987879       0.24451689       0.00012021 </v>
    <v>       0.50764035       0.23880642       0.24235765 </v>
    <v>       0.00194927       0.50000000       0.00194927 </v>
    <v>       0.24885323       0.74963751       0.00081039 </v>
    <v>       0.00081039       0.74963751       0.24885323 </v>
    <v>       0.49707358       0.50000000       0.00767208 </v>
    <v>       0.74232992       0.50000000       0.25292442 </v>
    <v>       0.74987879       0.75548211       0.00012021 </v>
    <v>       0.50764035       0.76119458       0.24235765 </v>
    <v>       0.99585860       0.00000000       0.50309894 </v>
    <v>       0.24690206       0.00000000       0.75414040 </v>
    <v>       0.24235765       0.23880642       0.50764035 </v>
    <v>       0.00012021       0.24451689       0.74987879 </v>
    <v>       0.50066292       0.00000000       0.50066292 </v>
    <v>       0.75445692       0.00000000       0.75445692 </v>
    <v>       0.74919161       0.25036049       0.50114777 </v>
    <v>       0.50114777       0.25036049       0.74919161 </v>
    <v>       0.00767208       0.50000000       0.49707358 </v>
    <v>       0.25292442       0.50000000       0.74232992 </v>
    <v>       0.24235765       0.76119458       0.50764035 </v>
    <v>       0.00012021       0.75548211       0.74987879 </v>
    <v>       0.74805273       0.50000000       0.74805273 </v>
    <v>       0.74919161       0.74963951       0.50114777 </v>
    <v>       0.50114777       0.74963951       0.74919161 </v>
    <v>       0.37499997       0.50000000       0.37499997 </v>
   </varray>
  </structure>
  <varray name="forces" >
   <v>       0.23389406       0.00000000       0.23389406 </v>
   <v>      -0.04395584       0.00000000      -0.04395584 </v>
   <v>      -0.03796377       0.15274210       0.07265010 </v>
   <v>       0.07265010       0.15274210      -0.03796377 </v>
   <v>      -0.16303918       0.00000000      -0.15144921 </v>
   <v>       0.15144921       0.00000000       0.16303918 </v>
   <v>       0.09683691       0.34498609      -0.09683691 </v>
   <v>      -0.07548560      -0.08053142       0.07548560 </v>
   <v>      -0.05963262       0.00000000      -0.05963262 </v>
   <v>      -0.03796377      -0.15274210       0.07265010 </v>
   <v>       0.07265010      -0.15274210      -0.03796377 </v>
   <v>      -0.13376032       0.00000000      -0.13982691 </v>
   <v>       0.13982691       0.00000000       0.13376032 </v>
   <v>       0.09683691      -0.34498609      -0.09683691 </v>
   <v>      -0.07548560       0.08053142       0.07548560 </v>
   <v>      -0.15144921       0.00000000      -0.16303918 </v>
   <v>       0.16303918       0.00000000       0.15144921 </v>
   <v>       0.07548560      -0.08053142      -0.07548560 </v>
   <v>      -0.09683691       0.34498609       0.09683691 </v>
   <v>       0.04395584       0.00000000       0.04395584 </v>
   <v>      -0.23389406       0.00000000      -0.23389406 </v>
   <v>      -0.07265010       0.15274210       0.03796377 </v>
   <v>       0.03796377       0.15274210      -0.07265010 </v>
   <v>      -0.13982691       0.00000000      -0.13376032 </v>
   <v>       0.13376032       0.00000000       0.13982691 </v>
   <v>       0.07548560       0.08053142      -0.07548560 </v>
   <v>      -0.09683691      -0.34498609       0.09683691 </v>
   <v>       0.05963262       0.00000000       0.05963262 </v>
   <v>      -0.07265010      -0.15274210       0.03796377 </v>
   <v>       0.03796377      -0.15274210      -0.07265010 </v>
   <v>       0.00000000       0.00000000       0.00000000 </v>
  </varray>
  <varray name="stress" >
   <v>      -3.76344898       0.00000000      -6.50013498 </v>
   <v>       0.00000000       7.35135070       0.00000000 </v>
   <v>      -6.50013498       0.00000000      -3.76344898 </v>
  </varray>
  <energy>
   <i name="e_fr_energy">   -113.90084202 </i>
   <i name="e_wo_entrp">   -113.88514510 </i>
   <i name="e_0_energy">     -0.04709077 </i>
  </energy>
  <time name="totalsc">    9.05    9.09</time>
 </calculation>
 <calculation>
  <scstep>
   <time name="diag">    0.30    0.30</time>
   <time name="diis">    1.18    1.19</time>
   <time name="orth">    0.02    0.02</time>
   <time name="total">    1.86    1.86</time>
   <energy>
    <i name="alphaZ">     -6.10292983 </i>
    <i name="ewald">  -2232.89871348 </i>
    <i name="hartreedc">    -17.87239916 </i>
    <i name="XCdc">   -811.42849942 </i>
    <i name="pawpsdc">   1108.09399162 </i>
    <i name="pawaedc">   -117.95903045 </i>
    <i name="eentropy">     -0.07550542 </i>
    <i name="bandstr">    304.54910959 </i>
    <i name="atom">   1659.66634407 </i>
    <i name="e_fr_energy">   -114.02763249 </i>
    <i name="e_wo_entrp">   -113.95212707 </i>
    <i name="e_0_energy">   -114.00246401 </i>
   </energy>
  </scstep>
  <scstep>
   <time name="diag">    0.30    0.30</time>
   <time name="diis">    1.21    1.21</time>
   <time name="orth">    0.02    0.02</time>
   <time name="total">    1.89    1.89</time>
   <energy>
    <i name="e_fr_energy">   -114.00765252 </i>
    <i name="e_wo_entrp">   -113.93551236 </i>
    <i name="e_0_energy">   -113.98360580 </i>
   </energy>
  </scstep>
  <scstep>
   <time name="diag">    0.30    0.30</time>
   <time name="diis">    1.20    1.20</time>
   <time name="orth">    0.02    0.02</time>
   <time name="total">    1.88    1.89</time>
   <energy>
    <i name="e_fr_energy">   -114.00672477 </i>
    <i name="e_wo_entrp">   -113.93428373 </i>
    <i name="e_0_energy">   -113.98257776 </i>
   </energy>
  </scstep>
  <scstep>
   <time name="diag">    0.30    0.30</time>
   <time name="diis">    0.91    0.91</time>
   <time name="orth">    0.02    0.02</time>
   <time name="total">    1.40    1.40</time>
   <energy>
    <i name="alphaZ">     -6.10292983 </i>
    <i name="ewald">  -2232.89871348 </i>
    <i name="hartreedc">    -17.77162698 </i>
    <i name="XCdc">   -811.43616683 </i>
    <i name="pawpsdc">   1107.94906016 </i>
    <i name="pawaedc">   -117.80684653 </i>
    <i name="eentropy">     -0.07255540 </i>
    <i name="bandstr">    304.46673616 </i>
    <i name="atom">   1659.66634407 </i>
    <i name="e_fr_energy">   -114.00669866 </i>
    <i name="e_wo_entrp">   -113.93414327 </i>
    <i name="e_0_energy">   -113.98251353 </i>
   </energy>
  </scstep>
  <structure>
   <crystal>
    <varray name="basis" >
     <v>       8.08705200       0.00000000       0.00000000 </v>
     <v>       0.00000000       8.08705200       0.00000000 </v>
     <v>       0.00000000       0.00000000       8.08705200 </v>
    </varray>
    <i name="volume">    528.89651690 </i>
    <varray name="rec_basis" >
     <v>       0.12365445       0.00000000       0.00000000 </v>
     <v>       0.00000000       0.12365445       0.00000000 </v>
     <v>       0.00000000       0.00000000       0.12365445 </v>
    </varray>
   </crystal>
   <varray name="positions" >
    <v>       0.99905492       0.00000000       0.99905492 </v>
    <v>       0.24867791       0.00000000       0.24867791 </v>
    <v>       0.24828305       0.25265651       0.00190151 </v>
    <v>       0.00190151       0.25265651       0.24828305 </v>
    <v>       0.50065026       0.00000000       0.99358399 </v>
    <v>       0.75641501       0.00000000       0.24935074 </v>
    <v>       0.75133318       0.24969821      -0.00133418 </v>
    <v>       0.50650663       0.23759693       0.24349137 </v>
    <v>       0.00105365       0.50000000       0.00105365 </v>
    <v>       0.24828305       0.74734349       0.00190151 </v>
    <v>       0.00190151       0.74734349       0.24828305 </v>
    <v>       0.49506464       0.50000000       0.00557202 </v>
    <v>       0.74442997       0.50000000       0.25493336 </v>
    <v>       0.75133318       0.75030079      -0.00133418 </v>
    <v>       0.50650663       0.76240407       0.24349137 </v>
    <v>       0.99358399       0.00000000       0.50065026 </v>
    <v>       0.24935074       0.00000000       0.75641501 </v>
    <v>       0.24349137       0.23759693       0.50650663 </v>
    <v>      -0.00133418       0.24969821       0.75133318 </v>
    <v>       0.50132309       0.00000000       0.50132309 </v>
    <v>       0.75094408       0.00000000       0.75094408 </v>
    <v>       0.74810048       0.25265451       0.50171795 </v>
    <v>       0.50171795       0.25265451       0.74810048 </v>
    <v>       0.00557202       0.50000000       0.49506464 </v>
    <v>       0.25493336       0.50000000       0.74442997 </v>
    <v>       0.24349137       0.76240407       0.50650663 </v>
    <v>      -0.00133418       0.75030079       0.75133318 </v>
    <v>       0.74894835       0.50000000       0.74894835 </v>
    <v>       0.74810048       0.74734549       0.50171795 </v>
    <v>       0.50171795       0.74734549       0.74810048 </v>
    <v>       0.37499994       0.50000000       0.37499994 </v>
   </varray>
  </structure>
  <varray name="forces" >
   <v>       0.04379090       0.00000000       0.04379090 </v>
   <v>      -0.02160794       0.00000000      -0.02160794 </v>
   <v>      -0.01569361       0.07159846       0.05436158 </v>
   <v>       0.05436158       0.07159846      -0.01569361 </v>
   <v>       0.01700149       0.00000000      -0.04271520 </v>
   <v>       0.04271520       0.00000000      -0.01700149 </v>
   <v>      -0.01958303       0.08989128       0.01958303 </v>
   <v>       0.02374689      -0.07394090      -0.02374689 </v>
   <v>      -0.00747860       0.00000000      -0.00747860 </v>
   <v>      -0.01569361      -0.07159846       0.05436158 </v>
   <v>       0.05436158      -0.07159846      -0.01569361 </v>
   <v>      -0.00651880       0.00000000       0.00696100 </v>
   <v>      -0.00696100       0.00000000       0.00651880 </v>
   <v>      -0.01958303      -0.08989128       0.01958303 </v>
   <v>       0.02374689       0.07394090      -0.02374689 </v>
   <v>      -0.04271520       0.00000000       0.01700149 </v>
   <v>      -0.01700149       0.00000000       0.04271520 </v>
   <v>      -0.02374689      -0.07394090       0.02374689 </v>
   <v>       0.01958303       0.08989128      -0.01958303 </v>
   <v>       0.02160794       0.00000000       0.02160794 </v>
   <v>      -0.04379090       0.00000000      -0.04379090 </v>
   <v>      -0.05436158       0.07159846       0.01569361 </v>
   <v>       0.01569361       0.07159846      -0.05436158 </v>
   <v>       0.00696100       0.00000000      -0.00651880 </v>
   <v>       0.00651880       0.00000000      -0.00696100 </v>
   <v>      -0.02374689       0.07394090       0.02374689 </v>
   <v>       0.01958303      -0.08989128      -0.01958303 </v>
   <v>       0.00747860       0.00000000       0.00747860 </v>
   <v>      -0.05436158      -0.07159846       0.01569361 </v>
   <v>       0.01569361      -0.07159846      -0.05436158 </v>
   <v>       0.00000000       0.00000000       0.00000000 </v>
  </varray>
  <varray name="stress" >
   <v>      -4.62662025       0.00000000      -4.13728908 </v>
   <v>       0.00000000       5.99754032       0.00000000 </v>
   <v>      -4.13728908       0.00000000      -4.62662025 </v>
  </varray>
  <energy>
   <i name="e_fr_energy">   -114.00669866 </i>
   <i name="e_wo_entrp">   -113.98251353 </i>
   <i name="e_0_energy">     -0.07255540 </i>
  </energy>
  <time name="totalsc">    9.22    9.23</time>
 </calculation>
 <calculation>
  <scstep>
   <time name="diag">    0.30    0.30</time>
   <time name="diis">    1.21    1.21</time>
   <time name="orth">    0.02    0.02</time>
   <time name="total">    1.90    1.90</time>
   <energy>
    <i name="alphaZ">     -6.10292983 </i>
    <i name="ewald">  -2233.45079715 </i>
    <i name="hartreedc">    -17.33410584 </i>
    <i name="XCdc">   -811.44707250 </i>
    <i name="pawpsdc">   1107.93160372 </i>
    <i name="pawaedc">   -117.78828356 </i>
    <i name="eentropy">     -0.07585459 </i>
    <i name="bandstr">    304.58453567 </i>
    <i name="atom">   1659.66634407 </i>
    <i name="e_fr_energy">   -114.01656001 </i>
    <i name="e_wo_entrp">   -113.94070542 </i>
    <i name="e_0_energy">   -113.99127515 </i>
   </energy>
  </scstep>
  <scstep>
   <time name="diag">    0.30    0.30</time>
   <time name="diis">    1.19    1.19</time>
   <time name="orth">    0.02    0.02</time>
   <time name="total">    1.87    1.87</time>
   <energy>
    <i name="e_fr_energy">   -114.01597874 </i>
    <i name="e_wo_entrp">   -113.94071511 </i>
    <i name="e_0_energy">   -113.99089087 </i>
   </energy>
  </scstep>
  <scstep>
   <time name="diag">    0.30    0.30</time>
   <time name="diis">    0.84    0.84</time>
   <time name="orth">    0.02    0.02</time>
   <time name="total">    1.32    1.33</time>
   <energy>
    <i name="alphaZ">     -6.10292983 </i>
    <i name="ewald">  -2233.45079715 </i>
    <i name="hartreedc">    -17.31140126 </i>
    <i name="XCdc">   -811.44840009 </i>
    <i name="pawpsdc">   1107.91752046 </i>
    <i name="pawaedc">   -117.77330167 </i>
    <i name="eentropy">     -0.07531184 </i>
    <i name="bandstr">    304.56231675 </i>
    <i name="atom">   1659.66634407 </i>
    <i name="e_fr_energy">   -114.01596057 </i>
    <i name="e_wo_entrp">   -113.94064873 </i>
    <i name="e_0_energy">   -113.99085662 </i>
   </energy>
  </scstep>
  <structure>
   <crystal>
    <varray name="basis" >
     <v>       8.08705200       0.00000000       0.00000000 </v>
     <v>       0.00000000       8.08705200       0.00000000 </v>
     <v>       0.00000000       0.00000000       8.08705200 </v>
    </varray>
    <i name="volume">    528.89651690 </i>
    <varray name="rec_basis" >
     <v>       0.12365445       0.00000000       0.00000000 </v>
     <v>       0.00000000       0.12365445       0.00000000 </v>
     <v>       0.00000000       0.00000000       0.12365445 </v>
    </varray>
   </crystal>
   <varray name="positions" >
    <v>       0.99969051       0.00000000       0.99969051 </v>
    <v>       0.24846610       0.00000000       0.24846610 </v>
    <v>       0.24812061       0.25336847       0.00238035 </v>
    <v>       0.00238035       0.25336847       0.24812061 </v>
    <v>       0.50053535       0.00000000       0.99307330 </v>
    <v>       0.75692570       0.00000000       0.24946565 </v>
    <v>       0.75133595       0.25081037      -0.00133695 </v>
    <v>       0.50656304       0.23697168       0.24343496 </v>
    <v>       0.00091705       0.50000000       0.00091705 </v>
    <v>       0.24812061       0.74663153       0.00238035 </v>
    <v>       0.00238035       0.74663153       0.24812061 </v>
    <v>       0.49482905       0.50000000       0.00542086 </v>
    <v>       0.74458114       0.50000000       0.25516895 </v>
    <v>       0.75133595       0.74918863      -0.00133695 </v>
    <v>       0.50656304       0.76302932       0.24343496 </v>
    <v>       0.99307330       0.00000000       0.50053535 </v>
    <v>       0.24946565       0.00000000       0.75692570 </v>
    <v>       0.24343496       0.23697168       0.50656304 </v>
    <v>      -0.00133695       0.25081037       0.75133595 </v>
    <v>       0.50153490       0.00000000       0.50153490 </v>
    <v>       0.75030849       0.00000000       0.75030849 </v>
    <v>       0.74762165       0.25336647       0.50188039 </v>
    <v>       0.50188039       0.25336647       0.74762165 </v>
    <v>       0.00542086       0.50000000       0.49482905 </v>
    <v>       0.25516895       0.50000000       0.74458114 </v>
    <v>       0.24343496       0.76302932       0.50656304 </v>
    <v>      -0.00133695       0.74918863       0.75133595 </v>
    <v>       0.74908495       0.50000000       0.74908495 </v>
    <v>       0.74762165       0.74663353       0.50188039 </v>
    <v>       0.50188039       0.74663353       0.74762165 </v>
    <v>       0.37499995       0.50000000       0.37499995 </v>
   </varray>
  </structure>
  <varray name="forces" >
   <v>       0.00599683       0.00000000       0.00599683 </v>
   <v>      -0.00912283       0.00000000      -0.00912283 </v>
   <v>      -0.00298385       0.05062884       0.03995550 </v>
   <v>       0.03995550       0.05062884      -0.00298385 </v>
   <v>       0.02748231       0.00000000      -0.03914963 </v>
   <v>       0.03914963       0.00000000      -0.02748231 </v>
   <v>      -0.02052414       0.03861517       0.02052414 </v>
   <v>       0.01964079      -0.05408636      -0.01964079 </v>
   <v>      -0.00119507       0.00000000      -0.00119507 </v>
   <v>      -0.00298385      -0.05062884       0.03995550 </v>
   <v>       0.03995550      -0.05062884      -0.00298385 </v>
   <v>       0.00276417       0.00000000       0.02218387 </v>
   <v>      -0.02218387       0.00000000      -0.00276417 </v>
   <v>      -0.02052414      -0.03861517       0.02052414 </v>
   <v>       0.01964079       0.05408636      -0.01964079 </v>
   <v>      -0.03914963       0.00000000       0.02748231 </v>
   <v>      -0.02748231       0.00000000       0.03914963 </v>
   <v>      -0.01964079      -0.05408636       0.01964079 </v>
   <v>       0.02052414       0.03861517      -0.02052414 </v>
   <v>       0.00912283       0.00000000       0.00912283 </v>
   <v>      -0.00599683       0.00000000      -0.00599683 </v>
   <v>      -0.03995550       0.05062884       0.00298385 </v>
   <v>       0.00298385       0.05062884      -0.03995550 </v>
   <v>       0.02218387       0.00000000       0.00276417 </v>
   <v>      -0.00276417       0.00000000      -0.02218387 </v>
   <v>      -0.01964079       0.05408636       0.01964079 </v>
   <v>       0.02052414      -0.03861517      -0.02052414 </v>
   <v>       0.00119507       0.00000000       0.00119507 </v>
   <v>      -0.03995550      -0.05062884       0.00298385 </v>
   <v>       0.00298385      -0.05062884      -0.03995550 </v>
   <v>       0.00000000       0.00000000       0.00000000 </v>
  </varray>
  <varray name="stress" >
   <v>      -4.50333796       0.00000000      -3.75528812 </v>
   <v>       0.00000000       5.35880452       0.00000000 </v>
   <v>      -3.75528812       0.00000000      -4.50333796 </v>
  </varray>
  <energy>
   <i name="e_fr_energy">   -114.01596057 </i>
   <i name="e_wo_entrp">   -113.99085662 </i>
   <i name="e_0_energy">     -0.07531184 </i>
  </energy>
  <time name="totalsc">    7.14    7.15</time>
  <eigenvalues>
   <array>
    <dimension dim="1">band</dimension>
    <dimension dim="2">kpoint</dimension>
    <dimension dim="3">spin</dimension>
    <field>eigene</field>
    <field>occ</field>
    <set>
     <set comment="spin 1">
      <set comment="kpoint 1">
       <r>   -2.9368    1.0000 </r>
       <r>   -1.9053    1.0000 </r>
       <r>   -1.8206    1.0000 </r>
       <r>   -1.6628    1.0000 </r>
       <r>   -0.7747    1.0000 </r>
       <r>   -0.7146    1.0000 </r>
       <r>   -0.4688    1.0000 </r>
       <r>    0.3150    1.0000 </r>
       <r>    0.3665    1.0000 </r>
       <r>    0.4170    1.0000 </r>
       <r>    0.6283    1.0000 </r>
       <r>    1.4062    1.0000 </r>
       <r>    1.4277    1.0000 </r>
       <r>    1.4638    1.0000 </r>
       <r>    1.5266    1.0000 </r>
       <r>    1.7318    1.0000 </r>
       <r>    1.8551    1.0000 </r>
       <r>    2.5883    1.0000 </r>
       <r>    2.6581    1.0000 </r>
       <r>    2.7457    1.0000 </r>
       <r>    3.5473    1.0000 </r>
       <r>    3.5960    1.0000 </r>
       <r>    3.6478    1.0000 </r>
       <r>    3.6954    1.0000 </r>
       <r>    3.7312    1.0000 </r>
       <r>    4.0725    1.0000 </r>
       <r>    4.5942    1.0000 </r>
       <r>    4.6142    1.0000 </r>
       <r>    4.6637    1.0000 </r>
       <r>    4.7450    1.0000 </r>
       <r>    4.7509    1.0000 </r>
       <r>    4.7744    1.0000 </r>
       <r>    4.9040    1.0000 </r>
       <r>    5.0714    1.0000 </r>
       <r>    5.0972    1.0000 </r>
       <r>    5.7546    1.0000 </r>
       <r>    5.8455    1.0000 </r>
       <r>    6.1624    1.0000 </r>
       <r>    6.7553    1.0000 </r>
       <r>    6.8234    1.0000 </r>
       <r>    6.8397    1.0000 </r>
       <r>    6.9131    1.0000 </r>
       <r>    6.9784    1.0000 </r>
       <r>    7.0003    1.0000 </r>
       <r>    7.1395    1.0000 </r>
       <r>    7.7916    0.8188 </r>
       <r>    7.9145    0.3333 </r>
       <r>    7.9179    0.3199 </r>
       <r>    7.9489    0.2069 </r>
       <r>    8.0270    0.0197 </r>
       <r>    8.1197   -0.0355 </r>
       <r>    8.2088   -0.0197 </r>
       <r>    8.2457   -0.0123 </r>
       <r>    8.4314   -0.0003 </r>
       <r>    9.0964    0.0000 </r>
       <r>    9.1923    0.0000 </r>
       <r>    9.2403    0.0000 </r>
       <r>    9.3405    0.0000 </r>
       <r>    9.3479    0.0000 </r>
       <r>    9.4594    0.0000 </r>
       <r>    9.9403    0.0000 </r>
       <r>    9.9870    0.0000 </r>
       <r>    9.9906    0.0000 </r>
       <r>   10.0924    0.0000 </r>
       <r>   10.1060    0.0000 </r>
       <r>   10.1905    0.0000 </r>
       <r>   10.3692    0.0000 </r>
       <r>   10.5091    0.0000 </r>
       <r>   10.5808    0.0000 </r>
       <r>   10.9710    0.0000 </r>
       <r>   11.1279    0.0000 </r>
       <r>   11.2803    0.0000 </r>
      </set>
      <set comment="kpoint 2">
       <r>   -2.9372    1.0000 </r>
       <r>   -1.9149    1.0000 </r>
       <r>   -1.7405    1.0000 </r>
       <r>   -1.7398    1.0000 </r>
       <r>   -0.7919    1.0000 </r>
       <r>   -0.6279    1.0000 </r>
       <r>   -0.5533    1.0000 </r>
       <r>    0.3056    1.0000 </r>
       <r>    0.4271    1.0000 </r>
       <r>    0.4773    1.0000 </r>
       <r>    0.5639    1.0000 </r>
       <r>    1.4130    1.0000 </r>
       <r>    1.4532    1.0000 </r>
       <r>    1.4560    1.0000 </r>
       <r>    1.5505    1.0000 </r>
       <r>    1.5631    1.0000 </r>
       <r>    1.8991    1.0000 </r>
       <r>    2.5439    1.0000 </r>
       <r>    2.6989    1.0000 </r>
       <r>    2.8387    1.0000 </r>
       <r>    3.5699    1.0000 </r>
       <r>    3.6033    1.0000 </r>
       <r>    3.6891    1.0000 </r>
       <r>    3.6954    1.0000 </r>
       <r>    3.7762    1.0000 </r>
       <r>    3.8737    1.0000 </r>
       <r>    4.5664    1.0000 </r>
       <r>    4.6497    1.0000 </r>
       <r>    4.6601    1.0000 </r>
       <r>    4.7079    1.0000 </r>
       <r>    4.7712    1.0000 </r>
       <r>    4.7886    1.0000 </r>
       <r>    4.9683    1.0000 </r>
       <r>    5.0113    1.0000 </r>
       <r>    5.1444    1.0000 </r>
       <r>    5.7223    1.0000 </r>
       <r>    5.9070    1.0000 </r>
       <r>    6.1527    1.0000 </r>
       <r>    6.7324    1.0000 </r>
       <r>    6.8043    1.0000 </r>
       <r>    6.8369    1.0000 </r>
       <r>    6.9097    1.0000 </r>
       <r>    6.9748    1.0000 </r>
       <r>    6.9963    1.0000 </r>
       <r>    7.0851    1.0000 </r>
       <r>    7.8111    0.7528 </r>
       <r>    7.8662    0.5338 </r>
       <r>    7.9636    0.1605 </r>
       <r>    8.0236    0.0248 </r>
       <r>    8.1240   -0.0354 </r>
       <r>    8.1526   -0.0321 </r>
       <r>    8.2280   -0.0157 </r>
       <r>    8.2335   -0.0146 </r>
       <r>    8.3026   -0.0049 </r>
       <r>    9.1313    0.0000 </r>
       <r>    9.1763    0.0000 </r>
       <r>    9.1872    0.0000 </r>
       <r>    9.3236    0.0000 </r>
       <r>    9.3567    0.0000 </r>
       <r>    9.5394    0.0000 </r>
       <r>    9.8977    0.0000 </r>
       <r>    9.9475    0.0000 </r>
       <r>   10.0141    0.0000 </r>
       <r>   10.0287    0.0000 </r>
       <r>   10.1496    0.0000 </r>
       <r>   10.1726    0.0000 </r>
       <r>   10.3703    0.0000 </r>
       <r>   10.5124    0.0000 </r>
       <r>   10.6471    0.0000 </r>
       <r>   10.9273    0.0000 </r>
       <r>   11.2135    0.0000 </r>
       <r>   11.2931    0.0000 </r>
      </set>
     </set>
    </set>
   </array>
  </eigenvalues>
  <separator name="orbital magnetization" >
   <v name="MAGDIPOLOUT">      0.00000000      0.00000000      0.00000000</v>
  </separator>
 </calculation>
 <structure name="finalpos" >
  <crystal>
   <varray name="basis" >
    <v>       8.08705200       0.00000000       0.00000000 </v>
    <v>       0.00000000       8.08705200       0.00000000 </v>
    <v>       0.00000000       0.00000000       8.08705200 </v>
   </varray>
   <i name="volume">    528.89651690 </i>
   <varray name="rec_basis" >
    <v>       0.12365445       0.00000000       0.00000000 </v>
    <v>       0.00000000       0.12365445       0.00000000 </v>
    <v>       0.00000000       0.00000000       0.12365445 </v>
   </varray>
  </crystal>
  <varray name="positions" >
   <v>       0.99969051       0.00000000       0.99969051 </v>
   <v>       0.24846610       0.00000000       0.24846610 </v>
   <v>       0.24812061       0.25336847       0.00238035 </v>
   <v>       0.00238035       0.25336847       0.24812061 </v>
   <v>       0.50053535       0.00000000       0.99307330 </v>
   <v>       0.75692570       0.00000000       0.24946565 </v>
   <v>       0.75133595       0.25081037      -0.00133695 </v>
   <v>       0.50656304       0.23697168       0.24343496 </v>
   <v>       0.00091705       0.50000000       0.00091705 </v>
   <v>       0.24812061       0.74663153       0.00238035 </v>
   <v>       0.00238035       0.74663153       0.24812061 </v>
   <v>       0.49482905       0.50000000       0.00542086 </v>
   <v>       0.74458114       0.50000000       0.25516895 </v>
   <v>       0.75133595       0.74918863      -0.00133695 </v>
   <v>       0.50656304       0.76302932       0.24343496 </v>
   <v>       0.99307330       0.00000000       0.50053535 </v>
   <v>       0.24946565       0.00000000       0.75692570 </v>
   <v>       0.24343496       0.23697168       0.50656304 </v>
   <v>      -0.00133695       0.25081037       0.75133595 </v>
   <v>       0.50153490       0.00000000       0.50153490 </v>
   <v>       0.75030849       0.00000000       0.75030849 </v>
   <v>       0.74762165       0.25336647       0.50188039 </v>
   <v>       0.50188039       0.25336647       0.74762165 </v>
   <v>       0.00542086       0.50000000       0.49482905 </v>
   <v>       0.25516895       0.50000000       0.74458114 </v>
   <v>       0.24343496       0.76302932       0.50656304 </v>
   <v>      -0.00133695       0.74918863       0.75133595 </v>
   <v>       0.74908495       0.50000000       0.74908495 </v>
   <v>       0.74762165       0.74663353       0.50188039 </v>
   <v>       0.50188039       0.74663353       0.74762165 </v>
   <v>       0.37499995       0.50000000       0.37499995 </v>
  </varray>
 </structure>
</modeling>
