   31   31  191    1
  0.1706119E+02  0.8087054E-09  0.8087054E-09  0.8087054E-09  0.5000000E-15
  1.000000000000000E-004
  CAR 
 unknown system                          
   93    2   62
 
  0.2500000E+00  0.2500000E+00  0.2500000E+00  0.5000000E+00
   1       -2.936952
   2       -1.905405
   3       -1.820540
   4       -1.663035
   5       -0.774644
   6       -0.714713
   7       -0.468835
   8        0.314926
   9        0.366491
  10        0.416961
  11        0.628167
  12        1.406192
  13        1.427766
  14        1.463849
  15        1.526396
  16        1.731634
  17        1.855219
  18        2.588342
  19        2.658149
  20        2.745739
  21        3.547202
  22        3.595976
  23        3.647712
  24        3.695231
  25        3.731065
  26        4.072493
  27        4.594126
  28        4.614217
  29        4.663749
  30        4.745047
  31        4.750938
  32        4.774261
  33        4.904049
  34        5.071487
  35        5.097135
  36        5.754690
  37        5.845517
  38        6.162442
  39        6.755279
  40        6.823292
  41        6.839657
  42        6.913039
  43        6.978423
  44        7.000288
  45        7.139482
  46        7.791587
  47        7.914478
  48        7.917980
  49        7.948942
  50        8.027020
  51        8.119707
  52        8.208661
  53        8.245604
  54        8.431461
  55        9.096466
  56        9.192323
  57        9.240271
  58        9.340432
  59        9.347963
  60        9.459591
  61        9.962984
  62       10.014006
 
 -0.2500000E+00  0.2500000E+00  0.2500000E+00  0.5000000E+00
   1       -2.937302
   2       -1.914884
   3       -1.740768
   4       -1.739811
   5       -0.791838
   6       -0.628049
   7       -0.553196
   8        0.305549
   9        0.427098
  10        0.477110
  11        0.563807
  12        1.412903
  13        1.453131
  14        1.455986
  15        1.550542
  16        1.563125
  17        1.899004
  18        2.543974
  19        2.698926
  20        2.838715
  21        3.569914
  22        3.603265
  23        3.688968
  24        3.695282
  25        3.776020
  26        3.873737
  27        4.566377
  28        4.649585
  29        4.660090
  30        4.707961
  31        4.771116
  32        4.788710
  33        4.968391
  34        5.011232
  35        5.144356
  36        5.722380
  37        5.906928
  38        6.152768
  39        6.732450
  40        6.804087
  41        6.836884
  42        6.909600
  43        6.974901
  44        6.996316
  45        7.084990
  46        7.811138
  47        7.866218
  48        7.963613
  49        8.023705
  50        8.124029
  51        8.152629
  52        8.227899
  53        8.233428
  54        8.302438
  55        9.131330
  56        9.176142
  57        9.187226
  58        9.323554
  59        9.356803
  60        9.540077
  61        9.936659
  62        9.986251
