 vasp.5.2.2 15Apr09 complex 
 executed on             LinuxIFC date 2014.04.24  10:48:10
 running on    1 nodes
 each image running on    1 nodes
 distr:  one band on    1 nodes,    1 groups


--------------------------------------------------------------------------------------------------------


 INCAR:
 POTCAR:   PAW_PBE Al 04Jan2001                   
 POTCAR:   PAW_PBE Al 04Jan2001                   
   VRHFIN =Al: s2p1                                                             
   LEXCH  = PE                                                                  
   EATOM  =    53.5387 eV,    3.9350 Ry                                         
                                                                                
   TITEL  = PAW_PBE Al 04Jan2001                                                
   LULTRA =        F    use ultrasoft PP ?                                      
   IUNSCR =        1    unscreen: 0-lin 1-nonlin 2-no                           
   RPACOR =    1.500    partial core radius                                     
   POMASS =   26.982; ZVAL   =    3.000    mass and valenz                      
   RCORE  =    1.900    outmost cutoff radius                                   
   RWIGS  =    2.650; RWIGS  =    1.402    wigner-seitz radius (au A)           
   ENMAX  =  240.300; ENMIN  =  180.225 eV                                      
   ICORE  =        2    local potential                                         
   LCOR   =        T    correct aug charges                                     
   LPAW   =        T    paw PP                                                  
   EAUG   =  291.052                                                            
   DEXC   =    -.041                                                            
   RMAX   =    2.974    core radius for proj-oper                               
   RAUG   =    1.300    factor for augmentation sphere                          
   RDEP   =    1.966    radius for radial grids                                 
   QCUT   =   -4.203; QGAM   =    8.405    optimization parameters              
                                                                                
   Description                                                                  
     l     E      TYP  RCUT    TYP  RCUT                                        
     0   .000     23  1.900                                                     
     0   .000     23  1.900                                                     
     1   .000     23  1.900                                                     
     1  1.000     23  1.900                                                     
     2   .000      7  1.900                                                     
  local pseudopotential read in
  partial core-charges read in
  atomic valenz-charges read in
  non local Contribution for L=           0  read in
    real space projection operators read in
  non local Contribution for L=           0  read in
    real space projection operators read in
  non local Contribution for L=           1  read in
    real space projection operators read in
  non local Contribution for L=           1  read in
    real space projection operators read in
    PAW grid and wavefunctions read in
 
   number of l-projection  operators is LMAX  =           4
   number of lm-projection operators is LMMAX =           8
 

 ----------------------------------------------------------------------------- 
|                                                                             |
|  ADVICE TO THIS USER RUNNING 'VASP/VAMP'   (HEAR YOUR MASTER'S VOICE ...):  |
|                                                                             |
|      You have a (more or less) 'large supercell' and for larger cells       |
|      it might be more efficient to use real space projection operators      |
|      So try LREAL= Auto  in the INCAR   file.                               |
|      Mind: If you want to do a very accurate calculations keep the          |
|      reciprocal projection scheme          (i.e. LREAL=.FALSE.)             |
|                                                                             |
 ----------------------------------------------------------------------------- 

 PAW_PBE Al 04Jan2001                   :
 energy of atom  1       EATOM=  -53.5387
 kinetic energy error for atom=    0.0011 (will be added to EATOM!!)
 
 
 POSCAR: Al31                                    
  positions in direct lattice
  No initial velocities read in
 exchange correlation table for  LEXCH =        8
   RHO(1)=    0.500       N(1)  =     2000
   RHO(2)=  100.500       N(2)  =     4000

 VTST: version 2.03d, (02/18/09)

 CHAIN: initializing optimizer
 
 OPT: Using VASP QUASI-newton optimizer
 CHAIN: Read ICHAIN            0
 CHAIN: Running the NEB
 NEB:          SPRING     -5.000000
 NEB:          LCLIMB      T
 NEB:     LTANGENTOLD      F
 NEB:           LDNEB      F
 NEB:        LDNEBORG      F
 NEB:          EFIRST      0.000000
 NEB:           ELAST      0.000000
 
 POSCAR: Al31                                    
  positions in direct lattice
  No initial velocities read in
 
 POSCAR: Al31                                    
  positions in direct lattice
  No initial velocities read in
 


--------------------------------------------------------------------------------------------------------


 ion  position               nearest neighbor table
   1  0.375  0.500  0.375-   9 2.60  16 2.60  19 2.60  27 2.60  25 3.12  13 3.12  26 3.12  14 3.12

   2  0.993  0.000  0.993-  22 2.71  15 2.78  20 2.78   8 2.78  28 2.78  18 2.82   7 2.82   5 2.89
                            11 2.89  12 2.89   4 2.89   3 2.93
   3  0.250  0.000  0.250-   5 2.85  12 2.85  11 2.85   4 2.85  19 2.85  27 2.85   9 2.85  16 2.85
                            21 2.87  17 2.90   6 2.90   2 2.93
   4  0.249  0.249  0.000-  18 2.84  10 2.85   5 2.85   3 2.85  20 2.86  13 2.86   9 2.86  24 2.87
                             6 2.89   2 2.89  26 2.92
   5  0.000  0.249  0.249-   7 2.84  10 2.85   4 2.85   3 2.85   8 2.86  25 2.86  19 2.86  23 2.87
                            17 2.89   2 2.89  14 2.92
   6  0.505  0.000  0.997-   9 2.76  16 2.76  15 2.78   8 2.78  22 2.82   7 2.83  24 2.84  31 2.84
                            18 2.89   4 2.89  11 2.89   3 2.90
   7  0.753  0.000  0.245-   9 2.76  16 2.76  15 2.78   8 2.78   2 2.82   6 2.83   5 2.84  12 2.84
                            17 2.89  23 2.89  30 2.89  21 2.90
   8  0.749  0.242  0.001-   9 2.75   7 2.78   6 2.78  22 2.78   2 2.78   5 2.86  24 2.86  20 2.89
                            14 2.91  13 2.91  29 2.93  10 2.93
   9  0.509  0.239  0.241-   1 2.60   8 2.75   6 2.76   7 2.76  13 2.83  14 2.83   3 2.85  21 2.85
                             4 2.86  23 2.87  19 3.06
  10  0.002  0.500  0.002-   4 2.85   5 2.85  11 2.85  12 2.85  29 2.91  26 2.92  14 2.92  20 2.93
                             8 2.93  28 2.93  15 2.93
  11  0.249  0.751  0.000-  18 2.84  10 2.85  12 2.85   3 2.85  28 2.86  13 2.86  16 2.86  31 2.87
                             6 2.89   2 2.89  26 2.92
  12  0.000  0.751  0.249-   7 2.84  10 2.85  11 2.85   3 2.85  15 2.86  25 2.86  27 2.86  30 2.87
                            17 2.89   2 2.89  14 2.92
  13  0.498  0.500  0.009-  14 2.77   9 2.83  16 2.83   4 2.86  11 2.86  15 2.91   8 2.91  24 2.92
                            31 2.92  29 2.92  26 2.95   1 3.12
  14  0.741  0.500  0.252-  13 2.77   9 2.83  16 2.83  23 2.86  30 2.86  15 2.91   8 2.91  12 2.92
                             5 2.92  10 2.92  25 2.95   1 3.12
  15  0.749  0.758  0.001-  16 2.75   7 2.78   6 2.78  22 2.78   2 2.78  12 2.86  31 2.86  28 2.89
                            14 2.91  13 2.91  29 2.93  10 2.93
  16  0.509  0.761  0.241-   1 2.60  15 2.75   6 2.76   7 2.76  13 2.83  14 2.83   3 2.85  21 2.85
                            11 2.86  30 2.87  27 3.06
  17  0.997  0.000  0.505-  19 2.76  27 2.76  20 2.78  28 2.78  22 2.82  18 2.83  23 2.84  30 2.84
                             7 2.89   5 2.89  12 2.89   3 2.90
  18  0.245  0.000  0.753-  19 2.76  27 2.76  20 2.78  28 2.78   2 2.82  17 2.83  11 2.84   4 2.84
                             6 2.89  24 2.89  31 2.89  21 2.90
  19  0.241  0.239  0.509-   1 2.60  20 2.75  17 2.76  18 2.76  25 2.83  26 2.83   3 2.85  21 2.85
                             5 2.86  24 2.87   9 3.06
  20  0.001  0.242  0.749-  19 2.75  18 2.78  17 2.78  22 2.78   2 2.78   4 2.86  23 2.86   8 2.89
                            26 2.91  25 2.91  29 2.93  10 2.93
  21  0.500  0.000  0.500-  23 2.85  24 2.85  30 2.85  31 2.85  16 2.85  27 2.85  19 2.85   9 2.85
                             3 2.87   7 2.90  18 2.90  22 2.93
  22  0.757  0.000  0.757-   2 2.71   8 2.78  15 2.78  20 2.78  28 2.78   6 2.82  17 2.82  24 2.89
                            23 2.89  30 2.89  31 2.89  21 2.93
  23  0.750  0.249  0.501-  17 2.84  29 2.85  24 2.85  21 2.85  20 2.86  14 2.86   9 2.87   5 2.87
                             7 2.89  22 2.89  25 2.92
  24  0.501  0.249  0.750-   6 2.84  29 2.85  23 2.85  21 2.85   8 2.86  26 2.86  19 2.87   4 2.87
                            18 2.89  22 2.89  13 2.92
  25  0.009  0.500  0.498-  26 2.77  19 2.83  27 2.83  12 2.86   5 2.86  20 2.91  28 2.91  23 2.92
                            30 2.92  29 2.92  14 2.95   1 3.12
  26  0.252  0.500  0.741-  25 2.77  19 2.83  27 2.83  24 2.86  31 2.86  28 2.91  20 2.91  11 2.92
                             4 2.92  10 2.92  13 2.95   1 3.12
  27  0.241  0.761  0.509-   1 2.60  28 2.75  17 2.76  18 2.76  25 2.83  26 2.83   3 2.85  21 2.85
                            12 2.86  31 2.87  16 3.06
  28  0.001  0.758  0.749-  27 2.75  18 2.78  17 2.78  22 2.78   2 2.78  11 2.86  30 2.86  15 2.89
                            26 2.91  25 2.91  29 2.93  10 2.93
  29  0.748  0.500  0.748-  23 2.85  24 2.85  30 2.85  31 2.85  10 2.91  13 2.92  25 2.92  20 2.93
                            28 2.93  15 2.93   8 2.93
  30  0.750  0.751  0.501-  17 2.84  29 2.85  31 2.85  21 2.85  28 2.86  14 2.86  16 2.87  12 2.87
                             7 2.89  22 2.89  25 2.92
  31  0.501  0.751  0.750-   6 2.84  29 2.85  30 2.85  21 2.85  15 2.86  26 2.86  27 2.87  11 2.87
                            18 2.89  22 2.89  13 2.92
 
  LATTYP: Found a simple cubic cell.
 ALAT       =     8.0870540000
  
  Lattice vectors:
  
 A1 = (   8.0870540000,   0.0000000000,   0.0000000000)
 A2 = (   0.0000000000,   8.0870540000,   0.0000000000)
 A3 = (   0.0000000000,   0.0000000000,   8.0870540000)
 Subroutine PRICEL returns:
 Original cell was already a primitive cell.
 

Analysis of symmetry for initial positions (statically):

 Routine SETGRP: Setting up the symmetry group for a 
 simple cubic supercell.


 Subroutine GETGRP returns: Found  4 space group operations
 (whereof  4 operations were pure point group operations)
 out of a pool of 48 trial point group operations.


The static configuration has the point symmetry C_2v.

Analysis of symmetry for dynamics (positions and initial velocities):

 Subroutine DYNSYM returns: Found  4 space group operations
 (whereof  4 operations were pure point group operations)
 out of a pool of  4 trial space group operations
 (whereof  4 operations were pure point group operations)
 and found also     1 'primitive' translations


The dynamic configuration has the point symmetry C_2v.
 
 
 KPOINTS: Automatic kpoint scheme                 

Automatic generation of k-mesh.
 
 Subroutine IBZKPT returns following result:
 ===========================================
 
 Found      2 irreducible k-points:
 
 Following reciprocal coordinates:
            Coordinates               Weight
  0.250000  0.250000  0.250000      4.000000
 -0.250000  0.250000  0.250000      4.000000
 
 Following cartesian coordinates:
            Coordinates               Weight
  0.030914  0.030914  0.030914      4.000000
 -0.030914  0.030914  0.030914      4.000000
 


--------------------------------------------------------------------------------------------------------




 Dimension of arrays:
   k-points           NKPTS =      2   k-points in BZ     NKDIM =      2   number of bands    NBANDS=     62
   number of dos      NEDOS =    301   number of ions     NIONS =     31
   non local maximal  LDIM  =      4   non local SUM 2l+1 LMDIM =      8
   total plane-waves  NPLWV = 110592
   max r-space proj   IRMAX =      1   max aug-charges    IRDMAX=   8337
   dimension x,y,z NGX =    48 NGY =   48 NGZ =   48
   dimension x,y,z NGXF=    96 NGYF=   96 NGZF=   96
   support grid    NGXF=    96 NGYF=   96 NGZF=   96
   ions per type =              31
 NGX,Y,Z   is equivalent  to a cutoff of   9.87,  9.87,  9.87 a.u.
 NGXF,Y,Z  is equivalent  to a cutoff of  19.73, 19.73, 19.73 a.u.


 I would recommend the setting:
   dimension x,y,z NGX =    46 NGY =   46 NGZ =   46
 SYSTEM =  unknown system                          
 POSCAR =  Al31                                    

 Startparameter for this run:
   NWRITE =      2    write-flag & timer
   PREC   = accura    medium, high low
   ISTART =      0    job   : 0-new  1-cont  2-samecut
   ICHARG =      2    charge: 1-file 2-atom 10-const
   ISPIN  =      1    spin polarized calculation?
   LNONCOLLINEAR =      F non collinear calculations
   LSORBIT =      F    spin-orbit coupling
   INIWAV =      1    electr: 0-lowe 1-rand  2-diag
   LASPH  =      F    aspherical Exc in radial PAW
   METAGGA=      F    non-selfconsistent MetaGGA calc.

 Electronic Relaxation 1
   ENCUT  =  300.0 eV  22.05 Ry    4.70 a.u.  11.42 11.42 11.42*2*pi/ulx,y,z
   ENINI  =  300.0     initial cutoff
   ENAUG  =  291.1 eV  augmentation charge cutoff
   NELM   =     60;   NELMIN=  2; NELMDL=-12     # of ELM steps 
   EDIFF  = 0.1E-03   stopping-criterion for ELM
   LREAL  =      F    real-space projection
   LCOMPAT=      F    compatible to vasp.4.4
   LREAL_COMPAT= F    compatible to vasp.4.5.1-3
   GGA_COMPAT  = T    GGA compatible to vasp.4.4-vasp.4.6
   LMAXPAW     = -100 max onsite density
   LMAXMIX     =    2 max onsite mixed and CHGCAR
   VOSKOWN=      0    Vosko Wilk Nusair interpolation
   ROPT   =    0.00000
 Ionic relaxation
   EDIFFG = 0.5E-01   stopping-criterion for IOM
   NSW    =    191    number of steps for IOM
   NBLOCK =      1;   KBLOCK =    191    inner block; outer block 
   IBRION =      1    ionic relax: 0-MD 1-quasi-New 2-CG
   NFREE  =      0    steps in history (QN), initial steepest desc. (CG)
   ISIF   =      2    stress and relaxation
   IWAVPR =     11    prediction:  0-non 1-charg 2-wave 3-comb
   ISYM   =      2    0-nonsym 1-usesym 2-fastsym
   LCORR  =      T    Harris-Foulkes like correction to forces

   POTIM  = 0.5000    time-step for ionic-motion
   TEIN   =    0.0    initial temperature
   TEBEG  =    0.0;   TEEND  =   0.0 temperature during run
   SMASS  =  -3.00    Nose mass-parameter (am)
   estimated Nose-frequenzy (Omega)   =  0.10E-29 period in steps =****** mass=  -0.149E-26a.u.
   NPACO  =    256;   APACO  = 16.0  distance and # of slots for P.C.
   PSTRESS=    0.0 pullay stress

  Mass of Ions in am
   POMASS =  26.98
  Ionic Valenz
   ZVAL   =   3.00
  Atomic Wigner-Seitz radii
   RWIGS  =  -1.00
   NELECT =      93.0000    total number of electrons
   NUPDOWN=      -1.0000    fix difference up-down

 DOS related values:
   EMIN   =  10.00;   EMAX   =-10.00  energy-range for DOS
   EFERMI =   0.00
   ISMEAR =     1;   SIGMA  =   0.20  broadening in eV -4-tet -1-fermi 0-gaus

 Electronic relaxation 2 (details)
   IALGO  =     48    algorithm
   LDIAG  =      T    sub-space diagonalisation
   IMIX   =      4    mixing-type and parameters
     AMIX     =   0.40;   BMIX     =  1.00
     AMIX_MAG =   1.60;   BMIX_MAG =  1.00
     AMIN     =   0.10
     WC   =   100.;   INIMIX=   1;  MIXPRE=   1

 Intra band minimization:
   WEIMIN = 0.0010     energy-eigenvalue tresh-hold
   EBREAK =  0.40E-06  absolut break condition
   DEPER  =   0.30     relativ break condition  

   TIME   =   0.40     timestep for ELM

  volume/ion in A,a.u.               =      17.06       115.13
  Fermi-wavevector in a.u.,A,eV,Ry     =   0.917161  1.733183 11.445002  0.841184
  Thomas-Fermi vector in A             =   2.042098
 
 Write flags
   LWAVE  =      F    write WAVECAR
   LCHARG =      F    write CHGCAR
   LVTOT  =      F    write LOCPOT, local potential
   LELF   =      F    write electronic localiz. function (ELF)
   LORBIT =      0    0 simple, 1 ext, 2 COOP (PROOUT)


 Dipole corrections
   LMONO  =      F    monopole corrections only (constant potential shift)
   LDIPOL =      F    correct potential (dipole corrections)
   IDIPOL =      0    1-x, 2-y, 3-z, 4-all directions 
   EPSILON=  1.0000000 bulk dielectric constant

 Exchange correlation treatment:
   GGA     =    --    GGA type
   LEXCH   =     8    internal setting for exchange type
   VOSKOWN=      0    Vosko Wilk Nusair interpolation
   LHFCALC =     F    Hartree Fock is set to
   LHFONE  =     F    Hartree Fock one center treatment
   AEXX    =    0.0000 exact exchange contribution

 Linear response parameters
   LEPSILON=     F    determine dielectric tensor
   LRPA    =     F    only Hartree local field effects (RPA)
   LNABLA  =     F    use nabla operator in PAW spheres
   LVEL    =     F    velocity operator in full k-point grid
   LINTERFAST=   F  fast interpolation
   KINTER  =     0    interpolate to denser k-point grid
   CSHIFT  =0.1000    complex shift for real part using Kramers Kronig
   OMEGAMAX=  -1.0    maximum frequency

 Orbital magnetization related:
   ORBITALMAG=     F  switch on orbital magnetization
   LCHIMAG   =     F  perturbation theory with respect to B field



--------------------------------------------------------------------------------------------------------


 quasi-Newton-method for relaxation of ions
 charge density and potential will be updated during run
 non-spin polarized calculation
 RMM-DIIS sequential band-by-band
 perform sub-space diagonalisation
    before iterative eigenvector-optimisation
 modified Broyden-mixing scheme, WC =      100.0
 initial mixing is a Kerker type mixing with AMIX =  0.4000 and BMIX =      1.0000
 Hartree-type preconditioning will be used
 using additional bands           15
 reciprocal scheme for non local part
 use partial core corrections
 calculate Harris-corrections to forces 
   (improved forces if not selfconsistent)
 use gradient corrections 
 use of overlap-Matrix (Vanderbilt PP)
 Methfessel and Paxton  Order N= 1 SIGMA  =   0.20


--------------------------------------------------------------------------------------------------------


  energy-cutoff  :      300.00
  volume of cell :      528.90
      direct lattice vectors                 reciprocal lattice vectors
     8.087054000  0.000000000  0.000000000     0.123654423  0.000000000  0.000000000
     0.000000000  8.087054000  0.000000000     0.000000000  0.123654423  0.000000000
     0.000000000  0.000000000  8.087054000     0.000000000  0.000000000  0.123654423

  length of vectors
     8.087054000  8.087054000  8.087054000     0.123654423  0.123654423  0.123654423


 
 k-points in units of 2pi/SCALE and weight: Automatic kpoint scheme                 
   0.03091361  0.03091361  0.03091361       0.500
  -0.03091361  0.03091361  0.03091361       0.500
 
 k-points in reciprocal lattice and weights: Automatic kpoint scheme                 
   0.25000000  0.25000000  0.25000000       0.500
  -0.25000000  0.25000000  0.25000000       0.500
 
 position of ions in fractional coordinates (direct lattice) 
   0.37500800  0.50000000  0.37500800
   0.99342100  0.00000000  0.99342100
   0.24962400  0.00000000  0.24962400
   0.24916500  0.24916400  0.00034500
   0.00034500  0.24916400  0.24916500
   0.50493000  0.00000000  0.99730800
   0.75270200  0.00000000  0.24506200
   0.74873000  0.24151200  0.00127600
   0.50860200  0.23921000  0.24138400
   0.00242600  0.50000000  0.00242600
   0.24916500  0.75083600  0.00034500
   0.00034500  0.75083600  0.24916500
   0.49843000  0.50000000  0.00913000
   0.74089100  0.50000000  0.25155500
   0.74873000  0.75848800  0.00127600
   0.50860200  0.76079000  0.24138400
   0.99730800  0.00000000  0.50493000
   0.24506200  0.00000000  0.75270200
   0.24138400  0.23921000  0.50860200
   0.00127600  0.24151200  0.74873000
   0.50036800  0.00000000  0.50036800
   0.75659000  0.00000000  0.75659000
   0.74966900  0.24915900  0.50082800
   0.50082800  0.24915900  0.74966900
   0.00913000  0.50000000  0.49843000
   0.25155500  0.50000000  0.74089100
   0.24138400  0.76079000  0.50860200
   0.00127600  0.75848800  0.74873000
   0.74758900  0.50000000  0.74758900
   0.74966900  0.75084100  0.50082800
   0.50082800  0.75084100  0.74966900
 
 position of ions in cartesian coordinates  (Angst):
   3.03270995  4.04352700  3.03270995
   8.03384927  0.00000000  8.03384927
   2.01872277  0.00000000  2.01872277
   2.01501081  2.01500272  0.00279003
   0.00279003  2.01500272  2.01501081
   4.08339618  0.00000000  8.06528365
   6.08714172  0.00000000  1.98182963
   6.05501994  1.95312059  0.01031908
   4.11309184  1.93450419  1.95208544
   0.01961919  4.04352700  0.01961919
   2.01501081  6.07205128  0.00279003
   0.00279003  6.07205128  2.01501081
   4.03083033  4.04352700  0.07383480
   5.99162553  4.04352700  2.03433887
   6.05501994  6.13393341  0.01031908
   4.11309184  6.15254981  1.95208544
   8.06528365  0.00000000  4.08339618
   1.98182963  0.00000000  6.08714172
   1.95208544  1.93450419  4.11309184
   0.01031908  1.95312059  6.05501994
   4.04650304  0.00000000  4.04650304
   6.11858419  0.00000000  6.11858419
   6.06261369  2.01496229  4.05022308
   4.05022308  2.01496229  6.06261369
   0.07383480  4.04352700  4.03083033
   2.03433887  4.04352700  5.99162553
   1.95208544  6.15254981  4.11309184
   0.01031908  6.13393341  6.05501994
   6.04579261  4.04352700  6.04579261
   6.06261369  6.07209171  4.05022308
   4.05022308  6.07209171  6.06261369
 


--------------------------------------------------------------------------------------------------------


 k-point  1 :  0.25000.25000.2500  plane waves:    6238
 k-point  2 :  -.25000.25000.2500  plane waves:    6238

 maximum and minimum number of plane-waves per node :    6238   6238

 maximum number of plane-waves:    6238
 maximal index in each direction: 
   IXMAX= 11   IYMAX= 11   IZMAX= 11
   IXMIN=-11   IYMIN=-11   IZMIN=-11

 NGX is ok and might be reduce to  46
 NGY is ok and might be reduce to  46
 NGZ is ok and might be reduce to  46

 serial   3D FFT for wavefunctions
 parallel 3D FFT for charge:
    minimum data exchange during FFTs selected (reduces bandwidth)


 total amount of memory used by VASP on root node 125108. kBytes
========================================================================

   base      :    30000. kBytes
   nonl-proj :     3892. kBytes
   fftplans  :    30736. kBytes
   grid      :    47517. kBytes
   one-center:       95. kBytes
   wavefun   :    12868. kBytes
 
 Broyden mixing: mesh for mixing (old mesh)
   NGX = 23   NGY = 23   NGZ = 23
  (NGX  = 96   NGY  = 96   NGZ  = 96)
  gives a total of  12167 points

 initial charge density was supplied:
 charge density of overlapping atoms calculated
 number of electron   93.0000000 magnetization 
 keeping initial charge density in first step


--------------------------------------------------------------------------------------------------------


 Maximum index for augmentation-charges         7940 (set IRDMAX)


--------------------------------------------------------------------------------------------------------


 First call to EWALD:  gamma=   0.219
 Maximum number of real-space cells 3x 3x 3
 Maximum number of reciprocal cells 3x 3x 3

    FEWALD:  cpu time    0.07: real time    0.02
   RESPFUN:  cpu time    0.00: real time    0.00


----------------------------------------- Iteration    1(   1)  ---------------------------------------


    POTLOK:  cpu time    2.37: real time    2.25
    SETDIJ:  cpu time    0.15: real time    0.15
    EDDIAG:  cpu time    4.69: real time    2.99
  RMM-DIIS:  cpu time   21.62: real time    6.89
    ORTHCH:  cpu time    0.33: real time    0.08
       DOS:  cpu time    0.00: real time    0.00
    --------------------------------------------
      LOOP:  cpu time   29.16: real time   12.36

 eigenvalue-minimisations  :   124
 total energy-change (2. order) : 0.3079905E+03  (-0.1715118E+04)
 number of electron   93.0000000 magnetization 
 augmentation part    93.0000000 magnetization 

 Free energy of the ion-electron system (eV)
  ---------------------------------------------------
  alpha Z        PSCENC =        -6.10292531
  Ewald energy   TEWEN  =     -2227.07096524
  -1/2 Hartree   DENC   =       -19.36752301
  -exchange  EXHF       =         0.00000000
  -V(xc)+E(xc)   XCENC  =      -814.80813034
  PAW double counting   =      1102.18190231     -111.56847430
  entropy T*S    EENTRO =        -0.04942464
  eigenvalues    EBANDS =       725.10965511
  atomic energy  EATOM  =      1659.66634407
  ---------------------------------------------------
  free energy    TOTEN  =       307.99045866 eV

  energy without entropy =      308.03988330  energy(sigma->0) =      308.00693354


--------------------------------------------------------------------------------------------------------




----------------------------------------- Iteration    1(   2)  ---------------------------------------


    EDDIAG:  cpu time    4.54: real time    2.96
  RMM-DIIS:  cpu time   22.43: real time    7.13
    ORTHCH:  cpu time    0.33: real time    0.08
       DOS:  cpu time    0.01: real time    0.00
    --------------------------------------------
      LOOP:  cpu time   27.31: real time   10.18

 eigenvalue-minimisations  :   124
 total energy-change (2. order) :-0.3189953E+03  (-0.3146815E+03)
 number of electron   93.0000000 magnetization 
 augmentation part    93.0000000 magnetization 

 Free energy of the ion-electron system (eV)
  ---------------------------------------------------
  alpha Z        PSCENC =        -6.10292531
  Ewald energy   TEWEN  =     -2227.07096524
  -1/2 Hartree   DENC   =       -19.36752301
  -exchange  EXHF       =         0.00000000
  -V(xc)+E(xc)   XCENC  =      -814.80813034
  PAW double counting   =      1102.18190231     -111.56847430
  entropy T*S    EENTRO =        -0.01675297
  eigenvalues    EBANDS =       406.08170272
  atomic energy  EATOM  =      1659.66634407
  ---------------------------------------------------
  free energy    TOTEN  =       -11.00482206 eV

  energy without entropy =      -10.98806909  energy(sigma->0) =      -10.99923774


--------------------------------------------------------------------------------------------------------




----------------------------------------- Iteration    1(   3)  ---------------------------------------


    EDDIAG:  cpu time    4.41: real time    2.93
  RMM-DIIS:  cpu time   22.11: real time    6.94
    ORTHCH:  cpu time    0.35: real time    0.09
       DOS:  cpu time    0.01: real time    0.00
    --------------------------------------------
      LOOP:  cpu time   26.87: real time    9.96

 eigenvalue-minimisations  :   124
 total energy-change (2. order) :-0.7617886E+02  (-0.7778305E+02)
 number of electron   93.0000000 magnetization 
 augmentation part    93.0000000 magnetization 

 Free energy of the ion-electron system (eV)
  ---------------------------------------------------
  alpha Z        PSCENC =        -6.10292531
  Ewald energy   TEWEN  =     -2227.07096524
  -1/2 Hartree   DENC   =       -19.36752301
  -exchange  EXHF       =         0.00000000
  -V(xc)+E(xc)   XCENC  =      -814.80813034
  PAW double counting   =      1102.18190231     -111.56847430
  entropy T*S    EENTRO =        -0.07459867
  eigenvalues    EBANDS =       329.96069123
  atomic energy  EATOM  =      1659.66634407
  ---------------------------------------------------
  free energy    TOTEN  =       -87.18367925 eV

  energy without entropy =      -87.10908058  energy(sigma->0) =      -87.15881303


--------------------------------------------------------------------------------------------------------




----------------------------------------- Iteration    1(   4)  ---------------------------------------


    EDDIAG:  cpu time    4.63: real time    2.97
  RMM-DIIS:  cpu time   21.67: real time    6.90
    ORTHCH:  cpu time    0.33: real time    0.08
       DOS:  cpu time    0.01: real time    0.00
    --------------------------------------------
      LOOP:  cpu time   26.64: real time    9.96

 eigenvalue-minimisations  :   124
 total energy-change (2. order) :-0.1638056E+02  (-0.1746045E+02)
 number of electron   93.0000000 magnetization 
 augmentation part    93.0000000 magnetization 

 Free energy of the ion-electron system (eV)
  ---------------------------------------------------
  alpha Z        PSCENC =        -6.10292531
  Ewald energy   TEWEN  =     -2227.07096524
  -1/2 Hartree   DENC   =       -19.36752301
  -exchange  EXHF       =         0.00000000
  -V(xc)+E(xc)   XCENC  =      -814.80813034
  PAW double counting   =      1102.18190231     -111.56847430
  entropy T*S    EENTRO =         0.01755551
  eigenvalues    EBANDS =       313.48797381
  atomic energy  EATOM  =      1659.66634407
  ---------------------------------------------------
  free energy    TOTEN  =      -103.56424249 eV

  energy without entropy =     -103.58179800  energy(sigma->0) =     -103.57009433


--------------------------------------------------------------------------------------------------------




----------------------------------------- Iteration    1(   5)  ---------------------------------------


    EDDIAG:  cpu time    4.56: real time    2.96
  RMM-DIIS:  cpu time   22.70: real time    7.18
    ORTHCH:  cpu time    0.34: real time    0.08
       DOS:  cpu time    0.01: real time    0.00
    --------------------------------------------
      LOOP:  cpu time   27.60: real time   10.23

 eigenvalue-minimisations  :   124
 total energy-change (2. order) :-0.6423982E+01  (-0.5457919E+01)
 number of electron   93.0000000 magnetization 
 augmentation part    93.0000000 magnetization 

 Free energy of the ion-electron system (eV)
  ---------------------------------------------------
  alpha Z        PSCENC =        -6.10292531
  Ewald energy   TEWEN  =     -2227.07096524
  -1/2 Hartree   DENC   =       -19.36752301
  -exchange  EXHF       =         0.00000000
  -V(xc)+E(xc)   XCENC  =      -814.80813034
  PAW double counting   =      1102.18190231     -111.56847430
  entropy T*S    EENTRO =        -0.06514578
  eigenvalues    EBANDS =       307.14669357
  atomic energy  EATOM  =      1659.66634407
  ---------------------------------------------------
  free energy    TOTEN  =      -109.98822402 eV

  energy without entropy =     -109.92307824  energy(sigma->0) =     -109.96650876


--------------------------------------------------------------------------------------------------------




----------------------------------------- Iteration    1(   6)  ---------------------------------------


    EDDIAG:  cpu time    4.41: real time    2.94
  RMM-DIIS:  cpu time   22.09: real time    6.93
    ORTHCH:  cpu time    0.33: real time    0.08
       DOS:  cpu time    0.01: real time    0.00
    --------------------------------------------
      LOOP:  cpu time   26.84: real time    9.95

 eigenvalue-minimisations  :   124
 total energy-change (2. order) :-0.2663591E+01  (-0.2168022E+01)
 number of electron   93.0000000 magnetization 
 augmentation part    93.0000000 magnetization 

 Free energy of the ion-electron system (eV)
  ---------------------------------------------------
  alpha Z        PSCENC =        -6.10292531
  Ewald energy   TEWEN  =     -2227.07096524
  -1/2 Hartree   DENC   =       -19.36752301
  -exchange  EXHF       =         0.00000000
  -V(xc)+E(xc)   XCENC  =      -814.80813034
  PAW double counting   =      1102.18190231     -111.56847430
  entropy T*S    EENTRO =        -0.02587385
  eigenvalues    EBANDS =       304.44383087
  atomic energy  EATOM  =      1659.66634407
  ---------------------------------------------------
  free energy    TOTEN  =      -112.65181479 eV

  energy without entropy =     -112.62594094  energy(sigma->0) =     -112.64319017


--------------------------------------------------------------------------------------------------------




----------------------------------------- Iteration    1(   7)  ---------------------------------------


    EDDIAG:  cpu time    4.61: real time    2.97
  RMM-DIIS:  cpu time   21.66: real time    6.90
    ORTHCH:  cpu time    0.33: real time    0.08
       DOS:  cpu time    0.01: real time    0.00
    --------------------------------------------
      LOOP:  cpu time   26.61: real time    9.95

 eigenvalue-minimisations  :   124
 total energy-change (2. order) :-0.1138998E+01  (-0.9505729E+00)
 number of electron   93.0000000 magnetization 
 augmentation part    93.0000000 magnetization 

 Free energy of the ion-electron system (eV)
  ---------------------------------------------------
  alpha Z        PSCENC =        -6.10292531
  Ewald energy   TEWEN  =     -2227.07096524
  -1/2 Hartree   DENC   =       -19.36752301
  -exchange  EXHF       =         0.00000000
  -V(xc)+E(xc)   XCENC  =      -814.80813034
  PAW double counting   =      1102.18190231     -111.56847430
  entropy T*S    EENTRO =        -0.01688173
  eigenvalues    EBANDS =       303.29584092
  atomic energy  EATOM  =      1659.66634407
  ---------------------------------------------------
  free energy    TOTEN  =      -113.79081262 eV

  energy without entropy =     -113.77393089  energy(sigma->0) =     -113.78518537


--------------------------------------------------------------------------------------------------------




----------------------------------------- Iteration    1(   8)  ---------------------------------------


    EDDIAG:  cpu time    4.29: real time    2.93
  RMM-DIIS:  cpu time   23.08: real time    7.65
    ORTHCH:  cpu time    0.34: real time    0.09
       DOS:  cpu time    0.01: real time    0.00
    --------------------------------------------
      LOOP:  cpu time   27.72: real time   10.67

 eigenvalue-minimisations  :   124
 total energy-change (2. order) :-0.5222431E+00  (-0.4405366E+00)
 number of electron   93.0000000 magnetization 
 augmentation part    93.0000000 magnetization 

 Free energy of the ion-electron system (eV)
  ---------------------------------------------------
  alpha Z        PSCENC =        -6.10292531
  Ewald energy   TEWEN  =     -2227.07096524
  -1/2 Hartree   DENC   =       -19.36752301
  -exchange  EXHF       =         0.00000000
  -V(xc)+E(xc)   XCENC  =      -814.80813034
  PAW double counting   =      1102.18190231     -111.56847430
  entropy T*S    EENTRO =        -0.00903301
  eigenvalues    EBANDS =       302.76574908
  atomic energy  EATOM  =      1659.66634407
  ---------------------------------------------------
  free energy    TOTEN  =      -114.31305573 eV

  energy without entropy =     -114.30402273  energy(sigma->0) =     -114.31004473


--------------------------------------------------------------------------------------------------------




----------------------------------------- Iteration    1(   9)  ---------------------------------------


    EDDIAG:  cpu time    5.26: real time    3.58
  RMM-DIIS:  cpu time   53.97: real time   16.14
    ORTHCH:  cpu time    0.36: real time    0.09
       DOS:  cpu time    0.01: real time    0.00
    --------------------------------------------
      LOOP:  cpu time   59.60: real time   19.82

 eigenvalue-minimisations  :   295
 total energy-change (2. order) :-0.4246622E+00  (-0.3858548E+00)
 number of electron   93.0000000 magnetization 
 augmentation part    93.0000000 magnetization 

 Free energy of the ion-electron system (eV)
  ---------------------------------------------------
  alpha Z        PSCENC =        -6.10292531
  Ewald energy   TEWEN  =     -2227.07096524
  -1/2 Hartree   DENC   =       -19.36752301
  -exchange  EXHF       =         0.00000000
  -V(xc)+E(xc)   XCENC  =      -814.80813034
  PAW double counting   =      1102.18190231     -111.56847430
  entropy T*S    EENTRO =         0.01191257
  eigenvalues    EBANDS =       302.32014131
  atomic energy  EATOM  =      1659.66634407
  ---------------------------------------------------
  free energy    TOTEN  =      -114.73771793 eV

  energy without entropy =     -114.74963050  energy(sigma->0) =     -114.74168878


--------------------------------------------------------------------------------------------------------




----------------------------------------- Iteration    1(  10)  ---------------------------------------


    EDDIAG:  cpu time    5.23: real time    3.57
  RMM-DIIS:  cpu time   46.97: real time   14.11
    ORTHCH:  cpu time    0.33: real time    0.08
       DOS:  cpu time    0.01: real time    0.00
    --------------------------------------------
      LOOP:  cpu time   52.54: real time   17.76

 eigenvalue-minimisations  :   255
 total energy-change (2. order) :-0.6137510E-01  (-0.2910728E-01)
 number of electron   93.0000000 magnetization 
 augmentation part    93.0000000 magnetization 

 Free energy of the ion-electron system (eV)
  ---------------------------------------------------
  alpha Z        PSCENC =        -6.10292531
  Ewald energy   TEWEN  =     -2227.07096524
  -1/2 Hartree   DENC   =       -19.36752301
  -exchange  EXHF       =         0.00000000
  -V(xc)+E(xc)   XCENC  =      -814.80813034
  PAW double counting   =      1102.18190231     -111.56847430
  entropy T*S    EENTRO =         0.00897468
  eigenvalues    EBANDS =       302.26170411
  atomic energy  EATOM  =      1659.66634407
  ---------------------------------------------------
  free energy    TOTEN  =      -114.79909302 eV

  energy without entropy =     -114.80806770  energy(sigma->0) =     -114.80208458


--------------------------------------------------------------------------------------------------------




----------------------------------------- Iteration    1(  11)  ---------------------------------------


    EDDIAG:  cpu time    5.23: real time    3.57
  RMM-DIIS:  cpu time   38.89: real time   11.47
    ORTHCH:  cpu time    0.34: real time    0.08
       DOS:  cpu time    0.01: real time    0.00
    --------------------------------------------
      LOOP:  cpu time   44.46: real time   15.13

 eigenvalue-minimisations  :   209
 total energy-change (2. order) :-0.2742084E-02  (-0.9445291E-03)
 number of electron   93.0000000 magnetization 
 augmentation part    93.0000000 magnetization 

 Free energy of the ion-electron system (eV)
  ---------------------------------------------------
  alpha Z        PSCENC =        -6.10292531
  Ewald energy   TEWEN  =     -2227.07096524
  -1/2 Hartree   DENC   =       -19.36752301
  -exchange  EXHF       =         0.00000000
  -V(xc)+E(xc)   XCENC  =      -814.80813034
  PAW double counting   =      1102.18190231     -111.56847430
  entropy T*S    EENTRO =         0.00864903
  eigenvalues    EBANDS =       302.25928767
  atomic energy  EATOM  =      1659.66634407
  ---------------------------------------------------
  free energy    TOTEN  =      -114.80183511 eV

  energy without entropy =     -114.81048413  energy(sigma->0) =     -114.80471812


--------------------------------------------------------------------------------------------------------




----------------------------------------- Iteration    1(  12)  ---------------------------------------


    EDDIAG:  cpu time    4.48: real time    2.93
  RMM-DIIS:  cpu time   30.34: real time    8.75
    ORTHCH:  cpu time    0.34: real time    0.08
       DOS:  cpu time    0.01: real time    0.00
    CHARGE:  cpu time    1.76: real time    1.67
    MIXING:  cpu time    0.07: real time    0.07
    --------------------------------------------
      LOOP:  cpu time   37.01: real time   13.51

 eigenvalue-minimisations  :   153
 total energy-change (2. order) :-0.2111888E-04  (-0.1366751E-04)
 number of electron   92.9999995 magnetization 
 augmentation part    -1.1431302 magnetization 

 Broyden mixing:
  rms(total) = 0.55436E+00    rms(broyden)= 0.55433E+00
  rms(prec ) = 0.93292E+00
  weight for this iteration     100.00

 Free energy of the ion-electron system (eV)
  ---------------------------------------------------
  alpha Z        PSCENC =        -6.10292531
  Ewald energy   TEWEN  =     -2227.07096524
  -1/2 Hartree   DENC   =       -19.36752301
  -exchange  EXHF       =         0.00000000
  -V(xc)+E(xc)   XCENC  =      -814.80813034
  PAW double counting   =      1102.18190231     -111.56847430
  entropy T*S    EENTRO =         0.00865684
  eigenvalues    EBANDS =       302.25925874
  atomic energy  EATOM  =      1659.66634407
  ---------------------------------------------------
  free energy    TOTEN  =      -114.80185623 eV

  energy without entropy =     -114.81051307  energy(sigma->0) =     -114.80474184


--------------------------------------------------------------------------------------------------------




----------------------------------------- Iteration    1(  13)  ---------------------------------------


    POTLOK:  cpu time    1.83: real time    1.83
    SETDIJ:  cpu time    0.15: real time    0.15
    EDDIAG:  cpu time    4.66: real time    2.98
  RMM-DIIS:  cpu time   43.97: real time   12.95
    ORTHCH:  cpu time    0.34: real time    0.08
       DOS:  cpu time    0.01: real time    0.00
    CHARGE:  cpu time    1.75: real time    1.66
    MIXING:  cpu time    0.05: real time    0.06
    --------------------------------------------
      LOOP:  cpu time   52.76: real time   19.72

 eigenvalue-minimisations  :   248
 total energy-change (2. order) : 0.7378641E+00  (-0.1269822E+00)
 number of electron   92.9999995 magnetization 
 augmentation part    -1.1572474 magnetization 

 Broyden mixing:
  rms(total) = 0.33454E+00    rms(broyden)= 0.33453E+00
  rms(prec ) = 0.49449E+00
  weight for this iteration     100.00

 eigenvalues of (default mixing * dielectric matrix)
  average eigenvalue GAMMA=   2.3851
  2.3851

 Free energy of the ion-electron system (eV)
  ---------------------------------------------------
  alpha Z        PSCENC =        -6.10292531
  Ewald energy   TEWEN  =     -2227.07096524
  -1/2 Hartree   DENC   =       -20.92377819
  -exchange  EXHF       =         0.00000000
  -V(xc)+E(xc)   XCENC  =      -813.67418744
  PAW double counting   =      1104.61181257     -114.14804694
  entropy T*S    EENTRO =        -0.02366817
  eigenvalues    EBANDS =       303.60142254
  atomic energy  EATOM  =      1659.66634407
  ---------------------------------------------------
  free energy    TOTEN  =      -114.06399210 eV

  energy without entropy =     -114.04032394  energy(sigma->0) =     -114.05610271


--------------------------------------------------------------------------------------------------------




----------------------------------------- Iteration    1(  14)  ---------------------------------------


    POTLOK:  cpu time    1.82: real time    1.82
    SETDIJ:  cpu time    0.15: real time    0.15
    EDDIAG:  cpu time    4.97: real time    3.10
  RMM-DIIS:  cpu time   45.11: real time   13.11
    ORTHCH:  cpu time    0.39: real time    0.10
       DOS:  cpu time    0.01: real time    0.00
    CHARGE:  cpu time    1.76: real time    1.66
    MIXING:  cpu time    0.06: real time    0.06
    --------------------------------------------
      LOOP:  cpu time   54.27: real time   20.00

 eigenvalue-minimisations  :   261
 total energy-change (2. order) : 0.2456721E+00  (-0.2213380E-01)
 number of electron   92.9999995 magnetization 
 augmentation part    -1.1732129 magnetization 

 Broyden mixing:
  rms(total) = 0.14047E+00    rms(broyden)= 0.14047E+00
  rms(prec ) = 0.20652E+00
  weight for this iteration     100.00

 eigenvalues of (default mixing * dielectric matrix)
  average eigenvalue GAMMA=   1.8332
  2.5783  1.0881

 Free energy of the ion-electron system (eV)
  ---------------------------------------------------
  alpha Z        PSCENC =        -6.10292531
  Ewald energy   TEWEN  =     -2227.07096524
  -1/2 Hartree   DENC   =       -21.83098518
  -exchange  EXHF       =         0.00000000
  -V(xc)+E(xc)   XCENC  =      -812.42466892
  PAW double counting   =      1106.57312852     -116.27101636
  entropy T*S    EENTRO =        -0.02929498
  eigenvalues    EBANDS =       303.67206342
  atomic energy  EATOM  =      1659.66634407
  ---------------------------------------------------
  free energy    TOTEN  =      -113.81831996 eV

  energy without entropy =     -113.78902498  energy(sigma->0) =     -113.80855496


--------------------------------------------------------------------------------------------------------




----------------------------------------- Iteration    1(  15)  ---------------------------------------


    POTLOK:  cpu time    1.84: real time    1.81
    SETDIJ:  cpu time    0.15: real time    0.16
    EDDIAG:  cpu time    4.66: real time    3.01
  RMM-DIIS:  cpu time   43.93: real time   13.28
    ORTHCH:  cpu time    0.34: real time    0.08
       DOS:  cpu time    0.01: real time    0.00
    CHARGE:  cpu time    2.05: real time    1.96
    MIXING:  cpu time    0.08: real time    0.06
    --------------------------------------------
      LOOP:  cpu time   53.07: real time   20.37

 eigenvalue-minimisations  :   250
 total energy-change (2. order) : 0.5495993E-01  (-0.4849051E-02)
 number of electron   92.9999995 magnetization 
 augmentation part    -1.1859475 magnetization 

 Broyden mixing:
  rms(total) = 0.17156E-01    rms(broyden)= 0.17156E-01
  rms(prec ) = 0.30070E-01
  weight for this iteration     100.00

 eigenvalues of (default mixing * dielectric matrix)
  average eigenvalue GAMMA=   1.7239
  2.6114  1.0741  1.4862

 Free energy of the ion-electron system (eV)
  ---------------------------------------------------
  alpha Z        PSCENC =        -6.10292531
  Ewald energy   TEWEN  =     -2227.07096524
  -1/2 Hartree   DENC   =       -22.49824841
  -exchange  EXHF       =         0.00000000
  -V(xc)+E(xc)   XCENC  =      -811.47127793
  PAW double counting   =      1107.90992396     -117.73908587
  entropy T*S    EENTRO =        -0.02665046
  eigenvalues    EBANDS =       303.56952516
  atomic energy  EATOM  =      1659.66634407
  ---------------------------------------------------
  free energy    TOTEN  =      -113.76336003 eV

  energy without entropy =     -113.73670956  energy(sigma->0) =     -113.75447654


--------------------------------------------------------------------------------------------------------




----------------------------------------- Iteration    1(  16)  ---------------------------------------


    POTLOK:  cpu time    2.19: real time    2.12
    SETDIJ:  cpu time    0.16: real time    0.16
    EDDIAG:  cpu time    5.37: real time    3.68
  RMM-DIIS:  cpu time   46.96: real time   14.34
    ORTHCH:  cpu time    0.33: real time    0.08
       DOS:  cpu time    0.01: real time    0.00
    CHARGE:  cpu time    2.11: real time    2.02
    MIXING:  cpu time    0.10: real time    0.06
    --------------------------------------------
      LOOP:  cpu time   57.25: real time   22.47

 eigenvalue-minimisations  :   263
 total energy-change (2. order) : 0.1417917E-02  (-0.4084189E-03)
 number of electron   92.9999995 magnetization 
 augmentation part    -1.1890139 magnetization 

 Broyden mixing:
  rms(total) = 0.58056E-02    rms(broyden)= 0.58056E-02
  rms(prec ) = 0.10284E-01
  weight for this iteration     100.00

 eigenvalues of (default mixing * dielectric matrix)
  average eigenvalue GAMMA=   1.8029
  2.6154  2.3412  1.1275  1.1275

 Free energy of the ion-electron system (eV)
  ---------------------------------------------------
  alpha Z        PSCENC =        -6.10292531
  Ewald energy   TEWEN  =     -2227.07096524
  -1/2 Hartree   DENC   =       -22.51345261
  -exchange  EXHF       =         0.00000000
  -V(xc)+E(xc)   XCENC  =      -811.36232269
  PAW double counting   =      1108.20263095     -118.05967293
  entropy T*S    EENTRO =        -0.02609615
  eigenvalues    EBANDS =       303.50451780
  atomic energy  EATOM  =      1659.66634407
  ---------------------------------------------------
  free energy    TOTEN  =      -113.76194211 eV

  energy without entropy =     -113.73584596  energy(sigma->0) =     -113.75324339


--------------------------------------------------------------------------------------------------------




----------------------------------------- Iteration    1(  17)  ---------------------------------------


    POTLOK:  cpu time    2.25: real time    2.13
    SETDIJ:  cpu time    0.16: real time    0.17
    EDDIAG:  cpu time    5.42: real time    3.70
  RMM-DIIS:  cpu time   44.58: real time   13.62
    ORTHCH:  cpu time    0.34: real time    0.09
       DOS:  cpu time    0.01: real time    0.00
    --------------------------------------------
      LOOP:  cpu time   52.77: real time   19.70

 eigenvalue-minimisations  :   248
 total energy-change (2. order) : 0.9891372E-04  (-0.9198390E-04)
 number of electron   92.9999995 magnetization 
 augmentation part    -1.1890139 magnetization 

 Free energy of the ion-electron system (eV)
  ---------------------------------------------------
  alpha Z        PSCENC =        -6.10292531
  Ewald energy   TEWEN  =     -2227.07096524
  -1/2 Hartree   DENC   =       -22.47143453
  -exchange  EXHF       =         0.00000000
  -V(xc)+E(xc)   XCENC  =      -811.33578720
  PAW double counting   =      1108.31546449     -118.18735367
  entropy T*S    EENTRO =        -0.02560157
  eigenvalues    EBANDS =       303.45041575
  atomic energy  EATOM  =      1659.66634407
  ---------------------------------------------------
  free energy    TOTEN  =      -113.76184319 eV

  energy without entropy =     -113.73624163  energy(sigma->0) =     -113.75330934


--------------------------------------------------------------------------------------------------------




 average (electrostatic) potential at core
  the test charge radii are     1.0406
  (the norm of the test charge is              1.0000)
       1 -72.9474       2 -72.9544       3 -73.0662       4 -72.9926       5 -72.9926
       6 -73.0439       7 -73.0439       8 -72.9972       9 -72.9044      10 -72.9680
      11 -72.9926      12 -72.9926      13 -73.0572      14 -73.0571      15 -72.9972
      16 -72.9044      17 -73.0439      18 -73.0439      19 -72.9044      20 -72.9972
      21 -73.0660      22 -72.9544      23 -72.9926      24 -72.9926      25 -73.0572
      26 -73.0571      27 -72.9044      28 -72.9972      29 -72.9680      30 -72.9926
      31 -72.9926
 
 
 
 E-fermi :   7.8556     XC(G=0): -10.0453     alpha+bet :-14.3870
   add alpha+bet to get absolut eigen values

 k-point   1 :       0.2500    0.2500    0.2500
  band No.  band energies     occupation 
      1      -2.9951      2.00000
      2      -2.0123      2.00000
      3      -1.7710      2.00000
      4      -1.7034      2.00000
      5      -0.8464      2.00000
      6      -0.7298      2.00000
      7      -0.3937      2.00000
      8       0.2339      2.00000
      9       0.3327      2.00000
     10       0.4436      2.00000
     11       0.6306      2.00000
     12       1.3113      2.00000
     13       1.4061      2.00000
     14       1.4630      2.00000
     15       1.4828      2.00000
     16       1.7165      2.00000
     17       1.9540      2.00000
     18       2.6009      2.00000
     19       2.6711      2.00000
     20       2.7562      2.00000
     21       3.4874      2.00000
     22       3.5757      2.00000
     23       3.6034      2.00000
     24       3.6591      2.00000
     25       3.7275      2.00000
     26       4.1281      2.00000
     27       4.4907      2.00000
     28       4.5513      2.00000
     29       4.6615      2.00000
     30       4.7444      2.00000
     31       4.7616      2.00000
     32       4.7948      2.00000
     33       4.9283      2.00000
     34       5.0666      2.00000
     35       5.1563      2.00000
     36       5.7050      2.00000
     37       5.8612      2.00000
     38       6.2357      2.00000
     39       6.6872      2.00000
     40       6.7732      2.00000
     41       6.8254      2.00000
     42       6.9137      2.00000
     43       6.9804      2.00000
     44       7.0179      2.00000
     45       7.2208      2.00007
     46       7.7349      1.84316
     47       7.8626      0.94098
     48       7.9275      0.43341
     49       7.9493      0.29548
     50       8.0072      0.04316
     51       8.0962     -0.07076
     52       8.1765     -0.04572
     53       8.2588     -0.01518
     54       8.4930     -0.00006
     55       9.0080      0.00000
     56       9.2257      0.00000
     57       9.2326      0.00000
     58       9.3469      0.00000
     59       9.3574      0.00000
     60       9.5228      0.00000
     61       9.9727      0.00000
     62      10.0448      0.00000

 k-point   2 :      -0.2500    0.2500    0.2500
  band No.  band energies     occupation 
      1      -2.9945      2.00000
      2      -2.0234      2.00000
      3      -1.7711      2.00000
      4      -1.6895      2.00000
      5      -0.8325      2.00000
      6      -0.7166      2.00000
      7      -0.4585      2.00000
      8       0.2145      2.00000
      9       0.4155      2.00000
     10       0.5318      2.00000
     11       0.5401      2.00000
     12       1.2666      2.00000
     13       1.3836      2.00000
     14       1.4655      2.00000
     15       1.5532      2.00000
     16       1.6812      2.00000
     17       1.9069      2.00000
     18       2.5657      2.00000
     19       2.7019      2.00000
     20       2.8492      2.00000
     21       3.5448      2.00000
     22       3.5676      2.00000
     23       3.6546      2.00000
     24       3.6548      2.00000
     25       3.6949      2.00000
     26       3.9594      2.00000
     27       4.4207      2.00000
     28       4.5388      2.00000
     29       4.7163      2.00000
     30       4.7291      2.00000
     31       4.7895      2.00000
     32       4.8605      2.00000
     33       5.0042      2.00000
     34       5.0287      2.00000
     35       5.1668      2.00000
     36       5.7074      2.00000
     37       5.8598      2.00000
     38       6.2247      2.00000
     39       6.6638      2.00000
     40       6.7842      2.00000
     41       6.8195      2.00000
     42       6.8753      2.00000
     43       6.9792      2.00000
     44       7.0370      2.00000
     45       7.1280      2.00000
     46       7.7323      1.85483
     47       7.8741      0.84466
     48       8.0058      0.04712
     49       8.0105      0.03351
     50       8.0904     -0.07006
     51       8.1381     -0.06261
     52       8.1733     -0.04723
     53       8.2308     -0.02339
     54       8.3789     -0.00136
     55       9.0571      0.00000
     56       9.1874      0.00000
     57       9.2096      0.00000
     58       9.2845      0.00000
     59       9.4015      0.00000
     60       9.6308      0.00000
     61       9.9214      0.00000
     62      10.0461      0.00000


--------------------------------------------------------------------------------------------------------


 soft charge-density along one line, spin component           1
         0         1         2         3         4         5         6         7         8         9
 total charge-density along one line
 
 pseudopotential strength for first ion, spin component:           1
  8.460  -0.006   0.000   0.000   0.000   0.000   0.000   0.000
 -0.006   0.000   0.000   0.000   0.000   0.000   0.000   0.000
  0.000   0.000   1.990   0.000   0.000  -0.026   0.000   0.000
  0.000   0.000   0.000   1.990   0.000   0.000  -0.026   0.000
  0.000   0.000   0.000   0.000   1.990   0.000   0.000  -0.026
  0.000   0.000  -0.026   0.000   0.000  -0.012   0.000   0.000
  0.000   0.000   0.000  -0.026   0.000   0.000  -0.012   0.000
  0.000   0.000   0.000   0.000  -0.026   0.000   0.000  -0.012
 total augmentation occupancy for first ion, spin component:           1
  1.434  -0.496   0.000   0.000   0.000   0.000   0.000   0.000
 -0.496   0.421   0.000   0.000   0.000   0.000   0.000   0.000
  0.000   0.000   0.902   0.000   0.000  -0.222   0.000   0.000
  0.000   0.000   0.000   0.622  -0.198   0.000  -0.135   0.052
  0.000   0.000   0.000  -0.198   0.622   0.000   0.052  -0.135
  0.000   0.000  -0.222   0.000   0.000   0.060   0.000   0.000
  0.000   0.000   0.000  -0.135   0.052   0.000   0.035  -0.016
  0.000   0.000   0.000   0.052  -0.135   0.000  -0.016   0.035


------------------------ aborting loop because EDIFF is reached ----------------------------------------




--------------------------------------------------------------------------------------------------------



  FREE ENERGIE OF THE ION-ELECTRON SYSTEM (eV)
  ---------------------------------------------------
  free  energy   TOTEN  =      -113.761843 eV

  energy  without entropy=     -113.736242  energy(sigma->0) =     -113.753309
 
    CHARGE:  cpu time    2.03: real time    2.03
    FORLOC:  cpu time    0.73: real time    0.73
    FORNL :  cpu time    5.94: real time    5.95
    STRESS:  cpu time   34.56: real time    9.30
    FORCOR:  cpu time    2.69: real time    2.69
    FORHAR:  cpu time    1.22: real time    1.22
    MIXING:  cpu time    0.10: real time    0.06

  FORCE on cell =-STRESS in cart. coord.  units (eV):
  Direction    XX          YY          ZZ          XY          YZ          ZX
  --------------------------------------------------------------------------------------
  Alpha Z    -6.10293    -6.10293    -6.10293
  Ewald    -745.35185  -736.37592  -745.35185     0.00000     0.00000   -10.35151
  Hartree    10.16596     2.20635    10.16596     0.00000     0.00000    -1.18793
  E(xc)    -264.42196  -264.93121  -264.42196     0.00000     0.00000     0.08792
  Local     -12.34000   -14.40194   -12.34000     0.00000     0.00000    11.71734
  n-local   587.04334   593.29392   587.04345     0.16505    -0.62309    -1.37242
  augment   -31.64046   -31.91820   -31.64047     0.00001    -0.00001     0.13342
  Kinetic   461.90874   460.89823   461.90863     0.70895    -3.31911    -1.43612
  Fock        0.00000     0.00000     0.00000     0.00000     0.00000     0.00000
  -------------------------------------------------------------------------------------
  Total      -0.73917     2.66831    -0.73917     0.00000     0.00000    -2.40931
  in kB      -2.23916     8.08305    -2.23916     0.00000     0.00000    -7.29848
  external pressure =        1.20 kB  Pullay stress =        0.00 kB


 VOLUME and BASIS-vectors are now :
 -----------------------------------------------------------------------------
  energy-cutoff  :      300.00
  volume of cell :      528.90
      direct lattice vectors                 reciprocal lattice vectors
     8.087054000  0.000000000  0.000000000     0.123654423  0.000000000  0.000000000
     0.000000000  8.087054000  0.000000000     0.000000000  0.123654423  0.000000000
     0.000000000  0.000000000  8.087054000     0.000000000  0.000000000  0.123654423

  length of vectors
     8.087054000  8.087054000  8.087054000     0.123654423  0.123654423  0.123654423


 FORCES acting on ions
    electron-ion (+dipol)            ewald-force                    non-local-force                 convergence-correction
 -----------------------------------------------------------------------------------------------
   -.629E-02 -.558E-13 -.629E-02   0.518E-02 -.158E-13 0.518E-02   0.580E-03 0.000E+00 0.580E-03   0.542E-03 -.112E-16 0.542E-03
   -.531E+01 -.120E-13 -.531E+01   0.471E+01 0.108E-13 0.471E+01   0.952E+00 0.000E+00 0.952E+00   0.464E-02 -.885E-14 0.464E-02
   0.315E+00 0.118E-14 0.315E+00   -.125E+00 0.544E-14 -.125E+00   -.242E+00 0.000E+00 -.242E+00   0.362E-02 -.393E-14 0.362E-02
   -.565E+00 -.986E+01 -.607E+01   0.296E+00 0.982E+01 0.590E+01   0.216E+00 0.221E+00 0.240E+00   0.286E-02 0.151E-01 0.851E-02
   -.607E+01 -.986E+01 -.565E+00   0.590E+01 0.982E+01 0.296E+00   0.240E+00 0.221E+00 0.216E+00   0.851E-02 0.151E-01 0.286E-02
   0.525E+01 -.434E-14 0.990E+00   -.486E+01 -.777E-15 -.105E+01   -.692E+00 0.000E+00 -.187E+00   -.633E-02 -.126E-13 0.259E-02
   -.982E+00 -.107E-13 -.525E+01   0.104E+01 -.350E-14 0.486E+01   0.186E+00 0.000E+00 0.693E+00   -.326E-02 -.868E-14 0.697E-02
   -.894E+00 -.949E+01 0.899E+00   0.639E+00 0.885E+01 -.644E+00   0.448E+00 0.113E+01 -.448E+00   -.188E-02 0.113E-01 0.147E-02
   0.533E+01 -.658E+01 -.534E+01   -.512E+01 0.712E+01 0.513E+01   -.364E+00 -.627E+00 0.365E+00   -.833E-02 0.133E-01 0.929E-02
   -.566E+01 0.529E-14 -.566E+01   0.563E+01 -.263E-11 0.563E+01   -.631E-01 0.000E+00 -.631E-01   0.921E-02 0.855E-14 0.921E-02
   -.565E+00 0.986E+01 -.607E+01   0.296E+00 -.982E+01 0.590E+01   0.216E+00 -.221E+00 0.240E+00   0.286E-02 -.151E-01 0.851E-02
   -.607E+01 0.986E+01 -.565E+00   0.590E+01 -.982E+01 0.296E+00   0.240E+00 -.221E+00 0.216E+00   0.851E-02 -.151E-01 0.286E-02
   0.638E+01 0.874E-13 0.410E+00   -.636E+01 0.879E-12 -.175E+00   -.235E+00 0.000E+00 -.482E+00   -.998E-02 0.127E-13 0.192E-02
   -.401E+00 -.808E-13 -.639E+01   0.168E+00 -.490E-13 0.637E+01   0.480E+00 0.000E+00 0.236E+00   -.257E-02 0.764E-14 0.107E-01
   -.894E+00 0.949E+01 0.899E+00   0.639E+00 -.885E+01 -.644E+00   0.448E+00 -.113E+01 -.448E+00   -.188E-02 -.113E-01 0.147E-02
   0.533E+01 0.658E+01 -.534E+01   -.512E+01 -.712E+01 0.513E+01   -.364E+00 0.627E+00 0.365E+00   -.833E-02 -.133E-01 0.929E-02
   0.990E+00 0.758E-14 0.525E+01   -.105E+01 0.394E-14 -.486E+01   -.187E+00 0.000E+00 -.692E+00   0.259E-02 -.208E-14 -.633E-02
   -.525E+01 -.406E-13 -.982E+00   0.486E+01 0.666E-14 0.104E+01   0.693E+00 0.000E+00 0.186E+00   0.697E-02 -.185E-14 -.326E-02
   -.534E+01 -.658E+01 0.533E+01   0.513E+01 0.712E+01 -.512E+01   0.365E+00 -.627E+00 -.364E+00   0.929E-02 0.133E-01 -.833E-02
   0.899E+00 -.949E+01 -.894E+00   -.644E+00 0.885E+01 0.639E+00   -.448E+00 0.113E+01 0.448E+00   0.147E-02 0.113E-01 -.188E-02
   -.322E+00 0.165E-12 -.322E+00   0.131E+00 -.893E-12 0.131E+00   0.242E+00 0.000E+00 0.242E+00   -.293E-02 0.134E-14 -.294E-02
   0.532E+01 0.597E-14 0.532E+01   -.472E+01 -.860E-12 -.472E+01   -.953E+00 0.000E+00 -.953E+00   -.533E-02 -.841E-14 -.533E-02
   0.608E+01 -.986E+01 0.560E+00   -.591E+01 0.982E+01 -.291E+00   -.241E+00 0.221E+00 -.215E+00   -.948E-02 0.151E-01 -.246E-02
   0.560E+00 -.986E+01 0.608E+01   -.291E+00 0.982E+01 -.591E+01   -.215E+00 0.221E+00 -.241E+00   -.246E-02 0.151E-01 -.948E-02
   0.410E+00 -.112E-13 0.638E+01   -.175E+00 0.872E-12 -.636E+01   -.482E+00 0.000E+00 -.235E+00   0.192E-02 0.141E-14 -.998E-02
   -.639E+01 0.171E-13 -.401E+00   0.637E+01 0.887E-12 0.168E+00   0.236E+00 0.000E+00 0.480E+00   0.107E-01 0.208E-14 -.257E-02
   -.534E+01 0.658E+01 0.533E+01   0.513E+01 -.712E+01 -.512E+01   0.365E+00 0.627E+00 -.364E+00   0.929E-02 -.133E-01 -.833E-02
   0.899E+00 0.949E+01 -.894E+00   -.644E+00 -.885E+01 0.639E+00   -.448E+00 -.113E+01 0.448E+00   0.147E-02 -.113E-01 -.188E-02
   0.567E+01 -.300E-13 0.567E+01   -.564E+01 0.179E-11 -.564E+01   0.623E-01 0.000E+00 0.623E-01   -.989E-02 0.765E-14 -.989E-02
   0.608E+01 0.986E+01 0.560E+00   -.591E+01 -.982E+01 -.291E+00   -.241E+00 -.221E+00 -.215E+00   -.948E-02 -.151E-01 -.246E-02
   0.560E+00 0.986E+01 0.608E+01   -.291E+00 -.982E+01 -.591E+01   -.215E+00 -.221E+00 -.241E+00   -.246E-02 -.151E-01 -.948E-02
 -----------------------------------------------------------------------------------------------
   -.412E-03 -.593E-12 -.412E-03   0.289E-14 0.178E-14 -.462E-13   0.458E-03 0.167E-15 0.458E-03   -.133E-03 -.726E-14 -.133E-03
 
 
 POSITION                                       TOTAL-FORCE (eV/Angst)
 -----------------------------------------------------------------------------------
      3.03271      4.04353      3.03271         0.000010      0.000000      0.000010
      8.03385      0.00000      8.03385         0.359251      0.000000      0.359251
      2.01872      0.00000      2.01872        -0.047676      0.000000     -0.047676
      2.01501      2.01500      0.00279        -0.050239      0.197364      0.078293
      0.00279      2.01500      2.01501         0.078293      0.197364     -0.050239
      4.08340      0.00000      8.06528        -0.308418      0.000000     -0.239960
      6.08714      0.00000      1.98183         0.239473      0.000000      0.308811
      6.05502      1.95312      0.01032         0.190937      0.502333     -0.191224
      4.11309      1.93450      1.95209        -0.163917     -0.068706      0.164530
      0.01962      4.04353      0.01962        -0.078638      0.000000     -0.078638
      2.01501      6.07205      0.00279        -0.050239     -0.197364      0.078293
      0.00279      6.07205      2.01501         0.078293     -0.197364     -0.050239
      4.03083      4.04353      0.07383        -0.227422      0.000000     -0.245189
      5.99163      4.04353      2.03434         0.244869      0.000000      0.227752
      6.05502      6.13393      0.01032         0.190937     -0.502333     -0.191224
      4.11309      6.15255      1.95209        -0.163917      0.068706      0.164530
      8.06528      0.00000      4.08340        -0.239960      0.000000     -0.308418
      1.98183      0.00000      6.08714         0.308811      0.000000      0.239473
      1.95209      1.93450      4.11309         0.164530     -0.068706     -0.163917
      0.01032      1.95312      6.05502        -0.191224      0.502333      0.190937
      4.04650      0.00000      4.04650         0.047871      0.000000      0.047871
      6.11858      0.00000      6.11858        -0.359563      0.000000     -0.359563
      6.06261      2.01496      4.05022        -0.078642      0.197480      0.050473
      4.05022      2.01496      6.06261         0.050473      0.197480     -0.078642
      0.07383      4.04353      4.03083        -0.245189      0.000000     -0.227422
      2.03434      4.04353      5.99163         0.227752      0.000000      0.244869
      1.95209      6.15255      4.11309         0.164530      0.068706     -0.163917
      0.01032      6.13393      6.05502        -0.191224     -0.502333      0.190937
      6.04579      4.04353      6.04579         0.078408      0.000000      0.078408
      6.06261      6.07209      4.05022        -0.078642     -0.197480      0.050473
      4.05022      6.07209      6.06261         0.050473     -0.197480     -0.078642
 -----------------------------------------------------------------------------------
    total drift:                               -0.000088      0.000000     -0.000088


--------------------------------------------------------------------------------------------------------


    POTLOK:  cpu time    2.37: real time    2.26


--------------------------------------------------------------------------------------------------------


 NEB: the previous image is higher in energy: F
 NEB: the next image is higher in energy    : F
 NEB: image is at an extrema
 NEB: diff energy (min, max):   113.761843  113.761843

 NEB: Tangent
 ----------------------------------------------
      0.70587      0.00000      0.70587
     -0.00150      0.00000     -0.00150
      0.00159      0.00000      0.00159
      0.00159      0.01105      0.00946
      0.00946      0.01105      0.00159
      0.00150      0.00000     -0.00150
     -0.00159      0.00000      0.00159
     -0.00159      0.00008     -0.00150
     -0.00946      0.00012     -0.00934
      0.00946      0.00000      0.00946
      0.00159     -0.01105      0.00946
      0.00946     -0.01105      0.00159
     -0.00946      0.00000      0.00946
      0.00934      0.00000     -0.00934
     -0.00159     -0.00008     -0.00150
     -0.00946     -0.00012     -0.00934
     -0.00150      0.00000      0.00150
      0.00159      0.00000     -0.00159
     -0.00934      0.00012     -0.00946
     -0.00150      0.00008     -0.00159
      0.00150      0.00000      0.00150
     -0.00159      0.00000     -0.00159
      0.00934     -0.01084      0.00150
      0.00150     -0.01084      0.00934
      0.00946      0.00000     -0.00946
     -0.00934      0.00000      0.00934
     -0.00934     -0.00012     -0.00946
     -0.00150     -0.00008     -0.00159
      0.00934      0.00000      0.00934
      0.00934      0.01084      0.00150
      0.00150      0.01084      0.00934

 NEB: forces: par spring, perp REAL, dneb     0.001848    1.877788    0.000000
 NEB: distance to prev, next image, angle between     1.451428    1.451059  147.983833
 NEB: projections on to tangent (spring, REAL)    -0.001848    0.000343

  FORCES: max atom, RMS     0.570405    0.337261
  FORCE total and by dimension    1.877788    0.502333
 Quasi-Newton relaxation of ions (Broydens 2nd method)
  g(Force)  = 0.170E+00   g(Stress)= 0.000E+00

 Reset! Starting new Quasi-Newton update for ions 


--------------------------------------------------------------------------------------------------------


    WAVPRE:  cpu time    0.82: real time    0.82
    FEWALD:  cpu time    0.01: real time    0.01
    ORTHCH:  cpu time    5.19: real time    1.31
     LOOP+:  cpu time  738.54: real time  278.39
   RESPFUN:  cpu time    0.00: real time    0.00


----------------------------------------- Iteration    2(   1)  ---------------------------------------


    POTLOK:  cpu time    2.26: real time    2.10
    SETDIJ:  cpu time    0.16: real time    0.16
    EDDIAG:  cpu time    5.61: real time    3.84
  RMM-DIIS:  cpu time   44.39: real time   13.43
    ORTHCH:  cpu time    0.34: real time    0.08
       DOS:  cpu time    0.01: real time    0.00
    CHARGE:  cpu time    1.75: real time    1.65
    MIXING:  cpu time    0.05: real time    0.05
    --------------------------------------------
      LOOP:  cpu time   54.58: real time   21.34

 eigenvalue-minimisations  :   248
 total energy-change (2. order) :-0.1458952E+00  (-0.1312901E+00)
 number of electron   92.9999996 magnetization 
 augmentation part    -1.1915732 magnetization 

 Broyden mixing:
  rms(total) = 0.25294E-01    rms(broyden)= 0.25290E-01
  rms(prec ) = 0.69919E-01
  weight for this iteration     100.00

 Free energy of the ion-electron system (eV)
  ---------------------------------------------------
  alpha Z        PSCENC =        -6.10292531
  Ewald energy   TEWEN  =     -2229.70997926
  -1/2 Hartree   DENC   =       -20.52327519
  -exchange  EXHF       =         0.00000000
  -V(xc)+E(xc)   XCENC  =      -811.37151211
  PAW double counting   =      1108.30982963     -118.18259863
  entropy T*S    EENTRO =        -0.05191210
  eigenvalues    EBANDS =       304.05819160
  atomic energy  EATOM  =      1659.66634407
  ---------------------------------------------------
  free energy    TOTEN  =      -113.90783730 eV

  energy without entropy =     -113.85592520  energy(sigma->0) =     -113.89053327


--------------------------------------------------------------------------------------------------------




----------------------------------------- Iteration    2(   2)  ---------------------------------------


    POTLOK:  cpu time    1.81: real time    1.81
    SETDIJ:  cpu time    0.15: real time    0.15
    EDDIAG:  cpu time    4.66: real time    2.97
  RMM-DIIS:  cpu time   44.96: real time   13.19
    ORTHCH:  cpu time    0.38: real time    0.10
       DOS:  cpu time    0.01: real time    0.00
    CHARGE:  cpu time    1.74: real time    1.65
    MIXING:  cpu time    0.05: real time    0.06
    --------------------------------------------
      LOOP:  cpu time   53.77: real time   19.93

 eigenvalue-minimisations  :   259
 total energy-change (2. order) : 0.6445165E-02  (-0.2631899E-02)
 number of electron   92.9999996 magnetization 
 augmentation part    -1.1914620 magnetization 

 Broyden mixing:
  rms(total) = 0.10833E-01    rms(broyden)= 0.10832E-01
  rms(prec ) = 0.24330E-01
  weight for this iteration     100.00

 eigenvalues of (default mixing * dielectric matrix)
  average eigenvalue GAMMA=   1.5613
  1.5613

 Free energy of the ion-electron system (eV)
  ---------------------------------------------------
  alpha Z        PSCENC =        -6.10292531
  Ewald energy   TEWEN  =     -2229.70997926
  -1/2 Hartree   DENC   =       -20.42671236
  -exchange  EXHF       =         0.00000000
  -V(xc)+E(xc)   XCENC  =      -811.37590889
  PAW double counting   =      1108.22092155     -118.09039105
  entropy T*S    EENTRO =        -0.04811660
  eigenvalues    EBANDS =       303.96537570
  atomic energy  EATOM  =      1659.66634407
  ---------------------------------------------------
  free energy    TOTEN  =      -113.90139214 eV

  energy without entropy =     -113.85327554  energy(sigma->0) =     -113.88535327


--------------------------------------------------------------------------------------------------------




----------------------------------------- Iteration    2(   3)  ---------------------------------------


    POTLOK:  cpu time    1.81: real time    1.81
    SETDIJ:  cpu time    0.15: real time    0.15
    EDDIAG:  cpu time    4.65: real time    2.98
  RMM-DIIS:  cpu time   42.64: real time   12.73
    ORTHCH:  cpu time    0.34: real time    0.08
       DOS:  cpu time    0.01: real time    0.00
    CHARGE:  cpu time    1.73: real time    1.64
    MIXING:  cpu time    0.06: real time    0.05
    --------------------------------------------
      LOOP:  cpu time   51.40: real time   19.45

 eigenvalue-minimisations  :   249
 total energy-change (2. order) : 0.7917512E-03  (-0.4624601E-03)
 number of electron   92.9999996 magnetization 
 augmentation part    -1.1914131 magnetization 

 Broyden mixing:
  rms(total) = 0.38511E-02    rms(broyden)= 0.38510E-02
  rms(prec ) = 0.66200E-02
  weight for this iteration     100.00

 eigenvalues of (default mixing * dielectric matrix)
  average eigenvalue GAMMA=   1.5450
  1.5450  1.5450

 Free energy of the ion-electron system (eV)
  ---------------------------------------------------
  alpha Z        PSCENC =        -6.10292531
  Ewald energy   TEWEN  =     -2229.70997926
  -1/2 Hartree   DENC   =       -20.39229581
  -exchange  EXHF       =         0.00000000
  -V(xc)+E(xc)   XCENC  =      -811.37851646
  PAW double counting   =      1108.14645754     -118.01326155
  entropy T*S    EENTRO =        -0.04670191
  eigenvalues    EBANDS =       303.93027830
  atomic energy  EATOM  =      1659.66634407
  ---------------------------------------------------
  free energy    TOTEN  =      -113.90060039 eV

  energy without entropy =     -113.85389848  energy(sigma->0) =     -113.88503308


--------------------------------------------------------------------------------------------------------




----------------------------------------- Iteration    2(   4)  ---------------------------------------


    POTLOK:  cpu time    1.83: real time    1.81
    SETDIJ:  cpu time    0.15: real time    0.15
    EDDIAG:  cpu time    4.66: real time    2.98
  RMM-DIIS:  cpu time   30.98: real time    9.47
    ORTHCH:  cpu time    0.33: real time    0.08
       DOS:  cpu time    0.01: real time    0.00
    --------------------------------------------
      LOOP:  cpu time   37.97: real time   14.50

 eigenvalue-minimisations  :   172
 total energy-change (2. order) : 0.2139762E-04  (-0.1871443E-04)
 number of electron   92.9999996 magnetization 
 augmentation part    -1.1914131 magnetization 

 Free energy of the ion-electron system (eV)
  ---------------------------------------------------
  alpha Z        PSCENC =        -6.10292531
  Ewald energy   TEWEN  =     -2229.70997926
  -1/2 Hartree   DENC   =       -20.40052493
  -exchange  EXHF       =         0.00000000
  -V(xc)+E(xc)   XCENC  =      -811.37900924
  PAW double counting   =      1108.12136355     -117.98728651
  entropy T*S    EENTRO =        -0.04710530
  eigenvalues    EBANDS =       303.93854394
  atomic energy  EATOM  =      1659.66634407
  ---------------------------------------------------
  free energy    TOTEN  =      -113.90057899 eV

  energy without entropy =     -113.85347369  energy(sigma->0) =     -113.88487722


--------------------------------------------------------------------------------------------------------




 average (electrostatic) potential at core
  the test charge radii are     1.0406
  (the norm of the test charge is              1.0000)
       1 -72.9507       2 -72.9628       3 -73.0592       4 -72.9915       5 -72.9915
       6 -73.0449       7 -73.0450       8 -72.9982       9 -72.8958      10 -72.9637
      11 -72.9915      12 -72.9915      13 -73.0561      14 -73.0560      15 -72.9982
      16 -72.8958      17 -73.0449      18 -73.0450      19 -72.8958      20 -72.9982
      21 -73.0592      22 -72.9629      23 -72.9915      24 -72.9915      25 -73.0561
      26 -73.0560      27 -72.8958      28 -72.9982      29 -72.9638      30 -72.9915
      31 -72.9915
 
 
 
 E-fermi :   7.8650     XC(G=0): -10.0468     alpha+bet :-14.3870
   add alpha+bet to get absolut eigen values

 k-point   1 :       0.2500    0.2500    0.2500
  band No.  band energies     occupation 
      1      -2.9702      2.00000
      2      -1.9680      2.00000
      3      -1.7810      2.00000
      4      -1.6936      2.00000
      5      -0.8158      2.00000
      6      -0.7209      2.00000
      7      -0.4248      2.00000
      8       0.2637      2.00000
      9       0.3530      2.00000
     10       0.4275      2.00000
     11       0.6284      2.00000
     12       1.3582      2.00000
     13       1.4159      2.00000
     14       1.4766      2.00000
     15       1.4834      2.00000
     16       1.7165      2.00000
     17       1.9185      2.00000
     18       2.5970      2.00000
     19       2.6673      2.00000
     20       2.7525      2.00000
     21       3.5064      2.00000
     22       3.5845      2.00000
     23       3.6234      2.00000
     24       3.6734      2.00000
     25       3.7286      2.00000
     26       4.1042      2.00000
     27       4.5355      2.00000
     28       4.5771      2.00000
     29       4.6690      2.00000
     30       4.7466      2.00000
     31       4.7600      2.00000
     32       4.7758      2.00000
     33       4.9164      2.00000
     34       5.0724      2.00000
     35       5.1304      2.00000
     36       5.7244      2.00000
     37       5.8574      2.00000
     38       6.2068      2.00000
     39       6.7136      2.00000
     40       6.8027      2.00000
     41       6.8302      2.00000
     42       6.9069      2.00000
     43       6.9846      2.00000
     44       7.0034      2.00000
     45       7.1901      2.00002
     46       7.7600      1.76733
     47       7.8917      0.77614
     48       7.9242      0.52274
     49       7.9454      0.37714
     50       8.0104      0.06210
     51       8.1061     -0.07080
     52       8.1873     -0.04506
     53       8.2568     -0.01822
     54       8.4698     -0.00016
     55       9.0436      0.00000
     56       9.2166      0.00000
     57       9.2360      0.00000
     58       9.3403      0.00000
     59       9.3409      0.00000
     60       9.4875      0.00000
     61       9.9581      0.00000
     62      10.0298      0.00000

 k-point   2 :      -0.2500    0.2500    0.2500
  band No.  band energies     occupation 
      1      -2.9702      2.00000
      2      -1.9700      2.00000
      3      -1.7646      2.00000
      4      -1.7104      2.00000
      5      -0.8064      2.00000
      6      -0.6910      2.00000
      7      -0.4930      2.00000
      8       0.2584      2.00000
      9       0.4189      2.00000
     10       0.5106      2.00000
     11       0.5446      2.00000
[...]
      26 -73.0512      27 -72.8838      28 -72.9979      29 -72.9531      30 -72.9892
      31 -72.9892
 
 
 
 E-fermi :   7.8742     XC(G=0): -10.0490     alpha+bet :-14.3870
   add alpha+bet to get absolut eigen values

 k-point   1 :       0.2500    0.2500    0.2500
  band No.  band energies     occupation 
      1      -2.9370      2.00000
      2      -1.9054      2.00000
      3      -1.8205      2.00000
      4      -1.6630      2.00000
      5      -0.7746      2.00000
      6      -0.7147      2.00000
      7      -0.4688      2.00000
      8       0.3149      2.00000
      9       0.3665      2.00000
     10       0.4170      2.00000
     11       0.6282      2.00000
     12       1.4062      2.00000
     13       1.4278      2.00000
     14       1.4638      2.00000
     15       1.5264      2.00000
     16       1.7316      2.00000
     17       1.8552      2.00000
     18       2.5883      2.00000
     19       2.6581      2.00000
     20       2.7457      2.00000
     21       3.5472      2.00000
     22       3.5960      2.00000
     23       3.6477      2.00000
     24       3.6952      2.00000
     25       3.7311      2.00000
     26       4.0725      2.00000
     27       4.5941      2.00000
     28       4.6142      2.00000
     29       4.6637      2.00000
     30       4.7450      2.00000
     31       4.7509      2.00000
     32       4.7743      2.00000
     33       4.9040      2.00000
     34       5.0715      2.00000
     35       5.0971      2.00000
     36       5.7547      2.00000
     37       5.8455      2.00000
     38       6.1624      2.00000
     39       6.7553      2.00000
     40       6.8233      2.00000
     41       6.8397      2.00000
     42       6.9130      2.00000
     43       6.9784      2.00000
     44       7.0003      2.00000
     45       7.1395      2.00000
     46       7.7916      1.63757
     47       7.9145      0.66693
     48       7.9180      0.63940
     49       7.9489      0.41399
     50       8.0270      0.03952
     51       8.1197     -0.07091
     52       8.2087     -0.03955
     53       8.2456     -0.02469
     54       8.4315     -0.00059
     55       9.0965      0.00000
     56       9.1923      0.00000
     57       9.2403      0.00000
     58       9.3404      0.00000
     59       9.3480      0.00000
     60       9.4596      0.00000
     61       9.9630      0.00000
     62      10.0140      0.00000

 k-point   2 :      -0.2500    0.2500    0.2500
  band No.  band energies     occupation 
      1      -2.9373      2.00000
      2      -1.9149      2.00000
      3      -1.7408      2.00000
      4      -1.7398      2.00000
      5      -0.7918      2.00000
      6      -0.6280      2.00000
      7      -0.5532      2.00000
      8       0.3055      2.00000
      9       0.4271      2.00000
     10       0.4771      2.00000
     11       0.5638      2.00000
     12       1.4129      2.00000
     13       1.4531      2.00000
     14       1.4560      2.00000
     15       1.5505      2.00000
     16       1.5631      2.00000
     17       1.8990      2.00000
     18       2.5440      2.00000
     19       2.6989      2.00000
     20       2.8387      2.00000
     21       3.5699      2.00000
     22       3.6033      2.00000
     23       3.6890      2.00000
     24       3.6953      2.00000
     25       3.7760      2.00000
     26       3.8737      2.00000
     27       4.5664      2.00000
     28       4.6496      2.00000
     29       4.6601      2.00000
     30       4.7080      2.00000
     31       4.7711      2.00000
     32       4.7887      2.00000
     33       4.9684      2.00000
     34       5.0112      2.00000
     35       5.1444      2.00000
     36       5.7224      2.00000
     37       5.9069      2.00000
     38       6.1528      2.00000
     39       6.7324      2.00000
     40       6.8041      2.00000
     41       6.8369      2.00000
     42       6.9096      2.00000
     43       6.9749      2.00000
     44       6.9963      2.00000
     45       7.0850      2.00000
     46       7.8111      1.50562
     47       7.8662      1.06775
     48       7.9636      0.32088
     49       8.0237      0.04934
     50       8.1240     -0.07074
     51       8.1526     -0.06412
     52       8.2279     -0.03136
     53       8.2334     -0.02917
     54       8.3024     -0.00987
     55       9.1313      0.00000
     56       9.1761      0.00000
     57       9.1872      0.00000
     58       9.3236      0.00000
     59       9.3568      0.00000
     60       9.5401      0.00000
     61       9.9367      0.00000
     62       9.9863      0.00000


--------------------------------------------------------------------------------------------------------


 soft charge-density along one line, spin component           1
         0         1         2         3         4         5         6         7         8         9
 total charge-density along one line
 
 pseudopotential strength for first ion, spin component:           1
  8.461  -0.006   0.000   0.000   0.000   0.000   0.000   0.000
 -0.006   0.000   0.000   0.000   0.000   0.000   0.000   0.000
  0.000   0.000   1.990   0.000   0.000  -0.026   0.000   0.000
  0.000   0.000   0.000   1.990   0.000   0.000  -0.026   0.000
  0.000   0.000   0.000   0.000   1.990   0.000   0.000  -0.026
  0.000   0.000  -0.026   0.000   0.000  -0.012   0.000   0.000
  0.000   0.000   0.000  -0.026   0.000   0.000  -0.012   0.000
  0.000   0.000   0.000   0.000  -0.026   0.000   0.000  -0.012
 total augmentation occupancy for first ion, spin component:           1
  1.445  -0.485   0.000   0.000   0.000   0.000   0.000   0.000
 -0.485   0.416   0.000   0.000   0.000   0.000   0.000   0.000
  0.000   0.000   0.911   0.000   0.000  -0.224   0.000   0.000
  0.000   0.000   0.000   0.605  -0.174   0.000  -0.131   0.048
  0.000   0.000   0.000  -0.174   0.605   0.000   0.048  -0.131
  0.000   0.000  -0.224   0.000   0.000   0.060   0.000   0.000
  0.000   0.000   0.000  -0.131   0.048   0.000   0.034  -0.015
  0.000   0.000   0.000   0.048  -0.131   0.000  -0.015   0.034


------------------------ aborting loop because EDIFF is reached ----------------------------------------




--------------------------------------------------------------------------------------------------------



  FREE ENERGIE OF THE ION-ELECTRON SYSTEM (eV)
  ---------------------------------------------------
  free  energy   TOTEN  =      -114.015880 eV

  energy  without entropy=     -113.940614  energy(sigma->0) =     -113.990791
 
    CHARGE:  cpu time    1.64: real time    1.64
    FORLOC:  cpu time    0.68: real time    0.68
    FORNL :  cpu time    5.82: real time    5.82
    STRESS:  cpu time   39.14: real time   10.39
    FORCOR:  cpu time    2.41: real time    2.41
    FORHAR:  cpu time    1.09: real time    1.09
    MIXING:  cpu time    0.06: real time    0.06

  FORCE on cell =-STRESS in cart. coord.  units (eV):
  Direction    XX          YY          ZZ          XY          YZ          ZX
  --------------------------------------------------------------------------------------
  Alpha Z    -6.10293    -6.10293    -6.10293
  Ewald    -748.74371  -735.96556  -748.74371     0.00000     0.00000    -8.90901
  Hartree     7.08593     3.14495     7.08593     0.00000     0.00000    -0.83470
  E(xc)    -264.21842  -264.69817  -264.21842     0.00000     0.00000     0.08608
  Local      -5.47237   -15.50507    -5.47237     0.00000     0.00000    10.06890
  n-local   586.64901   592.57608   586.64895     0.13543    -0.80137    -1.34790
  augment   -31.72405   -32.00868   -31.72404    -0.00001    -0.00001     0.10809
  Kinetic   461.03801   460.33435   461.03790     0.13181    -1.29023    -0.41011
  Fock        0.00000     0.00000     0.00000     0.00000     0.00000     0.00000
  -------------------------------------------------------------------------------------
  Total      -1.48861     1.77497    -1.48861     0.00000     0.00000    -1.23864
  in kB      -4.50941     5.37689    -4.50941     0.00000     0.00000    -3.75220
  external pressure =       -1.21 kB  Pullay stress =        0.00 kB


 VOLUME and BASIS-vectors are now :
 -----------------------------------------------------------------------------
  energy-cutoff  :      300.00
  volume of cell :      528.90
      direct lattice vectors                 reciprocal lattice vectors
     8.087054000  0.000000000  0.000000000     0.123654423  0.000000000  0.000000000
     0.000000000  8.087054000  0.000000000     0.000000000  0.123654423  0.000000000
     0.000000000  0.000000000  8.087054000     0.000000000  0.000000000  0.123654423

  length of vectors
     8.087054000  8.087054000  8.087054000     0.123654423  0.123654423  0.123654423


 FORCES acting on ions
    electron-ion (+dipol)            ewald-force                    non-local-force                 convergence-correction
 -----------------------------------------------------------------------------------------------
   -.177E-02 -.762E-14 -.177E-02   0.167E-02 0.211E-14 0.167E-02   0.913E-04 0.000E+00 0.913E-04   -.733E-05 0.105E-12 -.733E-05
   -.122E+01 -.197E-13 -.122E+01   0.126E+01 0.189E-14 0.126E+01   -.388E-01 0.000E+00 -.388E-01   0.238E-02 -.510E-14 0.238E-02
   -.215E+00 -.584E-14 -.215E+00   0.316E+00 0.155E-14 0.316E+00   -.111E+00 0.000E+00 -.111E+00   0.923E-03 -.513E-13 0.924E-03
   -.123E+01 -.789E+01 -.526E+01   0.861E+00 0.793E+01 0.524E+01   0.371E+00 0.118E-01 0.687E-01   -.596E-04 0.448E-02 -.694E-03
   -.526E+01 -.789E+01 -.123E+01   0.524E+01 0.793E+01 0.861E+00   0.687E-01 0.118E-01 0.371E+00   -.694E-03 0.448E-02 -.592E-04
   0.119E+01 0.574E-13 -.628E+00   -.131E+01 -.505E-14 0.277E+00   0.152E+00 0.000E+00 0.312E+00   -.388E-02 -.514E-14 0.494E-03
   0.628E+00 -.358E-13 -.119E+01   -.277E+00 -.129E-13 0.131E+01   -.312E+00 0.000E+00 -.152E+00   -.452E-03 -.168E-13 0.384E-02
   0.601E+00 -.341E+01 -.600E+00   -.715E+00 0.345E+01 0.714E+00   0.931E-01 -.160E-01 -.930E-01   0.740E-03 0.881E-02 -.756E-03
   0.350E+01 -.574E+01 -.350E+01   -.340E+01 0.620E+01 0.340E+01   -.776E-01 -.517E+00 0.778E-01   -.751E-03 0.141E-02 0.748E-03
   -.633E+01 -.189E-13 -.633E+01   0.616E+01 0.777E-14 0.616E+01   0.168E+00 0.000E+00 0.168E+00   -.969E-03 0.170E-13 -.969E-03
   -.123E+01 0.789E+01 -.526E+01   0.861E+00 -.793E+01 0.524E+01   0.371E+00 -.118E-01 0.687E-01   -.596E-04 -.448E-02 -.694E-03
   -.526E+01 0.789E+01 -.123E+01   0.524E+01 -.793E+01 0.861E+00   0.687E-01 -.118E-01 0.371E+00   -.694E-03 -.448E-02 -.592E-04
   0.489E+01 -.856E-13 -.249E+01   -.512E+01 -.300E-14 0.238E+01   0.239E+00 0.000E+00 0.142E+00   0.150E-02 0.493E-13 -.334E-02
   0.250E+01 -.397E-13 -.489E+01   -.238E+01 -.522E-14 0.513E+01   -.142E+00 0.000E+00 -.238E+00   0.332E-02 0.537E-13 -.148E-02
   0.601E+00 0.341E+01 -.600E+00   -.715E+00 -.345E+01 0.714E+00   0.931E-01 0.160E-01 -.930E-01   0.740E-03 -.881E-02 -.756E-03
   0.350E+01 0.574E+01 -.350E+01   -.340E+01 -.620E+01 0.340E+01   -.776E-01 0.517E+00 0.778E-01   -.751E-03 -.141E-02 0.748E-03
   -.628E+00 -.703E-14 0.119E+01   0.277E+00 -.577E-14 -.131E+01   0.312E+00 0.000E+00 0.152E+00   0.493E-03 -.164E-13 -.388E-02
   -.119E+01 -.217E-13 0.628E+00   0.131E+01 -.139E-14 -.277E+00   -.152E+00 0.000E+00 -.312E+00   0.384E-02 -.225E-13 -.452E-03
   -.350E+01 -.574E+01 0.350E+01   0.340E+01 0.620E+01 -.340E+01   0.778E-01 -.517E+00 -.776E-01   0.748E-03 0.141E-02 -.752E-03
   -.600E+00 -.341E+01 0.601E+00   0.714E+00 0.345E+01 -.715E+00   -.930E-01 -.160E-01 0.931E-01   -.757E-03 0.881E-02 0.740E-03
   0.213E+00 0.655E-13 0.213E+00   -.314E+00 -.666E-14 -.314E+00   0.111E+00 0.000E+00 0.111E+00   -.965E-03 -.766E-13 -.965E-03
   0.122E+01 0.289E-13 0.122E+01   -.126E+01 -.389E-14 -.126E+01   0.385E-01 0.000E+00 0.385E-01   -.234E-02 -.586E-14 -.234E-02
   0.527E+01 -.789E+01 0.123E+01   -.524E+01 0.793E+01 -.859E+00   -.690E-01 0.122E-01 -.370E+00   0.705E-03 0.455E-02 0.730E-04
   0.123E+01 -.789E+01 0.527E+01   -.859E+00 0.793E+01 -.524E+01   -.370E+00 0.122E-01 -.690E-01   0.734E-04 0.455E-02 0.705E-03
   -.249E+01 -.381E-13 0.489E+01   0.238E+01 -.805E-14 -.512E+01   0.142E+00 0.000E+00 0.239E+00   -.334E-02 0.444E-13 0.150E-02
   -.489E+01 -.711E-13 0.250E+01   0.513E+01 0.666E-15 -.238E+01   -.238E+00 0.000E+00 -.142E+00   -.148E-02 0.452E-13 0.332E-02
   -.350E+01 0.574E+01 0.350E+01   0.340E+01 -.620E+01 -.340E+01   0.778E-01 0.517E+00 -.776E-01   0.748E-03 -.141E-02 -.752E-03
   -.600E+00 0.341E+01 0.601E+00   0.714E+00 -.345E+01 -.715E+00   -.930E-01 0.160E-01 0.931E-01   -.757E-03 -.881E-02 0.740E-03
   0.633E+01 0.501E-13 0.633E+01   -.616E+01 0.500E-15 -.616E+01   -.169E+00 0.000E+00 -.169E+00   0.928E-03 0.504E-13 0.927E-03
   0.527E+01 0.789E+01 0.123E+01   -.524E+01 -.793E+01 -.859E+00   -.690E-01 -.122E-01 -.370E+00   0.705E-03 -.455E-02 0.730E-04
   0.123E+01 0.789E+01 0.527E+01   -.859E+00 -.793E+01 -.524E+01   -.370E+00 -.122E-01 -.690E-01   0.734E-04 -.455E-02 0.705E-03
 -----------------------------------------------------------------------------------------------
   -.174E-03 -.201E-12 -.174E-03   -.124E-13 -.417E-13 0.204E-13   0.196E-03 -.114E-15 0.196E-03   -.355E-04 -.901E-13 -.355E-04
 
 
 POSITION                                       TOTAL-FORCE (eV/Angst)
 -----------------------------------------------------------------------------------
      3.03265      4.04353      3.03265        -0.000020      0.000000     -0.000020
      8.08464      0.00000      8.08464         0.004996      0.000000      0.004996
      2.00935      0.00000      2.00935        -0.009106      0.000000     -0.009106
      2.00658      2.04889      0.01925        -0.002950      0.050915      0.039771
      0.01925      2.04889      2.00658         0.039771      0.050915     -0.002950
      4.04779      0.00000      8.03107         0.028402      0.000000     -0.038978
      6.12128      0.00000      2.01750         0.038987      0.000000     -0.028375
      6.07612      2.02832     -0.01083        -0.020770      0.038006      0.020772
      4.09654      1.91640      1.96874         0.020275     -0.053958     -0.020180
      0.00742      4.04353      0.00742        -0.000938      0.000000     -0.000938
      2.00658      6.03816      0.01925        -0.002950     -0.050915      0.039771
      0.01925      6.03816      2.00658         0.039771     -0.050915     -0.002950
      4.00169      4.04353      0.04377         0.002931      0.000000      0.022662
      6.02162      4.04353      2.06355        -0.022796      0.000000     -0.002742
      6.07612      6.05874     -0.01083        -0.020770     -0.038006      0.020772
      4.09654      6.17066      1.96874         0.020275      0.053958     -0.020180
      8.03107      0.00000      4.04779        -0.038978      0.000000      0.028402
      2.01750      0.00000      6.12128        -0.028375      0.000000      0.038987
      1.96874      1.91640      4.09654        -0.020180     -0.053958      0.020275
     -0.01083      2.02832      6.07612         0.020772      0.038006     -0.020770
      4.05593      0.00000      4.05593         0.009200      0.000000      0.009200
      6.06773      0.00000      6.06773        -0.005092      0.000000     -0.005092
      6.04608      2.04888      4.05871        -0.039898      0.051036      0.003024
      4.05871      2.04888      6.04608         0.003024      0.051036     -0.039898
      0.04377      4.04353      4.00169         0.022662      0.000000      0.002931
      2.06355      4.04353      6.02162        -0.002742      0.000000     -0.022796
      1.96874      6.17066      4.09654        -0.020180      0.053958      0.020275
     -0.01083      6.05874      6.07612         0.020772     -0.038006     -0.020770
      6.05792      4.04353      6.05792         0.000782      0.000000      0.000782
      6.04608      6.03817      4.05871        -0.039898     -0.051036      0.003024
      4.05871      6.03817      6.04608         0.003024     -0.051036     -0.039898
 -----------------------------------------------------------------------------------
    total drift:                               -0.000013      0.000000     -0.000013
 d Force = 0.8980392E-02[ 0.662E-02, 0.113E-01]  d Energy = 0.9029300E-02-0.489E-04
 d Force = 0.5356848E+00[ 0.514E+00, 0.558E+00]  d Ewald  = 0.5356768E+00 0.793E-05


--------------------------------------------------------------------------------------------------------


    POTLOK:  cpu time    1.97: real time    1.95


--------------------------------------------------------------------------------------------------------


 NEB: the previous image is higher in energy: F
 NEB: the next image is higher in energy    : F
 NEB: image is at an extrema
 NEB: diff energy (min, max):   114.015880  114.015880

 NEB: Tangent
 ----------------------------------------------
      0.70587      0.00000      0.70587
     -0.00150      0.00000     -0.00150
      0.00159      0.00000      0.00159
      0.00159      0.01105      0.00946
      0.00946      0.01105      0.00159
      0.00150      0.00000     -0.00150
     -0.00159      0.00000      0.00159
     -0.00159      0.00008     -0.00150
     -0.00946      0.00012     -0.00934
      0.00946      0.00000      0.00946
      0.00159     -0.01105      0.00946
      0.00946     -0.01105      0.00159
     -0.00946      0.00000      0.00946
      0.00934      0.00000     -0.00934
     -0.00159     -0.00008     -0.00150
     -0.00946     -0.00012     -0.00934
     -0.00150      0.00000      0.00150
      0.00159      0.00000     -0.00159
     -0.00934      0.00012     -0.00946
     -0.00150      0.00008     -0.00159
      0.00150      0.00000      0.00150
     -0.00159      0.00000     -0.00159
      0.00934     -0.01084      0.00150
      0.00150     -0.01084      0.00934
      0.00946      0.00000     -0.00946
     -0.00934      0.00000      0.00934
     -0.00934     -0.00012     -0.00946
     -0.00150     -0.00008     -0.00159
      0.00934      0.00000      0.00934
      0.00934      0.01084      0.00150
      0.00150      0.01084      0.00934

 NEB: forces: par spring, perp REAL, dneb     0.001440    0.263711    0.000000
 NEB: distance to prev, next image, angle between     1.440355    1.440067  151.201401
 NEB: projections on to tangent (spring, REAL)    -0.001440   -0.000013

  FORCES: max atom, RMS     0.064851    0.047364
  FORCE total and by dimension    0.263711    0.053958
 Quasi-Newton relaxation of ions (Broydens 2nd method)
  g(Force)  = 0.335E-02   g(Stress)= 0.000E+00

 retain information from N=  1 steps
 eigenvalues of (default step * inverse Hessian matrix)
  average eigenvalue of G=   3.7397
 eigenvalue spectrum of G is  3.7397


--------------------------------------------------------------------------------------------------------


  
 reached required accuracy - stopping structural energy minimisation
     LOOP+:  cpu time  197.15: real time   77.95
    4ORBIT:  cpu time    0.00: real time    0.00

 total amount of memory used by VASP on root node 125108. kBytes
========================================================================

   base      :    30000. kBytes
   nonl-proj :     3892. kBytes
   fftplans  :    30736. kBytes
   grid      :    47517. kBytes
   one-center:       95. kBytes
   wavefun   :    12868. kBytes
 
  
  
 General timing and accounting informations for this job:
 ========================================================
  
                  Total CPU time used (sec):     1457.753
                            User time (sec):     1441.091
                          System time (sec):       16.662
                         Elapsed time (sec):      562.020
  
                   Maximum memory used (kb):           0.
                   Average memory used (kb):           0.
  
                          Minor page faults:       292728
                          Major page faults:            0
                 Voluntary context switches:         8095
