<?xml version="1.0" encoding="ISO-8859-1"?>
<modeling>
 <generator>
  <i name="program" type="string">vasp </i>
  <i name="version" type="string">5.2.2  </i>
  <i name="subversion" type="string">15Apr09 complex  parallel </i>
  <i name="platform" type="string">LinuxIFC </i>
  <i name="date" type="string">2013 06 14 </i>
  <i name="time" type="string">22:44:13 </i>
 </generator>
 <incar>
  <i type="string" name="PREC">accurate</i>
  <i type="int" name="IBRION">     2</i>
  <i type="int" name="NSW">   191</i>
  <i type="int" name="ISIF">     3</i>
  <i name="ENCUT">    334.88375000</i>
  <i type="int" name="ISMEAR">     1</i>
  <i name="SIGMA">      0.20000000</i>
  <i type="logical" name="LWAVE"> F  </i>
  <i type="logical" name="LCHARG"> F  </i>
  <i type="logical" name="LPEAD"> F  </i>
  <i type="logical" name="LCALCPOL"> F  </i>
  <i type="logical" name="LCALCEPS"> F  </i>
  <v name="EFIELD_PEAD">      0.00000000      0.00000000      0.00000000</v>
  <i type="logical" name="LEFG"> F  </i>
 </incar>
 <kpoints>
  <generation param="Gamma">
   <v type="int" name="divisions">       1        1        1 </v>
   <v name="usershift">      0.00000000       0.00000000       0.00000000 </v>
   <v name="genvec1">      1.00000000       0.00000000       0.00000000 </v>
   <v name="genvec2">      0.00000000       1.00000000       0.00000000 </v>
   <v name="genvec3">      0.00000000       0.00000000       1.00000000 </v>
   <v name="shift">      0.00000000       0.00000000       0.00000000 </v>
  </generation>
  <varray name="kpointlist" >
   <v>       0.00000000       0.00000000       0.00000000 </v>
  </varray>
  <varray name="weights" >
   <v>       1.00000000 </v>
  </varray>
 </kpoints>
 <parameters>
  <separator name="general" >
   <i type="string" name="SYSTEM">unknown system</i>
   <i type="logical" name="LCOMPAT"> F  </i>
  </separator>
  <separator name="electronic" >
   <i type="string" name="PREC">accura</i>
   <i name="ENMAX">    334.88375000</i>
   <i name="ENAUG">    511.36800000</i>
   <i name="EDIFF">      0.00010000</i>
   <i type="int" name="IALGO">    38</i>
   <i type="int" name="IWAVPR">    11</i>
   <i type="int" name="NBANDS">    20</i>
   <i name="NELECT">     32.00000000</i>
   <separator name="electronic smearing" >
    <i type="int" name="ISMEAR">     1</i>
    <i name="SIGMA">      0.20000000</i>
   </separator>
   <separator name="electronic projectors" >
    <i type="logical" name="LREAL"> F  </i>
    <v name="ROPT">      0.00000000</v>
    <i type="int" name="LMAXPAW">  -100</i>
    <i type="int" name="LMAXMIX">     2</i>
   </separator>
   <separator name="electronic startup" >
    <i type="int" name="ISTART">     0</i>
    <i type="int" name="ICHARG">     2</i>
    <i type="int" name="INIWAV">     1</i>
   </separator>
   <separator name="electronic spin" >
    <i type="int" name="ISPIN">     1</i>
    <i type="logical" name="LNONCOLLINEAR"> F  </i>
    <v name="MAGMOM">      1.00000000      1.00000000      1.00000000      1.00000000</v>
    <i name="NUPDOWN">     -1.00000000</i>
    <i type="logical" name="LSORBIT"> F  </i>
    <v name="SAXIS">      0.00000000      0.00000000      1.00000000</v>
    <i type="logical" name="LSPIRAL"> F  </i>
    <v name="QSPIRAL">      0.00000000      0.00000000      0.00000000</v>
    <i type="logical" name="LZEROZ"> F  </i>
   </separator>
   <separator name="electronic exchange-correlation" >
    <i type="logical" name="LASPH"> F  </i>
    <i type="logical" name="LMETAGGA"> F  </i>
   </separator>
   <separator name="electronic convergence" >
    <i type="int" name="NELM">    60</i>
    <i type="int" name="NELMDL">    -5</i>
    <i type="int" name="NELMIN">     2</i>
    <i name="ENINI">    334.88375000</i>
    <separator name="electronic convergence detail" >
     <i type="logical" name="LDIAG"> T  </i>
     <i name="WEIMIN">      0.00100000</i>
     <i name="EBREAK">      0.00000125</i>
     <i name="DEPER">      0.30000000</i>
     <i type="int" name="NRMM">     4</i>
     <i name="TIME">      0.40000000</i>
    </separator>
   </separator>
   <separator name="electronic mixer" >
    <i name="AMIX">      0.40000000</i>
    <i name="BMIX">      1.00000000</i>
    <i name="AMIN">      0.10000000</i>
    <i name="AMIX_MAG">      1.60000000</i>
    <i name="BMIX_MAG">      1.00000000</i>
    <separator name="electronic mixer details" >
     <i type="int" name="IMIX">     4</i>
     <i type="int" name="MAXMIX">   -45</i>
     <i name="WC">    100.00000000</i>
     <i type="int" name="INIMIX">     1</i>
     <i type="int" name="MIXPRE">     1</i>
     <i type="int" name="MREMOVE">     5</i>
    </separator>
   </separator>
   <separator name="electronic dipolcorrection" >
    <i type="logical" name="LDIPOL"> F  </i>
    <i type="logical" name="LMONO"> F  </i>
    <i type="int" name="IDIPOL">     0</i>
    <i name="EPSILON">      1.00000000</i>
    <v name="DIPOL">   -100.00000000   -100.00000000   -100.00000000</v>
    <i name="EFIELD">      0.00000000</i>
   </separator>
  </separator>
  <separator name="grids" >
   <i type="int" name="NGX">    24</i>
   <i type="int" name="NGY">    24</i>
   <i type="int" name="NGZ">    24</i>
   <i type="int" name="NGXF">    48</i>
   <i type="int" name="NGYF">    48</i>
   <i type="int" name="NGZF">    48</i>
   <i type="logical" name="ADDGRID"> F  </i>
  </separator>
  <separator name="ionic" >
   <i type="int" name="NSW">   191</i>
   <i type="int" name="IBRION">     2</i>
   <i type="int" name="ISIF">     3</i>
   <i name="PSTRESS">      0.00000000</i>
   <i name="EDIFFG">      0.00100000</i>
   <i type="int" name="NFREE">     1</i>
   <i name="POTIM">      0.50000000</i>
   <i name="SMASS">     -3.00000000</i>
  </separator>
  <separator name="ionic md" >
   <i name="TEBEG">      0.00010000</i>
   <i name="TEEND">      0.00010000</i>
   <i type="int" name="NBLOCK">     1</i>
   <i type="int" name="KBLOCK">   191</i>
   <i type="int" name="NPACO">   256</i>
   <i name="APACO">     16.00000000</i>
  </separator>
  <separator name="symmetry" >
   <i type="int" name="ISYM">     2</i>
   <i name="SYMPREC">      0.00001000</i>
  </separator>
  <separator name="dos" >
   <i type="logical" name="LORBIT"> F  </i>
   <v name="RWIGS">     -1.00000000</v>
   <i type="int" name="NEDOS">   301</i>
   <i name="EMIN">     10.00000000</i>
   <i name="EMAX">    -10.00000000</i>
   <i name="EFERMI">      0.00000000</i>
  </separator>
  <separator name="writing" >
   <i type="int" name="NWRITE">     2</i>
   <i type="logical" name="LWAVE"> F  </i>
   <i type="logical" name="LCHARG"> F  </i>
   <i type="logical" name="LPARD"> F  </i>
   <i type="logical" name="LVTOT"> F  </i>
   <i type="logical" name="LELF"> F  </i>
   <i type="logical" name="LOPTICS"> F  </i>
   <v name="STM">      0.00000000      0.00000000      0.00000000      0.00000000      0.00000000</v>
  </separator>
  <separator name="performance" >
   <i type="int" name="NPAR">     1</i>
   <i type="int" name="NSIM">     4</i>
   <i type="int" name="NBLK">    32</i>
   <i type="logical" name="LPLANE"> T  </i>
   <i type="logical" name="LSCALAPACK"> F  </i>
   <i type="logical" name="LSCAAWARE"> F  </i>
   <i type="logical" name="LSCALU"> F  </i>
   <i type="logical" name="LASYNC"> F  </i>
  </separator>
  <separator name="miscellaneous" >
   <i type="int" name="IDIOT">     3</i>
   <i type="logical" name="LMUSIC"> F  </i>
   <v name="POMASS">     55.84700000</v>
   <i type="logical" name="LCORR"> T  </i>
  </separator>
  <i type="logical" name="LREAL_COMPAT"> F  </i>
  <i type="logical" name="GGA_COMPAT"> T  </i>
  <i type="logical" name="LBERRY"> F  </i>
  <i type="int" name="ICORELEVEL">     0</i>
  <i type="logical" name="LDAU"> F  </i>
  <i type="int" name="I_CONSTRAINED_M">     0</i>
  <separator name="electronic exchange-correlation" >
   <i type="string" name="GGA">--</i>
   <i type="int" name="VOSKOWN">     0</i>
   <i type="logical" name="LHFCALC"> F  </i>
   <i type="logical" name="LHFONE"> F  </i>
   <i type="logical" name="LRHFCALC"> F  </i>
   <i type="logical" name="LTHOMAS"> F  </i>
   <i type="logical" name="LMODELHF"> F  </i>
   <i name="ENCUTFOCK">      0.00000000</i>
   <i name="ENCUT4O">     -1.00000000</i>
   <i type="int" name="EXXOEP">     0</i>
   <i type="int" name="FOURORBIT">     0</i>
   <i name="AEXX">      0.00000000</i>
   <i name="HFALPHA">      0.00000000</i>
   <i name="ALDAX">      1.00000000</i>
   <i name="AGGAX">      1.00000000</i>
   <i name="ALDAC">      1.00000000</i>
   <i name="AGGAC">      1.00000000</i>
   <i type="int" name="NKREDX">     1</i>
   <i type="int" name="NKREDY">     1</i>
   <i type="int" name="NKREDZ">     1</i>
   <i type="logical" name="SHIFTRED"> F  </i>
   <i type="logical" name="ODDONLY"> F  </i>
   <i type="logical" name="EVENONLY"> F  </i>
   <i type="int" name="LMAXFOCK">     0</i>
   <i type="int" name="NMAXFOCKAE">     0</i>
   <i name="HFSCREEN">      0.00000000</i>
   <i name="HFSCREENC">      0.00000000</i>
  </separator>
  <separator name="model GW" >
   <i type="int" name="MODEL_GW">     0</i>
   <i name="MODEL_EPS0">      6.99840000</i>
   <i name="MODEL_ALPHA">      1.00000000</i>
  </separator>
  <separator name="linear response parameters" >
   <i type="logical" name="LEPSILON"> F  </i>
   <i type="logical" name="LRPA"> F  </i>
   <i type="logical" name="LNABLA"> F  </i>
   <i type="logical" name="LVEL"> F  </i>
   <i type="int" name="KINTER">     0</i>
   <i name="CSHIFT">      0.10000000</i>
   <i name="OMEGAMAX">     -1.00000000</i>
  </separator>
  <separator name="orbital magnetization" >
   <i type="logical" name="ORBITALMAG"> F  </i>
   <i type="logical" name="LMAGBLOCH"> F  </i>
   <i type="logical" name="LCHIMAG"> F  </i>
   <i type="logical" name="LGAUGE"> T  </i>
   <i type="int" name="MAGATOM">     0</i>
   <v name="MAGDIPOL">      0.00000000      0.00000000      0.00000000</v>
   <v name="AVECCONST">      0.00000000      0.00000000      0.00000000</v>
  </separator>
  <separator name="response functions" >
   <i type="logical" name="LRPA"> T  </i>
   <i type="logical" name="LTCTE"> F  </i>
   <i type="logical" name="LTETE"> F  </i>
   <i type="logical" name="L2ORDER"> F  </i>
   <i type="logical" name="LGWLF"> F  </i>
   <i name="ENCUTGW">    223.25583333</i>
   <i name="ENCUTGWSOFT">     -2.00000000</i>
   <i name="ENCUTLF">     -1.00000000</i>
   <i type="int" name="LMAXMP2">    -1</i>
   <i name="SCISSOR">      0.00000000</i>
   <i type="int" name="NOMEGA">     0</i>
   <i type="int" name="NOMEGAR">     0</i>
   <i type="int" name="NBANDSGW">    -1</i>
   <i type="int" name="NBANDSLF">    -1</i>
   <i type="int" name="NELM">     1</i>
   <i type="int" name="DIM">     3</i>
   <i type="int" name="ANTIRES">     0</i>
   <i type="logical" name="LUSEW"> F  </i>
   <i name="OMEGAMAX">    -30.00000000</i>
   <i name="OMEGATL">   -200.00000000</i>
   <i type="int" name="OMEGAGRID">     0</i>
   <i name="CSHIFT">     -0.10000000</i>
   <i type="logical" name="SELFENERGY"> F  </i>
   <i type="logical" name="LSPECTRAL"> F  </i>
   <i type="logical" name="ODDONLYGW"> F  </i>
   <i type="logical" name="EVENONLYGW"> F  </i>
   <i type="int" name="NKREDLFX">     1</i>
   <i type="int" name="NKREDLFY">     1</i>
   <i type="int" name="NKREDLFZ">     1</i>
   <i type="int" name="MAXMEM">  1024</i>
   <i type="int" name="TELESCOPE">     0</i>
  </separator>
 </parameters>
 <atominfo>
  <atoms>       4 </atoms>
  <types>       1 </types>
  <array name="atoms" >
   <dimension dim="1">ion</dimension>
   <field type="string">element</field>
   <field type="int">atomtype</field>
   <set>
    <rc><c>Fe</c><c>   1</c></rc>
    <rc><c>Fe</c><c>   1</c></rc>
    <rc><c>Fe</c><c>   1</c></rc>
    <rc><c>Fe</c><c>   1</c></rc>
   </set>
  </array>
  <array name="atomtypes" >
   <dimension dim="1">type</dimension>
   <field type="int">atomspertype</field>
   <field type="string">element</field>
   <field>mass</field>
   <field>valence</field>
   <field type="string">pseudopotential</field>
   <set>
    <rc><c>   4</c><c>Fe</c><c>     55.84700000</c><c>      8.00000000</c><c> PAW_GGA Fe 03Mar1998                   </c></rc>
   </set>
  </array>
 </atominfo>
 <structure name="initialpos" >
  <crystal>
   <varray name="basis" >
    <v>       3.60000000       0.00000000       0.00000000 </v>
    <v>       0.00000000       3.60000000       0.00000000 </v>
    <v>       0.00000000       0.00000000       3.60000000 </v>
   </varray>
   <i name="volume">     46.65600000 </i>
   <varray name="rec_basis" >
    <v>       0.27777778       0.00000000       0.00000000 </v>
    <v>       0.00000000       0.27777778       0.00000000 </v>
    <v>       0.00000000       0.00000000       0.27777778 </v>
   </varray>
  </crystal>
  <varray name="positions" >
   <v>       0.00000000       0.00000000       0.00000000 </v>
   <v>       0.00000000       0.50000000       0.50000000 </v>
   <v>       0.50000000       0.00000000       0.50000000 </v>
   <v>       0.50000000       0.50000000       0.00000000 </v>
  </varray>
 </structure>
 <calculation>
  <scstep>
   <time name="dav">    0.62    0.16</time>
   <time name="total">    1.33    0.70</time>
   <energy>
    <i name="alphaZ">    235.53041701 </i>
    <i name="ewald">  -2347.41471136 </i>
    <i name="hartreedc">   -454.77841843 </i>
    <i name="XCdc">     14.20422536 </i>
    <i name="pawpsdc">   1918.52679501 </i>
    <i name="pawaedc">  -1949.62344792 </i>
    <i name="eentropy">      0.01169515 </i>
    <i name="bandstr">    416.90464363 </i>
    <i name="atom">   2382.15316232 </i>
    <i name="e_fr_energy">    215.51436076 </i>
    <i name="e_wo_entrp">    215.50266562 </i>
    <i name="e_0_energy">    215.51046238 </i>
   </energy>
  </scstep>
  <scstep>
   <time name="dav">    0.69    0.17</time>
   <time name="total">    0.70    0.18</time>
   <energy>
    <i name="e_fr_energy">    -12.34391202 </i>
    <i name="e_wo_entrp">    -12.35979132 </i>
    <i name="e_0_energy">    -12.34920512 </i>
   </energy>
  </scstep>
  <scstep>
   <time name="dav">    0.84    0.21</time>
   <time name="total">    0.85    0.21</time>
   <energy>
    <i name="e_fr_energy">    -27.08927689 </i>
    <i name="e_wo_entrp">    -27.07275543 </i>
    <i name="e_0_energy">    -27.08376974 </i>
   </energy>
  </scstep>
  <scstep>
   <time name="dav">    0.92    0.23</time>
   <time name="total">    0.93    0.23</time>
   <energy>
    <i name="e_fr_energy">    -28.19258542 </i>
    <i name="e_wo_entrp">    -28.13086164 </i>
    <i name="e_0_energy">    -28.17201083 </i>
   </energy>
  </scstep>
  <scstep>
   <time name="dav">    0.72    0.18</time>
   <time name="total">    0.91    0.26</time>
   <energy>
    <i name="e_fr_energy">    -28.29265478 </i>
    <i name="e_wo_entrp">    -28.22474781 </i>
    <i name="e_0_energy">    -28.27001913 </i>
   </energy>
  </scstep>
  <scstep>
   <time name="dav">    0.77    0.20</time>
   <time name="total">    1.24    0.57</time>
   <energy>
    <i name="e_fr_energy">    -37.48444681 </i>
    <i name="e_wo_entrp">    -37.19492269 </i>
    <i name="e_0_energy">    -37.38793877 </i>
   </energy>
  </scstep>
  <scstep>
   <time name="dav">    0.59    0.16</time>
   <time name="total">    1.08    0.53</time>
   <energy>
    <i name="e_fr_energy">    -27.81730381 </i>
    <i name="e_wo_entrp">    -27.43895272 </i>
    <i name="e_0_energy">    -27.69118678 </i>
   </energy>
  </scstep>
  <scstep>
   <time name="dav">    0.59    0.16</time>
   <time name="total">    1.11    0.53</time>
   <energy>
    <i name="e_fr_energy">    -25.70457125 </i>
    <i name="e_wo_entrp">    -25.46636667 </i>
    <i name="e_0_energy">    -25.62516972 </i>
   </energy>
  </scstep>
  <scstep>
   <time name="dav">    0.59    0.16</time>
   <time name="total">    1.15    0.53</time>
   <energy>
    <i name="e_fr_energy">    -26.51574042 </i>
    <i name="e_wo_entrp">    -26.12877638 </i>
    <i name="e_0_energy">    -26.38675241 </i>
   </energy>
  </scstep>
  <scstep>
   <time name="dav">    0.62    0.16</time>
   <time name="total">    1.27    0.54</time>
   <energy>
    <i name="e_fr_energy">    -25.51565523 </i>
    <i name="e_wo_entrp">    -25.40832545 </i>
    <i name="e_0_energy">    -25.47987864 </i>
   </energy>
  </scstep>
  <scstep>
   <time name="dav">    0.62    0.16</time>
   <time name="total">    1.33    0.54</time>
   <energy>
    <i name="e_fr_energy">    -25.08650050 </i>
    <i name="e_wo_entrp">    -24.84286336 </i>
    <i name="e_0_energy">    -25.00528812 </i>
   </energy>
  </scstep>
  <scstep>
   <time name="dav">    0.81    0.21</time>
   <time name="total">    1.52    0.59</time>
   <energy>
    <i name="e_fr_energy">    -25.39484301 </i>
    <i name="e_wo_entrp">    -25.26300743 </i>
    <i name="e_0_energy">    -25.35089782 </i>
   </energy>
  </scstep>
  <scstep>
   <time name="dav">    0.62    0.16</time>
   <time name="total">    1.33    0.54</time>
   <energy>
    <i name="e_fr_energy">    -25.28432759 </i>
    <i name="e_wo_entrp">    -25.01158040 </i>
    <i name="e_0_energy">    -25.19341186 </i>
   </energy>
  </scstep>
  <scstep>
   <time name="dav">    0.62    0.16</time>
   <time name="total">    1.33    0.54</time>
   <energy>
    <i name="e_fr_energy">    -25.28200658 </i>
    <i name="e_wo_entrp">    -25.07634026 </i>
    <i name="e_0_energy">    -25.21345114 </i>
   </energy>
  </scstep>
  <scstep>
   <time name="dav">    0.62    0.16</time>
   <time name="total">    1.33    0.54</time>
   <energy>
    <i name="e_fr_energy">    -25.29179029 </i>
    <i name="e_wo_entrp">    -25.02287859 </i>
    <i name="e_0_energy">    -25.20215306 </i>
   </energy>
  </scstep>
  <scstep>
   <time name="dav">    0.62    0.16</time>
   <time name="total">    1.33    0.54</time>
   <energy>
    <i name="e_fr_energy">    -25.28981842 </i>
    <i name="e_wo_entrp">    -25.05110553 </i>
    <i name="e_0_energy">    -25.21024746 </i>
   </energy>
  </scstep>
  <scstep>
   <time name="dav">    0.58    0.15</time>
   <time name="total">    1.29    0.53</time>
   <energy>
    <i name="e_fr_energy">    -25.29128172 </i>
    <i name="e_wo_entrp">    -25.01972770 </i>
    <i name="e_0_energy">    -25.20076371 </i>
   </energy>
  </scstep>
  <scstep>
   <time name="dav">    0.40    0.11</time>
   <time name="total">    1.12    0.49</time>
   <energy>
    <i name="e_fr_energy">    -25.29103622 </i>
    <i name="e_wo_entrp">    -25.03892097 </i>
    <i name="e_0_energy">    -25.20699781 </i>
   </energy>
  </scstep>
  <scstep>
   <time name="dav">    0.49    0.13</time>
   <time name="total">    1.20    0.51</time>
   <energy>
    <i name="e_fr_energy">    -25.29146761 </i>
    <i name="e_wo_entrp">    -25.02124446 </i>
    <i name="e_0_energy">    -25.20139322 </i>
   </energy>
  </scstep>
  <scstep>
   <time name="dav">    0.40    0.11</time>
   <time name="total">    0.86    0.41</time>
   <energy>
    <i name="alphaZ">    235.53041701 </i>
    <i name="ewald">  -2347.41471136 </i>
    <i name="hartreedc">   -439.03131584 </i>
    <i name="XCdc">     13.68519281 </i>
    <i name="pawpsdc">   2175.88832208 </i>
    <i name="pawaedc">  -2206.86295705 </i>
    <i name="eentropy">     -0.25950798 </i>
    <i name="bandstr">    161.01993036 </i>
    <i name="atom">   2382.15316232 </i>
    <i name="e_fr_energy">    -25.29146765 </i>
    <i name="e_wo_entrp">    -25.03195966 </i>
    <i name="e_0_energy">    -25.20496499 </i>
   </energy>
  </scstep>
  <structure>
   <crystal>
    <varray name="basis" >
     <v>       3.60000000       0.00000000       0.00000000 </v>
     <v>       0.00000000       3.60000000       0.00000000 </v>
     <v>       0.00000000       0.00000000       3.60000000 </v>
    </varray>
    <i name="volume">     46.65600000 </i>
    <varray name="rec_basis" >
     <v>       0.27777778       0.00000000       0.00000000 </v>
     <v>       0.00000000       0.27777778       0.00000000 </v>
     <v>       0.00000000       0.00000000       0.27777778 </v>
    </varray>
   </crystal>
   <varray name="positions" >
    <v>       0.00000000       0.00000000       0.00000000 </v>
    <v>       0.00000000       0.50000000       0.50000000 </v>
    <v>       0.50000000       0.00000000       0.50000000 </v>
    <v>       0.50000000       0.50000000       0.00000000 </v>
   </varray>
  </structure>
  <varray name="forces" >
   <v>       0.00000000       0.00000000       0.00000000 </v>
   <v>       0.00000000       0.00000000       0.00000000 </v>
   <v>       0.00000000       0.00000000       0.00000000 </v>
   <v>       0.00000000       0.00000000       0.00000000 </v>
  </varray>
  <varray name="stress" >
   <v>      18.69145529       0.00000000       0.00000000 </v>
   <v>       0.00000000      18.69145529       0.00000000 </v>
   <v>       0.00000000       0.00000000      18.69145529 </v>
  </varray>
  <energy>
   <i name="e_fr_energy">    -25.29146765 </i>
   <i name="e_wo_entrp">    -25.20496499 </i>
   <i name="e_0_energy">     -0.25950798 </i>
  </energy>
  <time name="totalsc">   25.27   10.95</time>
 </calculation>
 <calculation>
  <scstep>
   <time name="dav">    0.62    0.16</time>
   <time name="total">    1.32    0.54</time>
   <energy>
    <i name="alphaZ">    230.95213704 </i>
    <i name="ewald">  -2332.10526845 </i>
    <i name="hartreedc">   -436.25973520 </i>
    <i name="XCdc">     12.95311365 </i>
    <i name="pawpsdc">   2176.16069501 </i>
    <i name="pawaedc">  -2207.14862548 </i>
    <i name="eentropy">     -0.25041044 </i>
    <i name="bandstr">    148.03549714 </i>
    <i name="atom">   2382.15316232 </i>
    <i name="e_fr_energy">    -25.50943440 </i>
    <i name="e_wo_entrp">    -25.25902397 </i>
    <i name="e_0_energy">    -25.42596426 </i>
   </energy>
  </scstep>
  <scstep>
   <time name="dav">    0.62    0.16</time>
   <time name="total">    1.16    0.54</time>
   <energy>
    <i name="e_fr_energy">    -25.54272196 </i>
    <i name="e_wo_entrp">    -25.33937271 </i>
    <i name="e_0_energy">    -25.47493887 </i>
   </energy>
  </scstep>
  <scstep>
   <time name="dav">    0.63    0.16</time>
   <time name="total">    1.17    0.54</time>
   <energy>
    <i name="e_fr_energy">    -25.34768801 </i>
    <i name="e_wo_entrp">    -25.11700523 </i>
    <i name="e_0_energy">    -25.27079375 </i>
   </energy>
  </scstep>
  <scstep>
   <time name="dav">    0.62    0.16</time>
   <time name="total">    1.23    0.54</time>
   <energy>
    <i name="e_fr_energy">    -25.27914667 </i>
    <i name="e_wo_entrp">    -25.00886540 </i>
    <i name="e_0_energy">    -25.18905291 </i>
   </energy>
  </scstep>
  <scstep>
   <time name="dav">    0.62    0.16</time>
   <time name="total">    1.30    0.54</time>
   <energy>
    <i name="e_fr_energy">    -25.27447874 </i>
    <i name="e_wo_entrp">    -24.98122184 </i>
    <i name="e_0_energy">    -25.17672644 </i>
   </energy>
  </scstep>
  <scstep>
   <time name="dav">    0.62    0.16</time>
   <time name="total">    1.33    0.54</time>
   <energy>
    <i name="e_fr_energy">    -25.27367762 </i>
    <i name="e_wo_entrp">    -25.00796604 </i>
    <i name="e_0_energy">    -25.18510709 </i>
   </energy>
  </scstep>
  <scstep>
   <time name="dav">    0.49    0.13</time>
   <time name="total">    1.20    0.51</time>
   <energy>
    <i name="e_fr_energy">    -25.27340402 </i>
    <i name="e_wo_entrp">    -24.98863347 </i>
    <i name="e_0_energy">    -25.17848050 </i>
   </energy>
  </scstep>
  <scstep>
   <time name="dav">    0.40    0.11</time>
   <time name="total">    0.86    0.41</time>
   <energy>
    <i name="alphaZ">    230.95213704 </i>
    <i name="ewald">  -2332.10526845 </i>
    <i name="hartreedc">   -444.98279946 </i>
    <i name="XCdc">     13.44935270 </i>
    <i name="pawpsdc">   2161.61850723 </i>
    <i name="pawaedc">  -2192.37766481 </i>
    <i name="eentropy">     -0.26996624 </i>
    <i name="bandstr">    156.28917872 </i>
    <i name="atom">   2382.15316232 </i>
    <i name="e_fr_energy">    -25.27336095 </i>
    <i name="e_wo_entrp">    -25.00339471 </i>
    <i name="e_0_energy">    -25.18337220 </i>
   </energy>
  </scstep>
  <structure>
   <crystal>
    <varray name="basis" >
     <v>       3.62363272       0.00000000       0.00000000 </v>
     <v>       0.00000000       3.62363272       0.00000000 </v>
     <v>       0.00000000       0.00000000       3.62363272 </v>
    </varray>
    <i name="volume">     47.58088527 </i>
    <varray name="rec_basis" >
     <v>       0.27596616       0.00000000       0.00000000 </v>
     <v>       0.00000000       0.27596616       0.00000000 </v>
     <v>       0.00000000       0.00000000       0.27596616 </v>
    </varray>
   </crystal>
   <varray name="positions" >
    <v>       0.00000000       0.00000000       0.00000000 </v>
    <v>       0.00000000       0.50000000       0.50000000 </v>
    <v>       0.50000000       0.00000000       0.50000000 </v>
    <v>       0.50000000       0.50000000       0.00000000 </v>
   </varray>
  </structure>
  <varray name="forces" >
   <v>       0.00000000       0.00000000       0.00000000 </v>
   <v>       0.00000000       0.00000000       0.00000000 </v>
   <v>       0.00000000       0.00000000       0.00000000 </v>
   <v>       0.00000000       0.00000000       0.00000000 </v>
  </varray>
  <varray name="stress" >
   <v>     -40.76762380       0.00000000       0.00000000 </v>
   <v>       0.00000000     -40.76762380       0.00000000 </v>
   <v>       0.00000000       0.00000000     -40.76762380 </v>
  </varray>
  <energy>
   <i name="e_fr_energy">    -25.27336095 </i>
   <i name="e_wo_entrp">    -25.18337220 </i>
   <i name="e_0_energy">     -0.26996624 </i>
  </energy>
  <time name="totalsc">   11.56    5.51</time>
 </calculation>
 <calculation>
  <scstep>
   <time name="dav">    0.62    0.16</time>
   <time name="total">    1.32    0.54</time>
   <energy>
    <i name="alphaZ">    234.09765089 </i>
    <i name="ewald">  -2342.64513743 </i>
    <i name="hartreedc">   -447.01138207 </i>
    <i name="XCdc">     13.96088335 </i>
    <i name="pawpsdc">   2161.62125835 </i>
    <i name="pawaedc">  -2192.40237845 </i>
    <i name="eentropy">     -0.21276428 </i>
    <i name="bandstr">    164.89342684 </i>
    <i name="atom">   2382.15316232 </i>
    <i name="e_fr_energy">    -25.54528047 </i>
    <i name="e_wo_entrp">    -25.33251619 </i>
    <i name="e_0_energy">    -25.47435904 </i>
   </energy>
  </scstep>
  <scstep>
   <time name="dav">    0.62    0.16</time>
   <time name="total">    1.16    0.54</time>
   <energy>
    <i name="e_fr_energy">    -26.49294532 </i>
    <i name="e_wo_entrp">    -26.23046918 </i>
    <i name="e_0_energy">    -26.40545328 </i>
   </energy>
  </scstep>
  <scstep>
   <time name="dav">    0.62    0.16</time>
   <time name="total">    1.16    0.54</time>
   <energy>
    <i name="e_fr_energy">    -25.51955644 </i>
    <i name="e_wo_entrp">    -25.30005351 </i>
    <i name="e_0_energy">    -25.44638880 </i>
   </energy>
  </scstep>
  <scstep>
   <time name="dav">    0.62    0.16</time>
   <time name="total">    1.23    0.54</time>
   <energy>
    <i name="e_fr_energy">    -25.37796849 </i>
    <i name="e_wo_entrp">    -25.16142256 </i>
    <i name="e_0_energy">    -25.30578651 </i>
   </energy>
  </scstep>
  <scstep>
   <time name="dav">    0.62    0.16</time>
   <time name="total">    1.29    0.54</time>
   <energy>
    <i name="e_fr_energy">    -25.33532718 </i>
    <i name="e_wo_entrp">    -25.12692233 </i>
    <i name="e_0_energy">    -25.26585889 </i>
   </energy>
  </scstep>
  <scstep>
   <time name="dav">    0.62    0.16</time>
   <time name="total">    1.33    0.54</time>
   <energy>
    <i name="e_fr_energy">    -25.65984056 </i>
    <i name="e_wo_entrp">    -25.46016028 </i>
    <i name="e_0_energy">    -25.59328047 </i>
   </energy>
  </scstep>
  <scstep>
   <time name="dav">    0.62    0.16</time>
   <time name="total">    1.33    0.54</time>
   <energy>
    <i name="e_fr_energy">    -25.28811408 </i>
    <i name="e_wo_entrp">    -25.02213249 </i>
    <i name="e_0_energy">    -25.19945355 </i>
   </energy>
  </scstep>
  <scstep>
   <time name="dav">    0.62    0.16</time>
   <time name="total">    1.33    0.54</time>
   <energy>
    <i name="e_fr_energy">    -25.28892964 </i>
    <i name="e_wo_entrp">    -25.01084293 </i>
    <i name="e_0_energy">    -25.19623407 </i>
   </energy>
  </scstep>
  <scstep>
   <time name="dav">    0.62    0.16</time>
   <time name="total">    1.33    0.54</time>
   <energy>
    <i name="e_fr_energy">    -25.28795965 </i>
    <i name="e_wo_entrp">    -25.01652645 </i>
    <i name="e_0_energy">    -25.19748191 </i>
   </energy>
  </scstep>
  <scstep>
   <time name="dav">    0.40    0.11</time>
   <time name="total">    0.86    0.41</time>
   <energy>
    <i name="alphaZ">    234.09765089 </i>
    <i name="ewald">  -2342.64513743 </i>
    <i name="hartreedc">   -440.98786462 </i>
    <i name="XCdc">     13.60753035 </i>
    <i name="pawpsdc">   2171.66183009 </i>
    <i name="pawaedc">  -2202.58738870 </i>
    <i name="eentropy">     -0.27157525 </i>
    <i name="bandstr">    159.68381849 </i>
    <i name="atom">   2382.15316232 </i>
    <i name="e_fr_energy">    -25.28797386 </i>
    <i name="e_wo_entrp">    -25.01639860 </i>
    <i name="e_0_energy">    -25.19744877 </i>
   </energy>
  </scstep>
  <structure>
   <crystal>
    <varray name="basis" >
     <v>       3.60732952       0.00000000       0.00000000 </v>
     <v>       0.00000000       3.60732952       0.00000000 </v>
     <v>       0.00000000       0.00000000       3.60732952 </v>
    </varray>
    <i name="volume">     46.94155236 </i>
    <varray name="rec_basis" >
     <v>       0.27721338       0.00000000       0.00000000 </v>
     <v>       0.00000000       0.27721338       0.00000000 </v>
     <v>       0.00000000       0.00000000       0.27721338 </v>
    </varray>
   </crystal>
   <varray name="positions" >
    <v>       0.00000000       0.00000000       0.00000000 </v>
    <v>       0.00000000       0.50000000       0.50000000 </v>
    <v>       0.50000000       0.00000000       0.50000000 </v>
    <v>       0.50000000       0.50000000       0.00000000 </v>
   </varray>
  </structure>
  <varray name="forces" >
   <v>       0.00000000       0.00000000       0.00000000 </v>
   <v>       0.00000000       0.00000000       0.00000000 </v>
   <v>       0.00000000       0.00000000       0.00000000 </v>
   <v>       0.00000000       0.00000000       0.00000000 </v>
  </varray>
  <varray name="stress" >
   <v>     -42.59531639       0.00000000       0.00000000 </v>
   <v>       0.00000000     -42.59531639       0.00000000 </v>
   <v>       0.00000000       0.00000000     -42.59531639 </v>
  </varray>
  <energy>
   <i name="e_fr_energy">    -25.28797386 </i>
   <i name="e_wo_entrp">    -25.19744877 </i>
   <i name="e_0_energy">     -0.27157525 </i>
  </energy>
  <time name="totalsc">   14.34    6.63</time>
 </calculation>
 <calculation>
  <scstep>
   <time name="dav">    0.62    0.16</time>
   <time name="total">    1.32    0.54</time>
   <energy>
    <i name="alphaZ">    235.09406458 </i>
    <i name="ewald">  -2345.96417922 </i>
    <i name="hartreedc">   -441.56925274 </i>
    <i name="XCdc">     13.76534981 </i>
    <i name="pawpsdc">   2171.55183818 </i>
    <i name="pawaedc">  -2202.48161092 </i>
    <i name="eentropy">     -0.28530121 </i>
    <i name="bandstr">    162.41986053 </i>
    <i name="atom">   2382.15316232 </i>
    <i name="e_fr_energy">    -25.31606866 </i>
    <i name="e_wo_entrp">    -25.03076745 </i>
    <i name="e_0_energy">    -25.22096826 </i>
   </energy>
  </scstep>
  <scstep>
   <time name="dav">    0.62    0.16</time>
   <time name="total">    1.16    0.54</time>
   <energy>
    <i name="e_fr_energy">    -25.53479629 </i>
    <i name="e_wo_entrp">    -25.29412150 </i>
    <i name="e_0_energy">    -25.45457136 </i>
   </energy>
  </scstep>
  <scstep>
   <time name="dav">    0.62    0.16</time>
   <time name="total">    1.16    0.54</time>
   <energy>
    <i name="e_fr_energy">    -25.31677214 </i>
    <i name="e_wo_entrp">    -25.09885523 </i>
    <i name="e_0_energy">    -25.24413317 </i>
   </energy>
  </scstep>
  <scstep>
   <time name="dav">    0.62    0.16</time>
   <time name="total">    1.23    0.54</time>
   <energy>
    <i name="e_fr_energy">    -25.29966974 </i>
    <i name="e_wo_entrp">    -25.05045385 </i>
    <i name="e_0_energy">    -25.21659777 </i>
   </energy>
  </scstep>
  <scstep>
   <time name="dav">    0.62    0.16</time>
   <time name="total">    1.30    0.54</time>
   <energy>
    <i name="e_fr_energy">    -25.29313897 </i>
    <i name="e_wo_entrp">    -25.03965644 </i>
    <i name="e_0_energy">    -25.20864479 </i>
   </energy>
  </scstep>
  <scstep>
   <time name="dav">    0.62    0.16</time>
   <time name="total">    1.33    0.54</time>
   <energy>
    <i name="e_fr_energy">    -25.29137826 </i>
    <i name="e_wo_entrp">    -25.02397040 </i>
    <i name="e_0_energy">    -25.20224231 </i>
   </energy>
  </scstep>
  <scstep>
   <time name="dav">    0.58    0.15</time>
   <time name="total">    1.29    0.53</time>
   <energy>
    <i name="e_fr_energy">    -25.29090453 </i>
    <i name="e_wo_entrp">    -25.02378237 </i>
    <i name="e_0_energy">    -25.20186381 </i>
   </energy>
  </scstep>
  <scstep>
   <time name="dav">    0.40    0.11</time>
   <time name="total">    0.86    0.41</time>
   <energy>
    <i name="alphaZ">    235.09406458 </i>
    <i name="ewald">  -2345.96417922 </i>
    <i name="hartreedc">   -439.70550068 </i>
    <i name="XCdc">     13.65565702 </i>
    <i name="pawpsdc">   2174.77875787 </i>
    <i name="pawaedc">  -2205.75422730 </i>
    <i name="eentropy">     -0.27197207 </i>
    <i name="bandstr">    160.72334573 </i>
    <i name="atom">   2382.15316232 </i>
    <i name="e_fr_energy">    -25.29089175 </i>
    <i name="e_wo_entrp">    -25.01891968 </i>
    <i name="e_0_energy">    -25.20023439 </i>
   </energy>
  </scstep>
  <structure>
   <crystal>
    <varray name="basis" >
     <v>       3.60222591       0.00000000       0.00000000 </v>
     <v>       0.00000000       3.60222591       0.00000000 </v>
     <v>       0.00000000       0.00000000       3.60222591 </v>
    </varray>
    <i name="volume">     46.74259708 </i>
    <varray name="rec_basis" >
     <v>       0.27760613       0.00000000       0.00000000 </v>
     <v>       0.00000000       0.27760613       0.00000000 </v>
     <v>       0.00000000       0.00000000       0.27760613 </v>
    </varray>
   </crystal>
   <varray name="positions" >
    <v>       0.00000000       0.00000000       0.00000000 </v>
    <v>       0.00000000       0.50000000       0.50000000 </v>
    <v>       0.50000000       0.00000000       0.50000000 </v>
    <v>       0.50000000       0.50000000       0.00000000 </v>
   </varray>
  </structure>
  <varray name="forces" >
   <v>       0.00000000       0.00000000       0.00000000 </v>
   <v>       0.00000000       0.00000000       0.00000000 </v>
   <v>       0.00000000       0.00000000       0.00000000 </v>
   <v>       0.00000000       0.00000000       0.00000000 </v>
  </varray>
  <varray name="stress" >
   <v>     -28.98108782       0.00000000       0.00000000 </v>
   <v>       0.00000000     -28.98108782       0.00000000 </v>
   <v>       0.00000000       0.00000000     -28.98108782 </v>
  </varray>
  <energy>
   <i name="e_fr_energy">    -25.29089175 </i>
   <i name="e_wo_entrp">    -25.20023439 </i>
   <i name="e_0_energy">     -0.27197207 </i>
  </energy>
  <time name="totalsc">   11.58    5.50</time>
  <eigenvalues>
   <array>
    <dimension dim="1">band</dimension>
    <dimension dim="2">kpoint</dimension>
    <dimension dim="3">spin</dimension>
    <field>eigene</field>
    <field>occ</field>
    <set>
     <set comment="spin 1">
      <set comment="kpoint 1">
       <r>   -2.5537    1.0000 </r>
       <r>    2.3935    1.0000 </r>
       <r>    2.3935    1.0000 </r>
       <r>    2.3935    1.0000 </r>
       <r>    3.2822    1.0000 </r>
       <r>    3.2822    1.0000 </r>
       <r>    3.2822    1.0000 </r>
       <r>    5.7891    1.0000 </r>
       <r>    5.7891    1.0000 </r>
       <r>    5.7891    1.0000 </r>
       <r>    7.3928    1.0000 </r>
       <r>    7.3928    1.0000 </r>
       <r>    8.3793    0.8864 </r>
       <r>    8.3793    0.8864 </r>
       <r>    8.3793    0.8864 </r>
       <r>    8.5391    0.2815 </r>
       <r>    8.5391    0.2815 </r>
       <r>    8.5391    0.2815 </r>
       <r>    8.5391    0.2815 </r>
       <r>    8.5578    0.2146 </r>
      </set>
     </set>
    </set>
   </array>
  </eigenvalues>
  <separator name="orbital magnetization" >
   <v name="MAGDIPOLOUT">      0.00000000      0.00000000      0.00000000</v>
  </separator>
  <dos>
   <i name="efermi">      8.48539471 </i>
   <total>
    <array>
     <dimension dim="1">gridpoints</dimension>
     <dimension dim="2">spin</dimension>
     <field>energy</field>
     <field>total</field>
     <field>integrated</field>
     <set>
      <set comment="spin 1">
       <r>  -4.5537   0.0000   0.0000 </r>
       <r>  -4.5034   0.0000   0.0000 </r>
       <r>  -4.4530   0.0000   0.0000 </r>
       <r>  -4.4026   0.0000   0.0000 </r>
       <r>  -4.3523   0.0000   0.0000 </r>
       <r>  -4.3019   0.0000   0.0000 </r>
       <r>  -4.2515   0.0000   0.0000 </r>
       <r>  -4.2011   0.0000   0.0000 </r>
       <r>  -4.1508   0.0000   0.0000 </r>
       <r>  -4.1004   0.0000   0.0000 </r>
       <r>  -4.0500   0.0000   0.0000 </r>
       <r>  -3.9997   0.0000   0.0000 </r>
       <r>  -3.9493   0.0000   0.0000 </r>
       <r>  -3.8989   0.0000   0.0000 </r>
       <r>  -3.8485   0.0000   0.0000 </r>
       <r>  -3.7982   0.0000   0.0000 </r>
       <r>  -3.7478   0.0000   0.0000 </r>
       <r>  -3.6974   0.0000   0.0000 </r>
       <r>  -3.6471   0.0000   0.0000 </r>
       <r>  -3.5967   0.0000   0.0000 </r>
       <r>  -3.5463   0.0000   0.0000 </r>
       <r>  -3.4959   0.0000   0.0000 </r>
       <r>  -3.4456   0.0000   0.0000 </r>
       <r>  -3.3952   0.0000   0.0000 </r>
       <r>  -3.3448   0.0000   0.0000 </r>
       <r>  -3.2944   0.0000   0.0000 </r>
       <r>  -3.2441  -0.0002   0.0000 </r>
       <r>  -3.1937  -0.0009  -0.0001 </r>
       <r>  -3.1433  -0.0038  -0.0002 </r>
       <r>  -3.0930  -0.0134  -0.0009 </r>
       <r>  -3.0426  -0.0405  -0.0030 </r>
       <r>  -2.9922  -0.1037  -0.0082 </r>
       <r>  -2.9418  -0.2205  -0.0193 </r>
       <r>  -2.8915  -0.3733  -0.0381 </r>
       <r>  -2.8411  -0.4490  -0.0607 </r>
       <r>  -2.7907  -0.1924  -0.0704 </r>
       <r>  -2.7404   0.7341  -0.0334 </r>
       <r>  -2.6900   2.5244   0.0937 </r>
       <r>  -2.6396   4.9346   0.3423 </r>
       <r>  -2.5892   7.1968   0.7048 </r>
       <r>  -2.5389   8.3522   1.1255 </r>
       <r>  -2.4885   7.8503   1.5210 </r>
       <r>  -2.4381   5.9346   1.8199 </r>
       <r>  -2.3878   3.4691   1.9946 </r>
       <r>  -2.3374   1.3636   2.0633 </r>
       <r>  -2.2870   0.0881   2.0678 </r>
       <r>  -2.2366  -0.4031   2.0475 </r>
       <r>  -2.1863  -0.4248   2.0261 </r>
       <r>  -2.1359  -0.2822   2.0119 </r>
       <r>  -2.0855  -0.1446   2.0046 </r>
       <r>  -2.0351  -0.0607   2.0015 </r>
       <r>  -1.9848  -0.0214   2.0004 </r>
       <r>  -1.9344  -0.0065   2.0001 </r>
       <r>  -1.8840  -0.0017   2.0000 </r>
       <r>  -1.8337  -0.0004   2.0000 </r>
       <r>  -1.7833  -0.0001   2.0000 </r>
       <r>  -1.7329   0.0000   2.0000 </r>
       <r>  -1.6825   0.0000   2.0000 </r>
       <r>  -1.6322   0.0000   2.0000 </r>
       <r>  -1.5818   0.0000   2.0000 </r>
       <r>  -1.5314   0.0000   2.0000 </r>
       <r>  -1.4811   0.0000   2.0000 </r>
       <r>  -1.4307   0.0000   2.0000 </r>
       <r>  -1.3803   0.0000   2.0000 </r>
       <r>  -1.3299   0.0000   2.0000 </r>
       <r>  -1.2796   0.0000   2.0000 </r>
       <r>  -1.2292   0.0000   2.0000 </r>
       <r>  -1.1788   0.0000   2.0000 </r>
       <r>  -1.1285   0.0000   2.0000 </r>
       <r>  -1.0781   0.0000   2.0000 </r>
       <r>  -1.0277   0.0000   2.0000 </r>
       <r>  -0.9773   0.0000   2.0000 </r>
       <r>  -0.9270   0.0000   2.0000 </r>
       <r>  -0.8766   0.0000   2.0000 </r>
       <r>  -0.8262   0.0000   2.0000 </r>
       <r>  -0.7759   0.0000   2.0000 </r>
       <r>  -0.7255   0.0000   2.0000 </r>
       <r>  -0.6751   0.0000   2.0000 </r>
       <r>  -0.6247   0.0000   2.0000 </r>
       <r>  -0.5744   0.0000   2.0000 </r>
       <r>  -0.5240   0.0000   2.0000 </r>
       <r>  -0.4736   0.0000   2.0000 </r>
       <r>  -0.4232   0.0000   2.0000 </r>
       <r>  -0.3729   0.0000   2.0000 </r>
       <r>  -0.3225   0.0000   2.0000 </r>
       <r>  -0.2721   0.0000   2.0000 </r>
       <r>  -0.2218   0.0000   2.0000 </r>
       <r>  -0.1714   0.0000   2.0000 </r>
       <r>  -0.1210   0.0000   2.0000 </r>
       <r>  -0.0706   0.0000   2.0000 </r>
       <r>  -0.0203   0.0000   2.0000 </r>
       <r>   0.0301   0.0000   2.0000 </r>
       <r>   0.0805   0.0000   2.0000 </r>
       <r>   0.1308   0.0000   2.0000 </r>
       <r>   0.1812   0.0000   2.0000 </r>
       <r>   0.2316   0.0000   2.0000 </r>
       <r>   0.2820   0.0000   2.0000 </r>
       <r>   0.3323   0.0000   2.0000 </r>
       <r>   0.3827   0.0000   2.0000 </r>
       <r>   0.4331   0.0000   2.0000 </r>
       <r>   0.4834   0.0000   2.0000 </r>
       <r>   0.5338   0.0000   2.0000 </r>
       <r>   0.5842   0.0000   2.0000 </r>
       <r>   0.6346   0.0000   2.0000 </r>
       <r>   0.6849   0.0000   2.0000 </r>
       <r>   0.7353   0.0000   2.0000 </r>
       <r>   0.7857   0.0000   2.0000 </r>
       <r>   0.8361   0.0000   2.0000 </r>
       <r>   0.8864   0.0000   2.0000 </r>
       <r>   0.9368   0.0000   2.0000 </r>
       <r>   0.9872   0.0000   2.0000 </r>
       <r>   1.0375   0.0000   2.0000 </r>
       <r>   1.0879   0.0000   2.0000 </r>
       <r>   1.1383   0.0000   2.0000 </r>
       <r>   1.1887   0.0000   2.0000 </r>
       <r>   1.2390   0.0000   2.0000 </r>
       <r>   1.2894   0.0000   2.0000 </r>
       <r>   1.3398   0.0000   2.0000 </r>
       <r>   1.3901   0.0000   2.0000 </r>
       <r>   1.4405   0.0000   2.0000 </r>
       <r>   1.4909   0.0000   2.0000 </r>
       <r>   1.5413   0.0000   2.0000 </r>
       <r>   1.5916   0.0000   2.0000 </r>
       <r>   1.6420  -0.0001   2.0000 </r>
       <r>   1.6924  -0.0004   2.0000 </r>
       <r>   1.7427  -0.0020   1.9999 </r>
       <r>   1.7931  -0.0085   1.9994 </r>
       <r>   1.8435  -0.0310   1.9979 </r>
       <r>   1.8939  -0.0970   1.9930 </r>
       <r>   1.9442  -0.2580   1.9800 </r>
       <r>   1.9946  -0.5724   1.9512 </r>
       <r>   2.0450  -1.0235   1.8996 </r>
       <r>   2.0954  -1.3497   1.8316 </r>
       <r>   2.1457  -0.8773   1.7874 </r>
       <r>   2.1961   1.3936   1.8576 </r>
       <r>   2.2465   6.2147   2.1707 </r>
       <r>   2.2968  13.1933   2.8353 </r>
       <r>   2.3472  20.3235   3.8590 </r>
       <r>   2.3976  24.7091   5.1036 </r>
       <r>   2.4480  24.2930   6.3273 </r>
       <r>   2.4983  19.2778   7.2984 </r>
       <r>   2.5487  11.9808   7.9019 </r>
       <r>   2.5991   5.2561   8.1666 </r>
       <r>   2.6494   0.8595   8.2099 </r>
       <r>   2.6998  -1.0621   8.1564 </r>
       <r>   2.7502  -1.3753   8.0872 </r>
       <r>   2.8006  -1.0879   8.0324 </r>
       <r>   2.8509  -0.8604   7.9890 </r>
       <r>   2.9013  -0.9469   7.9413 </r>
       <r>   2.9517  -1.2611   7.8778 </r>
       <r>   3.0020  -1.3464   7.8100 </r>
       <r>   3.0524  -0.3325   7.7932 </r>
       <r>   3.1028   2.8087   7.9347 </r>
       <r>   3.1532   8.5303   8.3644 </r>
       <r>   3.2035  15.8691   9.1638 </r>
       <r>   3.2539  22.3490  10.2895 </r>
       <r>   3.3043  25.1563  11.5567 </r>
       <r>   3.3547  22.9426  12.7124 </r>
       <r>   3.4050  16.7769  13.5574 </r>
       <r>   3.4554   9.3874  14.0303 </r>
       <r>   3.5058   3.3803  14.2006 </r>
       <r>   3.5561  -0.0724  14.1969 </r>
       <r>   3.6065  -1.2803  14.1324 </r>
       <r>   3.6569  -1.2267  14.0706 </r>
       <r>   3.7073  -0.7802  14.0313 </r>
       <r>   3.7576  -0.3876  14.0118 </r>
       <r>   3.8080  -0.1586  14.0038 </r>
       <r>   3.8584  -0.0547  14.0011 </r>
       <r>   3.9087  -0.0161  14.0003 </r>
       <r>   3.9591  -0.0041  14.0001 </r>
       <r>   4.0095  -0.0009  14.0000 </r>
       <r>   4.0599  -0.0002  14.0000 </r>
       <r>   4.1102   0.0000  14.0000 </r>
       <r>   4.1606   0.0000  14.0000 </r>
       <r>   4.2110   0.0000  14.0000 </r>
       <r>   4.2613   0.0000  14.0000 </r>
       <r>   4.3117   0.0000  14.0000 </r>
       <r>   4.3621   0.0000  14.0000 </r>
       <r>   4.4125   0.0000  14.0000 </r>
       <r>   4.4628   0.0000  14.0000 </r>
       <r>   4.5132   0.0000  14.0000 </r>
       <r>   4.5636   0.0000  14.0000 </r>
       <r>   4.6140   0.0000  14.0000 </r>
       <r>   4.6643   0.0000  14.0000 </r>
       <r>   4.7147   0.0000  14.0000 </r>
       <r>   4.7651   0.0000  14.0000 </r>
       <r>   4.8154   0.0000  14.0000 </r>
       <r>   4.8658   0.0000  14.0000 </r>
       <r>   4.9162   0.0000  14.0000 </r>
       <r>   4.9666   0.0000  14.0000 </r>
       <r>   5.0169   0.0000  14.0000 </r>
       <r>   5.0673  -0.0002  14.0000 </r>
       <r>   5.1177  -0.0011  13.9999 </r>
       <r>   5.1680  -0.0048  13.9997 </r>
       <r>   5.2184  -0.0185  13.9988 </r>
       <r>   5.2688  -0.0619  13.9956 </r>
       <r>   5.3192  -0.1762  13.9868 </r>
       <r>   5.3695  -0.4224  13.9655 </r>
       <r>   5.4199  -0.8304  13.9237 </r>
       <r>   5.4703  -1.2637  13.8600 </r>
       <r>   5.5206  -1.2289  13.7981 </r>
       <r>   5.5710   0.1789  13.8071 </r>
       <r>   5.6214   3.9149  14.0043 </r>
       <r>   5.6718  10.1593  14.5161 </r>
       <r>   5.7221  17.5594  15.4006 </r>
       <r>   5.7725  23.4125  16.5799 </r>
       <r>   5.8229  25.0904  17.8437 </r>
       <r>   5.8733  21.7796  18.9408 </r>
       <r>   5.9236  15.0611  19.6995 </r>
       <r>   5.9740   7.7999  20.0924 </r>
       <r>   6.0244   2.3435  20.2104 </r>
       <r>   6.0747  -0.5206  20.1842 </r>
       <r>   6.1251  -1.3426  20.1166 </r>
       <r>   6.1755  -1.1347  20.0594 </r>
       <r>   6.2259  -0.6762  20.0254 </r>
       <r>   6.2762  -0.3202  20.0092 </r>
       <r>   6.3266  -0.1257  20.0029 </r>
       <r>   6.3770  -0.0418  20.0008 </r>
       <r>   6.4273  -0.0119  20.0002 </r>
       <r>   6.4777  -0.0029  20.0000 </r>
       <r>   6.5281  -0.0006  20.0000 </r>
       <r>   6.5785  -0.0001  20.0000 </r>
       <r>   6.6288   0.0000  20.0000 </r>
       <r>   6.6792  -0.0002  20.0000 </r>
       <r>   6.7296  -0.0009  19.9999 </r>
       <r>   6.7799  -0.0040  19.9997 </r>
       <r>   6.8303  -0.0152  19.9990 </r>
       <r>   6.8807  -0.0495  19.9965 </r>
       <r>   6.9311  -0.1373  19.9896 </r>
       <r>   6.9814  -0.3192  19.9735 </r>
       <r>   7.0318  -0.6050  19.9430 </r>
       <r>   7.0822  -0.8731  19.8990 </r>
       <r>   7.1325  -0.7470  19.8614 </r>
       <r>   7.1829   0.4082  19.8820 </r>
       <r>   7.2333   3.1875  20.0425 </r>
       <r>   7.2837   7.5686  20.4238 </r>
       <r>   7.3340  12.4702  21.0519 </r>
       <r>   7.3844  16.0164  21.8587 </r>
       <r>   7.4348  16.5832  22.6940 </r>
       <r>   7.4852  13.8947  23.3939 </r>
       <r>   7.5355   9.2207  23.8584 </r>
       <r>   7.5859   4.4936  24.0847 </r>
       <r>   7.6363   1.1326  24.1418 </r>
       <r>   7.6866  -0.5133  24.1159 </r>
       <r>   7.7370  -0.9048  24.0704 </r>
       <r>   7.7874  -0.7191  24.0341 </r>
       <r>   7.8378  -0.4431  24.0118 </r>
       <r>   7.8881  -0.3042  23.9965 </r>
       <r>   7.9385  -0.3827  23.9772 </r>
       <r>   7.9889  -0.7123  23.9413 </r>
       <r>   8.0392  -1.2565  23.8780 </r>
       <r>   8.0896  -1.7558  23.7896 </r>
       <r>   8.1400  -1.5545  23.7113 </r>
       <r>   8.1904   0.3751  23.7302 </r>
       <r>   8.2407   5.0508  23.9846 </r>
       <r>   8.2911  12.8800  24.6334 </r>
       <r>   8.3415  23.2568  25.8049 </r>
       <r>   8.3918  34.6143  27.5485 </r>
       <r>   8.4422  44.7407  29.8022 </r>
       <r>   8.4926  51.1199  32.3772 </r>
       <r>   8.5430  51.5218  34.9724 </r>
       <r>   8.5933  45.0912  37.2438 </r>
       <r>   8.6437  33.3244  38.9224 </r>
       <r>   8.6941  19.7745  39.9185 </r>
       <r>   8.7445   8.2811  40.3356 </r>
       <r>   8.7948   1.0356  40.3878 </r>
       <r>   8.8452  -2.0340  40.2853 </r>
       <r>   8.8956  -2.4109  40.1639 </r>
       <r>   8.9459  -1.7074  40.0779 </r>
       <r>   8.9963  -0.9230  40.0314 </r>
       <r>   9.0467  -0.4073  40.0108 </r>
       <r>   9.0971  -0.1509  40.0032 </r>
       <r>   9.1474  -0.0477  40.0008 </r>
       <r>   9.1978  -0.0129  40.0002 </r>
       <r>   9.2482  -0.0030  40.0000 </r>
       <r>   9.2985  -0.0006  40.0000 </r>
       <r>   9.3489  -0.0001  40.0000 </r>
       <r>   9.3993   0.0000  40.0000 </r>
       <r>   9.4497   0.0000  40.0000 </r>
       <r>   9.5000   0.0000  40.0000 </r>
       <r>   9.5504   0.0000  40.0000 </r>
       <r>   9.6008   0.0000  40.0000 </r>
       <r>   9.6511   0.0000  40.0000 </r>
       <r>   9.7015   0.0000  40.0000 </r>
       <r>   9.7519   0.0000  40.0000 </r>
       <r>   9.8023   0.0000  40.0000 </r>
       <r>   9.8526   0.0000  40.0000 </r>
       <r>   9.9030   0.0000  40.0000 </r>
       <r>   9.9534   0.0000  40.0000 </r>
       <r>  10.0038   0.0000  40.0000 </r>
       <r>  10.0541   0.0000  40.0000 </r>
       <r>  10.1045   0.0000  40.0000 </r>
       <r>  10.1549   0.0000  40.0000 </r>
       <r>  10.2052   0.0000  40.0000 </r>
       <r>  10.2556   0.0000  40.0000 </r>
       <r>  10.3060   0.0000  40.0000 </r>
       <r>  10.3564   0.0000  40.0000 </r>
       <r>  10.4067   0.0000  40.0000 </r>
       <r>  10.4571   0.0000  40.0000 </r>
       <r>  10.5075   0.0000  40.0000 </r>
       <r>  10.5578   0.0000  40.0000 </r>
      </set>
     </set>
    </array>
   </total>
  </dos>
 </calculation>
 <structure name="finalpos" >
  <crystal>
   <varray name="basis" >
    <v>       3.60222591       0.00000000       0.00000000 </v>
    <v>       0.00000000       3.60222591       0.00000000 </v>
    <v>       0.00000000       0.00000000       3.60222591 </v>
   </varray>
   <i name="volume">     46.74259708 </i>
   <varray name="rec_basis" >
    <v>       0.27760613       0.00000000       0.00000000 </v>
    <v>       0.00000000       0.27760613       0.00000000 </v>
    <v>       0.00000000       0.00000000       0.27760613 </v>
   </varray>
  </crystal>
  <varray name="positions" >
   <v>       0.00000000       0.00000000       0.00000000 </v>
   <v>       0.00000000       0.50000000       0.50000000 </v>
   <v>       0.50000000       0.00000000       0.50000000 </v>
   <v>       0.50000000       0.50000000       0.00000000 </v>
  </varray>
 </structure>
</modeling>
