   3   3   0   0
  0.1429167E+02  0.3500000E-09  0.3500000E-09  0.3500000E-09  0.5000000E-15
  1.000000000000000E-004
  CAR 
 unknown system                          
     18.28537298     -2.84238157  301     10.45980125      1.00000000
     -2.842  0.0000E+00  0.0000E+00
     -2.772  0.0000E+00  0.0000E+00
     -2.702  0.0000E+00  0.0000E+00
     -2.631  0.0000E+00  0.0000E+00
     -2.561  0.0000E+00  0.0000E+00
     -2.490 -0.2171E-27 -0.1529E-28
     -2.420 -0.6058E-25 -0.4282E-26
     -2.349 -0.1320E-22 -0.9339E-24
     -2.279 -0.2239E-20 -0.1586E-21
     -2.209 -0.2955E-18 -0.2097E-19
     -2.138 -0.3034E-16 -0.2158E-17
     -2.068 -0.2422E-14 -0.1727E-15
     -1.997 -0.1456E-12 -0.1042E-13
     -1.927 -0.7000E-11 -0.5034E-12
     -1.856 -0.2604E-09 -0.1885E-10
     -1.786 -0.7504E-08 -0.5473E-09
     -1.716 -0.1671E-06 -0.1232E-07
     -1.645 -0.2869E-05 -0.2144E-06
     -1.575 -0.3788E-04 -0.2882E-05
     -1.504 -0.3825E-03 -0.2982E-04
     -1.434 -0.2935E-02 -0.2365E-03
     -1.363 -0.1692E-01 -0.1428E-02
     -1.293 -0.7191E-01 -0.6492E-02
     -1.223 -0.2163E+00 -0.2172E-01
     -1.152 -0.4137E+00 -0.5086E-01
     -1.082 -0.2812E+00 -0.7067E-01
     -1.011  0.9863E+00 -0.1206E-02
     -0.941  0.3824E+01  0.2681E+00
     -0.870  0.7055E+01  0.7650E+00
     -0.800  0.8302E+01  0.1350E+01
     -0.730  0.6484E+01  0.1806E+01
     -0.659  0.3150E+01  0.2028E+01
     -0.589  0.5996E+00  0.2070E+01
     -0.518 -0.3707E+00  0.2044E+01
     -0.448 -0.3805E+00  0.2017E+01
     -0.377 -0.1785E+00  0.2005E+01
     -0.307 -0.5505E-01  0.2001E+01
     -0.237 -0.1215E-01  0.2000E+01
     -0.166 -0.1987E-02  0.2000E+01
     -0.096 -0.2447E-03  0.2000E+01
     -0.025 -0.2294E-04  0.2000E+01
      0.045 -0.1647E-05  0.2000E+01
      0.116 -0.9097E-07  0.2000E+01
      0.186 -0.3877E-08  0.2000E+01
      0.256 -0.1277E-09  0.2000E+01
      0.327 -0.3254E-11  0.2000E+01
      0.397 -0.6936E-13  0.2000E+01
      0.468  0.0000E+00  0.2000E+01
      0.538  0.0000E+00  0.2000E+01
      0.608  0.0000E+00  0.2000E+01
      0.679  0.0000E+00  0.2000E+01
      0.749  0.0000E+00  0.2000E+01
      0.820  0.0000E+00  0.2000E+01
      0.890  0.0000E+00  0.2000E+01
      0.961  0.0000E+00  0.2000E+01
      1.031  0.0000E+00  0.2000E+01
      1.101  0.0000E+00  0.2000E+01
      1.172  0.0000E+00  0.2000E+01
      1.242  0.0000E+00  0.2000E+01
      1.313  0.0000E+00  0.2000E+01
      1.383  0.0000E+00  0.2000E+01
      1.454  0.0000E+00  0.2000E+01
      1.524  0.0000E+00  0.2000E+01
      1.594  0.0000E+00  0.2000E+01
      1.665  0.0000E+00  0.2000E+01
      1.735  0.0000E+00  0.2000E+01
      1.806  0.0000E+00  0.2000E+01
      1.876  0.0000E+00  0.2000E+01
      1.947  0.0000E+00  0.2000E+01
      2.017  0.0000E+00  0.2000E+01
      2.087  0.0000E+00  0.2000E+01
      2.158  0.0000E+00  0.2000E+01
      2.228  0.0000E+00  0.2000E+01
      2.299  0.0000E+00  0.2000E+01
      2.369  0.0000E+00  0.2000E+01
      2.440  0.0000E+00  0.2000E+01
      2.510  0.0000E+00  0.2000E+01
      2.580  0.0000E+00  0.2000E+01
      2.651  0.0000E+00  0.2000E+01
      2.721  0.0000E+00  0.2000E+01
      2.792  0.0000E+00  0.2000E+01
      2.862  0.0000E+00  0.2000E+01
      2.933  0.0000E+00  0.2000E+01
      3.003  0.0000E+00  0.2000E+01
      3.073  0.0000E+00  0.2000E+01
      3.144  0.0000E+00  0.2000E+01
      3.214  0.0000E+00  0.2000E+01
      3.285 -0.9361E-27  0.2000E+01
      3.355 -0.2450E-24  0.2000E+01
      3.426 -0.5008E-22  0.2000E+01
      3.496 -0.7969E-20  0.2000E+01
      3.566 -0.9865E-18  0.2000E+01
      3.637 -0.9500E-16  0.2000E+01
      3.707 -0.7112E-14  0.2000E+01
      3.778 -0.4012E-12  0.2000E+01
      3.848 -0.1804E-10  0.2000E+01
      3.918 -0.6290E-09  0.2000E+01
      3.989 -0.1697E-07  0.2000E+01
      4.059 -0.3538E-06  0.2000E+01
      4.130 -0.5684E-05  0.2000E+01
      4.200 -0.7011E-04  0.2000E+01
      4.271 -0.6608E-03  0.2000E+01
      4.341 -0.4723E-02  0.2000E+01
      4.411 -0.2529E-01  0.1998E+01
      4.482 -0.9926E-01  0.1991E+01
      4.552 -0.2732E+00  0.1972E+01
      4.623 -0.4668E+00  0.1939E+01
      4.693 -0.2261E+00  0.1923E+01
      4.764  0.1180E+01  0.2006E+01
      4.834  0.3904E+01  0.2281E+01
      4.904  0.6986E+01  0.2773E+01
      4.975  0.9673E+01  0.3454E+01
      5.045  0.1264E+02  0.4344E+01
      5.116  0.1591E+02  0.5465E+01
      5.186  0.1685E+02  0.6651E+01
      5.257  0.1314E+02  0.7576E+01
      5.327  0.6643E+01  0.8044E+01
      5.397  0.1435E+01  0.8145E+01
      5.468 -0.7006E+00  0.8096E+01
      5.538 -0.8047E+00  0.8039E+01
      5.609 -0.3953E+00  0.8011E+01
      5.679 -0.1263E+00  0.8002E+01
      5.750 -0.2878E-01  0.8000E+01
      5.820 -0.4846E-02  0.8000E+01
      5.890 -0.6140E-03  0.8000E+01
      5.961 -0.5917E-04  0.8000E+01
      6.031 -0.4365E-05  0.8000E+01
      6.102 -0.2476E-06  0.8000E+01
      6.172 -0.1083E-07  0.8000E+01
      6.243 -0.3665E-09  0.8000E+01
      6.313 -0.9597E-11  0.8000E+01
      6.383 -0.2018E-12  0.8000E+01
      6.454  0.0000E+00  0.8000E+01
      6.524  0.0000E+00  0.8000E+01
      6.595  0.0000E+00  0.8000E+01
      6.665  0.0000E+00  0.8000E+01
      6.736  0.0000E+00  0.8000E+01
      6.806  0.0000E+00  0.8000E+01
      6.876  0.0000E+00  0.8000E+01
      6.947  0.0000E+00  0.8000E+01
      7.017  0.0000E+00  0.8000E+01
      7.088  0.0000E+00  0.8000E+01
      7.158  0.0000E+00  0.8000E+01
      7.229  0.0000E+00  0.8000E+01
      7.299  0.0000E+00  0.8000E+01
      7.369  0.0000E+00  0.8000E+01
      7.440  0.0000E+00  0.8000E+01
      7.510  0.0000E+00  0.8000E+01
      7.581  0.0000E+00  0.8000E+01
      7.651  0.0000E+00  0.8000E+01
      7.721  0.0000E+00  0.8000E+01
      7.792  0.0000E+00  0.8000E+01
      7.862  0.0000E+00  0.8000E+01
      7.933  0.0000E+00  0.8000E+01
      8.003  0.0000E+00  0.8000E+01
      8.074  0.0000E+00  0.8000E+01
      8.144  0.0000E+00  0.8000E+01
      8.214  0.0000E+00  0.8000E+01
      8.285  0.0000E+00  0.8000E+01
      8.355  0.0000E+00  0.8000E+01
      8.426  0.0000E+00  0.8000E+01
      8.496  0.0000E+00  0.8000E+01
      8.567  0.0000E+00  0.8000E+01
      8.637  0.0000E+00  0.8000E+01
      8.707  0.0000E+00  0.8000E+01
      8.778  0.0000E+00  0.8000E+01
      8.848  0.0000E+00  0.8000E+01
      8.919 -0.1572E-25  0.8000E+01
      8.989 -0.3744E-23  0.8000E+01
      9.060 -0.6964E-21  0.8000E+01
      9.130 -0.1008E-18  0.8000E+01
      9.200 -0.1135E-16  0.8000E+01
      9.271 -0.9945E-15  0.8000E+01
      9.341 -0.6456E-13  0.8000E+01
      9.412 -0.3468E-11  0.8000E+01
      9.482 -0.1417E-09  0.8000E+01
      9.553 -0.4486E-08  0.8000E+01
      9.623 -0.1099E-06  0.8000E+01
      9.693 -0.2077E-05  0.8000E+01
      9.764 -0.3021E-04  0.8000E+01
      9.834 -0.3370E-03  0.8000E+01
      9.905 -0.2864E-02  0.8000E+01
      9.975 -0.1838E-01  0.7998E+01
     10.046 -0.8764E-01  0.7992E+01
     10.116 -0.3015E+00  0.7971E+01
     10.186 -0.6964E+00  0.7922E+01
     10.257 -0.8283E+00  0.7864E+01
     10.327  0.6717E+00  0.7911E+01
     10.398  0.5256E+01  0.8281E+01
     10.468  0.1194E+02  0.9122E+01
     10.539  0.1640E+02  0.1028E+02
     10.609  0.1492E+02  0.1133E+02
     10.679  0.8781E+01  0.1195E+02
     10.750  0.2709E+01  0.1214E+02
     10.820 -0.3490E+00  0.1211E+02
     10.891 -0.8783E+00  0.1205E+02
     10.961 -0.5594E+00  0.1201E+02
     11.032 -0.3674E+00  0.1198E+02
     11.102 -0.4363E+00  0.1195E+02
     11.172 -0.3542E+00  0.1193E+02
     11.243  0.7170E+00  0.1198E+02
     11.313  0.3367E+01  0.1222E+02
     11.384  0.6679E+01  0.1269E+02
     11.454  0.8317E+01  0.1327E+02
     11.524  0.6877E+01  0.1376E+02
     11.595  0.3600E+01  0.1401E+02
     11.665  0.8521E+00  0.1407E+02
     11.736 -0.3153E+00  0.1405E+02
     11.806 -0.4039E+00  0.1402E+02
     11.877 -0.2035E+00  0.1401E+02
     11.947 -0.6600E-01  0.1400E+02
     12.017 -0.1521E-01  0.1400E+02
     12.088 -0.2587E-02  0.1400E+02
     12.158 -0.3310E-03  0.1400E+02
     12.229 -0.3219E-04  0.1400E+02
     12.299 -0.2396E-05  0.1400E+02
     12.370 -0.1371E-06  0.1400E+02
     12.440 -0.6054E-08  0.1400E+02
     12.510 -0.2066E-09  0.1400E+02
     12.581 -0.5461E-11  0.1400E+02
     12.651 -0.1135E-12  0.1400E+02
     12.722  0.0000E+00  0.1400E+02
     12.792  0.0000E+00  0.1400E+02
     12.863  0.0000E+00  0.1400E+02
     12.933  0.0000E+00  0.1400E+02
     13.003  0.0000E+00  0.1400E+02
     13.074  0.0000E+00  0.1400E+02
     13.144  0.0000E+00  0.1400E+02
     13.215  0.0000E+00  0.1400E+02
     13.285  0.0000E+00  0.1400E+02
     13.356  0.0000E+00  0.1400E+02
     13.426  0.0000E+00  0.1400E+02
     13.496  0.0000E+00  0.1400E+02
     13.567  0.0000E+00  0.1400E+02
     13.637  0.0000E+00  0.1400E+02
     13.708  0.0000E+00  0.1400E+02
     13.778  0.0000E+00  0.1400E+02
     13.849  0.0000E+00  0.1400E+02
     13.919  0.0000E+00  0.1400E+02
     13.989  0.0000E+00  0.1400E+02
     14.060  0.0000E+00  0.1400E+02
     14.130  0.0000E+00  0.1400E+02
     14.201  0.0000E+00  0.1400E+02
     14.271  0.0000E+00  0.1400E+02
     14.342  0.0000E+00  0.1400E+02
     14.412  0.0000E+00  0.1400E+02
     14.482  0.0000E+00  0.1400E+02
     14.553  0.0000E+00  0.1400E+02
     14.623 -0.6721E-28  0.1400E+02
     14.694 -0.1973E-25  0.1400E+02
     14.764 -0.4523E-23  0.1400E+02
     14.835 -0.8072E-21  0.1400E+02
     14.905 -0.1121E-18  0.1400E+02
     14.975 -0.1211E-16  0.1400E+02
     15.046 -0.1018E-14  0.1400E+02
     15.116 -0.6487E-13  0.1400E+02
     15.187 -0.3260E-11  0.1400E+02
     15.257 -0.1277E-09  0.1400E+02
     15.327 -0.3877E-08  0.1400E+02
     15.398 -0.9097E-07  0.1400E+02
     15.468 -0.1647E-05  0.1400E+02
     15.539 -0.2294E-04  0.1400E+02
     15.609 -0.2447E-03  0.1400E+02
     15.680 -0.1987E-02  0.1400E+02
     15.750 -0.1215E-01  0.1400E+02
     15.820 -0.5505E-01  0.1400E+02
     15.891 -0.1785E+00  0.1398E+02
     15.961 -0.3805E+00  0.1396E+02
     16.032 -0.3707E+00  0.1393E+02
     16.102  0.5996E+00  0.1397E+02
     16.173  0.3150E+01  0.1419E+02
     16.243  0.6484E+01  0.1465E+02
     16.313  0.8302E+01  0.1524E+02
     16.384  0.7055E+01  0.1573E+02
     16.454  0.3824E+01  0.1600E+02
     16.525  0.9863E+00  0.1607E+02
     16.595 -0.2812E+00  0.1605E+02
     16.666 -0.4137E+00  0.1602E+02
     16.736 -0.2163E+00  0.1601E+02
     16.806 -0.7191E-01  0.1600E+02
     16.877 -0.1692E-01  0.1600E+02
     16.947 -0.2935E-02  0.1600E+02
     17.018 -0.3825E-03  0.1600E+02
     17.088 -0.3788E-04  0.1600E+02
     17.159 -0.2869E-05  0.1600E+02
     17.229 -0.1671E-06  0.1600E+02
     17.299 -0.7504E-08  0.1600E+02
     17.370 -0.2604E-09  0.1600E+02
     17.440 -0.7006E-11  0.1600E+02
     17.511 -0.1450E-12  0.1600E+02
     17.581  0.0000E+00  0.1600E+02
     17.652  0.0000E+00  0.1600E+02
     17.722  0.0000E+00  0.1600E+02
     17.792  0.0000E+00  0.1600E+02
     17.863  0.0000E+00  0.1600E+02
     17.933  0.0000E+00  0.1600E+02
     18.004  0.0000E+00  0.1600E+02
     18.074  0.0000E+00  0.1600E+02
     18.145  0.0000E+00  0.1600E+02
     18.215  0.0000E+00  0.1600E+02
     18.285  0.0000E+00  0.1600E+02
