    3    3    1    1
  0.1535906E+02  0.3585051E-09  0.3585051E-09  0.3585051E-09  0.5000000E-15
  1.000000000000000E-004
  CAR 
 unknown system                          
   24    1   16
 
  0.0000000E+00  0.0000000E+00  0.0000000E+00  0.1000000E+01
   1       -3.646359
   2        0.068356
   3        1.456743
   4        1.456744
   5        1.456744
   6        1.750734
   7        1.750735
   8        4.502971
   9        4.502971
  10        4.502972
  11        4.865287
  12        4.865288
  13        5.582055
  14        5.582056
  15        5.582056
  16        5.672651
