  33  33   0   0
  0.1602710E+02  0.8087040E-09  0.8087040E-09  0.8087040E-09  0.5000000E-15
  1.000000000000000E-004
  CAR 
 unknown system                          
     16.66166179     -4.67000277  301      8.29033563      1.00000000
     -4.670  0.0000E+00  0.0000E+00
     -4.599  0.0000E+00  0.0000E+00
     -4.528  0.0000E+00  0.0000E+00
     -4.457  0.0000E+00  0.0000E+00
     -4.386  0.0000E+00  0.0000E+00
     -4.314 -0.2838E-27 -0.2018E-28
     -4.243 -0.8253E-25 -0.5889E-26
     -4.172 -0.1864E-22 -0.1332E-23
     -4.101 -0.3263E-20 -0.2333E-21
     -4.030 -0.4422E-18 -0.3167E-19
     -3.959 -0.4639E-16 -0.3330E-17
     -3.888 -0.3765E-14 -0.2711E-15
     -3.817 -0.2286E-12 -0.1652E-13
     -3.746 -0.1108E-10 -0.8041E-12
     -3.675 -0.4128E-09 -0.3015E-10
     -3.603 -0.1185E-07 -0.8727E-09
     -3.532 -0.2615E-06 -0.1947E-07
     -3.461 -0.4427E-05 -0.3343E-06
     -3.390 -0.5728E-04 -0.4407E-05
     -3.319 -0.5635E-03 -0.4448E-04
     -3.248 -0.4184E-02 -0.3420E-03
     -3.177 -0.2314E-01 -0.1988E-02
     -3.106 -0.9324E-01 -0.8617E-02
     -3.035 -0.2604E+00 -0.2714E-01
     -2.963 -0.4363E+00 -0.5816E-01
     -2.892 -0.1152E+00 -0.6636E-01
     -2.821  0.1552E+01  0.4400E-01
     -2.750  0.4702E+01  0.3783E+00
     -2.679  0.7668E+01  0.9235E+00
     -2.608  0.8082E+01  0.1498E+01
     -2.537  0.5577E+01  0.1895E+01
     -2.466  0.2245E+01  0.2054E+01
     -2.395  0.1512E+00  0.2065E+01
     -2.324 -0.4347E+00  0.2034E+01
     -2.252 -0.3216E+00  0.2011E+01
     -2.181 -0.1631E+00  0.2000E+01
     -2.110 -0.1914E+00  0.1986E+01
     -2.039 -0.4711E+00  0.1953E+01
     -1.968 -0.8511E+00  0.1892E+01
     -1.897 -0.4451E+00  0.1861E+01
     -1.826  0.2420E+01  0.2033E+01
     -1.755  0.8346E+01  0.2626E+01
     -1.684  0.1445E+02  0.3653E+01
     -1.612  0.1600E+02  0.4791E+01
     -1.541  0.1208E+02  0.5650E+01
     -1.470  0.7260E+01  0.6167E+01
     -1.399  0.5894E+01  0.6586E+01
     -1.328  0.7105E+01  0.7091E+01
     -1.257  0.7172E+01  0.7601E+01
     -1.186  0.4768E+01  0.7940E+01
     -1.115  0.1724E+01  0.8063E+01
     -1.044 -0.1160E+00  0.8054E+01
     -0.973 -0.7293E+00  0.8002E+01
     -0.901 -0.9641E+00  0.7934E+01
     -0.830 -0.9427E+00  0.7867E+01
     -0.759  0.5962E+00  0.7909E+01
     -0.688  0.5200E+01  0.8279E+01
     -0.617  0.1192E+02  0.9127E+01
     -0.546  0.1632E+02  0.1029E+02
     -0.475  0.1455E+02  0.1132E+02
     -0.404  0.8131E+01  0.1190E+02
     -0.333  0.2449E+01  0.1207E+02
     -0.261  0.1252E+01  0.1216E+02
     -0.190  0.4008E+01  0.1245E+02
     -0.119  0.7285E+01  0.1297E+02
     -0.048  0.7861E+01  0.1352E+02
      0.023  0.5378E+01  0.1391E+02
      0.094  0.2072E+01  0.1405E+02
      0.165 -0.6183E-01  0.1405E+02
      0.236 -0.9321E+00  0.1398E+02
      0.307 -0.1323E+01  0.1389E+02
      0.378 -0.1033E+01  0.1382E+02
      0.450  0.1747E+01  0.1394E+02
      0.521  0.8593E+01  0.1455E+02
      0.592  0.1750E+02  0.1580E+02
      0.663  0.2279E+02  0.1742E+02
      0.734  0.2081E+02  0.1890E+02
      0.805  0.1447E+02  0.1992E+02
      0.876  0.9570E+01  0.2060E+02
      0.947  0.7897E+01  0.2117E+02
      1.018  0.6800E+01  0.2165E+02
      1.090  0.4318E+01  0.2196E+02
      1.161  0.1373E+01  0.2205E+02
      1.232 -0.6296E+00  0.2201E+02
      1.303 -0.1552E+01  0.2190E+02
      1.374 -0.1245E+01  0.2181E+02
      1.445  0.1920E+01  0.2195E+02
      1.516  0.9408E+01  0.2262E+02
      1.587  0.1868E+02  0.2394E+02
      1.658  0.2332E+02  0.2560E+02
      1.729  0.1996E+02  0.2702E+02
      1.801  0.1337E+02  0.2797E+02
      1.872  0.1103E+02  0.2876E+02
      1.943  0.1403E+02  0.2975E+02
      2.014  0.1717E+02  0.3098E+02
      2.085  0.1661E+02  0.3216E+02
      2.156  0.1305E+02  0.3308E+02
      2.227  0.8568E+01  0.3369E+02
      2.298  0.4332E+01  0.3400E+02
      2.369  0.1159E+01  0.3408E+02
      2.441 -0.5016E+00  0.3405E+02
      2.512 -0.1070E+01  0.3397E+02
      2.583 -0.1117E+01  0.3389E+02
      2.654 -0.2307E+00  0.3388E+02
      2.725  0.2943E+01  0.3409E+02
      2.796  0.9169E+01  0.3474E+02
      2.867  0.1674E+02  0.3593E+02
      2.938  0.2147E+02  0.3745E+02
      3.009  0.1987E+02  0.3887E+02
      3.081  0.1282E+02  0.3978E+02
      3.152  0.4995E+01  0.4013E+02
      3.223  0.2944E+00  0.4015E+02
      3.294 -0.1029E+01  0.4008E+02
      3.365 -0.8186E+00  0.4002E+02
      3.436 -0.5879E+00  0.3998E+02
      3.507 -0.8717E+00  0.3992E+02
      3.578 -0.1392E+01  0.3982E+02
      3.649 -0.7119E+00  0.3977E+02
      3.720  0.3650E+01  0.4003E+02
      3.792  0.1288E+02  0.4095E+02
      3.863  0.2404E+02  0.4265E+02
      3.934  0.3131E+02  0.4488E+02
      4.005  0.3109E+02  0.4709E+02
      4.076  0.2483E+02  0.4886E+02
      4.147  0.1712E+02  0.5007E+02
      4.218  0.1155E+02  0.5090E+02
      4.289  0.8214E+01  0.5148E+02
      4.360  0.5141E+01  0.5185E+02
      4.432  0.1646E+01  0.5196E+02
      4.503 -0.8981E+00  0.5190E+02
      4.574 -0.3345E+00  0.5188E+02
      4.645  0.5022E+01  0.5223E+02
      4.716  0.1409E+02  0.5323E+02
      4.787  0.2154E+02  0.5477E+02
      4.858  0.2233E+02  0.5635E+02
      4.929  0.1872E+02  0.5768E+02
      5.000  0.1856E+02  0.5900E+02
      5.071  0.2542E+02  0.6081E+02
      5.143  0.3426E+02  0.6325E+02
      5.214  0.3736E+02  0.6591E+02
      5.285  0.3157E+02  0.6815E+02
      5.356  0.1987E+02  0.6956E+02
      5.427  0.8261E+01  0.7015E+02
      5.498  0.1053E+01  0.7023E+02
      5.569 -0.1533E+01  0.7012E+02
      5.640 -0.1800E+01  0.6999E+02
      5.711 -0.1429E+01  0.6989E+02
      5.783  0.8068E-01  0.6989E+02
      5.854  0.4347E+01  0.7020E+02
      5.925  0.1101E+02  0.7098E+02
      5.996  0.1605E+02  0.7213E+02
      6.067  0.1518E+02  0.7321E+02
      6.138  0.9103E+01  0.7385E+02
      6.209  0.2941E+01  0.7406E+02
      6.280  0.9229E+00  0.7413E+02
      6.351  0.3198E+01  0.7435E+02
      6.422  0.6719E+01  0.7483E+02
      6.494  0.7974E+01  0.7540E+02
      6.565  0.5782E+01  0.7581E+02
      6.636  0.1897E+01  0.7595E+02
      6.707 -0.9510E+00  0.7588E+02
      6.778 -0.4518E+00  0.7585E+02
      6.849  0.5052E+01  0.7620E+02
      6.920  0.1457E+02  0.7724E+02
      6.991  0.2288E+02  0.7887E+02
      7.062  0.2517E+02  0.8066E+02
      7.134  0.2333E+02  0.8232E+02
      7.205  0.2285E+02  0.8394E+02
      7.276  0.2441E+02  0.8568E+02
      7.347  0.2387E+02  0.8737E+02
      7.418  0.1911E+02  0.8873E+02
      7.489  0.1206E+02  0.8959E+02
      7.560  0.5444E+01  0.8998E+02
      7.631  0.7268E+00  0.9003E+02
      7.702 -0.1481E+01  0.8992E+02
      7.773 -0.3659E+00  0.8990E+02
      7.845  0.5084E+01  0.9026E+02
      7.916  0.1380E+02  0.9124E+02
      7.987  0.2088E+02  0.9272E+02
      8.058  0.2133E+02  0.9424E+02
      8.129  0.1650E+02  0.9541E+02
      8.200  0.1356E+02  0.9638E+02
      8.271  0.1704E+02  0.9759E+02
      8.342  0.2396E+02  0.9929E+02
      8.413  0.2904E+02  0.1014E+03
      8.485  0.3049E+02  0.1035E+03
      8.556  0.2826E+02  0.1055E+03
      8.627  0.2166E+02  0.1071E+03
      8.698  0.1206E+02  0.1079E+03
      8.769  0.3610E+01  0.1082E+03
      8.840 -0.8932E+00  0.1081E+03
      8.911 -0.2081E+01  0.1080E+03
      8.982 -0.1363E+01  0.1079E+03
      9.053  0.1563E+01  0.1080E+03
      9.124  0.7295E+01  0.1085E+03
      9.196  0.1360E+02  0.1095E+03
      9.267  0.1617E+02  0.1106E+03
      9.338  0.1378E+02  0.1116E+03
      9.409  0.1031E+02  0.1123E+03
      9.480  0.1042E+02  0.1131E+03
      9.551  0.1511E+02  0.1142E+03
      9.622  0.2150E+02  0.1157E+03
      9.693  0.2454E+02  0.1174E+03
      9.764  0.2064E+02  0.1189E+03
      9.836  0.1158E+02  0.1197E+03
      9.907  0.3510E+01  0.1200E+03
      9.978  0.1840E+01  0.1201E+03
     10.049  0.7374E+01  0.1206E+03
     10.120  0.1619E+02  0.1218E+03
     10.191  0.2317E+02  0.1234E+03
     10.262  0.2696E+02  0.1253E+03
     10.333  0.3006E+02  0.1275E+03
     10.404  0.3328E+02  0.1298E+03
     10.475  0.3334E+02  0.1322E+03
     10.547  0.2752E+02  0.1342E+03
     10.618  0.1753E+02  0.1354E+03
     10.689  0.7683E+01  0.1360E+03
     10.760  0.1340E+01  0.1361E+03
     10.831 -0.2668E+00  0.1360E+03
     10.902  0.2586E+01  0.1362E+03
     10.973  0.8625E+01  0.1368E+03
     11.044  0.1548E+02  0.1379E+03
     11.115  0.1968E+02  0.1393E+03
     11.187  0.1822E+02  0.1406E+03
     11.258  0.1199E+02  0.1415E+03
     11.329  0.6808E+01  0.1420E+03
     11.400  0.8765E+01  0.1426E+03
     11.471  0.1780E+02  0.1439E+03
     11.542  0.2710E+02  0.1458E+03
     11.613  0.3004E+02  0.1479E+03
     11.684  0.2692E+02  0.1498E+03
     11.755  0.2285E+02  0.1515E+03
     11.826  0.2037E+02  0.1529E+03
     11.898  0.1787E+02  0.1542E+03
     11.969  0.1371E+02  0.1552E+03
     12.040  0.8268E+01  0.1557E+03
     12.111  0.2979E+01  0.1560E+03
     12.182 -0.4798E+00  0.1559E+03
     12.253 -0.2113E+00  0.1559E+03
     12.324  0.5209E+01  0.1563E+03
     12.395  0.1441E+02  0.1573E+03
     12.466  0.2210E+02  0.1589E+03
     12.538  0.2365E+02  0.1606E+03
     12.609  0.2069E+02  0.1620E+03
     12.680  0.1820E+02  0.1633E+03
     12.751  0.1684E+02  0.1645E+03
     12.822  0.1332E+02  0.1655E+03
     12.893  0.6918E+01  0.1660E+03
     12.964  0.8170E+00  0.1660E+03
     13.035 -0.1949E+01  0.1659E+03
     13.106  0.1417E+00  0.1659E+03
     13.177  0.7779E+01  0.1664E+03
     13.249  0.1912E+02  0.1678E+03
     13.320  0.2880E+02  0.1698E+03
     13.391  0.3202E+02  0.1721E+03
     13.462  0.2867E+02  0.1742E+03
     13.533  0.2216E+02  0.1757E+03
     13.604  0.1572E+02  0.1769E+03
     13.675  0.1110E+02  0.1776E+03
     13.746  0.8772E+01  0.1783E+03
     13.817  0.7931E+01  0.1788E+03
     13.889  0.7449E+01  0.1794E+03
     13.960  0.7802E+01  0.1799E+03
     14.031  0.1067E+02  0.1807E+03
     14.102  0.1554E+02  0.1818E+03
     14.173  0.1940E+02  0.1832E+03
     14.244  0.2071E+02  0.1846E+03
     14.315  0.2069E+02  0.1861E+03
     14.386  0.2008E+02  0.1875E+03
     14.457  0.1787E+02  0.1888E+03
     14.528  0.1415E+02  0.1898E+03
     14.600  0.1088E+02  0.1906E+03
     14.671  0.8929E+01  0.1912E+03
     14.742  0.6906E+01  0.1917E+03
     14.813  0.3970E+01  0.1920E+03
     14.884  0.1204E+01  0.1921E+03
     14.955 -0.2260E+00  0.1921E+03
     15.026 -0.4617E+00  0.1920E+03
     15.097 -0.2648E+00  0.1920E+03
     15.168 -0.9379E-01  0.1920E+03
     15.240 -0.2320E-01  0.1920E+03
     15.311 -0.4188E-02  0.1920E+03
     15.382 -0.5638E-03  0.1920E+03
     15.453 -0.5729E-04  0.1920E+03
     15.524 -0.4428E-05  0.1920E+03
     15.595 -0.2615E-06  0.1920E+03
     15.666 -0.1185E-07  0.1920E+03
     15.737 -0.4128E-09  0.1920E+03
     15.808 -0.1108E-10  0.1920E+03
     15.880 -0.2248E-12  0.1920E+03
     15.951 -0.6245E-14  0.1920E+03
     16.022  0.0000E+00  0.1920E+03
     16.093  0.0000E+00  0.1920E+03
     16.164  0.0000E+00  0.1920E+03
     16.235  0.0000E+00  0.1920E+03
     16.306  0.0000E+00  0.1920E+03
     16.377  0.0000E+00  0.1920E+03
     16.448  0.0000E+00  0.1920E+03
     16.519  0.0000E+00  0.1920E+03
     16.591  0.0000E+00  0.1920E+03
     16.662  0.0000E+00  0.1920E+03
