 vasp.5.2.2 15Apr09 complex 
 executed on             LinuxIFC date 2016.12.16  16:07:17
 running on   32 nodes
 distr:  one band on    1 nodes,   32 groups


--------------------------------------------------------------------------------------------------------


 INCAR:
 POTCAR:   PAW_PBE Al 04Jan2001                   
 POTCAR:   PAW_PBE Mg 05Jan2001                   
 POTCAR:   PAW_PBE Al 04Jan2001                   
   VRHFIN =Al: s2p1                                                             
   LEXCH  = PE                                                                  
   EATOM  =    53.5387 eV,    3.9350 Ry                                         
                                                                                
   TITEL  = PAW_PBE Al 04Jan2001                                                
   LULTRA =        F    use ultrasoft PP ?                                      
   IUNSCR =        1    unscreen: 0-lin 1-nonlin 2-no                           
   RPACOR =    1.500    partial core radius                                     
   POMASS =   26.982; ZVAL   =    3.000    mass and valenz                      
   RCORE  =    1.900    outmost cutoff radius                                   
   RWIGS  =    2.650; RWIGS  =    1.402    wigner-seitz radius (au A)           
   ENMAX  =  240.300; ENMIN  =  180.225 eV                                      
   ICORE  =        2    local potential                                         
   LCOR   =        T    correct aug charges                                     
   LPAW   =        T    paw PP                                                  
   EAUG   =  291.052                                                            
   DEXC   =    -.041                                                            
   RMAX   =    2.974    core radius for proj-oper                               
   RAUG   =    1.300    factor for augmentation sphere                          
   RDEP   =    1.966    radius for radial grids                                 
   QCUT   =   -4.203; QGAM   =    8.405    optimization parameters              
                                                                                
   Description                                                                  
     l     E      TYP  RCUT    TYP  RCUT                                        
     0   .000     23  1.900                                                     
     0   .000     23  1.900                                                     
     1   .000     23  1.900                                                     
     1  1.000     23  1.900                                                     
     2   .000      7  1.900                                                     
  local pseudopotential read in
  partial core-charges read in
  atomic valenz-charges read in
  non local Contribution for L=           0  read in
    real space projection operators read in
  non local Contribution for L=           0  read in
    real space projection operators read in
  non local Contribution for L=           1  read in
    real space projection operators read in
  non local Contribution for L=           1  read in
    real space projection operators read in
    PAW grid and wavefunctions read in
 
   number of l-projection  operators is LMAX  =           4
   number of lm-projection operators is LMMAX =           8
 
 POTCAR:   PAW_PBE Mg 05Jan2001                   
   VRHFIN =Mg: s2p0                                                             
   LEXCH  = PE                                                                  
   EATOM  =    23.0029 eV,    1.6907 Ry                                         
                                                                                
   TITEL  = PAW_PBE Mg 05Jan2001                                                
   LULTRA =        F    use ultrasoft PP ?                                      
   IUNSCR =        1    unscreen: 0-lin 1-nonlin 2-no                           
   RPACOR =    2.000    partial core radius                                     
   POMASS =   24.305; ZVAL   =    2.000    mass and valenz                      
   RCORE  =    2.000    outmost cutoff radius                                   
   RWIGS  =    2.880; RWIGS  =    1.524    wigner-seitz radius (au A)           
   ENMAX  =  210.012; ENMIN  =  157.509 eV                                      
   ICORE  =        2    local potential                                         
   LCOR   =        T    correct aug charges                                     
   LPAW   =        T    paw PP                                                  
   EAUG   =  274.554                                                            
   DEXC   =    -.136                                                            
   RMAX   =    3.182    core radius for proj-oper                               
   RAUG   =    1.300    factor for augmentation sphere                          
   RDEP   =    2.025    radius for radial grids                                 
   QCUT   =   -3.929; QGAM   =    7.858    optimization parameters              
                                                                                
   Description                                                                  
     l     E      TYP  RCUT    TYP  RCUT                                        
     0   .000     23  2.000                                                     
     0  2.000     23  2.000                                                     
     1   .000     23  2.000                                                     
     1  2.000     23  2.000                                                     
     2   .000     23  2.000                                                     
  local pseudopotential read in
  partial core-charges read in
  atomic valenz-charges read in
  non local Contribution for L=           0  read in
    real space projection operators read in
  non local Contribution for L=           0  read in
    real space projection operators read in
  non local Contribution for L=           1  read in
    real space projection operators read in
  non local Contribution for L=           1  read in
    real space projection operators read in
    PAW grid and wavefunctions read in
 
   number of l-projection  operators is LMAX  =           4
   number of lm-projection operators is LMMAX =           8
 

 ----------------------------------------------------------------------------- 
|                                                                             |
|  ADVICE TO THIS USER RUNNING 'VASP/VAMP'   (HEAR YOUR MASTER'S VOICE ...):  |
|                                                                             |
|      You have a (more or less) 'large supercell' and for larger cells       |
|      it might be more efficient to use real space projection operators      |
|      So try LREAL= Auto  in the INCAR   file.                               |
|      Mind: If you want to do a very accurate calculations keep the          |
|      reciprocal projection scheme          (i.e. LREAL=.FALSE.)             |
|                                                                             |
 ----------------------------------------------------------------------------- 

 PAW_PBE Al 04Jan2001                   :
 energy of atom  1       EATOM=  -53.5387
 kinetic energy error for atom=    0.0011 (will be added to EATOM!!)
 PAW_PBE Mg 05Jan2001                   :
 energy of atom  2       EATOM=  -23.0029
 kinetic energy error for atom=    0.0002 (will be added to EATOM!!)
 
 
 POSCAR: Mg1 Al32                                
  positions in direct lattice
  velocities in cartesian coordinates
 exchange correlation table for  LEXCH =        8
   RHO(1)=    0.500       N(1)  =     2000
   RHO(2)=  100.500       N(2)  =     4000

 VTST: version 2.03d, (02/18/09)

 CHAIN: initializing optimizer
 
 OPT: Using VASP Dynamics algorithm
 CHAIN: Read ICHAIN            0
 


--------------------------------------------------------------------------------------------------------


 ion  position               nearest neighbor table
   1  0.000  0.000  0.006-   2 2.79   4 2.79   6 2.79  12 2.79  18 2.80  20 2.80  22 2.80  28 2.80
                             7 2.92  11 2.92   3 2.92  15 2.92
   2  0.244  0.000  0.250-   1 2.79   4 2.79  12 2.79  17 2.79   5 2.80  16 2.80   8 2.80  21 2.80
                             3 2.92  19 2.92  11 2.92  27 2.92
   3  0.255  0.255  0.995-  13 2.86  24 2.86  26 2.86  10 2.87   5 2.87  18 2.87  20 2.87   8 2.87
                             9 2.87   1 2.92   2 2.92   4 2.92  33 3.43
   4  0.000  0.244  0.250-   1 2.79   2 2.79   6 2.79  17 2.79  10 2.80  14 2.80   9 2.80  25 2.80
                             7 2.92  19 2.92  23 2.92   3 2.92
   5  0.500  0.000  0.017-  24 2.62  32 2.62   8 2.66  16 2.66   2 2.80   6 2.80  15 2.87   7 2.87
                             3 2.87  11 2.87  18 3.05  22 3.05
   6  0.756  0.000  0.250-   1 2.79   4 2.79  12 2.79  17 2.79   5 2.80  16 2.80   8 2.80  21 2.80
                            15 2.92   7 2.92  23 2.92  31 2.92
   7  0.745  0.255  0.995-  13 2.86  24 2.86  30 2.86   5 2.87  14 2.87  20 2.87  22 2.87   8 2.87
                             9 2.87   6 2.92   4 2.92   1 2.92  33 3.43
   8  0.500  0.233  0.250-  13 2.62  29 2.62  21 2.66   5 2.66   6 2.80   2 2.80  19 2.87   7 2.87
                            23 2.87   3 2.87  10 3.05  14 3.05
   9  0.000  0.500  0.017-  26 2.62  30 2.62  10 2.66  14 2.66  12 2.80   4 2.80   3 2.87  15 2.87
                            11 2.87   7 2.87  28 3.05  20 3.05
  10  0.233  0.500  0.250-  13 2.62  29 2.62  25 2.66   9 2.66  12 2.80   4 2.80  19 2.87   3 2.87
                            27 2.87  11 2.87   8 3.05  16 3.05
  11  0.255  0.745  0.995-  13 2.86  26 2.86  32 2.86   5 2.87  16 2.87  18 2.87   9 2.87  28 2.87
                            10 2.87   2 2.92   1 2.92  12 2.92  33 3.43
  12  0.000  0.756  0.250-   1 2.79   2 2.79   6 2.79  17 2.79  10 2.80  14 2.80   9 2.80  25 2.80
                            11 2.92  15 2.92  27 2.92  31 2.92
  13  0.500  0.500  0.068-  33 2.57  10 2.62  14 2.62  16 2.62   8 2.62   3 2.86  15 2.86   7 2.86
                            11 2.86  29 2.95
  14  0.767  0.500  0.250-  13 2.62  29 2.62  25 2.66   9 2.66  12 2.80   4 2.80  23 2.87   7 2.87
                            15 2.87  31 2.87   8 3.05  16 3.05
  15  0.745  0.745  0.995-  13 2.86  30 2.86  32 2.86  14 2.87  16 2.87  22 2.87  28 2.87   9 2.87
                             5 2.87   1 2.92  12 2.92   6 2.92  33 3.43
  16  0.500  0.767  0.250-  13 2.62  29 2.62  21 2.66   5 2.66   6 2.80   2 2.80  11 2.87  27 2.87
                            15 2.87  31 2.87  14 3.05  10 3.05
  17  0.000  0.000  0.494-   2 2.79   4 2.79   6 2.79  12 2.79  18 2.80  20 2.80  22 2.80  28 2.80
                            23 2.92  27 2.92  19 2.92  31 2.92
  18  0.233  0.000  0.750-  24 2.62  32 2.62  28 2.66  20 2.66   1 2.80  17 2.80   3 2.87  27 2.87
                            19 2.87  11 2.87   5 3.05  21 3.05
  19  0.255  0.255  0.505-  24 2.86  26 2.86  29 2.86  20 2.87  21 2.87   8 2.87  25 2.87  10 2.87
                            18 2.87   4 2.92  17 2.92   2 2.92  33 3.43
  20  0.000  0.233  0.750-  26 2.62  30 2.62  18 2.66  22 2.66   1 2.80  17 2.80   3 2.87  23 2.87
                             7 2.87  19 2.87   9 3.05  25 3.05
  21  0.500  0.000  0.483-  24 2.62  32 2.62   8 2.66  16 2.66   2 2.80   6 2.80  19 2.87  27 2.87
                            31 2.87  23 2.87  22 3.05  18 3.05
  22  0.767  0.000  0.750-  24 2.62  32 2.62  28 2.66  20 2.66   1 2.80  17 2.80   7 2.87  15 2.87
                            31 2.87  23 2.87  21 3.05   5 3.05
  23  0.745  0.255  0.505-  24 2.86  29 2.86  30 2.86  21 2.87  22 2.87   8 2.87  25 2.87  14 2.87
                            20 2.87   6 2.92  17 2.92   4 2.92  33 3.43
  24  0.500  0.182  0.750-  33 2.57  18 2.62  21 2.62  22 2.62   5 2.62   7 2.86   3 2.86  23 2.86
                            19 2.86  32 2.95
  25  0.000  0.500  0.483-  26 2.62  30 2.62  10 2.66  14 2.66  12 2.80   4 2.80  19 2.87  27 2.87
                            23 2.87  31 2.87  20 3.05  28 3.05
  26  0.182  0.500  0.750-  33 2.57  20 2.62  25 2.62  28 2.62   9 2.62  11 2.86  27 2.86  19 2.86
                             3 2.86  30 2.95
  27  0.255  0.745  0.505-  26 2.86  29 2.86  32 2.86  21 2.87  25 2.87  10 2.87  28 2.87  16 2.87
                            18 2.87   2 2.92  17 2.92  12 2.92  33 3.43
  28  0.000  0.767  0.750-  26 2.62  30 2.62  18 2.66  22 2.66   1 2.80  17 2.80  15 2.87  27 2.87
                            11 2.87  31 2.87   9 3.05  25 3.05
  29  0.500  0.500  0.432-  33 2.57  10 2.62  14 2.62  16 2.62   8 2.62  23 2.86  27 2.86  31 2.86
                            19 2.86  13 2.95
  30  0.818  0.500  0.750-  33 2.57  20 2.62  25 2.62  28 2.62   9 2.62  15 2.86   7 2.86  31 2.86
                            23 2.86  26 2.95
  31  0.745  0.745  0.505-  29 2.86  30 2.86  32 2.86  22 2.87  25 2.87  28 2.87  14 2.87  16 2.87
                            21 2.87  12 2.92  17 2.92   6 2.92  33 3.43
  32  0.500  0.818  0.750-  33 2.57  18 2.62  21 2.62  22 2.62   5 2.62  11 2.86  27 2.86  31 2.86
                            15 2.86  24 2.95
  33  0.500  0.500  0.750-  13 2.57  24 2.57  26 2.57  29 2.57  30 2.57  32 2.57  23 3.43   7 3.43
                            11 3.43  27 3.43   3 3.43  15 3.43  31 3.43  19 3.43
 
  LATTYP: Found a simple cubic cell.
 ALAT       =     8.0870400000
  
  Lattice vectors:
  
 A1 = (   8.0870400000,   0.0000000000,   0.0000000000)
 A2 = (   0.0000000000,   8.0870400000,   0.0000000000)
 A3 = (   0.0000000000,   0.0000000000,   8.0870400000)
 Subroutine PRICEL returns:
 Original cell was already a primitive cell.
 

Analysis of symmetry for initial positions (statically):

 Routine SETGRP: Setting up the symmetry group for a 
 simple cubic supercell.


 Subroutine GETGRP returns: Found 48 space group operations
 (whereof  8 operations were pure point group operations)
 out of a pool of 48 trial point group operations.


The static configuration has the point symmetry C_4v.
 The point group associated with its full space group is O_h .

Analysis of symmetry for dynamics (positions and initial velocities):

 Subroutine DYNSYM returns: Found 48 space group operations
 (whereof  8 operations were pure point group operations)
 out of a pool of 48 trial space group operations
 (whereof  8 operations were pure point group operations)
 and found also     1 'primitive' translations


The dynamic configuration has the point symmetry C_4v.
 The point group associated with its full space group is O_h .
 
 
 KPOINTS: Automatic kpoint scheme                 

Automatic generation of k-mesh.
 
 Subroutine IBZKPT returns following result:
 ===========================================
 
 Found      1 irreducible k-points:
 
 Following reciprocal coordinates:
            Coordinates               Weight
  0.250000  0.250000  0.250000      8.000000
 
 Following cartesian coordinates:
            Coordinates               Weight
  0.030914  0.030914  0.030914      8.000000
 


--------------------------------------------------------------------------------------------------------




 Dimension of arrays:
   k-points           NKPTS =      1   k-points in BZ     NKDIM =      1   number of bands    NBANDS=     96
   number of dos      NEDOS =    301   number of ions     NIONS =     33
   non local maximal  LDIM  =      4   non local SUM 2l+1 LMDIM =      8
   total plane-waves  NPLWV = 110592
   max r-space proj   IRMAX =      1   max aug-charges    IRDMAX=   9081
   dimension x,y,z NGX =    48 NGY =   48 NGZ =   48
   dimension x,y,z NGXF=    96 NGYF=   96 NGZF=   96
   support grid    NGXF=    96 NGYF=   96 NGZF=   96
   ions per type =              32   1
 NGX,Y,Z   is equivalent  to a cutoff of   9.87,  9.87,  9.87 a.u.
 NGXF,Y,Z  is equivalent  to a cutoff of  19.73, 19.73, 19.73 a.u.


 I would recommend the setting:
   dimension x,y,z NGX =    46 NGY =   46 NGZ =   46
 SYSTEM =  unknown system                          
 POSCAR =  Mg1 Al32                                

 Startparameter for this run:
   NWRITE =      2    write-flag & timer
   PREC   = accura    medium, high low
   ISTART =      0    job   : 0-new  1-cont  2-samecut
   ICHARG =      2    charge: 1-file 2-atom 10-const
   ISPIN  =      1    spin polarized calculation?
   LNONCOLLINEAR =      F non collinear calculations
   LSORBIT =      F    spin-orbit coupling
   INIWAV =      1    electr: 0-lowe 1-rand  2-diag
   LASPH  =      F    aspherical Exc in radial PAW
   METAGGA=      F    non-selfconsistent MetaGGA calc.

 Electronic Relaxation 1
   ENCUT  =  300.0 eV  22.05 Ry    4.70 a.u.  11.42 11.42 11.42*2*pi/ulx,y,z
   ENINI  =  300.0     initial cutoff
   ENAUG  =  291.1 eV  augmentation charge cutoff
   NELM   =     60;   NELMIN=  2; NELMDL=-12     # of ELM steps 
   EDIFF  = 0.1E-03   stopping-criterion for ELM
   LREAL  =      F    real-space projection
   LCOMPAT=      F    compatible to vasp.4.4
   LREAL_COMPAT= F    compatible to vasp.4.5.1-3
   GGA_COMPAT  = T    GGA compatible to vasp.4.4-vasp.4.6
   LMAXPAW     = -100 max onsite density
   LMAXMIX     =    2 max onsite mixed and CHGCAR
   VOSKOWN=      0    Vosko Wilk Nusair interpolation
   ROPT   =    0.00000   0.00000
 Ionic relaxation
   EDIFFG = 0.5E-01   stopping-criterion for IOM
   NSW    =      0    number of steps for IOM
   NBLOCK =      1;   KBLOCK =      1    inner block; outer block 
   IBRION =     -1    ionic relax: 0-MD 1-quasi-New 2-CG
   NFREE  =      0    steps in history (QN), initial steepest desc. (CG)
   ISIF   =      2    stress and relaxation
   IWAVPR =     10    prediction:  0-non 1-charg 2-wave 3-comb
   ISYM   =      2    0-nonsym 1-usesym 2-fastsym
   LCORR  =      T    Harris-Foulkes like correction to forces

   POTIM  = 0.5000    time-step for ionic-motion
   TEIN   =    0.0    initial temperature
   TEBEG  =    0.0;   TEEND  =   0.0 temperature during run
   SMASS  =  -3.00    Nose mass-parameter (am)
   estimated Nose-frequenzy (Omega)   =  0.10E-29 period in steps =****** mass=  -0.149E-26a.u.
   NPACO  =    256;   APACO  = 16.0  distance and # of slots for P.C.
   PSTRESS=    0.0 pullay stress

  Mass of Ions in am
   POMASS =  26.98 24.30
  Ionic Valenz
   ZVAL   =   3.00  2.00
  Atomic Wigner-Seitz radii
   RWIGS  =  -1.00 -1.00
   NELECT =      98.0000    total number of electrons
   NUPDOWN=      -1.0000    fix difference up-down

 DOS related values:
   EMIN   =  10.00;   EMAX   =-10.00  energy-range for DOS
   EFERMI =   0.00
   ISMEAR =     1;   SIGMA  =   0.20  broadening in eV -4-tet -1-fermi 0-gaus

 Electronic relaxation 2 (details)
   IALGO  =     48    algorithm
   LDIAG  =      T    sub-space diagonalisation
   IMIX   =      4    mixing-type and parameters
     AMIX     =   0.40;   BMIX     =  1.00
     AMIX_MAG =   1.60;   BMIX_MAG =  1.00
     AMIN     =   0.10
     WC   =   100.;   INIMIX=   1;  MIXPRE=   1

 Intra band minimization:
   WEIMIN = 0.0000     energy-eigenvalue tresh-hold
   EBREAK =  0.38E-06  absolut break condition
   DEPER  =   0.30     relativ break condition  

   TIME   =   0.40     timestep for ELM

  volume/ion in A,a.u.               =      16.03       108.16
  Fermi-wavevector in a.u.,A,eV,Ry     =   0.933313  1.763706 11.851667  0.871073
  Thomas-Fermi vector in A             =   2.060001
 
 Write flags
   LWAVE  =      F    write WAVECAR
   LCHARG =      F    write CHGCAR
   LVTOT  =      F    write LOCPOT, local potential
   LELF   =      F    write electronic localiz. function (ELF)
   LORBIT =      0    0 simple, 1 ext, 2 COOP (PROOUT)


 Dipole corrections
   LMONO  =      F    monopole corrections only (constant potential shift)
   LDIPOL =      F    correct potential (dipole corrections)
   IDIPOL =      0    1-x, 2-y, 3-z, 4-all directions 
   EPSILON=  1.0000000 bulk dielectric constant

 Exchange correlation treatment:
   GGA     =    --    GGA type
   LEXCH   =     8    internal setting for exchange type
   VOSKOWN=      0    Vosko Wilk Nusair interpolation
   LHFCALC =     F    Hartree Fock is set to
   LHFONE  =     F    Hartree Fock one center treatment
   AEXX    =    0.0000 exact exchange contribution

 Linear response parameters
   LEPSILON=     F    determine dielectric tensor
   LRPA    =     F    only Hartree local field effects (RPA)
   LNABLA  =     F    use nabla operator in PAW spheres
   LVEL    =     F    velocity operator in full k-point grid
   LINTERFAST=   F  fast interpolation
   KINTER  =     0    interpolate to denser k-point grid
   CSHIFT  =0.1000    complex shift for real part using Kramers Kronig
   OMEGAMAX=  -1.0    maximum frequency

 Orbital magnetization related:
   ORBITALMAG=     F  switch on orbital magnetization
   LCHIMAG   =     F  perturbation theory with respect to B field



--------------------------------------------------------------------------------------------------------


 Static calculation
 charge density and potential will be updated during run
 non-spin polarized calculation
 RMM-DIIS sequential band-by-band
 perform sub-space diagonalisation
    before iterative eigenvector-optimisation
 modified Broyden-mixing scheme, WC =      100.0
 initial mixing is a Kerker type mixing with AMIX =  0.4000 and BMIX =      1.0000
 Hartree-type preconditioning will be used
 using additional bands           47
 reciprocal scheme for non local part
 use partial core corrections
 calculate Harris-corrections to forces 
   (improved forces if not selfconsistent)
 use gradient corrections 
 use of overlap-Matrix (Vanderbilt PP)
 Methfessel and Paxton  Order N= 1 SIGMA  =   0.20


--------------------------------------------------------------------------------------------------------


  energy-cutoff  :      300.00
  volume of cell :      528.89
      direct lattice vectors                 reciprocal lattice vectors
     8.087040000  0.000000000  0.000000000     0.123654638  0.000000000  0.000000000
     0.000000000  8.087040000  0.000000000     0.000000000  0.123654638  0.000000000
     0.000000000  0.000000000  8.087040000     0.000000000  0.000000000  0.123654638

  length of vectors
     8.087040000  8.087040000  8.087040000     0.123654638  0.123654638  0.123654638


 
 k-points in units of 2pi/SCALE and weight: Automatic kpoint scheme                 
   0.03091366  0.03091366  0.03091366       1.000
 
 k-points in reciprocal lattice and weights: Automatic kpoint scheme                 
   0.25000000  0.25000000  0.25000000       1.000
 
 position of ions in fractional coordinates (direct lattice) 
   0.00000000  0.00000000  0.00573900
   0.24426100  0.00000000  0.25000000
   0.25509700  0.25509700  0.99490300
   0.00000000  0.24426100  0.25000000
   0.50000000  0.00000000  0.01698800
   0.75573900  0.00000000  0.25000000
   0.74490300  0.25509700  0.99490300
   0.50000000  0.23301200  0.25000000
   0.00000000  0.50000000  0.01698800
   0.23301200  0.50000000  0.25000000
   0.25509700  0.74490300  0.99490300
   0.00000000  0.75573900  0.25000000
   0.50000000  0.50000000  0.06750300
   0.76698800  0.50000000  0.25000000
   0.74490300  0.74490300  0.99490300
   0.50000000  0.76698800  0.25000000
   0.00000000  0.00000000  0.49426100
   0.23301200  0.00000000  0.75000000
   0.25509700  0.25509700  0.50509700
   0.00000000  0.23301200  0.75000000
   0.50000000  0.00000000  0.48301200
   0.76698800  0.00000000  0.75000000
   0.74490300  0.25509700  0.50509700
   0.50000000  0.18249700  0.75000000
   0.00000000  0.50000000  0.48301200
   0.18249700  0.50000000  0.75000000
   0.25509700  0.74490300  0.50509700
   0.00000000  0.76698800  0.75000000
   0.50000000  0.50000000  0.43249700
   0.81750300  0.50000000  0.75000000
   0.74490300  0.74490300  0.50509700
   0.50000000  0.81750300  0.75000000
   0.50000000  0.50000000  0.75000000
 
 position of ions in cartesian coordinates  (Angst):
   0.00000000  0.00000000  0.04641152
   1.97534848  0.00000000  2.02176000
   2.06297964  2.06297964  8.04582036
   0.00000000  1.97534848  2.02176000
   4.04352000  0.00000000  0.13738264
   6.11169152  0.00000000  2.02176000
   6.02406036  2.06297964  8.04582036
   4.04352000  1.88437736  2.02176000
   0.00000000  4.04352000  0.13738264
   1.88437736  4.04352000  2.02176000
   2.06297964  6.02406036  8.04582036
   0.00000000  6.11169152  2.02176000
   4.04352000  4.04352000  0.54589946
   6.20266264  4.04352000  2.02176000
   6.02406036  6.02406036  8.04582036
   4.04352000  6.20266264  2.02176000
   0.00000000  0.00000000  3.99710848
   1.88437736  0.00000000  6.06528000
   2.06297964  2.06297964  4.08473964
   0.00000000  1.88437736  6.06528000
   4.04352000  0.00000000  3.90613736
   6.20266264  0.00000000  6.06528000
   6.02406036  2.06297964  4.08473964
   4.04352000  1.47586054  6.06528000
   0.00000000  4.04352000  3.90613736
   1.47586054  4.04352000  6.06528000
   2.06297964  6.02406036  4.08473964
   0.00000000  6.20266264  6.06528000
   4.04352000  4.04352000  3.49762054
   6.61117946  4.04352000  6.06528000
   6.02406036  6.02406036  4.08473964
   4.04352000  6.61117946  6.06528000
   4.04352000  4.04352000  6.06528000
 


--------------------------------------------------------------------------------------------------------


 k-point  1 :  0.25000.25000.2500  plane waves:    6238

 maximum and minimum number of plane-waves per node :    6238   6238

 maximum number of plane-waves:    6238
 maximal index in each direction: 
   IXMAX= 11   IYMAX= 11   IZMAX= 11
   IXMIN=-11   IYMIN=-11   IZMIN=-11

 NGX is ok and might be reduce to  46
 NGY is ok and might be reduce to  46
 NGZ is ok and might be reduce to  46

 serial   3D FFT for wavefunctions
 parallel 3D FFT for charge:
    minimum data exchange during FFTs selected (reduces bandwidth)


 total amount of memory used by VASP on root node  55665. kBytes
========================================================================

   base      :    30000. kBytes
   nonl-proj :     4093. kBytes
   fftplans  :     1413. kBytes
   grid      :    19745. kBytes
   one-center:      101. kBytes
   wavefun   :      313. kBytes
 
 Broyden mixing: mesh for mixing (old mesh)
   NGX = 23   NGY = 23   NGZ = 23
  (NGX  = 96   NGY  = 96   NGZ  = 96)
  gives a total of  12167 points

 initial charge density was supplied:
 charge density of overlapping atoms calculated
 number of electron   98.0000000 magnetization 
 keeping initial charge density in first step


--------------------------------------------------------------------------------------------------------


 Maximum index for augmentation-charges          478 (set IRDMAX)


--------------------------------------------------------------------------------------------------------


 First call to EWALD:  gamma=   0.219
 Maximum number of real-space cells 3x 3x 3
 Maximum number of reciprocal cells 3x 3x 3

    FEWALD:  cpu time    0.02: real time    0.02
   RESPFUN:  cpu time    0.00: real time    0.00


----------------------------------------- Iteration    1(   1)  ---------------------------------------


    POTLOK:  cpu time    0.09: real time    0.09
    SETDIJ:  cpu time    0.01: real time    0.01
    EDDIAG:  cpu time    0.09: real time    0.09
  RMM-DIIS:  cpu time    0.18: real time    0.18
    ORTHCH:  cpu time    0.01: real time    0.01
       DOS:  cpu time    0.00: real time    0.00
    --------------------------------------------
      LOOP:  cpu time    0.38: real time    0.40

 eigenvalue-minimisations  :    96
 total energy-change (2. order) : 0.1665000E+03  (-0.1463555E+04)
 number of electron   98.0000000 magnetization 
 augmentation part    98.0000000 magnetization 

 Free energy of the ion-electron system (eV)
  ---------------------------------------------------
  alpha Z        PSCENC =        -8.27958290
  Ewald energy   TEWEN  =     -2388.44974173
  -1/2 Hartree   DENC   =       -11.87755676
  -exchange  EXHF       =         0.00000000
  -V(xc)+E(xc)   XCENC  =      -845.58801294
  PAW double counting   =      1149.32568210     -115.70169129
  entropy T*S    EENTRO =         0.03002433
  eigenvalues    EBANDS =       650.83417480
  atomic energy  EATOM  =      1736.20668909
  ---------------------------------------------------
  free energy    TOTEN  =       166.49998470 eV

  energy without entropy =      166.46996037  energy(sigma->0) =      166.48997659


--------------------------------------------------------------------------------------------------------




----------------------------------------- Iteration    1(   2)  ---------------------------------------


    EDDIAG:  cpu time    0.12: real time    0.12
  RMM-DIIS:  cpu time    0.18: real time    0.18
    ORTHCH:  cpu time    0.01: real time    0.01
       DOS:  cpu time    0.00: real time    0.00
    --------------------------------------------
      LOOP:  cpu time    0.30: real time    0.38

 eigenvalue-minimisations  :    96
 total energy-change (2. order) :-0.2299364E+03  (-0.2133455E+03)
 number of electron   98.0000000 magnetization 
 augmentation part    98.0000000 magnetization 

 Free energy of the ion-electron system (eV)
  ---------------------------------------------------
  alpha Z        PSCENC =        -8.27958290
  Ewald energy   TEWEN  =     -2388.44974173
  -1/2 Hartree   DENC   =       -11.87755676
  -exchange  EXHF       =         0.00000000
  -V(xc)+E(xc)   XCENC  =      -845.58801294
  PAW double counting   =      1149.32568210     -115.70169129
  entropy T*S    EENTRO =         0.00301326
  eigenvalues    EBANDS =       420.92482245
  atomic energy  EATOM  =      1736.20668909
  ---------------------------------------------------
  free energy    TOTEN  =       -63.43637873 eV

  energy without entropy =      -63.43939198  energy(sigma->0) =      -63.43738314


--------------------------------------------------------------------------------------------------------




----------------------------------------- Iteration    1(   3)  ---------------------------------------


    EDDIAG:  cpu time    0.09: real time    0.09
  RMM-DIIS:  cpu time    0.18: real time    0.18
    ORTHCH:  cpu time    0.01: real time    0.01
       DOS:  cpu time    0.00: real time    0.00
    --------------------------------------------
      LOOP:  cpu time    0.27: real time    0.28

 eigenvalue-minimisations  :    96
 total energy-change (2. order) :-0.4153311E+02  (-0.3525670E+02)
 number of electron   98.0000000 magnetization 
 augmentation part    98.0000000 magnetization 

 Free energy of the ion-electron system (eV)
  ---------------------------------------------------
  alpha Z        PSCENC =        -8.27958290
  Ewald energy   TEWEN  =     -2388.44974173
  -1/2 Hartree   DENC   =       -11.87755676
  -exchange  EXHF       =         0.00000000
  -V(xc)+E(xc)   XCENC  =      -845.58801294
  PAW double counting   =      1149.32568210     -115.70169129
  entropy T*S    EENTRO =        -0.07828039
  eigenvalues    EBANDS =       379.47300764
  atomic energy  EATOM  =      1736.20668909
  ---------------------------------------------------
  free energy    TOTEN  =      -104.96948718 eV

  energy without entropy =     -104.89120679  energy(sigma->0) =     -104.94339371


--------------------------------------------------------------------------------------------------------




----------------------------------------- Iteration    1(   4)  ---------------------------------------


    EDDIAG:  cpu time    0.09: real time    0.09
  RMM-DIIS:  cpu time    0.17: real time    0.17
    ORTHCH:  cpu time    0.01: real time    0.01
       DOS:  cpu time    0.00: real time    0.00
    --------------------------------------------
      LOOP:  cpu time    0.27: real time    0.28

 eigenvalue-minimisations  :    96
 total energy-change (2. order) :-0.9770509E+01  (-0.6493748E+01)
 number of electron   98.0000000 magnetization 
 augmentation part    98.0000000 magnetization 

 Free energy of the ion-electron system (eV)
  ---------------------------------------------------
  alpha Z        PSCENC =        -8.27958290
  Ewald energy   TEWEN  =     -2388.44974173
  -1/2 Hartree   DENC   =       -11.87755676
  -exchange  EXHF       =         0.00000000
  -V(xc)+E(xc)   XCENC  =      -845.58801294
  PAW double counting   =      1149.32568210     -115.70169129
  entropy T*S    EENTRO =        -0.01877143
  eigenvalues    EBANDS =       369.64299009
  atomic energy  EATOM  =      1736.20668909
  ---------------------------------------------------
  free energy    TOTEN  =      -114.73999577 eV

  energy without entropy =     -114.72122434  energy(sigma->0) =     -114.73373863


--------------------------------------------------------------------------------------------------------




----------------------------------------- Iteration    1(   5)  ---------------------------------------


    EDDIAG:  cpu time    0.11: real time    0.11
  RMM-DIIS:  cpu time    0.21: real time    0.21
    ORTHCH:  cpu time    0.01: real time    0.01
       DOS:  cpu time    0.00: real time    0.00
    --------------------------------------------
      LOOP:  cpu time    0.34: real time    0.34

 eigenvalue-minimisations  :    96
 total energy-change (2. order) :-0.2202176E+01  (-0.1326748E+01)
 number of electron   98.0000000 magnetization 
 augmentation part    98.0000000 magnetization 

 Free energy of the ion-electron system (eV)
  ---------------------------------------------------
  alpha Z        PSCENC =        -8.27958290
  Ewald energy   TEWEN  =     -2388.44974173
  -1/2 Hartree   DENC   =       -11.87755676
  -exchange  EXHF       =         0.00000000
  -V(xc)+E(xc)   XCENC  =      -845.58801294
  PAW double counting   =      1149.32568210     -115.70169129
  entropy T*S    EENTRO =        -0.01850481
  eigenvalues    EBANDS =       367.44054770
  atomic energy  EATOM  =      1736.20668909
  ---------------------------------------------------
  free energy    TOTEN  =      -116.94217153 eV

  energy without entropy =     -116.92366672  energy(sigma->0) =     -116.93600326


--------------------------------------------------------------------------------------------------------




----------------------------------------- Iteration    1(   6)  ---------------------------------------


    EDDIAG:  cpu time    0.09: real time    0.09
  RMM-DIIS:  cpu time    0.18: real time    0.18
    ORTHCH:  cpu time    0.01: real time    0.01
       DOS:  cpu time    0.00: real time    0.00
    --------------------------------------------
      LOOP:  cpu time    0.27: real time    0.28

 eigenvalue-minimisations  :    96
 total energy-change (2. order) :-0.4121222E+00  (-0.2861436E+00)
 number of electron   98.0000000 magnetization 
 augmentation part    98.0000000 magnetization 

 Free energy of the ion-electron system (eV)
  ---------------------------------------------------
  alpha Z        PSCENC =        -8.27958290
  Ewald energy   TEWEN  =     -2388.44974173
  -1/2 Hartree   DENC   =       -11.87755676
  -exchange  EXHF       =         0.00000000
  -V(xc)+E(xc)   XCENC  =      -845.58801294
  PAW double counting   =      1149.32568210     -115.70169129
  entropy T*S    EENTRO =        -0.01738258
  eigenvalues    EBANDS =       367.02730326
  atomic energy  EATOM  =      1736.20668909
  ---------------------------------------------------
  free energy    TOTEN  =      -117.35429375 eV

  energy without entropy =     -117.33691117  energy(sigma->0) =     -117.34849956


--------------------------------------------------------------------------------------------------------




----------------------------------------- Iteration    1(   7)  ---------------------------------------


    EDDIAG:  cpu time    0.09: real time    0.09
  RMM-DIIS:  cpu time    0.17: real time    0.18
    ORTHCH:  cpu time    0.01: real time    0.01
       DOS:  cpu time    0.00: real time    0.00
    --------------------------------------------
      LOOP:  cpu time    0.27: real time    0.28

 eigenvalue-minimisations  :    96
 total energy-change (2. order) :-0.8148844E-01  (-0.6371578E-01)
 number of electron   98.0000000 magnetization 
 augmentation part    98.0000000 magnetization 

 Free energy of the ion-electron system (eV)
  ---------------------------------------------------
  alpha Z        PSCENC =        -8.27958290
  Ewald energy   TEWEN  =     -2388.44974173
  -1/2 Hartree   DENC   =       -11.87755676
  -exchange  EXHF       =         0.00000000
  -V(xc)+E(xc)   XCENC  =      -845.58801294
  PAW double counting   =      1149.32568210     -115.70169129
  entropy T*S    EENTRO =        -0.01676009
  eigenvalues    EBANDS =       366.94519233
  atomic energy  EATOM  =      1736.20668909
  ---------------------------------------------------
  free energy    TOTEN  =      -117.43578219 eV

  energy without entropy =     -117.41902210  energy(sigma->0) =     -117.43019549


--------------------------------------------------------------------------------------------------------




----------------------------------------- Iteration    1(   8)  ---------------------------------------


    EDDIAG:  cpu time    0.09: real time    0.09
  RMM-DIIS:  cpu time    0.17: real time    0.17
    ORTHCH:  cpu time    0.01: real time    0.01
       DOS:  cpu time    0.00: real time    0.00
    --------------------------------------------
      LOOP:  cpu time    0.27: real time    0.28

 eigenvalue-minimisations  :    96
 total energy-change (2. order) :-0.1811717E-01  (-0.1543090E-01)
 number of electron   98.0000000 magnetization 
 augmentation part    98.0000000 magnetization 

 Free energy of the ion-electron system (eV)
  ---------------------------------------------------
  alpha Z        PSCENC =        -8.27958290
  Ewald energy   TEWEN  =     -2388.44974173
  -1/2 Hartree   DENC   =       -11.87755676
  -exchange  EXHF       =         0.00000000
  -V(xc)+E(xc)   XCENC  =      -845.58801294
  PAW double counting   =      1149.32568210     -115.70169129
  entropy T*S    EENTRO =        -0.01650531
  eigenvalues    EBANDS =       366.92682038
  atomic energy  EATOM  =      1736.20668909
  ---------------------------------------------------
  free energy    TOTEN  =      -117.45389936 eV

  energy without entropy =     -117.43739405  energy(sigma->0) =     -117.44839759


--------------------------------------------------------------------------------------------------------




----------------------------------------- Iteration    1(   9)  ---------------------------------------


    EDDIAG:  cpu time    0.09: real time    0.09
  RMM-DIIS:  cpu time    0.43: real time    0.43
    ORTHCH:  cpu time    0.01: real time    0.01
       DOS:  cpu time    0.00: real time    0.00
    --------------------------------------------
      LOOP:  cpu time    0.53: real time    0.53

 eigenvalue-minimisations  :   241
 total energy-change (2. order) :-0.5550559E-02  (-0.5145868E-02)
 number of electron   98.0000000 magnetization 
 augmentation part    98.0000000 magnetization 

 Free energy of the ion-electron system (eV)
  ---------------------------------------------------
  alpha Z        PSCENC =        -8.27958290
  Ewald energy   TEWEN  =     -2388.44974173
  -1/2 Hartree   DENC   =       -11.87755676
  -exchange  EXHF       =         0.00000000
  -V(xc)+E(xc)   XCENC  =      -845.58801294
  PAW double counting   =      1149.32568210     -115.70169129
  entropy T*S    EENTRO =        -0.01640361
  eigenvalues    EBANDS =       366.92116812
  atomic energy  EATOM  =      1736.20668909
  ---------------------------------------------------
  free energy    TOTEN  =      -117.45944992 eV

  energy without entropy =     -117.44304631  energy(sigma->0) =     -117.45398205


--------------------------------------------------------------------------------------------------------




----------------------------------------- Iteration    1(  10)  ---------------------------------------


    EDDIAG:  cpu time    0.09: real time    0.09
  RMM-DIIS:  cpu time    0.45: real time    0.46
    ORTHCH:  cpu time    0.01: real time    0.01
       DOS:  cpu time    0.00: real time    0.00
    --------------------------------------------
      LOOP:  cpu time    0.55: real time    0.56

 eigenvalue-minimisations  :   226
 total energy-change (2. order) :-0.5613932E-03  (-0.4537734E-03)
 number of electron   98.0000000 magnetization 
 augmentation part    98.0000000 magnetization 

 Free energy of the ion-electron system (eV)
  ---------------------------------------------------
  alpha Z        PSCENC =        -8.27958290
  Ewald energy   TEWEN  =     -2388.44974173
  -1/2 Hartree   DENC   =       -11.87755676
  -exchange  EXHF       =         0.00000000
  -V(xc)+E(xc)   XCENC  =      -845.58801294
  PAW double counting   =      1149.32568210     -115.70169129
  entropy T*S    EENTRO =        -0.01639295
  eigenvalues    EBANDS =       366.92059607
  atomic energy  EATOM  =      1736.20668909
  ---------------------------------------------------
  free energy    TOTEN  =      -117.46001131 eV

  energy without entropy =     -117.44361836  energy(sigma->0) =     -117.45454700


--------------------------------------------------------------------------------------------------------




----------------------------------------- Iteration    1(  11)  ---------------------------------------


    EDDIAG:  cpu time    0.09: real time    0.09
  RMM-DIIS:  cpu time    0.44: real time    0.44
    ORTHCH:  cpu time    0.01: real time    0.01
       DOS:  cpu time    0.00: real time    0.00
    --------------------------------------------
      LOOP:  cpu time    0.53: real time    0.54

 eigenvalue-minimisations  :   190
 total energy-change (2. order) :-0.2301515E-04  (-0.2041832E-04)
 number of electron   98.0000000 magnetization 
 augmentation part    98.0000000 magnetization 

 Free energy of the ion-electron system (eV)
  ---------------------------------------------------
  alpha Z        PSCENC =        -8.27958290
  Ewald energy   TEWEN  =     -2388.44974173
  -1/2 Hartree   DENC   =       -11.87755676
  -exchange  EXHF       =         0.00000000
  -V(xc)+E(xc)   XCENC  =      -845.58801294
  PAW double counting   =      1149.32568210     -115.70169129
  entropy T*S    EENTRO =        -0.01639257
  eigenvalues    EBANDS =       366.92057267
  atomic energy  EATOM  =      1736.20668909
  ---------------------------------------------------
  free energy    TOTEN  =      -117.46003433 eV

  energy without entropy =     -117.44364176  energy(sigma->0) =     -117.45457014


--------------------------------------------------------------------------------------------------------




----------------------------------------- Iteration    1(  12)  ---------------------------------------


    EDDIAG:  cpu time    0.09: real time    0.09
  RMM-DIIS:  cpu time    0.36: real time    0.36
    ORTHCH:  cpu time    0.01: real time    0.01
       DOS:  cpu time    0.00: real time    0.00
    CHARGE:  cpu time    0.13: real time    0.13
    MIXING:  cpu time    0.00: real time    0.00
    --------------------------------------------
      LOOP:  cpu time    0.59: real time    0.60

 eigenvalue-minimisations  :   142
 total energy-change (2. order) :-0.3399125E-05  (-0.3251842E-05)
 number of electron   98.0000000 magnetization 
 augmentation part    -1.1402430 magnetization 

 Broyden mixing:
  rms(total) = 0.58208E+00    rms(broyden)= 0.58206E+00
  rms(prec ) = 0.92701E+00
  weight for this iteration     100.00

 Free energy of the ion-electron system (eV)
  ---------------------------------------------------
  alpha Z        PSCENC =        -8.27958290
  Ewald energy   TEWEN  =     -2388.44974173
  -1/2 Hartree   DENC   =       -11.87755676
  -exchange  EXHF       =         0.00000000
  -V(xc)+E(xc)   XCENC  =      -845.58801294
  PAW double counting   =      1149.32568210     -115.70169129
  entropy T*S    EENTRO =        -0.01639252
  eigenvalues    EBANDS =       366.92056922
  atomic energy  EATOM  =      1736.20668909
  ---------------------------------------------------
  free energy    TOTEN  =      -117.46003773 eV

  energy without entropy =     -117.44364520  energy(sigma->0) =     -117.45457355


--------------------------------------------------------------------------------------------------------




----------------------------------------- Iteration    1(  13)  ---------------------------------------


    POTLOK:  cpu time    0.08: real time    0.08
    SETDIJ:  cpu time    0.01: real time    0.01
    EDDIAG:  cpu time    0.09: real time    0.09
  RMM-DIIS:  cpu time    0.43: real time    0.43
    ORTHCH:  cpu time    0.01: real time    0.01
       DOS:  cpu time    0.00: real time    0.00
    CHARGE:  cpu time    0.11: real time    0.11
    MIXING:  cpu time    0.00: real time    0.00
    --------------------------------------------
      LOOP:  cpu time    0.72: real time    0.76

 eigenvalue-minimisations  :   208
 total energy-change (2. order) : 0.8465957E+00  (-0.6204926E-01)
 number of electron   98.0000000 magnetization 
 augmentation part    -1.1508809 magnetization 

 Broyden mixing:
  rms(total) = 0.34671E+00    rms(broyden)= 0.34670E+00
  rms(prec ) = 0.50562E+00
  weight for this iteration     100.00

 eigenvalues of (default mixing * dielectric matrix)
  average eigenvalue GAMMA=   2.3261
  2.3261

 Free energy of the ion-electron system (eV)
  ---------------------------------------------------
  alpha Z        PSCENC =        -8.27958290
  Ewald energy   TEWEN  =     -2388.44974173
  -1/2 Hartree   DENC   =       -13.38610495
  -exchange  EXHF       =         0.00000000
  -V(xc)+E(xc)   XCENC  =      -844.25255764
  PAW double counting   =      1154.89921868     -121.59078287
  entropy T*S    EENTRO =        -0.00906018
  eigenvalues    EBANDS =       368.24848051
  atomic energy  EATOM  =      1736.20668909
  ---------------------------------------------------
  free energy    TOTEN  =      -116.61344198 eV

  energy without entropy =     -116.60438180  energy(sigma->0) =     -116.61042192


--------------------------------------------------------------------------------------------------------




----------------------------------------- Iteration    1(  14)  ---------------------------------------


    POTLOK:  cpu time    0.06: real time    0.06
    SETDIJ:  cpu time    0.01: real time    0.01
    EDDIAG:  cpu time    0.09: real time    0.09
  RMM-DIIS:  cpu time    0.43: real time    0.43
    ORTHCH:  cpu time    0.01: real time    0.01
       DOS:  cpu time    0.00: real time    0.00
    CHARGE:  cpu time    0.10: real time    0.10
    MIXING:  cpu time    0.00: real time    0.00
    --------------------------------------------
      LOOP:  cpu time    0.70: real time    0.71

 eigenvalue-minimisations  :   215
 total energy-change (2. order) : 0.3004146E+00  (-0.2142029E-01)
 number of electron   98.0000000 magnetization 
 augmentation part    -1.1693809 magnetization 

 Broyden mixing:
  rms(total) = 0.10926E+00    rms(broyden)= 0.10926E+00
  rms(prec ) = 0.16224E+00
  weight for this iteration     100.00

 eigenvalues of (default mixing * dielectric matrix)
  average eigenvalue GAMMA=   1.9517
  2.5987  1.3047

 Free energy of the ion-electron system (eV)
  ---------------------------------------------------
  alpha Z        PSCENC =        -8.27958290
  Ewald energy   TEWEN  =     -2388.44974173
  -1/2 Hartree   DENC   =       -14.77944057
  -exchange  EXHF       =         0.00000000
  -V(xc)+E(xc)   XCENC  =      -842.52613395
  PAW double counting   =      1160.42286326     -127.50239313
  entropy T*S    EENTRO =        -0.01088035
  eigenvalues    EBANDS =       368.60559287
  atomic energy  EATOM  =      1736.20668909
  ---------------------------------------------------
  free energy    TOTEN  =      -116.31302740 eV

  energy without entropy =     -116.30214706  energy(sigma->0) =     -116.30940062


--------------------------------------------------------------------------------------------------------




----------------------------------------- Iteration    1(  15)  ---------------------------------------


    POTLOK:  cpu time    0.06: real time    0.06
    SETDIJ:  cpu time    0.01: real time    0.01
    EDDIAG:  cpu time    0.09: real time    0.09
  RMM-DIIS:  cpu time    0.43: real time    0.43
    ORTHCH:  cpu time    0.01: real time    0.01
       DOS:  cpu time    0.00: real time    0.00
    CHARGE:  cpu time    0.10: real time    0.10
    MIXING:  cpu time    0.00: real time    0.00
    --------------------------------------------
      LOOP:  cpu time    0.70: real time    0.71

 eigenvalue-minimisations  :   221
 total energy-change (2. order) : 0.3828948E-01  (-0.2261161E-02)
 number of electron   98.0000000 magnetization 
 augmentation part    -1.1813857 magnetization 

 Broyden mixing:
  rms(total) = 0.10955E-01    rms(broyden)= 0.10955E-01
  rms(prec ) = 0.19007E-01
  weight for this iteration     100.00

 eigenvalues of (default mixing * dielectric matrix)
  average eigenvalue GAMMA=   1.8649
  2.6371  1.2594  1.6984

 Free energy of the ion-electron system (eV)
  ---------------------------------------------------
  alpha Z        PSCENC =        -8.27958290
  Ewald energy   TEWEN  =     -2388.44974173
  -1/2 Hartree   DENC   =       -15.16925014
  -exchange  EXHF       =         0.00000000
  -V(xc)+E(xc)   XCENC  =      -841.65972014
  PAW double counting   =      1162.80019009     -130.07454162
  entropy T*S    EENTRO =        -0.01232652
  eigenvalues    EBANDS =       368.36354595
  atomic energy  EATOM  =      1736.20668909
  ---------------------------------------------------
  free energy    TOTEN  =      -116.27473793 eV

  energy without entropy =     -116.26241140  energy(sigma->0) =     -116.27062909


--------------------------------------------------------------------------------------------------------




----------------------------------------- Iteration    1(  16)  ---------------------------------------


    POTLOK:  cpu time    0.06: real time    0.06
    SETDIJ:  cpu time    0.01: real time    0.01
    EDDIAG:  cpu time    0.09: real time    0.09
  RMM-DIIS:  cpu time    0.43: real time    0.43
    ORTHCH:  cpu time    0.01: real time    0.01
       DOS:  cpu time    0.00: real time    0.00
    CHARGE:  cpu time    0.10: real time    0.10
    MIXING:  cpu time    0.00: real time    0.00
    --------------------------------------------
      LOOP:  cpu time    0.70: real time    0.71

 eigenvalue-minimisations  :   224
 total energy-change (2. order) : 0.6217610E-03  (-0.1468960E-03)
 number of electron   98.0000000 magnetization 
 augmentation part    -1.1838436 magnetization 

 Broyden mixing:
  rms(total) = 0.35293E-02    rms(broyden)= 0.35292E-02
  rms(prec ) = 0.50613E-02
  weight for this iteration     100.00

 eigenvalues of (default mixing * dielectric matrix)
  average eigenvalue GAMMA=   1.8483
  2.6349  2.1771  1.2906  1.2906

 Free energy of the ion-electron system (eV)
  ---------------------------------------------------
  alpha Z        PSCENC =        -8.27958290
  Ewald energy   TEWEN  =     -2388.44974173
  -1/2 Hartree   DENC   =       -15.20031710
  -exchange  EXHF       =         0.00000000
  -V(xc)+E(xc)   XCENC  =      -841.59147714
  PAW double counting   =      1163.00105206     -130.29597958
  entropy T*S    EENTRO =        -0.01193115
  eigenvalues    EBANDS =       368.34717228
  atomic energy  EATOM  =      1736.20668909
  ---------------------------------------------------
  free energy    TOTEN  =      -116.27411617 eV

  energy without entropy =     -116.26218502  energy(sigma->0) =     -116.27013912


--------------------------------------------------------------------------------------------------------




----------------------------------------- Iteration    1(  17)  ---------------------------------------


    POTLOK:  cpu time    0.06: real time    0.06
    SETDIJ:  cpu time    0.01: real time    0.01
    EDDIAG:  cpu time    0.09: real time    0.09
  RMM-DIIS:  cpu time    0.35: real time    0.35
    ORTHCH:  cpu time    0.01: real time    0.01
       DOS:  cpu time    0.00: real time    0.00
    --------------------------------------------
      LOOP:  cpu time    0.52: real time    0.53

 eigenvalue-minimisations  :   153
 total energy-change (2. order) :-0.1366397E-05  (-0.7399228E-05)
 number of electron   98.0000000 magnetization 
 augmentation part    -1.1838436 magnetization 

 Free energy of the ion-electron system (eV)
  ---------------------------------------------------
  alpha Z        PSCENC =        -8.27958290
  Ewald energy   TEWEN  =     -2388.44974173
  -1/2 Hartree   DENC   =       -15.20058864
  -exchange  EXHF       =         0.00000000
  -V(xc)+E(xc)   XCENC  =      -841.57956457
  PAW double counting   =      1163.00599976     -130.30583118
  entropy T*S    EENTRO =        -0.01177839
  eigenvalues    EBANDS =       368.34028102
  atomic energy  EATOM  =      1736.20668909
  ---------------------------------------------------
  free energy    TOTEN  =      -116.27411753 eV

  energy without entropy =     -116.26233914  energy(sigma->0) =     -116.27019140


--------------------------------------------------------------------------------------------------------




 average (electrostatic) potential at core
  the test charge radii are     1.0406  1.0714
  (the norm of the test charge is              1.0000)
       1 -72.4004       2 -72.4004       3 -72.3514       4 -72.4004       5 -72.3464
       6 -72.4004       7 -72.3514       8 -72.3464       9 -72.3464      10 -72.3464
      11 -72.3514      12 -72.4004      13 -72.0904      14 -72.3464      15 -72.3514
      16 -72.3464      17 -72.4004      18 -72.3464      19 -72.3514      20 -72.3464
      21 -72.3464      22 -72.3464      23 -72.3514      24 -72.0904      25 -72.3464
      26 -72.0904      27 -72.3514      28 -72.3464      29 -72.0904      30 -72.0904
      31 -72.3514      32 -72.0904      33 -49.6868
 
 
 
 E-fermi :   8.2903     XC(G=0): -10.2562     alpha+bet :-15.2356
   add alpha+bet to get absolut eigen values

 k-point   1 :       0.2500    0.2500    0.2500
  band No.  band energies     occupation 
      1      -2.6700      2.00000
      2      -1.6649      2.00000
      3      -1.6649      2.00000
      4      -1.3297      2.00000
      5      -0.5634      2.00000
      6      -0.5634      2.00000
      7      -0.1134      2.00000
      8       0.6151      2.00000
      9       0.6151      2.00000
     10       0.6997      2.00000
     11       0.9457      2.00000
     12       1.6103      2.00000
     13       1.6103      2.00000
     14       1.6674      2.00000
     15       1.9624      2.00000
     16       1.9624      2.00000
     17       2.1569      2.00000
     18       2.8317      2.00000
     19       2.9574      2.00000
     20       2.9574      2.00000
     21       3.8591      2.00000
     22       3.8591      2.00000
     23       3.9103      2.00000
     24       4.0302      2.00000
     25       4.0302      2.00000
     26       4.2522      2.00000
     27       4.7712      2.00000
     28       4.7712      2.00000
     29       4.8259      2.00000
     30       5.0463      2.00000
     31       5.1098      2.00000
     32       5.1098      2.00000
     33       5.2178      2.00000
     34       5.2178      2.00000
     35       5.2875      2.00000
     36       5.9880      2.00000
     37       5.9880      2.00000
     38       6.4443      2.00000
     39       6.9820      2.00000
     40       6.9930      2.00000
     41       6.9930      2.00000
     42       7.2007      2.00000
     43       7.2822      2.00000
     44       7.2822      2.00000
     45       7.4380      2.00000
     46       7.9656      2.04393
     47       7.9656      2.04393
     48       8.0522      2.07054
     49       8.2937      0.97122
     50       8.3479      0.53420
     51       8.3479      0.53420
     52       8.5218     -0.06937
     53       8.5218     -0.06937
     54       8.5812     -0.05926
     55       9.2221      0.00000
     56       9.2221      0.00000
     57       9.4765      0.00000
     58       9.6519      0.00000
     59       9.6519      0.00000
     60       9.7305      0.00000
     61      10.1343      0.00000
     62      10.1343      0.00000
     63      10.2285      0.00000
     64      10.3680      0.00000
     65      10.3680      0.00000
     66      10.4595      0.00000
     67      10.4595      0.00000
     68      10.5780      0.00000
     69      10.9937      0.00000
     70      11.1427      0.00000
     71      11.1427      0.00000
     72      11.4707      0.00000
     73      11.5498      0.00000
     74      11.5498      0.00000
     75      11.6078      0.00000
     76      11.7915      0.00000
     77      11.7915      0.00000
     78      11.9598      0.00000
     79      12.4460      0.00000
     80      12.4460      0.00000
     81      12.5071      0.00000
     82      12.7304      0.00000
     83      12.7304      0.00000
     84      13.2764      0.00000
     85      13.3000      0.00000
     86      13.3000      0.00000
     87      13.4524      0.00000
     88      13.4524      0.00000
     89      13.6202      0.00000
     90      13.8355      0.00000
     91      14.0965      0.00000
     92      14.1309      0.00000
     93      14.2663      0.00000
     94      14.3747      0.00000
     95      14.4446      0.00000
     96      14.6617      0.00000


--------------------------------------------------------------------------------------------------------


 soft charge-density along one line, spin component           1
         0         1         2         3         4         5         6         7         8         9
 total charge-density along one line
 
 pseudopotential strength for first ion, spin component:           1
  8.438  -0.006   0.000   0.000   0.000   0.000   0.000   0.000
 -0.006   0.000   0.000   0.000   0.000   0.000   0.000   0.000
  0.000   0.000   1.989   0.000   0.000  -0.027   0.000   0.000
  0.000   0.000   0.000   1.989   0.000   0.000  -0.027   0.000
  0.000   0.000   0.000   0.000   1.989   0.000   0.000  -0.027
  0.000   0.000  -0.027   0.000   0.000  -0.012   0.000   0.000
  0.000   0.000   0.000  -0.027   0.000   0.000  -0.012   0.000
  0.000   0.000   0.000   0.000  -0.027   0.000   0.000  -0.012
 total augmentation occupancy for first ion, spin component:           1
  1.291  -0.545   0.000   0.023   0.000   0.000  -0.003   0.000
 -0.545   0.518   0.000   0.014   0.000   0.000  -0.003   0.000
  0.000   0.000   0.750   0.000   0.000  -0.185   0.000   0.000
  0.023   0.014   0.000   0.782   0.000   0.000  -0.204   0.000
  0.000   0.000   0.000   0.000   0.750   0.000   0.000  -0.185
  0.000   0.000  -0.185   0.000   0.000   0.052   0.000   0.000
 -0.003  -0.003   0.000  -0.204   0.000   0.000   0.059   0.000
  0.000   0.000   0.000   0.000  -0.185   0.000   0.000   0.052


------------------------ aborting loop because EDIFF is reached ----------------------------------------




--------------------------------------------------------------------------------------------------------



  FREE ENERGIE OF THE ION-ELECTRON SYSTEM (eV)
  ---------------------------------------------------
  free  energy   TOTEN  =      -116.274118 eV

  energy  without entropy=     -116.262339  energy(sigma->0) =     -116.270191
 
    CHARGE:  cpu time    0.10: real time    0.10
    FORLOC:  cpu time    0.02: real time    0.02
    FORNL :  cpu time    0.15: real time    0.15
    STRESS:  cpu time    0.27: real time    0.27
    FORCOR:  cpu time    0.07: real time    0.07
    FORHAR:  cpu time    0.03: real time    0.03
    MIXING:  cpu time    0.00: real time    0.00

  FORCE on cell =-STRESS in cart. coord.  units (eV):
  Direction    XX          YY          ZZ          XY          YZ          ZX
  --------------------------------------------------------------------------------------
  Alpha Z    -8.27958    -8.27958    -8.27958
  Ewald    -796.15308  -796.15308  -796.15308     0.00000     0.00000     0.00000
  Hartree     5.07200     5.07200     5.07200     0.00000     0.00000     0.00000
  E(xc)    -283.42016  -283.42016  -283.42016     0.00000     0.00000     0.00000
  Local       2.88770     2.88770     2.88770     0.00000     0.00000     0.00000
  n-local   629.59060   629.59073   629.59062    -1.04705    -1.04703    -1.04697
  augment   -31.67409   -31.67409   -31.67409     0.00000     0.00000     0.00000
  Kinetic   502.05080   502.05086   502.05079    -8.39838    -8.39841    -8.39841
  Fock        0.00000     0.00000     0.00000     0.00000     0.00000     0.00000
  -------------------------------------------------------------------------------------
  Total      20.07425    20.07425    20.07425     0.00000     0.00000     0.00000
  in kB      60.81087    60.81087    60.81087     0.00000     0.00000     0.00000
  external pressure =       60.81 kB  Pullay stress =        0.00 kB


 VOLUME and BASIS-vectors are now :
 -----------------------------------------------------------------------------
  energy-cutoff  :      300.00
  volume of cell :      528.89
      direct lattice vectors                 reciprocal lattice vectors
     8.087040000  0.000000000  0.000000000     0.123654638  0.000000000  0.000000000
     0.000000000  8.087040000  0.000000000     0.000000000  0.123654638  0.000000000
     0.000000000  0.000000000  8.087040000     0.000000000  0.000000000  0.123654638

  length of vectors
     8.087040000  8.087040000  8.087040000     0.123654638  0.123654638  0.123654638


 FORCES acting on ions
    electron-ion (+dipol)            ewald-force                    non-local-force                 convergence-correction
 -----------------------------------------------------------------------------------------------
   -.404E-14 -.479E-14 -.135E+01   0.306E-14 0.288E-14 0.163E+01   -.347E-17 0.217E-17 -.347E+00   -.218E-14 0.762E-14 -.914E-03
   0.135E+01 0.132E-13 -.389E-07   -.163E+01 0.818E-15 0.103E-13   0.347E+00 -.130E-17 0.000E+00   0.914E-03 0.995E-14 0.154E-14
   -.241E+01 -.241E+01 0.241E+01   0.237E+01 0.237E+01 -.237E+01   0.645E-01 0.645E-01 -.645E-01   0.768E-03 0.768E-03 -.768E-03
   -.483E-14 0.135E+01 -.389E-07   0.155E-14 -.163E+01 -.204E-14   -.434E-18 0.347E+00 -.217E-17   0.337E-14 0.914E-03 -.162E-13
   -.932E-14 -.309E-13 0.597E+00   0.393E-14 -.183E-14 -.133E+00   0.867E-17 -.694E-17 -.452E+00   0.269E-14 0.491E-15 -.758E-04
   -.135E+01 -.647E-15 0.389E-07   0.163E+01 0.536E-15 -.488E-14   -.347E+00 0.130E-17 0.347E-17   -.914E-03 0.687E-14 0.169E-14
   0.241E+01 -.241E+01 0.241E+01   -.237E+01 0.237E+01 -.237E+01   -.645E-01 0.645E-01 -.645E-01   -.768E-03 0.768E-03 -.768E-03
   -.948E-14 -.597E+00 -.914E-07   -.373E-14 0.133E+00 0.227E-15   -.260E-17 0.452E+00 0.520E-17   -.223E-14 0.751E-04 0.768E-14
   -.237E-14 0.313E-14 0.597E+00   -.454E-14 0.150E-14 -.133E+00   -.520E-17 -.173E-17 -.452E+00   -.574E-14 -.802E-14 -.758E-04
   -.597E+00 -.263E-13 -.914E-07   0.133E+00 0.178E-14 0.353E-14   0.452E+00 -.607E-17 -.260E-17   0.751E-04 -.114E-13 -.115E-13
   -.241E+01 0.241E+01 0.241E+01   0.237E+01 -.237E+01 -.237E+01   0.645E-01 -.645E-01 -.645E-01   0.768E-03 -.768E-03 -.768E-03
   -.677E-14 -.135E+01 0.389E-07   0.622E-16 0.163E+01 -.126E-14   0.217E-17 -.347E+00 0.390E-17   0.456E-16 -.914E-03 -.196E-13
   -.990E-14 -.109E-13 0.149E+02   -.261E-12 -.265E-12 -.143E+02   -.130E-17 -.173E-17 -.403E+00   0.503E-14 -.350E-14 -.217E-02
   0.597E+00 0.174E-13 0.914E-07   -.133E+00 -.149E-14 -.115E-13   -.452E+00 -.781E-17 0.260E-17   -.751E-04 -.815E-14 -.323E-13
   0.241E+01 0.241E+01 0.241E+01   -.237E+01 -.237E+01 -.237E+01   -.645E-01 -.645E-01 -.645E-01   -.768E-03 -.768E-03 -.768E-03
   -.875E-14 0.597E+00 0.914E-07   -.100E-14 -.133E+00 -.997E-14   -.260E-17 -.452E+00 -.520E-17   0.806E-15 -.751E-04 -.146E-14
   -.533E-14 0.674E-14 0.135E+01   -.543E-14 0.201E-14 -.163E+01   -.867E-18 0.304E-17 0.347E+00   -.167E-14 0.106E-13 0.914E-03
   -.597E+00 -.142E-13 -.858E-07   0.133E+00 -.559E-14 -.744E-14   0.452E+00 0.347E-17 0.520E-17   0.757E-04 0.128E-14 -.632E-15
   -.241E+01 -.241E+01 -.241E+01   0.237E+01 0.237E+01 0.237E+01   0.645E-01 0.645E-01 0.645E-01   0.768E-03 0.768E-03 0.768E-03
   -.498E-14 -.597E+00 -.858E-07   -.941E-14 0.133E+00 0.366E-14   -.173E-17 0.452E+00 0.139E-16   -.378E-14 0.757E-04 0.171E-13
   -.945E-14 -.875E-13 -.597E+00   0.437E-14 0.173E-14 0.133E+00   0.000E+00 0.173E-17 0.452E+00   0.242E-14 0.916E-14 0.758E-04
   0.597E+00 0.678E-15 0.858E-07   -.133E+00 -.174E-14 -.778E-14   -.452E+00 0.000E+00 -.121E-16   -.757E-04 0.107E-13 0.369E-15
   0.241E+01 -.241E+01 -.241E+01   -.237E+01 0.237E+01 0.237E+01   -.645E-01 0.645E-01 0.645E-01   -.768E-03 0.768E-03 0.768E-03
   -.110E-13 -.149E+02 -.143E-07   0.275E-14 0.143E+02 0.132E-12   0.000E+00 0.403E+00 0.000E+00   0.528E-14 0.217E-02 -.792E-14
   -.669E-14 -.884E-14 -.597E+00   -.417E-14 0.355E-14 0.133E+00   0.173E-17 -.867E-17 0.452E+00   0.163E-13 -.114E-13 0.758E-04
   -.149E+02 -.217E-13 -.143E-07   0.143E+02 -.329E-12 0.326E-12   0.403E+00 0.000E+00 -.130E-17   0.217E-02 -.366E-14 0.178E-13
   -.241E+01 0.241E+01 -.241E+01   0.237E+01 -.237E+01 0.237E+01   0.645E-01 -.645E-01 0.645E-01   0.768E-03 -.768E-03 0.768E-03
   -.569E-14 0.597E+00 0.858E-07   0.100E-14 -.133E+00 0.111E-14   0.173E-17 -.452E+00 0.000E+00   0.575E-14 -.757E-04 0.200E-13
   -.750E-14 0.250E-13 -.149E+02   -.262E-12 -.257E-12 0.143E+02   0.477E-17 0.607E-17 0.403E+00   -.136E-13 -.123E-13 0.217E-02
   0.149E+02 0.271E-13 0.143E-07   -.143E+02 -.253E-12 0.264E-12   -.403E+00 -.173E-17 0.434E-18   -.217E-02 -.124E-13 0.386E-13
   0.241E+01 0.241E+01 -.241E+01   -.237E+01 -.237E+01 0.237E+01   -.645E-01 -.645E-01 0.645E-01   -.768E-03 -.768E-03 0.768E-03
   -.126E-13 0.149E+02 0.143E-07   -.153E-13 -.143E+02 -.404E-14   0.260E-17 -.403E+00 0.173E-17   -.317E-14 -.217E-02 0.295E-15
   -.630E-14 -.135E-13 -.376E-14   0.351E-15 -.483E-14 -.170E-14   -.529E-22 0.529E-22 -.265E-22   -.265E-14 -.191E-14 0.708E-14
 -----------------------------------------------------------------------------------------------
   -.613E-12 0.248E-12 -.173E-11   0.193E-14 0.200E-13 0.227E-13   -.529E-16 0.167E-15 0.168E-15   0.407E-14 -.263E-14 -.396E-14
 
 
 POSITION                                       TOTAL-FORCE (eV/Angst)
 -----------------------------------------------------------------------------------
      0.00000      0.00000      0.04641         0.000000      0.000000     -0.068192
      1.97535      0.00000      2.02176         0.068192      0.000000      0.000000
      2.06298      2.06298      8.04582         0.025783      0.025783     -0.025783
      0.00000      1.97535      2.02176         0.000000      0.068192      0.000000
      4.04352      0.00000      0.13738         0.000000      0.000000      0.011942
      6.11169      0.00000      2.02176        -0.068192      0.000000      0.000000
      6.02406      2.06298      8.04582        -0.025783      0.025783     -0.025783
      4.04352      1.88438      2.02176         0.000000     -0.011942      0.000000
      0.00000      4.04352      0.13738         0.000000      0.000000      0.011942
      1.88438      4.04352      2.02176        -0.011942      0.000000      0.000000
      2.06298      6.02406      8.04582         0.025783     -0.025783     -0.025783
      0.00000      6.11169      2.02176         0.000000     -0.068192      0.000000
      4.04352      4.04352      0.54590         0.000000      0.000000      0.144566
      6.20266      4.04352      2.02176         0.011942      0.000000      0.000000
      6.02406      6.02406      8.04582        -0.025783     -0.025783     -0.025783
      4.04352      6.20266      2.02176         0.000000      0.011942      0.000000
      0.00000      0.00000      3.99711         0.000000      0.000000      0.068192
      1.88438      0.00000      6.06528        -0.011942      0.000000      0.000000
      2.06298      2.06298      4.08474         0.025783      0.025783      0.025783
      0.00000      1.88438      6.06528         0.000000     -0.011942      0.000000
      4.04352      0.00000      3.90614         0.000000      0.000000     -0.011942
      6.20266      0.00000      6.06528         0.011942      0.000000      0.000000
      6.02406      2.06298      4.08474        -0.025783      0.025783      0.025783
      4.04352      1.47586      6.06528         0.000000     -0.144566      0.000000
      0.00000      4.04352      3.90614         0.000000      0.000000     -0.011942
      1.47586      4.04352      6.06528        -0.144566      0.000000      0.000000
      2.06298      6.02406      4.08474         0.025783     -0.025783      0.025783
      0.00000      6.20266      6.06528         0.000000      0.011942      0.000000
      4.04352      4.04352      3.49762         0.000000      0.000000     -0.144566
      6.61118      4.04352      6.06528         0.144566      0.000000      0.000000
      6.02406      6.02406      4.08474        -0.025783     -0.025783      0.025783
      4.04352      6.61118      6.06528         0.000000      0.144566      0.000000
      4.04352      4.04352      6.06528         0.000000      0.000000      0.000000
 -----------------------------------------------------------------------------------
    total drift:                                0.000000      0.000000      0.000000


--------------------------------------------------------------------------------------------------------


    POTLOK:  cpu time    0.07: real time    0.07


--------------------------------------------------------------------------------------------------------


  FORCES: max atom, RMS     0.144566    0.071977
  FORCE total and by dimension    0.413474    0.144566
     LOOP+:  cpu time    8.67: real time    8.88
    4ORBIT:  cpu time    0.00: real time    0.00

 total amount of memory used by VASP on root node  55665. kBytes
========================================================================

   base      :    30000. kBytes
   nonl-proj :     4093. kBytes
   fftplans  :     1413. kBytes
   grid      :    19745. kBytes
   one-center:      101. kBytes
   wavefun   :      313. kBytes
 
  
  
 General timing and accounting informations for this job:
 ========================================================
  
                  Total CPU time used (sec):       10.138
                            User time (sec):        9.867
                          System time (sec):        0.271
                         Elapsed time (sec):       11.948
  
                   Maximum memory used (kb):           0.
                   Average memory used (kb):           0.
  
                          Minor page faults:        26775
                          Major page faults:            0
                 Voluntary context switches:         2372
