    7    7    1    2
  0.2544720E+02  0.5626600E-09  0.5626600E-09  0.5626600E-09  0.5000000E-15
  1.000000000000000E-004
  CAR 
 unknown system                          
   59    1   39
 
  0.2500000E+00  0.2500000E+00  0.2500000E+00  0.1000000E+01
   1      -12.516733    -12.502139
   2      -12.489375    -12.476105
   3      -12.489375    -12.476104
   4      -12.457876    -12.446481
   5      -12.431681    -12.422135
   6      -12.431681    -12.422135
   7      -12.406179    -12.397718
   8      -12.406178    -12.397717
   9      -12.401271    -12.392886
  10      -12.386566    -12.379280
  11      -12.386566    -12.379280
  12      -12.373823    -12.366725
  13      -12.370676    -12.365140
  14      -12.357242    -12.352012
  15      -12.357241    -12.352011
  16       -9.306284     -9.136668
  17       -8.152275     -7.966465
  18       -8.152275     -7.966464
  19       -7.888186     -7.682233
  20       -3.662406     -3.567831
  21       -3.662406     -3.567831
  22       -2.254659     -2.104324
  23       -0.640125     -0.525608
  24       -0.640125     -0.525608
  25       -0.552322     -0.334873
  26        0.436267      0.556663
  27        0.576686      0.834251
  28        1.103789      1.280907
  29        1.103789      1.280908
  30        2.298080      2.565254
  31        2.298080      2.565254
  32        4.373626      4.486263
  33        4.828760      4.919040
  34        4.828760      4.919040
  35        6.268395      6.378092
  36        7.107844      7.214412
  37        7.107844      7.214412
  38        7.638764      7.753175
  39        7.638765      7.753179
