       N       E                     dE             d eps       ncg     rms          rms(c)
DAV:   1     0.408500132241E+03    0.40850E+03   -0.19953E+04   171   0.165E+03
DAV:   2     0.391374777709E+02   -0.36936E+03   -0.35475E+03   163   0.452E+02
DAV:   3    -0.234685019295E+02   -0.62606E+02   -0.61672E+02   177   0.145E+02
DAV:   4    -0.265349433244E+02   -0.30664E+01   -0.30458E+01   184   0.367E+01
DAV:   5    -0.265953884077E+02   -0.60445E-01   -0.60386E-01   186   0.497E+00    0.120E+01
DAV:   6    -0.272413519169E+02   -0.64596E+00   -0.88862E-01   200   0.894E+00    0.460E+00
DAV:   7    -0.273783928579E+02   -0.13704E+00   -0.21461E-01   201   0.386E+00    0.154E+00
DAV:   8    -0.273726997937E+02    0.56931E-02   -0.10159E-01   178   0.123E+00    0.637E-01
DAV:   9    -0.273775965892E+02   -0.48968E-02   -0.16810E-02   184   0.603E-01    0.231E-01
DAV:  10    -0.273785150122E+02   -0.91842E-03   -0.25406E-03   177   0.323E-01    0.893E-02
DAV:  11    -0.273787107045E+02   -0.19569E-03   -0.60923E-04   176   0.163E-01    0.321E-02
DAV:  12    -0.273787722640E+02   -0.61559E-04   -0.11141E-04   114   0.703E-02
   1 F= -.27378772E+02 E0= -.27368338E+02  d E =-.313039E-01  mag=     1.1386
