    4    4  191    1
  0.1168565E+02  0.3602226E-09  0.3602226E-09  0.3602226E-09  0.5000000E-15
  1.000000000000000E-004
  CAR 
 unknown system                          
   32    1   20
 
  0.0000000E+00  0.0000000E+00  0.0000000E+00  0.1000000E+01
   1       -2.491708
   2        2.451667
   3        2.451667
   4        2.451667
   5        3.349591
   6        3.349591
   7        3.349591
   8        5.905366
   9        5.905366
  10        5.905366
  11        7.542370
  12        7.542370
  13        8.549564
  14        8.549564
  15        8.549564
  16        8.712362
  17        8.712362
  18        8.712362
  19        8.712362
  20        8.731039
