    8    8  100    2
  0.2226630E+02  0.5626600E-09  0.5626600E-09  0.5626600E-09  0.5000000E-15
  1.000000000000000E-004
  CAR 
 unknown system                          
   63    1   41
 
  0.2500000E+00  0.2500000E+00  0.2500000E+00  0.1000000E+01
   1      -11.285680    -11.281482
   2      -11.255292    -11.251758
   3      -11.255291    -11.251758
   4      -11.205457    -11.202665
   5      -11.159787    -11.157465
   6      -11.159786    -11.157465
   7      -11.146776    -11.143945
   8      -11.146225    -11.143944
   9      -11.146224    -11.143926
  10      -11.115545    -11.110321
  11      -11.100001    -11.098864
  12      -11.100000    -11.098863
  13      -11.096667    -11.091929
  14      -11.096666    -11.091928
  15      -11.086176    -11.085218
  16       -9.510032     -9.456393
  17       -7.925975     -7.885660
  18       -7.358333     -7.324692
  19       -7.358333     -7.324692
  20       -5.384288     -5.338702
  21       -2.853175     -2.828343
  22       -2.853175     -2.828343
  23       -1.268938     -1.219822
  24       -0.462998     -0.417989
  25       -0.096494     -0.055893
  26       -0.096494     -0.055893
  27        0.833364      0.866236
  28        0.833365      0.866237
  29        1.509156      1.528335
  30        2.527863      2.557259
  31        2.527863      2.557259
  32        3.556446      3.634972
  33        5.352797      5.393061
  34        5.458025      5.511204
  35        5.458025      5.511204
  36        6.556074      6.623802
  37        7.208490      7.253878
  38        7.208490      7.253878
  39        8.355949      8.388073
  40        8.355949      8.388073
  41        8.822092      8.884667
