<?xml version="1.0" encoding="ISO-8859-1"?>
<modeling>
 <generator>
  <i name="program" type="string">vasp </i>
  <i name="version" type="string">5.2.2  </i>
  <i name="subversion" type="string">15Apr09 complex  parallel </i>
  <i name="platform" type="string">LinuxIFC </i>
  <i name="date" type="string">2013 11 25 </i>
  <i name="time" type="string">22:22:47 </i>
 </generator>
 <incar>
  <i type="string" name="PREC">normal</i>
  <i type="int" name="ISPIN">     2</i>
  <i type="int" name="IBRION">     2</i>
  <i type="int" name="NSW">   100</i>
  <i name="ENCUT">    313.00000000</i>
  <i name="NELECT">     63.00000000</i>
  <i type="logical" name="LWAVE"> F  </i>
  <i type="logical" name="LCHARG"> F  </i>
  <i type="logical" name="LPEAD"> F  </i>
  <i type="logical" name="LCALCPOL"> F  </i>
  <i type="logical" name="LCALCEPS"> F  </i>
  <v name="EFIELD_PEAD">      0.00000000      0.00000000      0.00000000</v>
  <i type="logical" name="LEFG"> F  </i>
 </incar>
 <kpoints>
  <generation param="Monkhorst-Pack">
   <v type="int" name="divisions">       2        2        2 </v>
   <v name="usershift">      0.00000000       0.00000000       0.00000000 </v>
   <v name="genvec1">      0.50000000       0.00000000       0.00000000 </v>
   <v name="genvec2">      0.00000000       0.50000000       0.00000000 </v>
   <v name="genvec3">      0.00000000       0.00000000       0.50000000 </v>
   <v name="shift">      0.50000000       0.50000000       0.50000000 </v>
  </generation>
  <varray name="kpointlist" >
   <v>       0.25000000       0.25000000       0.25000000 </v>
  </varray>
  <varray name="weights" >
   <v>       1.00000000 </v>
  </varray>
 </kpoints>
 <parameters>
  <separator name="general" >
   <i type="string" name="SYSTEM">unknown system</i>
   <i type="logical" name="LCOMPAT"> F  </i>
  </separator>
  <separator name="electronic" >
   <i type="string" name="PREC">normal</i>
   <i name="ENMAX">    313.00000000</i>
   <i name="ENAUG">    490.69000000</i>
   <i name="EDIFF">      0.00010000</i>
   <i type="int" name="IALGO">    38</i>
   <i type="int" name="IWAVPR">    11</i>
   <i type="int" name="NBANDS">    41</i>
   <i name="NELECT">     63.00000000</i>
   <separator name="electronic smearing" >
    <i type="int" name="ISMEAR">     1</i>
    <i name="SIGMA">      0.20000000</i>
   </separator>
   <separator name="electronic projectors" >
    <i type="logical" name="LREAL"> F  </i>
    <v name="ROPT">      0.00000000      0.00000000</v>
    <i type="int" name="LMAXPAW">  -100</i>
    <i type="int" name="LMAXMIX">     2</i>
   </separator>
   <separator name="electronic startup" >
    <i type="int" name="ISTART">     0</i>
    <i type="int" name="ICHARG">     2</i>
    <i type="int" name="INIWAV">     1</i>
   </separator>
   <separator name="electronic spin" >
    <i type="int" name="ISPIN">     2</i>
    <i type="logical" name="LNONCOLLINEAR"> F  </i>
    <v name="MAGMOM">      1.00000000      1.00000000      1.00000000      1.00000000      1.00000000      1.00000000      1.00000000      1.00000000</v>
    <i name="NUPDOWN">     -1.00000000</i>
    <i type="logical" name="LSORBIT"> F  </i>
    <v name="SAXIS">      0.00000000      0.00000000      1.00000000</v>
    <i type="logical" name="LSPIRAL"> F  </i>
    <v name="QSPIRAL">      0.00000000      0.00000000      0.00000000</v>
    <i type="logical" name="LZEROZ"> F  </i>
   </separator>
   <separator name="electronic exchange-correlation" >
    <i type="logical" name="LASPH"> F  </i>
    <i type="logical" name="LMETAGGA"> F  </i>
   </separator>
   <separator name="electronic convergence" >
    <i type="int" name="NELM">    60</i>
    <i type="int" name="NELMDL">    -5</i>
    <i type="int" name="NELMIN">     2</i>
    <i name="ENINI">    313.00000000</i>
    <separator name="electronic convergence detail" >
     <i type="logical" name="LDIAG"> T  </i>
     <i name="WEIMIN">      0.00100000</i>
     <i name="EBREAK">      0.00000061</i>
     <i name="DEPER">      0.30000000</i>
     <i type="int" name="NRMM">     4</i>
     <i name="TIME">      0.40000000</i>
    </separator>
   </separator>
   <separator name="electronic mixer" >
    <i name="AMIX">      0.40000000</i>
    <i name="BMIX">      1.00000000</i>
    <i name="AMIN">      0.10000000</i>
    <i name="AMIX_MAG">      1.60000000</i>
    <i name="BMIX_MAG">      1.00000000</i>
    <separator name="electronic mixer details" >
     <i type="int" name="IMIX">     4</i>
     <i type="int" name="MAXMIX">   -45</i>
     <i name="WC">    100.00000000</i>
     <i type="int" name="INIMIX">     1</i>
     <i type="int" name="MIXPRE">     1</i>
     <i type="int" name="MREMOVE">     5</i>
    </separator>
   </separator>
   <separator name="electronic dipolcorrection" >
    <i type="logical" name="LDIPOL"> F  </i>
    <i type="logical" name="LMONO"> F  </i>
    <i type="int" name="IDIPOL">     0</i>
    <i name="EPSILON">      1.00000000</i>
    <v name="DIPOL">   -100.00000000   -100.00000000   -100.00000000</v>
    <i name="EFIELD">      0.00000000</i>
   </separator>
  </separator>
  <separator name="grids" >
   <i type="int" name="NGX">    24</i>
   <i type="int" name="NGY">    24</i>
   <i type="int" name="NGZ">    24</i>
   <i type="int" name="NGXF">    48</i>
   <i type="int" name="NGYF">    48</i>
   <i type="int" name="NGZF">    48</i>
   <i type="logical" name="ADDGRID"> F  </i>
  </separator>
  <separator name="ionic" >
   <i type="int" name="NSW">   100</i>
   <i type="int" name="IBRION">     2</i>
   <i type="int" name="ISIF">     2</i>
   <i name="PSTRESS">      0.00000000</i>
   <i name="EDIFFG">      0.00100000</i>
   <i type="int" name="NFREE">     1</i>
   <i name="POTIM">      0.50000000</i>
   <i name="SMASS">     -3.00000000</i>
  </separator>
  <separator name="ionic md" >
   <i name="TEBEG">      0.00010000</i>
   <i name="TEEND">      0.00010000</i>
   <i type="int" name="NBLOCK">     1</i>
   <i type="int" name="KBLOCK">   100</i>
   <i type="int" name="NPACO">   256</i>
   <i name="APACO">     16.00000000</i>
  </separator>
  <separator name="symmetry" >
   <i type="int" name="ISYM">     2</i>
   <i name="SYMPREC">      0.00001000</i>
  </separator>
  <separator name="dos" >
   <i type="logical" name="LORBIT"> F  </i>
   <v name="RWIGS">     -1.00000000     -1.00000000</v>
   <i type="int" name="NEDOS">   301</i>
   <i name="EMIN">     10.00000000</i>
   <i name="EMAX">    -10.00000000</i>
   <i name="EFERMI">      0.00000000</i>
  </separator>
  <separator name="writing" >
   <i type="int" name="NWRITE">     2</i>
   <i type="logical" name="LWAVE"> F  </i>
   <i type="logical" name="LCHARG"> F  </i>
   <i type="logical" name="LPARD"> F  </i>
   <i type="logical" name="LVTOT"> F  </i>
   <i type="logical" name="LELF"> F  </i>
   <i type="logical" name="LOPTICS"> F  </i>
   <v name="STM">      0.00000000      0.00000000      0.00000000      0.00000000      0.00000000</v>
  </separator>
  <separator name="performance" >
   <i type="int" name="NPAR">     1</i>
   <i type="int" name="NSIM">     4</i>
   <i type="int" name="NBLK">    32</i>
   <i type="logical" name="LPLANE"> T  </i>
   <i type="logical" name="LSCALAPACK"> F  </i>
   <i type="logical" name="LSCAAWARE"> F  </i>
   <i type="logical" name="LSCALU"> F  </i>
   <i type="logical" name="LASYNC"> F  </i>
  </separator>
  <separator name="miscellaneous" >
   <i type="int" name="IDIOT">     3</i>
   <i type="logical" name="LMUSIC"> F  </i>
   <v name="POMASS">     69.72300000     74.92200000</v>
   <i type="logical" name="LCORR"> T  </i>
  </separator>
  <i type="logical" name="LREAL_COMPAT"> F  </i>
  <i type="logical" name="GGA_COMPAT"> T  </i>
  <i type="logical" name="LBERRY"> F  </i>
  <i type="int" name="ICORELEVEL">     0</i>
  <i type="logical" name="LDAU"> F  </i>
  <i type="int" name="I_CONSTRAINED_M">     0</i>
  <separator name="electronic exchange-correlation" >
   <i type="string" name="GGA">--</i>
   <i type="int" name="VOSKOWN">     0</i>
   <i type="logical" name="LHFCALC"> F  </i>
   <i type="logical" name="LHFONE"> F  </i>
   <i type="logical" name="LRHFCALC"> F  </i>
   <i type="logical" name="LTHOMAS"> F  </i>
   <i type="logical" name="LMODELHF"> F  </i>
   <i name="ENCUTFOCK">      0.00000000</i>
   <i name="ENCUT4O">     -1.00000000</i>
   <i type="int" name="EXXOEP">     0</i>
   <i type="int" name="FOURORBIT">     0</i>
   <i name="AEXX">      0.00000000</i>
   <i name="HFALPHA">      0.00000000</i>
   <i name="ALDAX">      1.00000000</i>
   <i name="AGGAX">      1.00000000</i>
   <i name="ALDAC">      1.00000000</i>
   <i name="AGGAC">      1.00000000</i>
   <i type="int" name="NKREDX">     1</i>
   <i type="int" name="NKREDY">     1</i>
   <i type="int" name="NKREDZ">     1</i>
   <i type="logical" name="SHIFTRED"> F  </i>
   <i type="logical" name="ODDONLY"> F  </i>
   <i type="logical" name="EVENONLY"> F  </i>
   <i type="int" name="LMAXFOCK">     0</i>
   <i type="int" name="NMAXFOCKAE">     0</i>
   <i name="HFSCREEN">      0.00000000</i>
   <i name="HFSCREENC">      0.00000000</i>
  </separator>
  <separator name="model GW" >
   <i type="int" name="MODEL_GW">     0</i>
   <i name="MODEL_EPS0">     13.35978254</i>
   <i name="MODEL_ALPHA">      1.00000000</i>
  </separator>
  <separator name="linear response parameters" >
   <i type="logical" name="LEPSILON"> F  </i>
   <i type="logical" name="LRPA"> F  </i>
   <i type="logical" name="LNABLA"> F  </i>
   <i type="logical" name="LVEL"> F  </i>
   <i type="int" name="KINTER">     0</i>
   <i name="CSHIFT">      0.10000000</i>
   <i name="OMEGAMAX">     -1.00000000</i>
  </separator>
  <separator name="orbital magnetization" >
   <i type="logical" name="ORBITALMAG"> F  </i>
   <i type="logical" name="LMAGBLOCH"> F  </i>
   <i type="logical" name="LCHIMAG"> F  </i>
   <i type="logical" name="LGAUGE"> T  </i>
   <i type="int" name="MAGATOM">     0</i>
   <v name="MAGDIPOL">      0.00000000      0.00000000      0.00000000</v>
   <v name="AVECCONST">      0.00000000      0.00000000      0.00000000</v>
  </separator>
  <separator name="response functions" >
   <i type="logical" name="LRPA"> T  </i>
   <i type="logical" name="LTCTE"> F  </i>
   <i type="logical" name="LTETE"> F  </i>
   <i type="logical" name="L2ORDER"> F  </i>
   <i type="logical" name="LGWLF"> F  </i>
   <i name="ENCUTGW">    208.66666667</i>
   <i name="ENCUTGWSOFT">     -2.00000000</i>
   <i name="ENCUTLF">     -1.00000000</i>
   <i type="int" name="LMAXMP2">    -1</i>
   <i name="SCISSOR">      0.00000000</i>
   <i type="int" name="NOMEGA">     0</i>
   <i type="int" name="NOMEGAR">     0</i>
   <i type="int" name="NBANDSGW">    -1</i>
   <i type="int" name="NBANDSLF">    -1</i>
   <i type="int" name="NELM">     1</i>
   <i type="int" name="DIM">     3</i>
   <i type="int" name="ANTIRES">     0</i>
   <i type="logical" name="LUSEW"> F  </i>
   <i name="OMEGAMAX">    -30.00000000</i>
   <i name="OMEGATL">   -200.00000000</i>
   <i type="int" name="OMEGAGRID">     0</i>
   <i name="CSHIFT">     -0.10000000</i>
   <i type="logical" name="SELFENERGY"> F  </i>
   <i type="logical" name="LSPECTRAL"> F  </i>
   <i type="logical" name="ODDONLYGW"> F  </i>
   <i type="logical" name="EVENONLYGW"> F  </i>
   <i type="int" name="NKREDLFX">     1</i>
   <i type="int" name="NKREDLFY">     1</i>
   <i type="int" name="NKREDLFZ">     1</i>
   <i type="int" name="MAXMEM">  1024</i>
   <i type="int" name="TELESCOPE">     0</i>
  </separator>
 </parameters>
 <atominfo>
  <atoms>       8 </atoms>
  <types>       2 </types>
  <array name="atoms" >
   <dimension dim="1">ion</dimension>
   <field type="string">element</field>
   <field type="int">atomtype</field>
   <set>
    <rc><c>Ga</c><c>   1</c></rc>
    <rc><c>Ga</c><c>   1</c></rc>
    <rc><c>Ga</c><c>   1</c></rc>
    <rc><c>As</c><c>   2</c></rc>
    <rc><c>As</c><c>   2</c></rc>
    <rc><c>As</c><c>   2</c></rc>
    <rc><c>As</c><c>   2</c></rc>
    <rc><c>As</c><c>   2</c></rc>
   </set>
  </array>
  <array name="atomtypes" >
   <dimension dim="1">type</dimension>
   <field type="int">atomspertype</field>
   <field type="string">element</field>
   <field>mass</field>
   <field>valence</field>
   <field type="string">pseudopotential</field>
   <set>
    <rc><c>   3</c><c>Ga</c><c>     69.72300000</c><c>     13.00000000</c><c> PAW_PBE Ga_d 06Sep2000                 </c></rc>
    <rc><c>   5</c><c>As</c><c>     74.92200000</c><c>      5.00000000</c><c> PAW_PBE As 06Sep2000                   </c></rc>
   </set>
  </array>
 </atominfo>
 <structure name="initialpos" >
  <crystal>
   <varray name="basis" >
    <v>       5.62660000       0.00000000       0.00000000 </v>
    <v>       0.00000000       5.62660000       0.00000000 </v>
    <v>       0.00000000       0.00000000       5.62660000 </v>
   </varray>
   <i name="volume">    178.13043383 </i>
   <varray name="rec_basis" >
    <v>       0.17772722       0.00000000       0.00000000 </v>
    <v>       0.00000000       0.17772722       0.00000000 </v>
    <v>       0.00000000       0.00000000       0.17772722 </v>
   </varray>
  </crystal>
  <varray name="positions" >
   <v>       0.50000000       0.50000000       0.00000000 </v>
   <v>       0.00000000       0.50000000       0.50000000 </v>
   <v>       0.50000000       0.00000000       0.50000000 </v>
   <v>       0.00000000       0.00000000       0.00000000 </v>
   <v>       0.25000000       0.25000000       0.25000000 </v>
   <v>       0.75000000       0.75000000       0.25000000 </v>
   <v>       0.25000000       0.75000000       0.75000000 </v>
   <v>       0.75000000       0.25000000       0.75000000 </v>
  </varray>
 </structure>
 <calculation>
  <scstep>
   <time name="dav">    5.65    1.43</time>
   <time name="total">    6.50    2.10</time>
   <energy>
    <i name="alphaZ">    238.57420726 </i>
    <i name="ewald">  -4016.25824363 </i>
    <i name="hartreedc">  -2328.18113793 </i>
    <i name="XCdc">    131.32465102 </i>
    <i name="pawpsdc">   4603.32715501 </i>
    <i name="pawaedc">  -5555.02375600 </i>
    <i name="eentropy">     -0.04360830 </i>
    <i name="bandstr">     54.01693937 </i>
    <i name="atom">   7297.47453259 </i>
    <i name="e_fr_energy">    425.21073939 </i>
    <i name="e_wo_entrp">    425.25434770 </i>
    <i name="e_0_energy">    425.22527549 </i>
   </energy>
  </scstep>
  <scstep>
   <time name="dav">    4.86    1.22</time>
   <time name="total">    4.87    1.22</time>
   <energy>
    <i name="e_fr_energy">     31.78453833 </i>
    <i name="e_wo_entrp">     31.77863679 </i>
    <i name="e_0_energy">     31.78257115 </i>
   </energy>
  </scstep>
  <scstep>
   <time name="dav">    5.72    1.45</time>
   <time name="total">    5.73    1.46</time>
   <energy>
    <i name="e_fr_energy">    -32.71427090 </i>
    <i name="e_wo_entrp">    -32.72013825 </i>
    <i name="e_0_energy">    -32.71622668 </i>
   </energy>
  </scstep>
  <scstep>
   <time name="dav">    5.59    1.42</time>
   <time name="total">    5.60    1.42</time>
   <energy>
    <i name="e_fr_energy">    -35.64525461 </i>
    <i name="e_wo_entrp">    -35.65141013 </i>
    <i name="e_0_energy">    -35.64730645 </i>
   </energy>
  </scstep>
  <scstep>
   <time name="dav">    5.60    1.41</time>
   <time name="total">    5.85    1.55</time>
   <energy>
    <i name="e_fr_energy">    -35.69996288 </i>
    <i name="e_wo_entrp">    -35.70616751 </i>
    <i name="e_0_energy">    -35.70203109 </i>
   </energy>
  </scstep>
  <scstep>
   <time name="dav">    5.97    1.52</time>
   <time name="total">    6.85    2.30</time>
   <energy>
    <i name="e_fr_energy">    -36.52332537 </i>
    <i name="e_wo_entrp">    -36.54229044 </i>
    <i name="e_0_energy">    -36.52964706 </i>
   </energy>
  </scstep>
  <scstep>
   <time name="dav">    6.63    1.69</time>
   <time name="total">    7.50    2.47</time>
   <energy>
    <i name="e_fr_energy">    -36.65335256 </i>
    <i name="e_wo_entrp">    -36.64822289 </i>
    <i name="e_0_energy">    -36.65164267 </i>
   </energy>
  </scstep>
  <scstep>
   <time name="dav">    5.72    1.46</time>
   <time name="total">    6.63    2.23</time>
   <energy>
    <i name="e_fr_energy">    -36.63521291 </i>
    <i name="e_wo_entrp">    -36.60550239 </i>
    <i name="e_0_energy">    -36.62530940 </i>
   </energy>
  </scstep>
  <scstep>
   <time name="dav">    5.12    1.29</time>
   <time name="total">    6.08    2.07</time>
   <energy>
    <i name="e_fr_energy">    -36.63915034 </i>
    <i name="e_wo_entrp">    -36.59826774 </i>
    <i name="e_0_energy">    -36.62552281 </i>
   </energy>
  </scstep>
  <scstep>
   <time name="dav">    6.78    1.73</time>
   <time name="total">    7.76    2.51</time>
   <energy>
    <i name="e_fr_energy">    -36.64000940 </i>
    <i name="e_wo_entrp">    -36.59684647 </i>
    <i name="e_0_energy">    -36.62562175 </i>
   </energy>
  </scstep>
  <scstep>
   <time name="dav">    5.10    1.29</time>
   <time name="total">    6.08    2.06</time>
   <energy>
    <i name="e_fr_energy">    -36.64045622 </i>
    <i name="e_wo_entrp">    -36.59564469 </i>
    <i name="e_0_energy">    -36.62551904 </i>
   </energy>
  </scstep>
  <scstep>
   <time name="dav">    4.95    1.25</time>
   <time name="total">    5.93    2.03</time>
   <energy>
    <i name="e_fr_energy">    -36.64068647 </i>
    <i name="e_wo_entrp">    -36.59443282 </i>
    <i name="e_0_energy">    -36.62526859 </i>
   </energy>
  </scstep>
  <scstep>
   <time name="dav">    3.57    0.90</time>
   <time name="total">    4.28    1.53</time>
   <energy>
    <i name="alphaZ">    238.57420726 </i>
    <i name="ewald">  -4016.25824363 </i>
    <i name="hartreedc">  -2322.35769089 </i>
    <i name="XCdc">    128.32646591 </i>
    <i name="pawpsdc">   4788.97496066 </i>
    <i name="pawaedc">  -5747.52026660 </i>
    <i name="eentropy">     -0.04739589 </i>
    <i name="bandstr">   -403.80733818 </i>
    <i name="atom">   7297.47453259 </i>
    <i name="e_fr_energy">    -36.64076876 </i>
    <i name="e_wo_entrp">    -36.59337287 </i>
    <i name="e_0_energy">    -36.62497013 </i>
   </energy>
  </scstep>
  <structure>
   <crystal>
    <varray name="basis" >
     <v>       5.62660000       0.00000000       0.00000000 </v>
     <v>       0.00000000       5.62660000       0.00000000 </v>
     <v>       0.00000000       0.00000000       5.62660000 </v>
    </varray>
    <i name="volume">    178.13043383 </i>
    <varray name="rec_basis" >
     <v>       0.17772722       0.00000000       0.00000000 </v>
     <v>       0.00000000       0.17772722       0.00000000 </v>
     <v>       0.00000000       0.00000000       0.17772722 </v>
    </varray>
   </crystal>
   <varray name="positions" >
    <v>       0.50000000       0.50000000       0.00000000 </v>
    <v>       0.00000000       0.50000000       0.50000000 </v>
    <v>       0.50000000       0.00000000       0.50000000 </v>
    <v>       0.00000000       0.00000000       0.00000000 </v>
    <v>       0.25000000       0.25000000       0.25000000 </v>
    <v>       0.75000000       0.75000000       0.25000000 </v>
    <v>       0.25000000       0.75000000       0.75000000 </v>
    <v>       0.75000000       0.25000000       0.75000000 </v>
   </varray>
  </structure>
  <varray name="forces" >
   <v>       0.00000000       0.00000000       0.00000000 </v>
   <v>       0.00000000       0.00000000       0.00000000 </v>
   <v>       0.00000000       0.00000000       0.00000000 </v>
   <v>       0.00000000       0.00000000       0.00000000 </v>
   <v>       0.34243334       0.34243334       0.34243334 </v>
   <v>      -0.34243334      -0.34243334       0.34243334 </v>
   <v>       0.34243334      -0.34243334      -0.34243334 </v>
   <v>      -0.34243334       0.34243334      -0.34243334 </v>
  </varray>
  <varray name="stress" >
   <v>      -0.40019519       0.00000000       0.00000000 </v>
   <v>       0.00000000      -0.40019519       0.00000000 </v>
   <v>       0.00000000       0.00000000      -0.40019519 </v>
  </varray>
  <energy>
   <i name="e_fr_energy">    -36.64076876 </i>
   <i name="e_wo_entrp">    -36.62497013 </i>
   <i name="e_0_energy">     -0.04739589 </i>
  </energy>
  <time name="totalsc">   86.29   28.58</time>
 </calculation>
 <calculation>
  <scstep>
   <time name="dav">    5.25    1.32</time>
   <time name="total">    6.29    2.10</time>
   <energy>
    <i name="alphaZ">    238.57420726 </i>
    <i name="ewald">  -4007.63245578 </i>
    <i name="hartreedc">  -2330.64383887 </i>
    <i name="XCdc">    128.33785185 </i>
    <i name="pawpsdc">   4788.73798462 </i>
    <i name="pawaedc">  -5747.28343419 </i>
    <i name="eentropy">     -0.04833972 </i>
    <i name="bandstr">   -404.19541841 </i>
    <i name="atom">   7297.47453259 </i>
    <i name="e_fr_energy">    -36.67891065 </i>
    <i name="e_wo_entrp">    -36.63057093 </i>
    <i name="e_0_energy">    -36.66279741 </i>
   </energy>
  </scstep>
  <scstep>
   <time name="dav">    5.56    1.42</time>
   <time name="total">    6.43    2.25</time>
   <energy>
    <i name="e_fr_energy">    -36.68901312 </i>
    <i name="e_wo_entrp">    -36.64034384 </i>
    <i name="e_0_energy">    -36.67279003 </i>
   </energy>
  </scstep>
  <scstep>
   <time name="dav">    5.93    1.51</time>
   <time name="total">    6.81    2.28</time>
   <energy>
    <i name="e_fr_energy">    -36.68887287 </i>
    <i name="e_wo_entrp">    -36.63994924 </i>
    <i name="e_0_energy">    -36.67256499 </i>
   </energy>
  </scstep>
  <scstep>
   <time name="dav">    5.20    1.32</time>
   <time name="total">    5.87    1.96</time>
   <energy>
    <i name="alphaZ">    238.57420726 </i>
    <i name="ewald">  -4007.63245578 </i>
    <i name="hartreedc">  -2330.64565888 </i>
    <i name="XCdc">    128.32251910 </i>
    <i name="pawpsdc">   4793.93281777 </i>
    <i name="pawaedc">  -5752.62260631 </i>
    <i name="eentropy">     -0.04946932 </i>
    <i name="bandstr">   -404.04271100 </i>
    <i name="atom">   7297.47453259 </i>
    <i name="e_fr_energy">    -36.68882456 </i>
    <i name="e_wo_entrp">    -36.63935524 </i>
    <i name="e_0_energy">    -36.67233479 </i>
   </energy>
  </scstep>
  <structure>
   <crystal>
    <varray name="basis" >
     <v>       5.62660000       0.00000000       0.00000000 </v>
     <v>       0.00000000       5.62660000       0.00000000 </v>
     <v>       0.00000000       0.00000000       5.62660000 </v>
    </varray>
    <i name="volume">    178.13043383 </i>
    <varray name="rec_basis" >
     <v>       0.17772722       0.00000000       0.00000000 </v>
     <v>       0.00000000       0.17772722       0.00000000 </v>
     <v>       0.00000000       0.00000000       0.17772722 </v>
    </varray>
   </crystal>
   <varray name="positions" >
    <v>       0.50000000       0.50000000       0.00000000 </v>
    <v>       0.00000000       0.50000000       0.50000000 </v>
    <v>       0.50000000       0.00000000       0.50000000 </v>
    <v>       0.00000000       0.00000000       0.00000000 </v>
    <v>       0.25293603       0.25293603       0.25293603 </v>
    <v>       0.74706397       0.74706397       0.25293603 </v>
    <v>       0.25293603       0.74706397       0.74706397 </v>
    <v>       0.74706397       0.25293603       0.74706397 </v>
   </varray>
  </structure>
  <varray name="forces" >
   <v>       0.00000000       0.00000000       0.00000000 </v>
   <v>       0.00000000       0.00000000       0.00000000 </v>
   <v>       0.00000000       0.00000000       0.00000000 </v>
   <v>       0.00000000       0.00000000       0.00000000 </v>
   <v>       0.14289815       0.14289815       0.14289815 </v>
   <v>      -0.14289815      -0.14289815       0.14289815 </v>
   <v>       0.14289815      -0.14289815      -0.14289815 </v>
   <v>      -0.14289815       0.14289815      -0.14289815 </v>
  </varray>
  <varray name="stress" >
   <v>      -1.86675443       0.00000000       0.00000000 </v>
   <v>       0.00000000      -1.86675443       0.00000000 </v>
   <v>       0.00000000       0.00000000      -1.86675443 </v>
  </varray>
  <energy>
   <i name="e_fr_energy">    -36.68882456 </i>
   <i name="e_wo_entrp">    -36.67233479 </i>
   <i name="e_0_energy">     -0.04946932 </i>
  </energy>
  <time name="totalsc">   31.95   12.21</time>
 </calculation>
 <calculation>
  <scstep>
   <time name="dav">    5.28    1.33</time>
   <time name="total">    6.32    2.11</time>
   <energy>
    <i name="alphaZ">    238.57420726 </i>
    <i name="ewald">  -4001.31630298 </i>
    <i name="hartreedc">  -2336.60624339 </i>
    <i name="XCdc">    128.33026032 </i>
    <i name="pawpsdc">   4794.26357833 </i>
    <i name="pawaedc">  -5752.96442285 </i>
    <i name="eentropy">     -0.04984737 </i>
    <i name="bandstr">   -404.40014301 </i>
    <i name="atom">   7297.47453259 </i>
    <i name="e_fr_energy">    -36.69438108 </i>
    <i name="e_wo_entrp">    -36.64453372 </i>
    <i name="e_0_energy">    -36.67776529 </i>
   </energy>
  </scstep>
  <scstep>
   <time name="dav">    5.59    1.42</time>
   <time name="total">    6.46    2.20</time>
   <energy>
    <i name="e_fr_energy">    -36.69943246 </i>
    <i name="e_wo_entrp">    -36.64944181 </i>
    <i name="e_0_energy">    -36.68276891 </i>
   </energy>
  </scstep>
  <scstep>
   <time name="dav">    5.64    1.43</time>
   <time name="total">    6.28    2.06</time>
   <energy>
    <i name="alphaZ">    238.57420726 </i>
    <i name="ewald">  -4001.31630298 </i>
    <i name="hartreedc">  -2336.53158895 </i>
    <i name="XCdc">    128.32115242 </i>
    <i name="pawpsdc">   4796.96354501 </i>
    <i name="pawaedc">  -5755.75293539 </i>
    <i name="eentropy">     -0.05010156 </i>
    <i name="bandstr">   -404.38188436 </i>
    <i name="atom">   7297.47453259 </i>
    <i name="e_fr_energy">    -36.69937595 </i>
    <i name="e_wo_entrp">    -36.64927440 </i>
    <i name="e_0_energy">    -36.68267543 </i>
   </energy>
  </scstep>
  <structure>
   <crystal>
    <varray name="basis" >
     <v>       5.62660000       0.00000000       0.00000000 </v>
     <v>       0.00000000       5.62660000       0.00000000 </v>
     <v>       0.00000000       0.00000000       5.62660000 </v>
    </varray>
    <i name="volume">    178.13043383 </i>
    <varray name="rec_basis" >
     <v>       0.17772722       0.00000000       0.00000000 </v>
     <v>       0.00000000       0.17772722       0.00000000 </v>
     <v>       0.00000000       0.00000000       0.17772722 </v>
    </varray>
   </crystal>
   <varray name="positions" >
    <v>       0.50000000       0.50000000       0.00000000 </v>
    <v>       0.00000000       0.50000000       0.50000000 </v>
    <v>       0.50000000       0.00000000       0.50000000 </v>
    <v>       0.00000000       0.00000000       0.00000000 </v>
    <v>       0.25503869       0.25503869       0.25503869 </v>
    <v>       0.74496131       0.74496131       0.25503869 </v>
    <v>       0.25503869       0.74496131       0.74496131 </v>
    <v>       0.74496131       0.25503869       0.74496131 </v>
   </varray>
  </structure>
  <varray name="forces" >
   <v>       0.00000000       0.00000000       0.00000000 </v>
   <v>       0.00000000       0.00000000       0.00000000 </v>
   <v>       0.00000000       0.00000000       0.00000000 </v>
   <v>       0.00000000       0.00000000       0.00000000 </v>
   <v>       0.00656316       0.00656316       0.00656316 </v>
   <v>      -0.00656316      -0.00656316       0.00656316 </v>
   <v>       0.00656316      -0.00656316      -0.00656316 </v>
   <v>      -0.00656316       0.00656316      -0.00656316 </v>
  </varray>
  <varray name="stress" >
   <v>      -2.06359670       0.00000000       0.00000000 </v>
   <v>       0.00000000      -2.06359670       0.00000000 </v>
   <v>       0.00000000       0.00000000      -2.06359670 </v>
  </varray>
  <energy>
   <i name="e_fr_energy">    -36.69937595 </i>
   <i name="e_wo_entrp">    -36.68267543 </i>
   <i name="e_0_energy">     -0.05010156 </i>
  </energy>
  <time name="totalsc">   24.90    9.77</time>
  <eigenvalues>
   <array>
    <dimension dim="1">band</dimension>
    <dimension dim="2">kpoint</dimension>
    <dimension dim="3">spin</dimension>
    <field>eigene</field>
    <field>occ</field>
    <set>
     <set comment="spin 1">
      <set comment="kpoint 1">
       <r>  -11.2857    1.0000 </r>
       <r>  -11.2553    1.0000 </r>
       <r>  -11.2553    1.0000 </r>
       <r>  -11.2055    1.0000 </r>
       <r>  -11.1598    1.0000 </r>
       <r>  -11.1598    1.0000 </r>
       <r>  -11.1468    1.0000 </r>
       <r>  -11.1462    1.0000 </r>
       <r>  -11.1462    1.0000 </r>
       <r>  -11.1155    1.0000 </r>
       <r>  -11.1000    1.0000 </r>
       <r>  -11.1000    1.0000 </r>
       <r>  -11.0967    1.0000 </r>
       <r>  -11.0967    1.0000 </r>
       <r>  -11.0862    1.0000 </r>
       <r>   -9.5100    1.0000 </r>
       <r>   -7.9260    1.0000 </r>
       <r>   -7.3583    1.0000 </r>
       <r>   -7.3583    1.0000 </r>
       <r>   -5.3843    1.0000 </r>
       <r>   -2.8532    1.0000 </r>
       <r>   -2.8532    1.0000 </r>
       <r>   -1.2689    1.0000 </r>
       <r>   -0.4630    1.0000 </r>
       <r>   -0.0965    1.0000 </r>
       <r>   -0.0965    1.0000 </r>
       <r>    0.8334    1.0000 </r>
       <r>    0.8334    1.0000 </r>
       <r>    1.5092    1.0000 </r>
       <r>    2.5279    1.0000 </r>
       <r>    2.5279    1.0000 </r>
       <r>    3.5564    0.6626 </r>
       <r>    5.3528    0.0000 </r>
       <r>    5.4580    0.0000 </r>
       <r>    5.4580    0.0000 </r>
       <r>    6.5561    0.0000 </r>
       <r>    7.2085    0.0000 </r>
       <r>    7.2085    0.0000 </r>
       <r>    8.3559    0.0000 </r>
       <r>    8.3559    0.0000 </r>
       <r>    8.8221    0.0000 </r>
      </set>
     </set>
     <set comment="spin 2">
      <set comment="kpoint 1">
       <r>  -11.2815    1.0000 </r>
       <r>  -11.2518    1.0000 </r>
       <r>  -11.2518    1.0000 </r>
       <r>  -11.2027    1.0000 </r>
       <r>  -11.1575    1.0000 </r>
       <r>  -11.1575    1.0000 </r>
       <r>  -11.1439    1.0000 </r>
       <r>  -11.1439    1.0000 </r>
       <r>  -11.1439    1.0000 </r>
       <r>  -11.1103    1.0000 </r>
       <r>  -11.0989    1.0000 </r>
       <r>  -11.0989    1.0000 </r>
       <r>  -11.0919    1.0000 </r>
       <r>  -11.0919    1.0000 </r>
       <r>  -11.0852    1.0000 </r>
       <r>   -9.4564    1.0000 </r>
       <r>   -7.8857    1.0000 </r>
       <r>   -7.3247    1.0000 </r>
       <r>   -7.3247    1.0000 </r>
       <r>   -5.3387    1.0000 </r>
       <r>   -2.8283    1.0000 </r>
       <r>   -2.8283    1.0000 </r>
       <r>   -1.2198    1.0000 </r>
       <r>   -0.4180    1.0000 </r>
       <r>   -0.0559    1.0000 </r>
       <r>   -0.0559    1.0000 </r>
       <r>    0.8662    1.0000 </r>
       <r>    0.8662    1.0000 </r>
       <r>    1.5283    1.0000 </r>
       <r>    2.5573    1.0000 </r>
       <r>    2.5573    1.0000 </r>
       <r>    3.6350    0.3374 </r>
       <r>    5.3931    0.0000 </r>
       <r>    5.5112    0.0000 </r>
       <r>    5.5112    0.0000 </r>
       <r>    6.6238    0.0000 </r>
       <r>    7.2539    0.0000 </r>
       <r>    7.2539    0.0000 </r>
       <r>    8.3881    0.0000 </r>
       <r>    8.3881    0.0000 </r>
       <r>    8.8847    0.0000 </r>
      </set>
     </set>
    </set>
   </array>
  </eigenvalues>
  <separator name="orbital magnetization" >
   <v name="MAGDIPOLOUT">      0.00000000      0.00000000      0.00000000</v>
  </separator>
  <dos>
   <i name="efermi">      3.59570881 </i>
   <total>
    <array>
     <dimension dim="1">gridpoints</dimension>
     <dimension dim="2">spin</dimension>
     <field>energy</field>
     <field>total</field>
     <field>integrated</field>
     <set>
      <set comment="spin 1">
       <r> -13.2857   0.0000   0.0000 </r>
       <r> -13.2051   0.0000   0.0000 </r>
       <r> -13.1245   0.0000   0.0000 </r>
       <r> -13.0440   0.0000   0.0000 </r>
       <r> -12.9634   0.0000   0.0000 </r>
       <r> -12.8828   0.0000   0.0000 </r>
       <r> -12.8023   0.0000   0.0000 </r>
       <r> -12.7217   0.0000   0.0000 </r>
       <r> -12.6411   0.0000   0.0000 </r>
       <r> -12.5606   0.0000   0.0000 </r>
       <r> -12.4800   0.0000   0.0000 </r>
       <r> -12.3994   0.0000   0.0000 </r>
       <r> -12.3189   0.0000   0.0000 </r>
       <r> -12.2383   0.0000   0.0000 </r>
       <r> -12.1577   0.0000   0.0000 </r>
       <r> -12.0772   0.0000   0.0000 </r>
       <r> -11.9966  -0.0001   0.0000 </r>
       <r> -11.9160  -0.0009  -0.0001 </r>
       <r> -11.8355  -0.0085  -0.0008 </r>
       <r> -11.7549  -0.0586  -0.0055 </r>
       <r> -11.6743  -0.2801  -0.0281 </r>
       <r> -11.5938  -0.8984  -0.1004 </r>
       <r> -11.5132  -1.7205  -0.2391 </r>
       <r> -11.4326  -0.7740  -0.3014 </r>
       <r> -11.3521   6.3228   0.2080 </r>
       <r> -11.2715  22.8073   2.0455 </r>
       <r> -11.1909  43.4677   5.5476 </r>
       <r> -11.1103  53.6689   9.8716 </r>
       <r> -11.0298  43.4766  13.3744 </r>
       <r> -10.9492  21.2744  15.0885 </r>
       <r> -10.8686   3.9396  15.4059 </r>
       <r> -10.7881  -2.1657  15.2314 </r>
       <r> -10.7075  -1.9325  15.0757 </r>
       <r> -10.6269  -0.7364  15.0164 </r>
       <r> -10.5464  -0.1728  15.0024 </r>
       <r> -10.4658  -0.0272  15.0003 </r>
       <r> -10.3852  -0.0030  15.0000 </r>
       <r> -10.3047  -0.0002  15.0000 </r>
       <r> -10.2241   0.0000  15.0000 </r>
       <r> -10.1435  -0.0004  15.0000 </r>
       <r> -10.0630  -0.0036  14.9997 </r>
       <r>  -9.9824  -0.0220  14.9979 </r>
       <r>  -9.9018  -0.0870  14.9909 </r>
       <r>  -9.8213  -0.1984  14.9749 </r>
       <r>  -9.7407  -0.1179  14.9654 </r>
       <r>  -9.6601   0.7239  15.0237 </r>
       <r>  -9.5796   2.4930  15.2246 </r>
       <r>  -9.4990   3.9973  15.5466 </r>
       <r>  -9.4184   3.7180  15.8462 </r>
       <r>  -9.3379   1.9591  16.0040 </r>
       <r>  -9.2573   0.3874  16.0352 </r>
       <r>  -9.1767  -0.1888  16.0200 </r>
       <r>  -9.0962  -0.1698  16.0063 </r>
       <r>  -9.0156  -0.0625  16.0013 </r>
       <r>  -8.9350  -0.0140  16.0002 </r>
       <r>  -8.8544  -0.0021  16.0000 </r>
       <r>  -8.7739  -0.0002  16.0000 </r>
       <r>  -8.6933   0.0000  16.0000 </r>
       <r>  -8.6127  -0.0001  16.0000 </r>
       <r>  -8.5322  -0.0009  15.9999 </r>
       <r>  -8.4516  -0.0070  15.9994 </r>
       <r>  -8.3710  -0.0369  15.9964 </r>
       <r>  -8.2905  -0.1237  15.9864 </r>
       <r>  -8.2099  -0.2166  15.9690 </r>
       <r>  -8.1293   0.0527  15.9732 </r>
       <r>  -8.0488   1.2484  16.0738 </r>
       <r>  -7.9682   3.1243  16.3255 </r>
       <r>  -7.8876   4.1242  16.6578 </r>
       <r>  -7.8071   3.1405  16.9108 </r>
       <r>  -7.7265   1.0950  16.9990 </r>
       <r>  -7.6459  -0.3460  16.9712 </r>
       <r>  -7.5654  -0.1694  16.9575 </r>
       <r>  -7.4848   2.2143  17.1359 </r>
       <r>  -7.4042   6.0508  17.6234 </r>
       <r>  -7.3237   8.2572  18.2887 </r>
       <r>  -7.2431   6.5712  18.8181 </r>
       <r>  -7.1625   2.8240  19.0456 </r>
       <r>  -7.0820   0.2383  19.0648 </r>
       <r>  -7.0014  -0.4316  19.0301 </r>
       <r>  -6.9208  -0.2696  19.0083 </r>
       <r>  -6.8403  -0.0844  19.0015 </r>
       <r>  -6.7597  -0.0166  19.0002 </r>
       <r>  -6.6791  -0.0022  19.0000 </r>
       <r>  -6.5986  -0.0002  19.0000 </r>
       <r>  -6.5180   0.0000  19.0000 </r>
       <r>  -6.4374   0.0000  19.0000 </r>
       <r>  -6.3568   0.0000  19.0000 </r>
       <r>  -6.2763   0.0000  19.0000 </r>
       <r>  -6.1957   0.0000  19.0000 </r>
       <r>  -6.1151   0.0000  19.0000 </r>
       <r>  -6.0346  -0.0002  19.0000 </r>
       <r>  -5.9540  -0.0024  18.9998 </r>
       <r>  -5.8734  -0.0156  18.9985 </r>
       <r>  -5.7929  -0.0679  18.9931 </r>
       <r>  -5.7123  -0.1773  18.9788 </r>
       <r>  -5.6317  -0.1764  18.9646 </r>
       <r>  -5.5512   0.4605  19.0017 </r>
       <r>  -5.4706   2.0865  19.1698 </r>
       <r>  -5.3900   3.7972  19.4757 </r>
       <r>  -5.3095   3.9429  19.7934 </r>
       <r>  -5.2289   2.3649  19.9839 </r>
       <r>  -5.1483   0.6357  20.0351 </r>
       <r>  -5.0678  -0.1397  20.0239 </r>
       <r>  -4.9872  -0.1923  20.0084 </r>
       <r>  -4.9066  -0.0806  20.0019 </r>
       <r>  -4.8261  -0.0198  20.0003 </r>
       <r>  -4.7455  -0.0032  20.0000 </r>
       <r>  -4.6649  -0.0003  20.0000 </r>
       <r>  -4.5844   0.0000  20.0000 </r>
       <r>  -4.5038   0.0000  20.0000 </r>
       <r>  -4.4232   0.0000  20.0000 </r>
       <r>  -4.3427   0.0000  20.0000 </r>
       <r>  -4.2621   0.0000  20.0000 </r>
       <r>  -4.1815   0.0000  20.0000 </r>
       <r>  -4.1009   0.0000  20.0000 </r>
       <r>  -4.0204   0.0000  20.0000 </r>
       <r>  -3.9398   0.0000  20.0000 </r>
       <r>  -3.8592   0.0000  20.0000 </r>
       <r>  -3.7787   0.0000  20.0000 </r>
       <r>  -3.6981   0.0000  20.0000 </r>
       <r>  -3.6175   0.0000  20.0000 </r>
       <r>  -3.5370  -0.0002  20.0000 </r>
       <r>  -3.4564  -0.0019  19.9998 </r>
       <r>  -3.3758  -0.0150  19.9986 </r>
       <r>  -3.2953  -0.0778  19.9924 </r>
       <r>  -3.2147  -0.2561  19.9717 </r>
       <r>  -3.1341  -0.4333  19.9368 </r>
       <r>  -3.0536   0.1555  19.9493 </r>
       <r>  -2.9730   2.6241  20.1608 </r>
       <r>  -2.8924   6.3799  20.6748 </r>
       <r>  -2.8119   8.2750  21.3415 </r>
       <r>  -2.7313   6.2916  21.8484 </r>
       <r>  -2.6507   2.5361  22.0527 </r>
       <r>  -2.5702   0.1206  22.0624 </r>
       <r>  -2.4896  -0.4333  22.0275 </r>
       <r>  -2.4090  -0.2501  22.0074 </r>
       <r>  -2.3285  -0.0750  22.0013 </r>
       <r>  -2.2479  -0.0143  22.0002 </r>
       <r>  -2.1673  -0.0018  22.0000 </r>
       <r>  -2.0868  -0.0002  22.0000 </r>
       <r>  -2.0062   0.0000  22.0000 </r>
       <r>  -1.9256  -0.0002  22.0000 </r>
       <r>  -1.8450  -0.0020  21.9998 </r>
       <r>  -1.7645  -0.0136  21.9987 </r>
       <r>  -1.6839  -0.0615  21.9938 </r>
       <r>  -1.6033  -0.1682  21.9802 </r>
       <r>  -1.5228  -0.1910  21.9648 </r>
       <r>  -1.4422   0.3729  21.9949 </r>
       <r>  -1.3616   1.9328  22.1506 </r>
       <r>  -1.2811   3.7007  22.4488 </r>
       <r>  -1.2005   4.0074  22.7716 </r>
       <r>  -1.1199   2.5192  22.9746 </r>
       <r>  -1.0394   0.7407  23.0343 </r>
       <r>  -0.9588  -0.1265  23.0241 </r>
       <r>  -0.8782  -0.2608  23.0031 </r>
       <r>  -0.7977  -0.2562  22.9824 </r>
       <r>  -0.7171  -0.2152  22.9651 </r>
       <r>  -0.6365   0.3558  22.9937 </r>
       <r>  -0.5560   1.8696  23.1444 </r>
       <r>  -0.4754   3.4894  23.4255 </r>
       <r>  -0.3948   3.5891  23.7147 </r>
       <r>  -0.3143   2.4255  23.9101 </r>
       <r>  -0.2337   2.6630  24.1246 </r>
       <r>  -0.1531   5.4881  24.5668 </r>
       <r>  -0.0726   7.9868  25.2103 </r>
       <r>   0.0080   6.9050  25.7666 </r>
       <r>   0.0886   3.2871  26.0314 </r>
       <r>   0.1691   0.4547  26.0681 </r>
       <r>   0.2497  -0.4211  26.0341 </r>
       <r>   0.3303  -0.3248  26.0080 </r>
       <r>   0.4109  -0.2102  25.9910 </r>
       <r>   0.4914  -0.3354  25.9640 </r>
       <r>   0.5720  -0.4102  25.9310 </r>
       <r>   0.6526   0.5567  25.9758 </r>
       <r>   0.7331   3.5083  26.2585 </r>
       <r>   0.8137   7.1481  26.8344 </r>
       <r>   0.8943   8.1342  27.4897 </r>
       <r>   0.9748   5.3935  27.9243 </r>
       <r>   1.0554   1.7238  28.0632 </r>
       <r>   1.1360  -0.2612  28.0421 </r>
       <r>   1.2165  -0.6278  27.9915 </r>
       <r>   1.2971  -0.2088  27.9747 </r>
       <r>   1.3777   1.0175  28.0567 </r>
       <r>   1.4582   2.9228  28.2922 </r>
       <r>   1.5388   4.1178  28.6239 </r>
       <r>   1.6194   3.3874  28.8968 </r>
       <r>   1.6999   1.5244  29.0197 </r>
       <r>   1.7805   0.1684  29.0332 </r>
       <r>   1.8611  -0.2137  29.0160 </r>
       <r>   1.9416  -0.1454  29.0043 </r>
       <r>   2.0222  -0.0679  28.9988 </r>
       <r>   2.1028  -0.1136  28.9897 </r>
       <r>   2.1833  -0.3079  28.9649 </r>
       <r>   2.2639  -0.4138  28.9315 </r>
       <r>   2.3445   0.4969  28.9716 </r>
       <r>   2.4250   3.3880  29.2445 </r>
       <r>   2.5056   7.0557  29.8130 </r>
       <r>   2.5862   8.1676  30.4710 </r>
       <r>   2.6667   5.5207  30.9158 </r>
       <r>   2.7473   1.8515  31.0650 </r>
       <r>   2.8279  -0.1205  31.0553 </r>
       <r>   2.9085  -0.4185  31.0216 </r>
       <r>   2.9890  -0.2051  31.0051 </r>
       <r>   3.0696  -0.0711  30.9993 </r>
       <r>   3.1502  -0.0799  30.9929 </r>
       <r>   3.2307  -0.1815  30.9783 </r>
       <r>   3.3113  -0.1703  30.9645 </r>
       <r>   3.3919   0.4937  31.0043 </r>
       <r>   3.4724   2.1420  31.1769 </r>
       <r>   3.5530   3.8292  31.4854 </r>
       <r>   3.6336   3.9168  31.8010 </r>
       <r>   3.7141   2.3093  31.9870 </r>
       <r>   3.7947   0.5989  32.0353 </r>
       <r>   3.8753  -0.1482  32.0233 </r>
       <r>   3.9558  -0.1895  32.0081 </r>
       <r>   4.0364  -0.0780  32.0018 </r>
       <r>   4.1170  -0.0189  32.0003 </r>
       <r>   4.1975  -0.0030  32.0000 </r>
       <r>   4.2781  -0.0003  32.0000 </r>
       <r>   4.3587   0.0000  32.0000 </r>
       <r>   4.4392   0.0000  32.0000 </r>
       <r>   4.5198   0.0000  32.0000 </r>
       <r>   4.6004   0.0000  32.0000 </r>
       <r>   4.6809  -0.0001  32.0000 </r>
       <r>   4.7615  -0.0015  31.9999 </r>
       <r>   4.8421  -0.0112  31.9990 </r>
       <r>   4.9226  -0.0590  31.9942 </r>
       <r>   5.0032  -0.2075  31.9775 </r>
       <r>   5.0838  -0.4316  31.9427 </r>
       <r>   5.1644  -0.2339  31.9239 </r>
       <r>   5.2449   1.5371  32.0477 </r>
       <r>   5.3255   5.5304  32.4933 </r>
       <r>   5.4061   9.9254  33.2930 </r>
       <r>   5.4866  11.1081  34.1879 </r>
       <r>   5.5672   7.8393  34.8195 </r>
       <r>   5.6478   3.0674  35.0667 </r>
       <r>   5.7283   0.1458  35.0784 </r>
       <r>   5.8089  -0.5336  35.0354 </r>
       <r>   5.8895  -0.3179  35.0098 </r>
       <r>   5.9700  -0.1006  35.0017 </r>
       <r>   6.0506  -0.0307  34.9992 </r>
       <r>   6.1312  -0.0549  34.9948 </r>
       <r>   6.2117  -0.1538  34.9824 </r>
       <r>   6.2923  -0.2067  34.9657 </r>
       <r>   6.3729   0.2505  34.9859 </r>
       <r>   6.4534   1.6982  35.1227 </r>
       <r>   6.5340   3.5309  35.4072 </r>
       <r>   6.6146   4.0802  35.7360 </r>
       <r>   6.6951   2.7376  35.9565 </r>
       <r>   6.7757   0.8308  36.0235 </r>
       <r>   6.8563  -0.3450  35.9957 </r>
       <r>   6.9368  -0.6362  35.9444 </r>
       <r>   7.0174   0.2297  35.9629 </r>
       <r>   7.0980   3.0080  36.2053 </r>
       <r>   7.1785   6.7584  36.7498 </r>
       <r>   7.2591   8.2392  37.4136 </r>
       <r>   7.3397   5.8772  37.8871 </r>
       <r>   7.4203   2.1511  38.0604 </r>
       <r>   7.5008  -0.0218  38.0586 </r>
       <r>   7.5814  -0.4281  38.0242 </r>
       <r>   7.6620  -0.2237  38.0061 </r>
       <r>   7.7425  -0.0647  38.0009 </r>
       <r>   7.8231  -0.0233  37.9990 </r>
       <r>   7.9037  -0.0661  37.9937 </r>
       <r>   7.9842  -0.2270  37.9754 </r>
       <r>   8.0648  -0.4292  37.9409 </r>
       <r>   8.1454  -0.0054  37.9404 </r>
       <r>   8.2259   2.1971  38.1174 </r>
       <r>   8.3065   5.9218  38.5945 </r>
       <r>   8.3871   8.2033  39.2555 </r>
       <r>   8.4676   6.5781  39.7854 </r>
       <r>   8.5482   2.7676  40.0084 </r>
       <r>   8.6288   0.4502  40.0447 </r>
       <r>   8.7093   1.0386  40.1284 </r>
       <r>   8.7899   3.0566  40.3746 </r>
       <r>   8.8705   4.0370  40.6999 </r>
       <r>   8.9510   2.9715  40.9393 </r>
       <r>   9.0316   1.1185  41.0294 </r>
       <r>   9.1122   0.0048  41.0298 </r>
       <r>   9.1927  -0.2150  41.0125 </r>
       <r>   9.2733  -0.1149  41.0032 </r>
       <r>   9.3539  -0.0330  41.0006 </r>
       <r>   9.4344  -0.0060  41.0001 </r>
       <r>   9.5150  -0.0007  41.0000 </r>
       <r>   9.5956  -0.0001  41.0000 </r>
       <r>   9.6761   0.0000  41.0000 </r>
       <r>   9.7567   0.0000  41.0000 </r>
       <r>   9.8373   0.0000  41.0000 </r>
       <r>   9.9179   0.0000  41.0000 </r>
       <r>   9.9984   0.0000  41.0000 </r>
       <r>  10.0790   0.0000  41.0000 </r>
       <r>  10.1596   0.0000  41.0000 </r>
       <r>  10.2401   0.0000  41.0000 </r>
       <r>  10.3207   0.0000  41.0000 </r>
       <r>  10.4013   0.0000  41.0000 </r>
       <r>  10.4818   0.0000  41.0000 </r>
       <r>  10.5624   0.0000  41.0000 </r>
       <r>  10.6430   0.0000  41.0000 </r>
       <r>  10.7235   0.0000  41.0000 </r>
       <r>  10.8041   0.0000  41.0000 </r>
       <r>  10.8847   0.0000  41.0000 </r>
      </set>
      <set comment="spin 2">
       <r> -13.2857   0.0000   0.0000 </r>
       <r> -13.2051   0.0000   0.0000 </r>
       <r> -13.1245   0.0000   0.0000 </r>
       <r> -13.0440   0.0000   0.0000 </r>
       <r> -12.9634   0.0000   0.0000 </r>
       <r> -12.8828   0.0000   0.0000 </r>
       <r> -12.8023   0.0000   0.0000 </r>
       <r> -12.7217   0.0000   0.0000 </r>
       <r> -12.6411   0.0000   0.0000 </r>
       <r> -12.5606   0.0000   0.0000 </r>
       <r> -12.4800   0.0000   0.0000 </r>
       <r> -12.3994   0.0000   0.0000 </r>
       <r> -12.3189   0.0000   0.0000 </r>
       <r> -12.2383   0.0000   0.0000 </r>
       <r> -12.1577   0.0000   0.0000 </r>
       <r> -12.0772   0.0000   0.0000 </r>
       <r> -11.9966  -0.0001   0.0000 </r>
       <r> -11.9160  -0.0008  -0.0001 </r>
       <r> -11.8355  -0.0077  -0.0007 </r>
       <r> -11.7549  -0.0542  -0.0051 </r>
       <r> -11.6743  -0.2642  -0.0263 </r>
       <r> -11.5938  -0.8663  -0.0961 </r>
       <r> -11.5132  -1.7121  -0.2341 </r>
       <r> -11.4326  -0.9205  -0.3082 </r>
       <r> -11.3521   5.8647   0.1643 </r>
       <r> -11.2715  22.0814   1.9433 </r>
       <r> -11.1909  42.8752   5.3977 </r>
       <r> -11.1103  53.7060   9.7246 </r>
       <r> -11.0298  44.1563  13.2822 </r>
       <r> -10.9492  22.0447  15.0583 </r>
       <r> -10.8686   4.3401  15.4080 </r>
       <r> -10.7881  -2.1034  15.2385 </r>
       <r> -10.7075  -1.9768  15.0793 </r>
       <r> -10.6269  -0.7682  15.0174 </r>
       <r> -10.5464  -0.1830  15.0026 </r>
       <r> -10.4658  -0.0291  15.0003 </r>
       <r> -10.3852  -0.0032  15.0000 </r>
       <r> -10.3047  -0.0002  15.0000 </r>
       <r> -10.2241   0.0000  15.0000 </r>
       <r> -10.1435  -0.0001  15.0000 </r>
       <r> -10.0630  -0.0009  14.9999 </r>
       <r>  -9.9824  -0.0069  14.9994 </r>
       <r>  -9.9018  -0.0366  14.9964 </r>
       <r>  -9.8213  -0.1232  14.9865 </r>
       <r>  -9.7407  -0.2165  14.9690 </r>
       <r>  -9.6601   0.0497  14.9730 </r>
       <r>  -9.5796   1.2408  15.0730 </r>
       <r>  -9.4990   3.1178  15.3242 </r>
       <r>  -9.4184   4.1368  15.6575 </r>
       <r>  -9.3379   3.2173  15.9167 </r>
       <r>  -9.2573   1.3399  16.0247 </r>
       <r>  -9.1767   0.0891  16.0318 </r>
       <r>  -9.0962  -0.2165  16.0144 </r>
       <r>  -9.0156  -0.1299  16.0039 </r>
       <r>  -8.9350  -0.0398  16.0007 </r>
       <r>  -8.8544  -0.0077  16.0001 </r>
       <r>  -8.7739  -0.0010  16.0000 </r>
       <r>  -8.6933  -0.0001  16.0000 </r>
       <r>  -8.6127   0.0000  16.0000 </r>
       <r>  -8.5322  -0.0003  16.0000 </r>
       <r>  -8.4516  -0.0026  15.9998 </r>
       <r>  -8.3710  -0.0169  15.9984 </r>
       <r>  -8.2905  -0.0719  15.9926 </r>
       <r>  -8.2099  -0.1824  15.9779 </r>
       <r>  -8.1293  -0.1659  15.9645 </r>
       <r>  -8.0488   0.5154  16.0061 </r>
       <r>  -7.9682   2.1771  16.1815 </r>
       <r>  -7.8876   3.8434  16.4911 </r>
       <r>  -7.8071   3.8633  16.8024 </r>
       <r>  -7.7265   2.1230  16.9734 </r>
       <r>  -7.6459   0.2030  16.9898 </r>
       <r>  -7.5654  -0.4662  16.9522 </r>
       <r>  -7.4848   0.9345  17.0275 </r>
       <r>  -7.4042   4.4249  17.3840 </r>
       <r>  -7.3237   7.7569  18.0090 </r>
       <r>  -7.2431   7.7200  18.6310 </r>
       <r>  -7.1625   4.4009  18.9855 </r>
       <r>  -7.0820   1.0593  19.0709 </r>
       <r>  -7.0014  -0.3261  19.0446 </r>
       <r>  -6.9208  -0.3673  19.0150 </r>
       <r>  -6.8403  -0.1459  19.0033 </r>
       <r>  -6.7597  -0.0344  19.0005 </r>
       <r>  -6.6791  -0.0054  19.0000 </r>
       <r>  -6.5986  -0.0006  19.0000 </r>
       <r>  -6.5180   0.0000  19.0000 </r>
       <r>  -6.4374   0.0000  19.0000 </r>
       <r>  -6.3568   0.0000  19.0000 </r>
       <r>  -6.2763   0.0000  19.0000 </r>
       <r>  -6.1957   0.0000  19.0000 </r>
       <r>  -6.1151   0.0000  19.0000 </r>
       <r>  -6.0346  -0.0001  19.0000 </r>
       <r>  -5.9540  -0.0007  18.9999 </r>
       <r>  -5.8734  -0.0056  18.9995 </r>
       <r>  -5.7929  -0.0312  18.9970 </r>
       <r>  -5.7123  -0.1108  18.9880 </r>
       <r>  -5.6317  -0.2137  18.9708 </r>
       <r>  -5.5512  -0.0158  18.9696 </r>
       <r>  -5.4706   1.0614  19.0551 </r>
       <r>  -5.3900   2.9225  19.2905 </r>
       <r>  -5.3095   4.1174  19.6223 </r>
       <r>  -5.2289   3.3955  19.8958 </r>
       <r>  -5.1483   1.5336  20.0194 </r>
       <r>  -5.0678   0.1726  20.0333 </r>
       <r>  -4.9872  -0.2132  20.0161 </r>
       <r>  -4.9066  -0.1429  20.0046 </r>
       <r>  -4.8261  -0.0463  20.0009 </r>
       <r>  -4.7455  -0.0094  20.0001 </r>
       <r>  -4.6649  -0.0013  20.0000 </r>
       <r>  -4.5844  -0.0001  20.0000 </r>
       <r>  -4.5038   0.0000  20.0000 </r>
       <r>  -4.4232   0.0000  20.0000 </r>
       <r>  -4.3427   0.0000  20.0000 </r>
       <r>  -4.2621   0.0000  20.0000 </r>
       <r>  -4.1815   0.0000  20.0000 </r>
       <r>  -4.1009   0.0000  20.0000 </r>
       <r>  -4.0204   0.0000  20.0000 </r>
       <r>  -3.9398   0.0000  20.0000 </r>
       <r>  -3.8592   0.0000  20.0000 </r>
       <r>  -3.7787   0.0000  20.0000 </r>
       <r>  -3.6981   0.0000  20.0000 </r>
       <r>  -3.6175   0.0000  20.0000 </r>
       <r>  -3.5370  -0.0001  20.0000 </r>
       <r>  -3.4564  -0.0010  19.9999 </r>
       <r>  -3.3758  -0.0083  19.9992 </r>
       <r>  -3.2953  -0.0489  19.9953 </r>
       <r>  -3.2147  -0.1876  19.9802 </r>
       <r>  -3.1341  -0.4081  19.9473 </r>
       <r>  -3.0536  -0.1839  19.9325 </r>
       <r>  -2.9730   1.6387  20.0645 </r>
       <r>  -2.8924   5.2472  20.4873 </r>
       <r>  -2.8119   8.0884  21.1389 </r>
       <r>  -2.7313   7.2588  21.7238 </r>
       <r>  -2.6507   3.6589  22.0186 </r>
       <r>  -2.5702   0.6346  22.0697 </r>
       <r>  -2.4896  -0.3977  22.0376 </r>
       <r>  -2.4090  -0.3237  22.0116 </r>
       <r>  -2.3285  -0.1146  22.0023 </r>
       <r>  -2.2479  -0.0249  22.0003 </r>
       <r>  -2.1673  -0.0036  22.0000 </r>
       <r>  -2.0868  -0.0004  22.0000 </r>
       <r>  -2.0062   0.0000  22.0000 </r>
       <r>  -1.9256   0.0000  22.0000 </r>
       <r>  -1.8450  -0.0005  22.0000 </r>
       <r>  -1.7645  -0.0044  21.9996 </r>
       <r>  -1.6839  -0.0259  21.9975 </r>
       <r>  -1.6033  -0.0974  21.9897 </r>
       <r>  -1.5228  -0.2067  21.9730 </r>
       <r>  -1.4422  -0.0769  21.9668 </r>
       <r>  -1.3616   0.8710  22.0370 </r>
       <r>  -1.2811   2.6911  22.2538 </r>
       <r>  -1.2005   4.0650  22.5813 </r>
       <r>  -1.1199   3.5804  22.8698 </r>
       <r>  -1.0394   1.7620  23.0117 </r>
       <r>  -0.9588   0.2779  23.0341 </r>
       <r>  -0.8782  -0.2310  23.0155 </r>
       <r>  -0.7977  -0.2602  22.9946 </r>
       <r>  -0.7171  -0.2649  22.9732 </r>
       <r>  -0.6365  -0.0701  22.9676 </r>
       <r>  -0.5560   0.9166  23.0414 </r>
       <r>  -0.4754   2.6673  23.2563 </r>
       <r>  -0.3948   3.7659  23.5597 </r>
       <r>  -0.3143   3.1129  23.8105 </r>
       <r>  -0.2337   2.3029  23.9961 </r>
       <r>  -0.1531   3.8883  24.3093 </r>
       <r>  -0.0726   7.0446  24.8769 </r>
       <r>   0.0080   7.9393  25.5165 </r>
       <r>   0.0886   5.2046  25.9359 </r>
       <r>   0.1691   1.6344  26.0676 </r>
       <r>   0.2497  -0.1848  26.0527 </r>
       <r>   0.3303  -0.4196  26.0189 </r>
       <r>   0.4109  -0.2491  25.9988 </r>
       <r>   0.4914  -0.2674  25.9773 </r>
       <r>   0.5720  -0.4344  25.9423 </r>
       <r>   0.6526  -0.0490  25.9383 </r>
       <r>   0.7331   2.0745  26.1054 </r>
       <r>   0.8137   5.7892  26.5719 </r>
       <r>   0.8943   8.2249  27.2345 </r>
       <r>   0.9748   6.8349  27.7852 </r>
       <r>   1.0554   3.1006  28.0350 </r>
       <r>   1.1360   0.2842  28.0579 </r>
       <r>   1.2165  -0.6225  28.0078 </r>
       <r>   1.2971  -0.4098  27.9747 </r>
       <r>   1.3777   0.6194  28.0247 </r>
       <r>   1.4582   2.4598  28.2228 </r>
       <r>   1.5388   3.9891  28.5442 </r>
       <r>   1.6194   3.7267  28.8445 </r>
       <r>   1.6999   1.9728  29.0034 </r>
       <r>   1.7805   0.3951  29.0353 </r>
       <r>   1.8611  -0.1877  29.0201 </r>
       <r>   1.9416  -0.1720  29.0063 </r>
       <r>   2.0222  -0.0743  29.0003 </r>
       <r>   2.1028  -0.0762  28.9942 </r>
       <r>   2.1833  -0.2228  28.9762 </r>
       <r>   2.2639  -0.4272  28.9418 </r>
       <r>   2.3445  -0.0359  28.9389 </r>
       <r>   2.4250   2.1103  29.1089 </r>
       <r>   2.5056   5.8306  29.5787 </r>
       <r>   2.5862   8.2324  30.2419 </r>
       <r>   2.6667   6.8033  30.7901 </r>
       <r>   2.7473   3.0814  31.0383 </r>
       <r>   2.8279   0.3517  31.0667 </r>
       <r>   2.9085  -0.4260  31.0324 </r>
       <r>   2.9890  -0.2870  31.0092 </r>
       <r>   3.0696  -0.0958  31.0015 </r>
       <r>   3.1502  -0.0360  30.9986 </r>
       <r>   3.2307  -0.0751  30.9926 </r>
       <r>   3.3113  -0.1834  30.9778 </r>
       <r>   3.3919  -0.1642  30.9646 </r>
       <r>   3.4724   0.5239  31.0068 </r>
       <r>   3.5530   2.1914  31.1833 </r>
       <r>   3.6336   3.8565  31.4940 </r>
       <r>   3.7141   3.8923  31.8076 </r>
       <r>   3.7947   2.2598  31.9897 </r>
       <r>   3.8753   0.5669  32.0354 </r>
       <r>   3.9558  -0.1552  32.0229 </r>
       <r>   4.0364  -0.1869  32.0078 </r>
       <r>   4.1170  -0.0757  32.0017 </r>
       <r>   4.1975  -0.0181  32.0003 </r>
       <r>   4.2781  -0.0028  32.0000 </r>
       <r>   4.3587  -0.0003  32.0000 </r>
       <r>   4.4392   0.0000  32.0000 </r>
       <r>   4.5198   0.0000  32.0000 </r>
       <r>   4.6004   0.0000  32.0000 </r>
       <r>   4.6809   0.0000  32.0000 </r>
       <r>   4.7615  -0.0004  32.0000 </r>
       <r>   4.8421  -0.0041  31.9996 </r>
       <r>   4.9226  -0.0257  31.9976 </r>
       <r>   5.0032  -0.1102  31.9887 </r>
       <r>   5.0838  -0.3009  31.9644 </r>
       <r>   5.1644  -0.4087  31.9315 </r>
       <r>   5.2449   0.3389  31.9588 </r>
       <r>   5.3255   2.9846  32.1993 </r>
       <r>   5.4061   7.2952  32.7870 </r>
       <r>   5.4866  10.6566  33.6456 </r>
       <r>   5.5672  10.1058  34.4598 </r>
       <r>   5.6478   5.9915  34.9425 </r>
       <r>   5.7283   1.7477  35.0834 </r>
       <r>   5.8089  -0.2593  35.0625 </r>
       <r>   5.8895  -0.4823  35.0236 </r>
       <r>   5.9700  -0.2225  35.0057 </r>
       <r>   6.0506  -0.0613  35.0007 </r>
       <r>   6.1312  -0.0248  34.9987 </r>
       <r>   6.2117  -0.0656  34.9935 </r>
       <r>   6.2923  -0.1725  34.9796 </r>
       <r>   6.3729  -0.1848  34.9647 </r>
       <r>   6.4534   0.4118  34.9979 </r>
       <r>   6.5340   2.0025  35.1592 </r>
       <r>   6.6146   3.7452  35.4609 </r>
       <r>   6.6951   3.9734  35.7811 </r>
       <r>   6.7757   2.4101  35.9752 </r>
       <r>   6.8563   0.5331  36.0182 </r>
       <r>   6.9368  -0.5091  35.9772 </r>
       <r>   7.0174  -0.4797  35.9385 </r>
       <r>   7.0980   1.1701  36.0328 </r>
       <r>   7.1785   4.6840  36.4102 </r>
       <r>   7.2591   7.8711  37.0443 </r>
       <r>   7.3397   7.6084  37.6573 </r>
       <r>   7.4203   4.1975  37.9955 </r>
       <r>   7.5008   0.9355  38.0709 </r>
       <r>   7.5814  -0.3501  38.0427 </r>
       <r>   7.6620  -0.3560  38.0140 </r>
       <r>   7.7425  -0.1375  38.0029 </r>
       <r>   7.8231  -0.0369  37.9999 </r>
       <r>   7.9037  -0.0393  37.9968 </r>
       <r>   7.9842  -0.1465  37.9850 </r>
       <r>   8.0648  -0.3674  37.9554 </r>
       <r>   8.1454  -0.3259  37.9291 </r>
       <r>   8.2259   1.0598  38.0145 </r>
       <r>   8.3065   4.4004  38.3690 </r>
       <r>   8.3871   7.7105  38.9902 </r>
       <r>   8.4676   7.7152  39.6118 </r>
       <r>   8.5482   4.3349  39.9611 </r>
       <r>   8.6288   0.9265  40.0357 </r>
       <r>   8.7093   0.0330  40.0384 </r>
       <r>   8.7899   1.5110  40.1601 </r>
       <r>   8.8705   3.5170  40.4435 </r>
       <r>   8.9510   3.9897  40.7649 </r>
       <r>   9.0316   2.5633  40.9715 </r>
       <r>   9.1122   0.7781  41.0341 </r>
       <r>   9.1927  -0.1033  41.0258 </r>
       <r>   9.2733  -0.2018  41.0096 </r>
       <r>   9.3539  -0.0909  41.0022 </r>
       <r>   9.4344  -0.0234  41.0004 </r>
       <r>   9.5150  -0.0039  41.0000 </r>
       <r>   9.5956  -0.0004  41.0000 </r>
       <r>   9.6761   0.0000  41.0000 </r>
       <r>   9.7567   0.0000  41.0000 </r>
       <r>   9.8373   0.0000  41.0000 </r>
       <r>   9.9179   0.0000  41.0000 </r>
       <r>   9.9984   0.0000  41.0000 </r>
       <r>  10.0790   0.0000  41.0000 </r>
       <r>  10.1596   0.0000  41.0000 </r>
       <r>  10.2401   0.0000  41.0000 </r>
       <r>  10.3207   0.0000  41.0000 </r>
       <r>  10.4013   0.0000  41.0000 </r>
       <r>  10.4818   0.0000  41.0000 </r>
       <r>  10.5624   0.0000  41.0000 </r>
       <r>  10.6430   0.0000  41.0000 </r>
       <r>  10.7235   0.0000  41.0000 </r>
       <r>  10.8041   0.0000  41.0000 </r>
       <r>  10.8847   0.0000  41.0000 </r>
      </set>
     </set>
    </array>
   </total>
  </dos>
 </calculation>
 <structure name="finalpos" >
  <crystal>
   <varray name="basis" >
    <v>       5.62660000       0.00000000       0.00000000 </v>
    <v>       0.00000000       5.62660000       0.00000000 </v>
    <v>       0.00000000       0.00000000       5.62660000 </v>
   </varray>
   <i name="volume">    178.13043383 </i>
   <varray name="rec_basis" >
    <v>       0.17772722       0.00000000       0.00000000 </v>
    <v>       0.00000000       0.17772722       0.00000000 </v>
    <v>       0.00000000       0.00000000       0.17772722 </v>
   </varray>
  </crystal>
  <varray name="positions" >
   <v>       0.50000000       0.50000000       0.00000000 </v>
   <v>       0.00000000       0.50000000       0.50000000 </v>
   <v>       0.50000000       0.00000000       0.50000000 </v>
   <v>       0.00000000       0.00000000       0.00000000 </v>
   <v>       0.25503869       0.25503869       0.25503869 </v>
   <v>       0.74496131       0.74496131       0.25503869 </v>
   <v>       0.25503869       0.74496131       0.74496131 </v>
   <v>       0.74496131       0.25503869       0.74496131 </v>
  </varray>
 </structure>
</modeling>
