    4    4    1    1
  0.1706785E+02  0.4087078E-09  0.4087078E-09  0.4087078E-09  0.1000000E-16
  1.000000000000000E-004
  CAR 
 unknown system                          
   12    1   10
 
  0.2500000E+00  0.2500000E+00  0.2500000E+00  0.1000000E+01
   1       -1.623564
   2        2.681412
   3        2.684337
   4        2.687340
   5        6.875384
   6        6.878995
   7        6.882499
   8       10.983551
   9       11.183832
  10       11.185838
