   3   3   0   0
  0.1429167E+02  0.3500000E-09  0.3500000E-09  0.3500000E-09  0.1000000E-16
  1.000000000000000E-004
  CAR 
 unknown system                          
     17.88393804     -2.62795854  301     10.29029867      1.00000000
     -2.628  0.0000E+00  0.0000E+00
     -2.560  0.0000E+00  0.0000E+00
     -2.491  0.0000E+00  0.0000E+00
     -2.423  0.0000E+00  0.0000E+00
     -2.354  0.0000E+00  0.0000E+00
     -2.286 -0.8749E-28 -0.5982E-29
     -2.218 -0.2161E-25 -0.1484E-26
     -2.149 -0.4230E-23 -0.2907E-24
     -2.081 -0.6539E-21 -0.4500E-22
     -2.013 -0.7981E-19 -0.5502E-20
     -1.944 -0.7688E-17 -0.5312E-18
     -1.876 -0.5843E-15 -0.4048E-16
     -1.807 -0.3340E-13 -0.2324E-14
     -1.739 -0.1602E-11 -0.1119E-12
     -1.671 -0.5933E-10 -0.4168E-11
     -1.602 -0.1728E-08 -0.1223E-09
     -1.534 -0.3949E-07 -0.2823E-08
     -1.466 -0.7074E-06 -0.5119E-07
     -1.397 -0.9903E-05 -0.7283E-06
     -1.329 -0.1080E-03 -0.8111E-05
     -1.260 -0.9123E-03 -0.7049E-04
     -1.192 -0.5927E-02 -0.4758E-03
     -1.124 -0.2924E-01 -0.2475E-02
     -1.055 -0.1071E+00 -0.9798E-02
     -0.987 -0.2773E+00 -0.2876E-01
     -0.919 -0.4397E+00 -0.5882E-01
     -0.850 -0.1171E+00 -0.6683E-01
     -0.782  0.1458E+01  0.3285E-01
     -0.714  0.4444E+01  0.3367E+00
     -0.645  0.7433E+01  0.8449E+00
     -0.577  0.8243E+01  0.1408E+01
     -0.508  0.6200E+01  0.1832E+01
     -0.440  0.2941E+01  0.2034E+01
     -0.372  0.5358E+00  0.2070E+01
     -0.303 -0.3748E+00  0.2045E+01
     -0.235 -0.3851E+00  0.2018E+01
     -0.167 -0.1876E+00  0.2005E+01
     -0.098 -0.6119E-01  0.2001E+01
     -0.030 -0.1451E-01  0.2000E+01
      0.039 -0.2584E-02  0.2000E+01
      0.107 -0.3519E-03  0.2000E+01
      0.175 -0.3700E-04  0.2000E+01
      0.244 -0.3023E-05  0.2000E+01
      0.312 -0.1926E-06  0.2000E+01
      0.380 -0.9607E-08  0.2000E+01
      0.449 -0.3758E-09  0.2000E+01
      0.517 -0.1155E-10  0.2000E+01
      0.586 -0.2793E-12  0.2000E+01
      0.654 -0.6495E-14  0.2000E+01
      0.722  0.0000E+00  0.2000E+01
      0.791  0.0000E+00  0.2000E+01
      0.859  0.0000E+00  0.2000E+01
      0.927  0.0000E+00  0.2000E+01
      0.996  0.0000E+00  0.2000E+01
      1.064  0.0000E+00  0.2000E+01
      1.133  0.0000E+00  0.2000E+01
      1.201  0.0000E+00  0.2000E+01
      1.269  0.0000E+00  0.2000E+01
      1.338  0.0000E+00  0.2000E+01
      1.406  0.0000E+00  0.2000E+01
      1.474  0.0000E+00  0.2000E+01
      1.543  0.0000E+00  0.2000E+01
      1.611  0.0000E+00  0.2000E+01
      1.680  0.0000E+00  0.2000E+01
      1.748  0.0000E+00  0.2000E+01
      1.816  0.0000E+00  0.2000E+01
      1.885  0.0000E+00  0.2000E+01
      1.953  0.0000E+00  0.2000E+01
      2.021  0.0000E+00  0.2000E+01
      2.090  0.0000E+00  0.2000E+01
      2.158  0.0000E+00  0.2000E+01
      2.227  0.0000E+00  0.2000E+01
      2.295  0.0000E+00  0.2000E+01
      2.363  0.0000E+00  0.2000E+01
      2.432  0.0000E+00  0.2000E+01
      2.500  0.0000E+00  0.2000E+01
      2.568  0.0000E+00  0.2000E+01
      2.637  0.0000E+00  0.2000E+01
      2.705  0.0000E+00  0.2000E+01
      2.774  0.0000E+00  0.2000E+01
      2.842  0.0000E+00  0.2000E+01
      2.910  0.0000E+00  0.2000E+01
      2.979  0.0000E+00  0.2000E+01
      3.047  0.0000E+00  0.2000E+01
      3.115  0.0000E+00  0.2000E+01
      3.184  0.0000E+00  0.2000E+01
      3.252  0.0000E+00  0.2000E+01
      3.320  0.0000E+00  0.2000E+01
      3.389  0.0000E+00  0.2000E+01
      3.457 -0.1965E-26  0.2000E+01
      3.526 -0.4180E-24  0.2000E+01
      3.594 -0.7052E-22  0.2000E+01
      3.662 -0.9405E-20  0.2000E+01
      3.731 -0.9911E-18  0.2000E+01
      3.799 -0.8251E-16  0.2000E+01
      3.867 -0.5424E-14  0.2000E+01
      3.936 -0.2726E-12  0.2000E+01
      4.004 -0.1113E-10  0.2000E+01
      4.073 -0.3576E-09  0.2000E+01
      4.141 -0.9041E-08  0.2000E+01
      4.209 -0.1796E-06  0.2000E+01
      4.278 -0.2799E-05  0.2000E+01
      4.346 -0.3412E-04  0.2000E+01
      4.414 -0.3243E-03  0.2000E+01
      4.483 -0.2391E-02  0.2000E+01
      4.551 -0.1356E-01  0.1999E+01
      4.620 -0.5852E-01  0.1995E+01
      4.688 -0.1876E+00  0.1982E+01
      4.756 -0.4256E+00  0.1953E+01
      4.825 -0.5860E+00  0.1913E+01
      4.893 -0.6729E-01  0.1908E+01
      4.961  0.1951E+01  0.2042E+01
      5.030  0.5788E+01  0.2437E+01
      5.098  0.1077E+02  0.3174E+01
      5.167  0.1547E+02  0.4231E+01
      5.235  0.1817E+02  0.5473E+01
      5.303  0.1732E+02  0.6657E+01
      5.372  0.1281E+02  0.7533E+01
      5.440  0.6735E+01  0.7994E+01
      5.508  0.1922E+01  0.8125E+01
      5.577 -0.3578E+00  0.8100E+01
      5.645 -0.7532E+00  0.8049E+01
      5.714 -0.4654E+00  0.8017E+01
      5.782 -0.1845E+00  0.8005E+01
      5.850 -0.5287E-01  0.8001E+01
      5.919 -0.1141E-01  0.8000E+01
      5.987 -0.1891E-02  0.8000E+01
      6.055 -0.2431E-03  0.8000E+01
      6.124 -0.2439E-04  0.8000E+01
      6.192 -0.1917E-05  0.8000E+01
      6.261 -0.1183E-06  0.8000E+01
      6.329 -0.5744E-08  0.8000E+01
      6.397 -0.2197E-09  0.8000E+01
      6.466 -0.6625E-11  0.8000E+01
      6.534 -0.1559E-12  0.8000E+01
      6.602 -0.3248E-14  0.8000E+01
      6.671  0.0000E+00  0.8000E+01
      6.739  0.0000E+00  0.8000E+01
      6.808  0.0000E+00  0.8000E+01
      6.876  0.0000E+00  0.8000E+01
      6.944  0.0000E+00  0.8000E+01
      7.013  0.0000E+00  0.8000E+01
      7.081  0.0000E+00  0.8000E+01
      7.149  0.0000E+00  0.8000E+01
      7.218  0.0000E+00  0.8000E+01
      7.286  0.0000E+00  0.8000E+01
      7.354  0.0000E+00  0.8000E+01
      7.423  0.0000E+00  0.8000E+01
      7.491  0.0000E+00  0.8000E+01
      7.560  0.0000E+00  0.8000E+01
      7.628  0.0000E+00  0.8000E+01
      7.696  0.0000E+00  0.8000E+01
      7.765  0.0000E+00  0.8000E+01
      7.833  0.0000E+00  0.8000E+01
      7.901  0.0000E+00  0.8000E+01
      7.970  0.0000E+00  0.8000E+01
      8.038  0.0000E+00  0.8000E+01
      8.107  0.0000E+00  0.8000E+01
      8.175  0.0000E+00  0.8000E+01
      8.243  0.0000E+00  0.8000E+01
      8.312  0.0000E+00  0.8000E+01
      8.380  0.0000E+00  0.8000E+01
      8.448 -0.7458E-27  0.8000E+01
      8.517 -0.1633E-24  0.8000E+01
      8.585 -0.2836E-22  0.8000E+01
      8.654 -0.3888E-20  0.8000E+01
      8.722 -0.4207E-18  0.8000E+01
      8.790 -0.3593E-16  0.8000E+01
      8.859 -0.2420E-14  0.8000E+01
      8.927 -0.1245E-12  0.8000E+01
      8.995 -0.5195E-11  0.8000E+01
      9.064 -0.1703E-09  0.8000E+01
      9.132 -0.4385E-08  0.8000E+01
      9.201 -0.8856E-07  0.8000E+01
      9.269 -0.1400E-05  0.8000E+01
      9.337 -0.1726E-04  0.8000E+01
      9.406 -0.1654E-03  0.8000E+01
      9.474 -0.1224E-02  0.8000E+01
      9.542 -0.6927E-02  0.7999E+01
      9.611 -0.2948E-01  0.7997E+01
      9.679 -0.9130E-01  0.7991E+01
      9.748 -0.1900E+00  0.7978E+01
      9.816 -0.1920E+00  0.7965E+01
      9.884  0.2441E+00  0.7982E+01
      9.953  0.1422E+01  0.8079E+01
     10.021  0.3036E+01  0.8287E+01
     10.089  0.4042E+01  0.8563E+01
     10.158  0.3585E+01  0.8808E+01
     10.226  0.2048E+01  0.8948E+01
     10.295  0.7958E+00  0.9002E+01
     10.363  0.8999E+00  0.9064E+01
     10.431  0.2202E+01  0.9215E+01
     10.500  0.3509E+01  0.9455E+01
     10.568  0.3825E+01  0.9716E+01
     10.636  0.3490E+01  0.9955E+01
     10.705  0.3727E+01  0.1021E+02
     10.773  0.4994E+01  0.1055E+02
     10.842  0.6345E+01  0.1098E+02
     10.910  0.6473E+01  0.1143E+02
     10.978  0.4962E+01  0.1177E+02
     11.047  0.2561E+01  0.1194E+02
     11.115  0.6012E+00  0.1198E+02
     11.183  0.2555E+00  0.1200E+02
     11.252  0.1984E+01  0.1214E+02
     11.320  0.5052E+01  0.1248E+02
     11.389  0.7537E+01  0.1300E+02
     11.457  0.7622E+01  0.1352E+02
     11.525  0.5303E+01  0.1388E+02
     11.594  0.2323E+01  0.1404E+02
     11.662  0.3315E+00  0.1406E+02
     11.730 -0.3551E+00  0.1404E+02
     11.799 -0.3281E+00  0.1402E+02
     11.867 -0.1563E+00  0.1400E+02
     11.935 -0.5092E-01  0.1400E+02
     12.004 -0.1220E-01  0.1400E+02
     12.072 -0.2215E-02  0.1400E+02
     12.141 -0.3093E-03  0.1400E+02
     12.209 -0.3351E-04  0.1400E+02
     12.277 -0.2831E-05  0.1400E+02
     12.346 -0.1872E-06  0.1400E+02
     12.414 -0.9715E-08  0.1400E+02
     12.482 -0.3961E-09  0.1400E+02
     12.551 -0.1270E-10  0.1400E+02
     12.619 -0.3248E-12  0.1400E+02
     12.688 -0.6495E-14  0.1400E+02
     12.756  0.0000E+00  0.1400E+02
     12.824  0.0000E+00  0.1400E+02
     12.893  0.0000E+00  0.1400E+02
     12.961  0.0000E+00  0.1400E+02
     13.029  0.0000E+00  0.1400E+02
     13.098  0.0000E+00  0.1400E+02
     13.166  0.0000E+00  0.1400E+02
     13.235  0.0000E+00  0.1400E+02
     13.303  0.0000E+00  0.1400E+02
     13.371  0.0000E+00  0.1400E+02
     13.440  0.0000E+00  0.1400E+02
     13.508  0.0000E+00  0.1400E+02
     13.576  0.0000E+00  0.1400E+02
     13.645  0.0000E+00  0.1400E+02
     13.713  0.0000E+00  0.1400E+02
     13.782  0.0000E+00  0.1400E+02
     13.850  0.0000E+00  0.1400E+02
     13.918  0.0000E+00  0.1400E+02
     13.987  0.0000E+00  0.1400E+02
     14.055  0.0000E+00  0.1400E+02
     14.123  0.0000E+00  0.1400E+02
     14.192  0.0000E+00  0.1400E+02
     14.260 -0.5036E-26  0.1400E+02
     14.329 -0.1035E-23  0.1400E+02
     14.397 -0.1688E-21  0.1400E+02
     14.465 -0.2176E-19  0.1400E+02
     14.534 -0.2215E-17  0.1400E+02
     14.602 -0.1781E-15  0.1400E+02
     14.670 -0.1130E-13  0.1400E+02
     14.739 -0.5480E-12  0.1400E+02
     14.807 -0.2156E-10  0.1400E+02
     14.876 -0.6672E-09  0.1400E+02
     14.944 -0.1623E-07  0.1400E+02
     15.012 -0.3100E-06  0.1400E+02
     15.081 -0.4635E-05  0.1400E+02
     15.149 -0.5410E-04  0.1400E+02
     15.217 -0.4907E-03  0.1400E+02
     15.286 -0.3436E-02  0.1400E+02
     15.354 -0.1838E-01  0.1400E+02
     15.423 -0.7368E-01  0.1399E+02
     15.491 -0.2133E+00  0.1398E+02
     15.559 -0.4045E+00  0.1395E+02
     15.628 -0.3110E+00  0.1393E+02
     15.696  0.7896E+00  0.1398E+02
     15.764  0.3377E+01  0.1421E+02
     15.833  0.6583E+01  0.1466E+02
     15.901  0.8276E+01  0.1523E+02
     15.969  0.7089E+01  0.1572E+02
     16.038  0.3995E+01  0.1599E+02
     16.106  0.1170E+01  0.1607E+02
     16.175 -0.2040E+00  0.1605E+02
     16.243 -0.4265E+00  0.1603E+02
     16.311 -0.2502E+00  0.1601E+02
     16.380 -0.9266E-01  0.1600E+02
     16.448 -0.2449E-01  0.1600E+02
     16.516 -0.4829E-02  0.1600E+02
     16.585 -0.7252E-03  0.1600E+02
     16.653 -0.8394E-04  0.1600E+02
     16.722 -0.7542E-05  0.1600E+02
     16.790 -0.5286E-06  0.1600E+02
     16.858 -0.2900E-07  0.1600E+02
     16.927 -0.1248E-08  0.1600E+02
     16.995 -0.4221E-10  0.1600E+02
     17.063 -0.1120E-11  0.1600E+02
     17.132 -0.2598E-13  0.1600E+02
     17.200  0.0000E+00  0.1600E+02
     17.269  0.0000E+00  0.1600E+02
     17.337  0.0000E+00  0.1600E+02
     17.405  0.0000E+00  0.1600E+02
     17.474  0.0000E+00  0.1600E+02
     17.542  0.0000E+00  0.1600E+02
     17.610  0.0000E+00  0.1600E+02
     17.679  0.0000E+00  0.1600E+02
     17.747  0.0000E+00  0.1600E+02
     17.816  0.0000E+00  0.1600E+02
     17.884  0.0000E+00  0.1600E+02
