 vasp.5.2.2 15Apr09 complex 
 executed on             LinuxIFC date 2013.06.20  09:02:47
 running on    1 nodes
 each image running on    1 nodes
 distr:  one band on    1 nodes,    1 groups


--------------------------------------------------------------------------------------------------------


 INCAR:
 POTCAR:   PAW_GGA Fe 03Mar1998                   
 POTCAR:   PAW_GGA Fe 03Mar1998                   
   VRHFIN =Fe:  d7 s1                                                           
   LEXCH  = 91                                                                  
   EATOM  =   595.5622 eV,   43.7726 Ry                                         
                                                                                
   TITEL  = PAW_GGA Fe 03Mar1998                                                
   LULTRA =        F    use ultrasoft PP ?                                      
   IUNSCR =        1    unscreen: 0-lin 1-nonlin 2-no                           
   RPACOR =    2.000    partial core radius                                     
   POMASS =   55.847; ZVAL   =    8.000    mass and valenz                      
   RCORE  =    2.300    outmost cutoff radius                                   
   RWIGS  =    2.460; RWIGS  =    1.302    wigner-seitz radius (au A)           
   ENMAX  =  267.907; ENMIN  =  200.930 eV                                      
   RCLOC  =    1.701    cutoff for local pot                                    
   LCOR   =        T    correct aug charges                                     
   LPAW   =        T    paw PP                                                  
   EAUG   =  511.368                                                            
   DEXC   =    -.007                                                            
   RMAX   =    2.817    core radius for proj-oper                               
   RAUG   =    1.300    factor for augmentation sphere                          
   RDEP   =    2.442    core radius for depl-charge                             
   QCUT   =   -4.437; QGAM   =    8.875    optimization parameters              
                                                                                
   Description                                                                  
     l     E      TYP  RCUT    TYP  RCUT                                        
     2   .000     23  2.300                                                     
     2   .000     23  2.300                                                     
     0   .000     23  2.300                                                     
     0   .000     23  2.300                                                     
     1  -.200     23  2.300                                                     
     1   .000     23  2.300                                                     
     3   .000      7   .000                                                     
  local pseudopotential read in
  partial core-charges read in
  atomic valenz-charges read in
  non local Contribution for L=           2  read in
    real space projection operators read in
  non local Contribution for L=           2  read in
    real space projection operators read in
  non local Contribution for L=           0  read in
    real space projection operators read in
  non local Contribution for L=           0  read in
    real space projection operators read in
  non local Contribution for L=           1  read in
    real space projection operators read in
  non local Contribution for L=           1  read in
    real space projection operators read in
    PAW grid and wavefunctions read in
 
   number of l-projection  operators is LMAX  =           6
   number of lm-projection operators is LMMAX =          18
 
 PAW_GGA Fe 03Mar1998                   :
 energy of atom  1       EATOM= -595.5622
 kinetic energy error for atom=    0.0239 (will be added to EATOM!!)
 
 
 POSCAR: Fe3                                     
  positions in direct lattice
  No initial velocities read in
 exchange correlation table for  LEXCH =        7
   RHO(1)=    0.500       N(1)  =     2000
   RHO(2)=  100.500       N(2)  =     4000

 VTST: version 2.03d, (02/18/09)

 CHAIN: initializing optimizer
 
 OPT: Using VASP QUASI-newton optimizer
 CHAIN: Read ICHAIN            0
 CHAIN: Running the NEB
 NEB:          SPRING     -5.000000
 NEB:          LCLIMB      T
 NEB:     LTANGENTOLD      F
 NEB:           LDNEB      F
 NEB:        LDNEBORG      F
 NEB:          EFIRST      0.000000
 NEB:           ELAST      0.000000
 
 POSCAR: Fe3                                     
  positions in direct lattice
  No initial velocities read in
 
 POSCAR: Fe3                                     
  positions in direct lattice
  No initial velocities read in
 


--------------------------------------------------------------------------------------------------------


 ion  position               nearest neighbor table
   1  0.000  0.250  0.250-   2 2.20   3 2.20   2 2.20   3 2.20
   2  0.500  0.000  0.500-   1 2.20   1 2.20   3 2.54   3 2.54   3 2.54   3 2.54
   3  0.500  0.500  0.000-   1 2.20   1 2.20   2 2.54   2 2.54   2 2.54   2 2.54
 
  LATTYP: Found a simple cubic cell.
 ALAT       =     3.5850510000
  
  Lattice vectors:
  
 A1 = (   3.5850510000,   0.0000000000,   0.0000000000)
 A2 = (   0.0000000000,   3.5850510000,   0.0000000000)
 A3 = (   0.0000000000,   0.0000000000,   3.5850510000)
 Subroutine PRICEL returns:
 Original cell was already a primitive cell.
 

Analysis of symmetry for initial positions (statically):

 Routine SETGRP: Setting up the symmetry group for a 
 simple cubic supercell.


 Subroutine GETGRP returns: Found  8 space group operations
 (whereof  4 operations were pure point group operations)
 out of a pool of 48 trial point group operations.


The static configuration has the point symmetry C_2v.
 The point group associated with its full space group is D_2h.

Analysis of symmetry for dynamics (positions and initial velocities):

 Subroutine DYNSYM returns: Found  8 space group operations
 (whereof  4 operations were pure point group operations)
 out of a pool of  8 trial space group operations
 (whereof  4 operations were pure point group operations)
 and found also     1 'primitive' translations


The dynamic configuration has the point symmetry C_2v.
 The point group associated with its full space group is D_2h.
 
 
 KPOINTS: Automatic kpoint scheme                 

Automatic generation of k-mesh.
 
 Subroutine IBZKPT returns following result:
 ===========================================
 
 Found      2 irreducible k-points:
 
 Following reciprocal coordinates:
            Coordinates               Weight
  0.250000  0.250000  0.250000      4.000000
  0.250000 -0.250000  0.250000      4.000000
 
 Following cartesian coordinates:
            Coordinates               Weight
  0.069734  0.069734  0.069734      4.000000
  0.069734 -0.069734  0.069734      4.000000
 


--------------------------------------------------------------------------------------------------------




 Dimension of arrays:
   k-points           NKPTS =      2   k-points in BZ     NKDIM =      2   number of bands    NBANDS=     16
   number of dos      NEDOS =    301   number of ions     NIONS =      3
   non local maximal  LDIM  =      6   non local SUM 2l+1 LMDIM =     18
   total plane-waves  NPLWV =  13824
   max r-space proj   IRMAX =      1   max aug-charges    IRDMAX=  10886
   dimension x,y,z NGX =    24 NGY =   24 NGZ =   24
   dimension x,y,z NGXF=    48 NGYF=   48 NGZF=   48
   support grid    NGXF=    48 NGYF=   48 NGZF=   48
   ions per type =               3
 NGX,Y,Z   is equivalent  to a cutoff of  11.13, 11.13, 11.13 a.u.
 NGXF,Y,Z  is equivalent  to a cutoff of  22.26, 22.26, 22.26 a.u.


 I would recommend the setting:
   dimension x,y,z NGX =    21 NGY =   21 NGZ =   21
 SYSTEM =  unknown system                          
 POSCAR =  Fe3                                     

 Startparameter for this run:
   NWRITE =      2    write-flag & timer
   PREC   = accura    medium, high low
   ISTART =      0    job   : 0-new  1-cont  2-samecut
   ICHARG =      2    charge: 1-file 2-atom 10-const
   ISPIN  =      1    spin polarized calculation?
   LNONCOLLINEAR =      F non collinear calculations
   LSORBIT =      F    spin-orbit coupling
   INIWAV =      1    electr: 0-lowe 1-rand  2-diag
   LASPH  =      F    aspherical Exc in radial PAW
   METAGGA=      F    non-selfconsistent MetaGGA calc.

 Electronic Relaxation 1
   ENCUT  =  334.9 eV  24.61 Ry    4.96 a.u.   5.35  5.35  5.35*2*pi/ulx,y,z
   ENINI  =  334.9     initial cutoff
   ENAUG  =  511.4 eV  augmentation charge cutoff
   NELM   =     60;   NELMIN=  2; NELMDL= -5     # of ELM steps 
   EDIFF  = 0.1E-03   stopping-criterion for ELM
   LREAL  =      F    real-space projection
   LCOMPAT=      F    compatible to vasp.4.4
   LREAL_COMPAT= F    compatible to vasp.4.5.1-3
   GGA_COMPAT  = T    GGA compatible to vasp.4.4-vasp.4.6
   LMAXPAW     = -100 max onsite density
   LMAXMIX     =    2 max onsite mixed and CHGCAR
   VOSKOWN=      0    Vosko Wilk Nusair interpolation
   ROPT   =    0.00000
 Ionic relaxation
   EDIFFG = 0.1E-02   stopping-criterion for IOM
   NSW    =    191    number of steps for IOM
   NBLOCK =      1;   KBLOCK =    191    inner block; outer block 
   IBRION =      1    ionic relax: 0-MD 1-quasi-New 2-CG
   NFREE  =      0    steps in history (QN), initial steepest desc. (CG)
   ISIF   =      2    stress and relaxation
   IWAVPR =     11    prediction:  0-non 1-charg 2-wave 3-comb
   ISYM   =      2    0-nonsym 1-usesym 2-fastsym
   LCORR  =      T    Harris-Foulkes like correction to forces

   POTIM  = 0.5000    time-step for ionic-motion
   TEIN   =    0.0    initial temperature
   TEBEG  =    0.0;   TEEND  =   0.0 temperature during run
   SMASS  =  -3.00    Nose mass-parameter (am)
   estimated Nose-frequenzy (Omega)   =  0.10E-29 period in steps =****** mass=  -0.294E-27a.u.
   NPACO  =    256;   APACO  = 16.0  distance and # of slots for P.C.
   PSTRESS=    0.0 pullay stress

  Mass of Ions in am
   POMASS =  55.85
  Ionic Valenz
   ZVAL   =   8.00
  Atomic Wigner-Seitz radii
   RWIGS  =  -1.00
   NELECT =      24.0000    total number of electrons
   NUPDOWN=      -1.0000    fix difference up-down

 DOS related values:
   EMIN   =  10.00;   EMAX   =-10.00  energy-range for DOS
   EFERMI =   0.00
   ISMEAR =     1;   SIGMA  =   0.20  broadening in eV -4-tet -1-fermi 0-gaus

 Electronic relaxation 2 (details)
   IALGO  =     38    algorithm
   LDIAG  =      T    sub-space diagonalisation
   IMIX   =      4    mixing-type and parameters
     AMIX     =   0.40;   BMIX     =  1.00
     AMIX_MAG =   1.60;   BMIX_MAG =  1.00
     AMIN     =   0.10
     WC   =   100.;   INIMIX=   1;  MIXPRE=   1

 Intra band minimization:
   WEIMIN = 0.0010     energy-eigenvalue tresh-hold
   EBREAK =  0.16E-05  absolut break condition
   DEPER  =   0.30     relativ break condition  

   TIME   =   0.40     timestep for ELM

  volume/ion in A,a.u.               =      15.36       103.65
  Fermi-wavevector in a.u.,A,eV,Ry     =   1.317194  2.489137 23.606126  1.735001
  Thomas-Fermi vector in A             =   2.447253
 
 Write flags
   LWAVE  =      F    write WAVECAR
   LCHARG =      F    write CHGCAR
   LVTOT  =      F    write LOCPOT, local potential
   LELF   =      F    write electronic localiz. function (ELF)
   LORBIT =      0    0 simple, 1 ext, 2 COOP (PROOUT)


 Dipole corrections
   LMONO  =      F    monopole corrections only (constant potential shift)
   LDIPOL =      F    correct potential (dipole corrections)
   IDIPOL =      0    1-x, 2-y, 3-z, 4-all directions 
   EPSILON=  1.0000000 bulk dielectric constant

 Exchange correlation treatment:
   GGA     =    --    GGA type
   LEXCH   =     7    internal setting for exchange type
   VOSKOWN=      0    Vosko Wilk Nusair interpolation
   LHFCALC =     F    Hartree Fock is set to
   LHFONE  =     F    Hartree Fock one center treatment
   AEXX    =    0.0000 exact exchange contribution

 Linear response parameters
   LEPSILON=     F    determine dielectric tensor
   LRPA    =     F    only Hartree local field effects (RPA)
   LNABLA  =     F    use nabla operator in PAW spheres
   LVEL    =     F    velocity operator in full k-point grid
   LINTERFAST=   F  fast interpolation
   KINTER  =     0    interpolate to denser k-point grid
   CSHIFT  =0.1000    complex shift for real part using Kramers Kronig
   OMEGAMAX=  -1.0    maximum frequency

 Orbital magnetization related:
   ORBITALMAG=     F  switch on orbital magnetization
   LCHIMAG   =     F  perturbation theory with respect to B field



--------------------------------------------------------------------------------------------------------


 quasi-Newton-method for relaxation of ions
 charge density and potential will be updated during run
 non-spin polarized calculation
 Variant of blocked Davidson
 Davidson routine will perform the subspace rotation
 perform sub-space diagonalisation
    after iterative eigenvector-optimisation
 modified Broyden-mixing scheme, WC =      100.0
 initial mixing is a Kerker type mixing with AMIX =  0.4000 and BMIX =      1.0000
 Hartree-type preconditioning will be used
 using additional bands            4
 reciprocal scheme for non local part
 use partial core corrections
 calculate Harris-corrections to forces 
   (improved forces if not selfconsistent)
 use gradient corrections 
 use of overlap-Matrix (Vanderbilt PP)
 Methfessel and Paxton  Order N= 1 SIGMA  =   0.20


--------------------------------------------------------------------------------------------------------


  energy-cutoff  :      334.88
  volume of cell :       46.08
      direct lattice vectors                 reciprocal lattice vectors
     3.585051000  0.000000000  0.000000000     0.278936060  0.000000000  0.000000000
     0.000000000  3.585051000  0.000000000     0.000000000  0.278936060  0.000000000
     0.000000000  0.000000000  3.585051000     0.000000000  0.000000000  0.278936060

  length of vectors
     3.585051000  3.585051000  3.585051000     0.278936060  0.278936060  0.278936060


 
 k-points in units of 2pi/SCALE and weight: Automatic kpoint scheme                 
   0.06973401  0.06973401  0.06973401       0.500
   0.06973401 -0.06973401  0.06973401       0.500
 
 k-points in reciprocal lattice and weights: Automatic kpoint scheme                 
   0.25000000  0.25000000  0.25000000       0.500
   0.25000000 -0.25000000  0.25000000       0.500
 
 position of ions in fractional coordinates (direct lattice) 
   0.00000000  0.25000000  0.25000000
   0.50000000  0.00000000  0.50000000
   0.50000000  0.50000000  0.00000000
 
 position of ions in cartesian coordinates  (Angst):
   0.00000000  0.89626275  0.89626275
   1.79252550  0.00000000  1.79252550
   1.79252550  1.79252550  0.00000000
 


--------------------------------------------------------------------------------------------------------


 k-point  1 :  0.25000.25000.2500  plane waves:     630
 k-point  2 :  0.2500-.25000.2500  plane waves:     630

 maximum and minimum number of plane-waves per node :     630    630

 maximum number of plane-waves:     630
 maximal index in each direction: 
   IXMAX=  5   IYMAX=  5   IZMAX=  5
   IXMIN= -5   IYMIN= -5   IZMIN= -5

 NGX is ok and might be reduce to  22
 NGY is ok and might be reduce to  22
 NGZ is ok and might be reduce to  22

 serial   3D FFT for wavefunctions
 parallel 3D FFT for charge:
    minimum data exchange during FFTs selected (reduces bandwidth)


 total amount of memory used by VASP on root node  40541. kBytes
========================================================================

   base      :    30000. kBytes
   nonl-proj :      211. kBytes
   fftplans  :     3916. kBytes
   grid      :     6018. kBytes
   one-center:       46. kBytes
   wavefun   :      350. kBytes
 
 Broyden mixing: mesh for mixing (old mesh)
   NGX = 11   NGY = 11   NGZ = 11
  (NGX  = 48   NGY  = 48   NGZ  = 48)
  gives a total of   1331 points

 initial charge density was supplied:
 charge density of overlapping atoms calculated
 number of electron   24.0000000 magnetization 
 keeping initial charge density in first step


--------------------------------------------------------------------------------------------------------


 Maximum index for augmentation-charges        10395 (set IRDMAX)


--------------------------------------------------------------------------------------------------------


 First call to EWALD:  gamma=   0.494
 Maximum number of real-space cells 3x 3x 3
 Maximum number of reciprocal cells 3x 3x 3

    FEWALD:  cpu time    0.02: real time    0.01
   RESPFUN:  cpu time    0.00: real time    0.00


----------------------------------------- Iteration    1(   1)  ---------------------------------------


    POTLOK:  cpu time    0.67: real time    0.49
    SETDIJ:  cpu time    0.07: real time    0.07
     EDDAV:  cpu time    1.86: real time    0.48
       DOS:  cpu time    0.00: real time    0.00
    --------------------------------------------
      LOOP:  cpu time    2.61: real time    1.05

 eigenvalue-minimisations  :    64
 total energy-change (2. order) : 0.1226279E+03  (-0.8137652E+03)
 number of electron   24.0000000 magnetization 
 augmentation part    24.0000000 magnetization 

 Free energy of the ion-electron system (eV)
  ---------------------------------------------------
  alpha Z        PSCENC =       134.15010455
  Ewald energy   TEWEN  =     -1516.62787332
  -1/2 Hartree   DENC   =      -478.71812717
  -exchange  EXHF       =         0.00000000
  -V(xc)+E(xc)   XCENC  =         9.29660387
  PAW double counting   =      1438.89509626    -1462.21758594
  entropy T*S    EENTRO =        -0.03656951
  eigenvalues    EBANDS =       211.27133676
  atomic energy  EATOM  =      1786.61487174
  ---------------------------------------------------
  free energy    TOTEN  =       122.62785725 eV

  energy without entropy =      122.66442675  energy(sigma->0) =      122.64004708


--------------------------------------------------------------------------------------------------------




----------------------------------------- Iteration    1(   2)  ---------------------------------------


     EDDAV:  cpu time    1.17: real time    0.29
       DOS:  cpu time    0.00: real time    0.00
    --------------------------------------------
      LOOP:  cpu time    1.18: real time    0.30

 eigenvalue-minimisations  :    64
 total energy-change (2. order) :-0.1375911E+03  (-0.1337282E+03)
 number of electron   24.0000000 magnetization 
 augmentation part    24.0000000 magnetization 

 Free energy of the ion-electron system (eV)
  ---------------------------------------------------
  alpha Z        PSCENC =       134.15010455
  Ewald energy   TEWEN  =     -1516.62787332
  -1/2 Hartree   DENC   =      -478.71812717
  -exchange  EXHF       =         0.00000000
  -V(xc)+E(xc)   XCENC  =         9.29660387
  PAW double counting   =      1438.89509626    -1462.21758594
  entropy T*S    EENTRO =         0.02571443
  eigenvalues    EBANDS =        73.61795401
  atomic energy  EATOM  =      1786.61487174
  ---------------------------------------------------
  free energy    TOTEN  =       -14.96324158 eV

  energy without entropy =      -14.98895601  energy(sigma->0) =      -14.97181306


--------------------------------------------------------------------------------------------------------




----------------------------------------- Iteration    1(   3)  ---------------------------------------


     EDDAV:  cpu time    1.58: real time    0.39
       DOS:  cpu time    0.00: real time    0.00
    --------------------------------------------
      LOOP:  cpu time    1.59: real time    0.40

 eigenvalue-minimisations  :   112
 total energy-change (2. order) :-0.8302034E+01  (-0.8140143E+01)
 number of electron   24.0000000 magnetization 
 augmentation part    24.0000000 magnetization 

 Free energy of the ion-electron system (eV)
  ---------------------------------------------------
  alpha Z        PSCENC =       134.15010455
  Ewald energy   TEWEN  =     -1516.62787332
  -1/2 Hartree   DENC   =      -478.71812717
  -exchange  EXHF       =         0.00000000
  -V(xc)+E(xc)   XCENC  =         9.29660387
  PAW double counting   =      1438.89509626    -1462.21758594
  entropy T*S    EENTRO =        -0.04607712
  eigenvalues    EBANDS =        65.38771142
  atomic energy  EATOM  =      1786.61487174
  ---------------------------------------------------
  free energy    TOTEN  =       -23.26527571 eV

  energy without entropy =      -23.21919859  energy(sigma->0) =      -23.24991667


--------------------------------------------------------------------------------------------------------




----------------------------------------- Iteration    1(   4)  ---------------------------------------


     EDDAV:  cpu time    1.20: real time    0.30
       DOS:  cpu time    0.00: real time    0.00
    --------------------------------------------
      LOOP:  cpu time    1.21: real time    0.30

 eigenvalue-minimisations  :    80
 total energy-change (2. order) :-0.1673581E+00  (-0.1672949E+00)
 number of electron   24.0000000 magnetization 
 augmentation part    24.0000000 magnetization 

 Free energy of the ion-electron system (eV)
  ---------------------------------------------------
  alpha Z        PSCENC =       134.15010455
  Ewald energy   TEWEN  =     -1516.62787332
  -1/2 Hartree   DENC   =      -478.71812717
  -exchange  EXHF       =         0.00000000
  -V(xc)+E(xc)   XCENC  =         9.29660387
  PAW double counting   =      1438.89509626    -1462.21758594
  entropy T*S    EENTRO =        -0.04617267
  eigenvalues    EBANDS =        65.22044891
  atomic energy  EATOM  =      1786.61487174
  ---------------------------------------------------
  free energy    TOTEN  =       -23.43263377 eV

  energy without entropy =      -23.38646110  energy(sigma->0) =      -23.41724288


--------------------------------------------------------------------------------------------------------




----------------------------------------- Iteration    1(   5)  ---------------------------------------


     EDDAV:  cpu time    1.08: real time    0.27
       DOS:  cpu time    0.00: real time    0.00
    CHARGE:  cpu time    0.16: real time    0.06
    MIXING:  cpu time    0.01: real time    0.01
    --------------------------------------------
      LOOP:  cpu time    1.26: real time    0.34

 eigenvalue-minimisations  :    72
 total energy-change (2. order) :-0.2078618E-02  (-0.2078579E-02)
 number of electron   24.0000013 magnetization 
 augmentation part    11.0199785 magnetization 

 Broyden mixing:
  rms(total) = 0.13211E+01    rms(broyden)= 0.13202E+01
  rms(prec ) = 0.32220E+01
  weight for this iteration     100.00

 Free energy of the ion-electron system (eV)
  ---------------------------------------------------
  alpha Z        PSCENC =       134.15010455
  Ewald energy   TEWEN  =     -1516.62787332
  -1/2 Hartree   DENC   =      -478.71812717
  -exchange  EXHF       =         0.00000000
  -V(xc)+E(xc)   XCENC  =         9.29660387
  PAW double counting   =      1438.89509626    -1462.21758594
  entropy T*S    EENTRO =        -0.04616416
  eigenvalues    EBANDS =        65.21836179
  atomic energy  EATOM  =      1786.61487174
  ---------------------------------------------------
  free energy    TOTEN  =       -23.43471239 eV

  energy without entropy =      -23.38854823  energy(sigma->0) =      -23.41932433


--------------------------------------------------------------------------------------------------------




----------------------------------------- Iteration    1(   6)  ---------------------------------------


    POTLOK:  cpu time    0.25: real time    0.25
    SETDIJ:  cpu time    0.04: real time    0.04
     EDDAV:  cpu time    1.31: real time    0.34
       DOS:  cpu time    0.00: real time    0.00
    CHARGE:  cpu time    0.17: real time    0.06
    MIXING:  cpu time    0.01: real time    0.01
    --------------------------------------------
      LOOP:  cpu time    1.77: real time    0.69

 eigenvalue-minimisations  :    96
 total energy-change (2. order) : 0.5717114E+00  (-0.5456525E+01)
 number of electron   24.0000016 magnetization 
 augmentation part    13.3617424 magnetization 

 Broyden mixing:
  rms(total) = 0.18798E+01    rms(broyden)= 0.18794E+01
  rms(prec ) = 0.56106E+01
  weight for this iteration     100.00

 eigenvalues of (default mixing * dielectric matrix)
  average eigenvalue GAMMA=   0.3840
  0.3840

 Free energy of the ion-electron system (eV)
  ---------------------------------------------------
  alpha Z        PSCENC =       134.15010455
  Ewald energy   TEWEN  =     -1516.62787332
  -1/2 Hartree   DENC   =      -429.02177153
  -exchange  EXHF       =         0.00000000
  -V(xc)+E(xc)   XCENC  =         6.91153065
  PAW double counting   =      1419.72308048    -1436.35396834
  entropy T*S    EENTRO =        -0.01722157
  eigenvalues    EBANDS =        11.75824638
  atomic energy  EATOM  =      1786.61487174
  ---------------------------------------------------
  free energy    TOTEN  =       -22.86300098 eV

  energy without entropy =      -22.84577940  energy(sigma->0) =      -22.85726045


--------------------------------------------------------------------------------------------------------




----------------------------------------- Iteration    1(   7)  ---------------------------------------


    POTLOK:  cpu time    0.25: real time    0.25
    SETDIJ:  cpu time    0.04: real time    0.04
     EDDAV:  cpu time    1.39: real time    0.36
       DOS:  cpu time    0.00: real time    0.00
    CHARGE:  cpu time    0.17: real time    0.06
    MIXING:  cpu time    0.01: real time    0.01
    --------------------------------------------
      LOOP:  cpu time    1.86: real time    0.71

 eigenvalue-minimisations  :   104
 total energy-change (2. order) :-0.5590671E+01  (-0.4500939E+01)
 number of electron   24.0000014 magnetization 
 augmentation part    13.3383856 magnetization 

 Broyden mixing:
  rms(total) = 0.35866E+01    rms(broyden)= 0.35858E+01
  rms(prec ) = 0.10931E+02
  weight for this iteration     100.00

 eigenvalues of (default mixing * dielectric matrix)
  average eigenvalue GAMMA=   0.3961
  0.1055  0.6867

 Free energy of the ion-electron system (eV)
  ---------------------------------------------------
  alpha Z        PSCENC =       134.15010455
  Ewald energy   TEWEN  =     -1516.62787332
  -1/2 Hartree   DENC   =      -436.35479330
  -exchange  EXHF       =         0.00000000
  -V(xc)+E(xc)   XCENC  =         7.25131987
  PAW double counting   =      1443.56341080    -1462.66847553
  entropy T*S    EENTRO =        -0.03184478
  eigenvalues    EBANDS =        15.64960817
  atomic energy  EATOM  =      1786.61487174
  ---------------------------------------------------
  free energy    TOTEN  =       -28.45367180 eV

  energy without entropy =      -28.42182702  energy(sigma->0) =      -28.44305687


--------------------------------------------------------------------------------------------------------




----------------------------------------- Iteration    1(   8)  ---------------------------------------


    POTLOK:  cpu time    0.28: real time    0.25
    SETDIJ:  cpu time    0.04: real time    0.04
     EDDAV:  cpu time    1.39: real time    0.36
       DOS:  cpu time    0.00: real time    0.00
    CHARGE:  cpu time    0.17: real time    0.06
    MIXING:  cpu time    0.01: real time    0.01
    --------------------------------------------
      LOOP:  cpu time    1.89: real time    0.72

 eigenvalue-minimisations  :   104
 total energy-change (2. order) : 0.7864902E+01  (-0.2589060E+01)
 number of electron   24.0000015 magnetization 
 augmentation part    12.4878381 magnetization 

 Broyden mixing:
  rms(total) = 0.25583E+00    rms(broyden)= 0.24821E+00
  rms(prec ) = 0.56303E+00
  weight for this iteration     100.00

 eigenvalues of (default mixing * dielectric matrix)
  average eigenvalue GAMMA=   0.4872
  0.1061  0.8735  0.4821

 Free energy of the ion-electron system (eV)
  ---------------------------------------------------
  alpha Z        PSCENC =       134.15010455
  Ewald energy   TEWEN  =     -1516.62787332
  -1/2 Hartree   DENC   =      -445.88688387
  -exchange  EXHF       =         0.00000000
  -V(xc)+E(xc)   XCENC  =         7.71472445
  PAW double counting   =      1476.10672792    -1498.59658596
  entropy T*S    EENTRO =        -0.03862394
  eigenvalues    EBANDS =        35.97476833
  atomic energy  EATOM  =      1786.61487174
  ---------------------------------------------------
  free energy    TOTEN  =       -20.58877012 eV

  energy without entropy =      -20.55014617  energy(sigma->0) =      -20.57589547


--------------------------------------------------------------------------------------------------------




----------------------------------------- Iteration    1(   9)  ---------------------------------------


    POTLOK:  cpu time    0.31: real time    0.25
    SETDIJ:  cpu time    0.04: real time    0.04
     EDDAV:  cpu time    1.13: real time    0.29
       DOS:  cpu time    0.00: real time    0.00
    CHARGE:  cpu time    0.17: real time    0.06
    MIXING:  cpu time    0.01: real time    0.01
    --------------------------------------------
      LOOP:  cpu time    1.67: real time    0.65

 eigenvalue-minimisations  :    80
 total energy-change (2. order) : 0.6867796E-01  (-0.7928969E-01)
 number of electron   24.0000016 magnetization 
 augmentation part    12.4520725 magnetization 

 Broyden mixing:
  rms(total) = 0.13664E+00    rms(broyden)= 0.13609E+00
  rms(prec ) = 0.30433E+00
  weight for this iteration     100.00

 eigenvalues of (default mixing * dielectric matrix)
  average eigenvalue GAMMA=   0.8988
  2.1460  0.1060  0.6716  0.6716

 Free energy of the ion-electron system (eV)
  ---------------------------------------------------
  alpha Z        PSCENC =       134.15010455
  Ewald energy   TEWEN  =     -1516.62787332
  -1/2 Hartree   DENC   =      -443.63698804
  -exchange  EXHF       =         0.00000000
  -V(xc)+E(xc)   XCENC  =         7.61942338
  PAW double counting   =      1503.47440156    -1527.29018439
  entropy T*S    EENTRO =        -0.04830377
  eigenvalues    EBANDS =        35.22445614
  atomic energy  EATOM  =      1786.61487174
  ---------------------------------------------------
  free energy    TOTEN  =       -20.52009215 eV

  energy without entropy =      -20.47178839  energy(sigma->0) =      -20.50399090


--------------------------------------------------------------------------------------------------------




----------------------------------------- Iteration    1(  10)  ---------------------------------------


    POTLOK:  cpu time    0.35: real time    0.25
    SETDIJ:  cpu time    0.04: real time    0.04
     EDDAV:  cpu time    1.30: real time    0.33
       DOS:  cpu time    0.00: real time    0.00
    CHARGE:  cpu time    0.17: real time    0.06
    MIXING:  cpu time    0.01: real time    0.01
    --------------------------------------------
      LOOP:  cpu time    1.88: real time    0.69

 eigenvalue-minimisations  :    96
 total energy-change (2. order) : 0.1728263E-01  (-0.1101239E-01)
 number of electron   24.0000016 magnetization 
 augmentation part    12.5446246 magnetization 

 Broyden mixing:
  rms(total) = 0.45073E-01    rms(broyden)= 0.44876E-01
  rms(prec ) = 0.86293E-01
  weight for this iteration     100.00

 eigenvalues of (default mixing * dielectric matrix)
  average eigenvalue GAMMA=   0.9423
  2.3821  0.1060  0.6439  0.6439  0.9357

 Free energy of the ion-electron system (eV)
  ---------------------------------------------------
  alpha Z        PSCENC =       134.15010455
  Ewald energy   TEWEN  =     -1516.62787332
  -1/2 Hartree   DENC   =      -440.72732580
  -exchange  EXHF       =         0.00000000
  -V(xc)+E(xc)   XCENC  =         7.49836264
  PAW double counting   =      1521.91671231    -1546.26713842
  entropy T*S    EENTRO =        -0.04191778
  eigenvalues    EBANDS =        32.98139456
  atomic energy  EATOM  =      1786.61487174
  ---------------------------------------------------
  free energy    TOTEN  =       -20.50280952 eV

  energy without entropy =      -20.46089174  energy(sigma->0) =      -20.48883693


--------------------------------------------------------------------------------------------------------




----------------------------------------- Iteration    1(  11)  ---------------------------------------


    POTLOK:  cpu time    0.35: real time    0.25
    SETDIJ:  cpu time    0.04: real time    0.04
     EDDAV:  cpu time    1.30: real time    0.33
       DOS:  cpu time    0.00: real time    0.00
    CHARGE:  cpu time    0.17: real time    0.06
    MIXING:  cpu time    0.01: real time    0.01
    --------------------------------------------
      LOOP:  cpu time    1.88: real time    0.69

 eigenvalue-minimisations  :    96
 total energy-change (2. order) : 0.3632200E-03  (-0.6298842E-03)
 number of electron   24.0000016 magnetization 
 augmentation part    12.5643659 magnetization 

 Broyden mixing:
  rms(total) = 0.22481E-01    rms(broyden)= 0.22422E-01
  rms(prec ) = 0.56092E-01
  weight for this iteration     100.00

 eigenvalues of (default mixing * dielectric matrix)
  average eigenvalue GAMMA=   1.0925
  2.5768  1.7971  0.1060  0.7131  0.7131  0.6489

 Free energy of the ion-electron system (eV)
  ---------------------------------------------------
  alpha Z        PSCENC =       134.15010455
  Ewald energy   TEWEN  =     -1516.62787332
  -1/2 Hartree   DENC   =      -440.05926056
  -exchange  EXHF       =         0.00000000
  -V(xc)+E(xc)   XCENC  =         7.47612932
  PAW double counting   =      1530.07521383    -1554.70872095
  entropy T*S    EENTRO =        -0.04439520
  eigenvalues    EBANDS =        32.62148430
  atomic energy  EATOM  =      1786.61487174
  ---------------------------------------------------
  free energy    TOTEN  =       -20.50244630 eV

  energy without entropy =      -20.45805109  energy(sigma->0) =      -20.48764790


--------------------------------------------------------------------------------------------------------




----------------------------------------- Iteration    1(  12)  ---------------------------------------


    POTLOK:  cpu time    0.35: real time    0.25
    SETDIJ:  cpu time    0.04: real time    0.04
     EDDAV:  cpu time    1.13: real time    0.29
       DOS:  cpu time    0.00: real time    0.00
    CHARGE:  cpu time    0.17: real time    0.06
    MIXING:  cpu time    0.01: real time    0.01
    --------------------------------------------
      LOOP:  cpu time    1.71: real time    0.65

 eigenvalue-minimisations  :    80
 total energy-change (2. order) :-0.1345287E-04  (-0.2175384E-03)
 number of electron   24.0000016 magnetization 
 augmentation part    12.5570855 magnetization 

 Broyden mixing:
  rms(total) = 0.92141E-02    rms(broyden)= 0.91366E-02
  rms(prec ) = 0.22164E-01
  weight for this iteration     100.00

 eigenvalues of (default mixing * dielectric matrix)
  average eigenvalue GAMMA=   1.0422
  2.4312  1.8937  0.1060  0.7985  0.7985  0.6336  0.6336

 Free energy of the ion-electron system (eV)
  ---------------------------------------------------
  alpha Z        PSCENC =       134.15010455
  Ewald energy   TEWEN  =     -1516.62787332
  -1/2 Hartree   DENC   =      -440.10359612
  -exchange  EXHF       =         0.00000000
  -V(xc)+E(xc)   XCENC  =         7.48635574
  PAW double counting   =      1534.83383666    -1559.64290000
  entropy T*S    EENTRO =        -0.04375857
  eigenvalues    EBANDS =        32.83049958
  atomic energy  EATOM  =      1786.61487174
  ---------------------------------------------------
  free energy    TOTEN  =       -20.50245975 eV

  energy without entropy =      -20.45870118  energy(sigma->0) =      -20.48787356


--------------------------------------------------------------------------------------------------------




----------------------------------------- Iteration    1(  13)  ---------------------------------------


    POTLOK:  cpu time    0.34: real time    0.25
    SETDIJ:  cpu time    0.04: real time    0.04
     EDDAV:  cpu time    0.63: real time    0.17
       DOS:  cpu time    0.00: real time    0.00
    --------------------------------------------
      LOOP:  cpu time    1.02: real time    0.45

 eigenvalue-minimisations  :    32
 total energy-change (2. order) : 0.2744986E-04  (-0.4638307E-04)
 number of electron   24.0000016 magnetization 
 augmentation part    12.5570855 magnetization 

 Free energy of the ion-electron system (eV)
  ---------------------------------------------------
  alpha Z        PSCENC =       134.15010455
  Ewald energy   TEWEN  =     -1516.62787332
  -1/2 Hartree   DENC   =      -440.10054915
  -exchange  EXHF       =         0.00000000
  -V(xc)+E(xc)   XCENC  =         7.48612258
  PAW double counting   =      1534.44261383    -1559.21197556
  entropy T*S    EENTRO =        -0.04427150
  eigenvalues    EBANDS =        32.78852454
  atomic energy  EATOM  =      1786.61487174
  ---------------------------------------------------
  free energy    TOTEN  =       -20.50243230 eV

  energy without entropy =      -20.45816080  energy(sigma->0) =      -20.48767513


--------------------------------------------------------------------------------------------------------




 average (electrostatic) potential at core
  the test charge radii are     1.0103
  (the norm of the test charge is              1.0000)
       1 -46.4252       2 -46.0298       3 -46.0298
 
 
 
 E-fermi :   3.2669     XC(G=0): -11.3163     alpha+bet :-10.0907
   add alpha+bet to get absolut eigen values

 k-point   1 :       0.2500    0.2500    0.2500
  band No.  band energies     occupation 
      1      -1.4553      2.00000
      2       0.0387      2.00000
      3       0.4488      2.00000
      4       0.4651      2.00000
      5       1.0000      2.00000
      6       1.2382      2.00000
      7       1.4623      2.00000
      8       1.7124      2.00000
      9       2.5780      2.00001
     10       2.9243      2.03597
     11       3.0509      2.06315
     12       3.2123      1.44322
     13       3.2430      1.20106
     14       3.6413     -0.02363
     15       3.6973     -0.00949
     16       4.2897      0.00000

 k-point   2 :       0.2500   -0.2500    0.2500
  band No.  band energies     occupation 
      1      -1.3739      2.00000
      2       0.2059      2.00000
      3       0.4716      2.00000
      4       0.6535      2.00000
      5       0.7565      2.00000
      6       0.9504      2.00000
      7       1.8087      2.00000
      8       2.0920      2.00000
      9       2.1293      2.00000
     10       2.3661      2.00000
     11       2.8179      2.00670
     12       3.2439      1.19306
     13       3.3953      0.12425
     14       3.6249     -0.02962
     15       3.7340     -0.00468
     16       4.1218      0.00000


--------------------------------------------------------------------------------------------------------


 soft charge-density along one line, spin component           1
         0         1         2         3         4         5         6         7         8         9
 total charge-density along one line
 
 pseudopotential strength for first ion, spin component:           1
 -6.795   0.000   0.000   0.025   0.000  -0.294   0.000   0.000
  0.000  -6.629   0.028   0.000  -0.049   0.000  -0.341  -0.008
  0.000   0.028  -6.704   0.000   0.068   0.000  -0.008  -0.320
  0.025   0.000   0.000  -6.795   0.000  -0.006   0.000   0.000
  0.000  -0.049   0.068   0.000  -6.783   0.000   0.014  -0.019
 -0.294   0.000   0.000  -0.006   0.000   0.824   0.000   0.000
  0.000  -0.341  -0.008   0.000   0.014   0.000   0.837   0.003
  0.000  -0.008  -0.320   0.000  -0.019   0.000   0.003   0.831
 -0.006   0.000   0.000  -0.294   0.000   0.001   0.000   0.000
  0.000   0.014  -0.019   0.000  -0.297   0.000  -0.004   0.005
  0.000  -0.010  -0.011   0.000   0.020   0.000   0.001   0.002
  0.000   0.002   0.002   0.000  -0.003   0.000   0.000   0.000
  0.000   0.000   0.000   0.000   0.000   0.000   0.000   0.000
  0.000   0.000   0.000   0.000   0.000   0.000   0.000   0.000
  0.000   0.000   0.000   0.000   0.000   0.000   0.000   0.000
  0.000   0.000   0.000   0.000   0.000   0.000   0.000   0.000
  0.000   0.000   0.000   0.000   0.000   0.000   0.000   0.000
  0.000   0.000   0.000   0.000   0.000   0.000   0.000   0.000
 total augmentation occupancy for first ion, spin component:           1
  1.416   0.000   0.000  -0.184   0.000   0.233   0.000   0.000  -0.077   0.000   0.000   0.000   0.000   0.000   0.000   0.000
  0.000   1.504   0.062   0.000  -0.108   0.000   0.012  -0.021   0.000   0.037  -0.137   0.005   0.000   0.000   0.000   0.000
  0.000   0.062   1.337   0.000  -0.053   0.000  -0.018   0.097   0.000  -0.061  -0.091   0.011   0.000   0.000   0.000   0.000
 -0.184   0.000   0.000   1.416   0.000  -0.077   0.000   0.000   0.233   0.000   0.000   0.000   0.000   0.000   0.000   0.000
  0.000  -0.108  -0.053   0.000   1.399   0.000   0.032  -0.061   0.000   0.167   0.158  -0.020   0.000   0.000   0.000   0.000
  0.233   0.000   0.000  -0.077   0.000   0.096   0.000   0.000  -0.010   0.000   0.000   0.000   0.000   0.000   0.000   0.000
  0.000   0.012  -0.018   0.000   0.032   0.000   0.070  -0.001   0.000   0.001  -0.167   0.007   0.000   0.000   0.000   0.000
  0.000  -0.021   0.097   0.000  -0.061   0.000  -0.001   0.079   0.000  -0.053  -0.124   0.016   0.000   0.000   0.000   0.000
 -0.077   0.000   0.000   0.233   0.000  -0.010   0.000   0.000   0.096   0.000   0.000   0.000   0.000   0.000   0.000   0.000
  0.000   0.037  -0.061   0.000   0.167   0.000   0.001  -0.053   0.000   0.140   0.215  -0.027   0.000   0.000   0.000   0.000
  0.000  -0.137  -0.091   0.000   0.158   0.000  -0.167  -0.124   0.000   0.215   1.472  -0.192   0.000   0.000   0.000   0.000
  0.000   0.005   0.011   0.000  -0.020   0.000   0.007   0.016   0.000  -0.027  -0.192   0.036   0.000   0.000   0.000   0.000
  0.000   0.000   0.000   0.000   0.000   0.000   0.000   0.000   0.000   0.000   0.000   0.000   0.144  -0.048   0.000  -0.006
  0.000   0.000   0.000   0.000   0.000   0.000   0.000   0.000   0.000   0.000   0.000   0.000  -0.048   0.144   0.000   0.000
  0.000   0.000   0.000   0.000   0.000   0.000   0.000   0.000   0.000   0.000   0.000   0.000   0.000   0.000   0.258   0.000
  0.000   0.000   0.000   0.000   0.000   0.000   0.000   0.000   0.000   0.000   0.000   0.000  -0.006   0.000   0.000   0.000
  0.000   0.000   0.000   0.000   0.000   0.000   0.000   0.000   0.000   0.000   0.000   0.000   0.000  -0.006   0.000   0.000
  0.000   0.000   0.000   0.000   0.000   0.000   0.000   0.000   0.000   0.000   0.000   0.000   0.000   0.000  -0.008   0.000


------------------------ aborting loop because EDIFF is reached ----------------------------------------




--------------------------------------------------------------------------------------------------------



  FREE ENERGIE OF THE ION-ELECTRON SYSTEM (eV)
  ---------------------------------------------------
  free  energy   TOTEN  =       -20.502432 eV

  energy  without entropy=      -20.458161  energy(sigma->0) =      -20.487675
 
    CHARGE:  cpu time    0.13: real time    0.06
    FORLOC:  cpu time    0.01: real time    0.01
    FORNL :  cpu time    0.17: real time    0.17
    STRESS:  cpu time    0.51: real time    0.29
    FORCOR:  cpu time    0.26: real time    0.26
    FORHAR:  cpu time    0.06: real time    0.06
    MIXING:  cpu time    0.01: real time    0.01

  FORCE on cell =-STRESS in cart. coord.  units (eV):
  Direction    XX          YY          ZZ          XY          YZ          ZX
  --------------------------------------------------------------------------------------
  Alpha Z   134.15010   134.15010   134.15010
  Ewald    -409.40855  -553.61003  -553.61003     0.00000   -92.72677     0.00000
  Hartree   185.25084   127.46588   127.46588     0.00000   -41.19141     0.00000
  E(xc)    -116.33786  -116.06006  -116.06006     0.00000     0.22721     0.00000
  Local     -35.18149   155.24354   155.24354     0.00000   129.91256     0.00000
  n-local   -86.95088   -88.34412   -88.34411    -2.58124    -0.47893     3.32044
  augment   110.65889   114.15026   114.15028    -0.00002     0.37300    -0.00001
  Kinetic   214.49607   220.99080   220.99081     1.70711     0.48274    -3.89313
  Fock        0.00000     0.00000     0.00000     0.00000     0.00000     0.00000
  -------------------------------------------------------------------------------------
  Total      -3.32288    -6.01361    -6.01361     0.00000    -3.40160     0.00000
  in kB    -115.54196  -209.10272  -209.10272     0.00000  -118.27906     0.00000
  external pressure =     -177.92 kB  Pullay stress =        0.00 kB


 VOLUME and BASIS-vectors are now :
 -----------------------------------------------------------------------------
  energy-cutoff  :      334.88
  volume of cell :       46.08
      direct lattice vectors                 reciprocal lattice vectors
     3.585051000  0.000000000  0.000000000     0.278936060  0.000000000  0.000000000
     0.000000000  3.585051000  0.000000000     0.000000000  0.278936060  0.000000000
     0.000000000  0.000000000  3.585051000     0.000000000  0.000000000  0.278936060

  length of vectors
     3.585051000  3.585051000  3.585051000     0.278936060  0.278936060  0.278936060


 FORCES acting on ions
    electron-ion (+dipol)            ewald-force                    non-local-force                 convergence-correction
 -----------------------------------------------------------------------------------------------
   0.497E-14 0.157E-12 0.200E-13   0.948E-15 -.888E-14 -.213E-13   0.000E+00 0.212E-21 0.106E-21   -.269E-13 -.687E-13 -.317E-13
   0.230E-12 0.757E+02 -.757E+02   -.449E-14 -.765E+02 0.765E+02   -.542E-19 -.585E+00 0.585E+00   -.545E-13 -.428E-01 0.428E-01
   0.243E-12 -.757E+02 0.757E+02   0.428E-14 0.765E+02 -.765E+02   0.542E-19 0.585E+00 -.585E+00   -.156E-13 0.428E-01 -.428E-01
 -----------------------------------------------------------------------------------------------
   0.478E-12 -.132E-11 -.430E-11   0.733E-15 0.000E+00 0.000E+00   0.000E+00 -.222E-15 -.111E-15   -.970E-13 -.133E-12 0.444E-13
 
 
 POSITION                                       TOTAL-FORCE (eV/Angst)
 -----------------------------------------------------------------------------------
      0.00000      0.89626      0.89626         0.000000      0.000000      0.000000
      1.79253      0.00000      1.79253         0.000000     -1.428918      1.428918
      1.79253      1.79253      0.00000         0.000000      1.428918     -1.428918
 -----------------------------------------------------------------------------------
    total drift:                                0.000000      0.000000      0.000000


--------------------------------------------------------------------------------------------------------


    POTLOK:  cpu time    0.45: real time    0.29


--------------------------------------------------------------------------------------------------------


 NEB: the previous image is higher in energy: F
 NEB: the next image is higher in energy    : F
 NEB: image is at an extrema
 NEB: diff energy (min, max):    20.502432   20.502432

 NEB: Tangent
 ----------------------------------------------
      0.00000     -0.70711     -0.70711
      0.00000      0.00000      0.00000
      0.00000      0.00000      0.00000

 NEB: forces: par spring, perp REAL, dneb     0.000000    2.857837    0.000000
 NEB: distance to prev, next image, angle between     1.267507    1.267507  180.000000
 NEB: projections on to tangent (spring, REAL)     0.000000    0.000000

  FORCES: max atom, RMS     2.020796    1.649973
  FORCE total and by dimension    2.857837    1.428918
 Quasi-Newton relaxation of ions (Broydens 2nd method)
  g(Force)  = 0.394E+00   g(Stress)= 0.000E+00

 Reset! Starting new Quasi-Newton update for ions 


--------------------------------------------------------------------------------------------------------


    WAVPRE:  cpu time    0.04: real time    0.04
    FEWALD:  cpu time    0.00: real time    0.00
    ORTHCH:  cpu time    0.02: real time    0.01
     LOOP+:  cpu time   23.29: real time    8.89
   RESPFUN:  cpu time    0.01: real time    0.00


----------------------------------------- Iteration    2(   1)  ---------------------------------------


    POTLOK:  cpu time    0.41: real time    0.25
    SETDIJ:  cpu time    0.04: real time    0.04
     EDDAV:  cpu time    1.00: real time    0.26
       DOS:  cpu time    0.00: real time    0.00
    CHARGE:  cpu time    0.23: real time    0.06
    MIXING:  cpu time    0.01: real time    0.01
    --------------------------------------------
      LOOP:  cpu time    1.69: real time    0.62

 eigenvalue-minimisations  :    64
 total energy-change (2. order) :-0.2816856E+00  (-0.7907179E+01)
 number of electron   24.0000014 magnetization 
 augmentation part    12.4620688 magnetization 

 Broyden mixing:
  rms(total) = 0.18225E+00    rms(broyden)= 0.17879E+00
  rms(prec ) = 0.34295E+00
  weight for this iteration     100.00

 Free energy of the ion-electron system (eV)
  ---------------------------------------------------
  alpha Z        PSCENC =       134.15010455
  Ewald energy   TEWEN  =     -1533.81057684
  -1/2 Hartree   DENC   =      -425.47198034
  -exchange  EXHF       =         0.00000000
  -V(xc)+E(xc)   XCENC  =         7.39981197
  PAW double counting   =      1534.72089693    -1559.49422234
  entropy T*S    EENTRO =        -0.00933714
  eigenvalues    EBANDS =        35.11628612
  atomic energy  EATOM  =      1786.61487174
  ---------------------------------------------------
  free energy    TOTEN  =       -20.78414533 eV

  energy without entropy =      -20.77480820  energy(sigma->0) =      -20.78103295


--------------------------------------------------------------------------------------------------------




----------------------------------------- Iteration    2(   2)  ---------------------------------------


    POTLOK:  cpu time    0.25: real time    0.25
    SETDIJ:  cpu time    0.04: real time    0.04
     EDDAV:  cpu time    1.18: real time    0.31
       DOS:  cpu time    0.00: real time    0.00
    CHARGE:  cpu time    0.23: real time    0.07
    MIXING:  cpu time    0.01: real time    0.01
    --------------------------------------------
      LOOP:  cpu time    1.71: real time    0.67

 eigenvalue-minimisations  :    80
 total energy-change (2. order) :-0.8265748E-01  (-0.1437226E+00)
 number of electron   24.0000013 magnetization 
 augmentation part    12.6414445 magnetization 

 Broyden mixing:
  rms(total) = 0.14571E+00    rms(broyden)= 0.14537E+00
  rms(prec ) = 0.36154E+00
  weight for this iteration     100.00

 eigenvalues of (default mixing * dielectric matrix)
  average eigenvalue GAMMA=   0.6272
  0.6272

 Free energy of the ion-electron system (eV)
  ---------------------------------------------------
  alpha Z        PSCENC =       134.15010455
  Ewald energy   TEWEN  =     -1533.81057684
  -1/2 Hartree   DENC   =      -422.79135742
  -exchange  EXHF       =         0.00000000
  -V(xc)+E(xc)   XCENC  =         7.26243477
  PAW double counting   =      1524.08162113    -1548.05645559
  entropy T*S    EENTRO =        -0.01363823
  eigenvalues    EBANDS =        31.69619308
  atomic energy  EATOM  =      1786.61487174
  ---------------------------------------------------
  free energy    TOTEN  =       -20.86680281 eV

  energy without entropy =      -20.85316458  energy(sigma->0) =      -20.86225673


--------------------------------------------------------------------------------------------------------




----------------------------------------- Iteration    2(   3)  ---------------------------------------


    POTLOK:  cpu time    0.25: real time    0.25
    SETDIJ:  cpu time    0.04: real time    0.04
     EDDAV:  cpu time    1.46: real time    0.37
       DOS:  cpu time    0.00: real time    0.00
    CHARGE:  cpu time    0.23: real time    0.07
    MIXING:  cpu time    0.01: real time    0.01
    --------------------------------------------
      LOOP:  cpu time    1.99: real time    0.74

 eigenvalue-minimisations  :   104
 total energy-change (2. order) :-0.8186536E-01  (-0.5680989E-01)
 number of electron   24.0000014 magnetization 
 augmentation part    12.6101509 magnetization 

 Broyden mixing:
  rms(total) = 0.56121E+00    rms(broyden)= 0.56093E+00
  rms(prec ) = 0.17158E+01
  weight for this iteration     100.00

 eigenvalues of (default mixing * dielectric matrix)
  average eigenvalue GAMMA=   0.4239
  0.7673  0.0805

 Free energy of the ion-electron system (eV)
  ---------------------------------------------------
  alpha Z        PSCENC =       134.15010455
  Ewald energy   TEWEN  =     -1533.81057684
  -1/2 Hartree   DENC   =      -424.00141418
  -exchange  EXHF       =         0.00000000
  -V(xc)+E(xc)   XCENC  =         7.31567049
  PAW double counting   =      1524.51270714    -1548.74939489
  entropy T*S    EENTRO =        -0.02938070
  eigenvalues    EBANDS =        33.04874452
  atomic energy  EATOM  =      1786.61487174
  ---------------------------------------------------
  free energy    TOTEN  =       -20.94866817 eV

  energy without entropy =      -20.91928747  energy(sigma->0) =      -20.93887460


--------------------------------------------------------------------------------------------------------




----------------------------------------- Iteration    2(   4)  ---------------------------------------


    POTLOK:  cpu time    0.32: real time    0.25
    SETDIJ:  cpu time    0.04: real time    0.04
     EDDAV:  cpu time    1.55: real time    0.40
       DOS:  cpu time    0.00: real time    0.00
    CHARGE:  cpu time    0.23: real time    0.07
    MIXING:  cpu time    0.01: real time    0.01
    --------------------------------------------
      LOOP:  cpu time    2.15: real time    0.76

 eigenvalue-minimisations  :   112
 total energy-change (2. order) : 0.9135536E-01  (-0.5904824E-01)
 number of electron   24.0000013 magnetization 
 augmentation part    12.5776130 magnetization 

 Broyden mixing:
  rms(total) = 0.92117E-01    rms(broyden)= 0.90584E-01
  rms(prec ) = 0.21465E+00
  weight for this iteration     100.00

 eigenvalues of (default mixing * dielectric matrix)
  average eigenvalue GAMMA=   0.9298
  0.0645  0.7313  1.9937

 Free energy of the ion-electron system (eV)
  ---------------------------------------------------
  alpha Z        PSCENC =       134.15010455
  Ewald energy   TEWEN  =     -1533.81057684
  -1/2 Hartree   DENC   =      -424.57276464
  -exchange  EXHF       =         0.00000000
  -V(xc)+E(xc)   XCENC  =         7.33997754
  PAW double counting   =      1524.55581569    -1548.89697459
  entropy T*S    EENTRO =        -0.01584725
  eigenvalues    EBANDS =        33.77808099
  atomic energy  EATOM  =      1786.61487174
  ---------------------------------------------------
  free energy    TOTEN  =       -20.85731281 eV

  energy without entropy =      -20.84146556  energy(sigma->0) =      -20.85203039


--------------------------------------------------------------------------------------------------------




----------------------------------------- Iteration    2(   5)  ---------------------------------------


    POTLOK:  cpu time    0.25: real time    0.25
    SETDIJ:  cpu time    0.04: real time    0.04
     EDDAV:  cpu time    1.36: real time    0.35
       DOS:  cpu time    0.00: real time    0.00
    CHARGE:  cpu time    0.23: real time    0.07
    MIXING:  cpu time    0.01: real time    0.01
    --------------------------------------------
      LOOP:  cpu time    2.00: real time    0.78

 eigenvalue-minimisations  :    96
 total energy-change (2. order) : 0.8622602E-02  (-0.3820628E-02)
 number of electron   24.0000013 magnetization 
 augmentation part    12.5507841 magnetization 

 Broyden mixing:
  rms(total) = 0.30554E-01    rms(broyden)= 0.30371E-01
  rms(prec ) = 0.67311E-01
  weight for this iteration     100.00

 eigenvalues of (default mixing * dielectric matrix)
  average eigenvalue GAMMA=   0.9094
  2.1404  0.7164  0.7164  0.0646

 Free energy of the ion-electron system (eV)
  ---------------------------------------------------
  alpha Z        PSCENC =       134.15010455
  Ewald energy   TEWEN  =     -1533.81057684
  -1/2 Hartree   DENC   =      -425.24432149
  -exchange  EXHF       =         0.00000000
  -V(xc)+E(xc)   XCENC  =         7.36225484
  PAW double counting   =      1520.84504354    -1545.24420728
  entropy T*S    EENTRO =        -0.02160363
  eigenvalues    EBANDS =        34.49974437
  atomic energy  EATOM  =      1786.61487174
  ---------------------------------------------------
  free energy    TOTEN  =       -20.84869021 eV

  energy without entropy =      -20.82708658  energy(sigma->0) =      -20.84148900


--------------------------------------------------------------------------------------------------------




----------------------------------------- Iteration    2(   6)  ---------------------------------------


    POTLOK:  cpu time    0.41: real time    0.25
    SETDIJ:  cpu time    0.04: real time    0.04
     EDDAV:  cpu time    1.27: real time    0.32
       DOS:  cpu time    0.00: real time    0.00
    CHARGE:  cpu time    0.23: real time    0.07
    MIXING:  cpu time    0.01: real time    0.01
    --------------------------------------------
      LOOP:  cpu time    1.97: real time    0.69

 eigenvalue-minimisations  :    88
 total energy-change (2. order) : 0.1262958E-02  (-0.4916245E-03)
 number of electron   24.0000013 magnetization 
 augmentation part    12.5639222 magnetization 

 Broyden mixing:
  rms(total) = 0.14320E-01    rms(broyden)= 0.14172E-01
  rms(prec ) = 0.33038E-01
  weight for this iteration     100.00

 eigenvalues of (default mixing * dielectric matrix)
  average eigenvalue GAMMA=   1.0005
  2.4967  0.0646  0.8423  0.8423  0.7564

 Free energy of the ion-electron system (eV)
  ---------------------------------------------------
  alpha Z        PSCENC =       134.15010455
  Ewald energy   TEWEN  =     -1533.81057684
  -1/2 Hartree   DENC   =      -424.88699569
  -exchange  EXHF       =         0.00000000
  -V(xc)+E(xc)   XCENC  =         7.34423337
  PAW double counting   =      1519.42113260    -1543.71236745
  entropy T*S    EENTRO =        -0.01765919
  eigenvalues    EBANDS =        34.04982966
  atomic energy  EATOM  =      1786.61487174
  ---------------------------------------------------
  free energy    TOTEN  =       -20.84742725 eV

  energy without entropy =      -20.82976806  energy(sigma->0) =      -20.84154085


--------------------------------------------------------------------------------------------------------




----------------------------------------- Iteration    2(   7)  ---------------------------------------


    POTLOK:  cpu time    0.41: real time    0.25
    SETDIJ:  cpu time    0.04: real time    0.04
     EDDAV:  cpu time    0.83: real time    0.22
       DOS:  cpu time    0.00: real time    0.00
    --------------------------------------------
      LOOP:  cpu time    1.28: real time    0.51

 eigenvalue-minimisations  :    48
 total energy-change (2. order) : 0.2965101E-04  (-0.5995598E-04)
 number of electron   24.0000013 magnetization 
 augmentation part    12.5639222 magnetization 

 Free energy of the ion-electron system (eV)
  ---------------------------------------------------
  alpha Z        PSCENC =       134.15010455
  Ewald energy   TEWEN  =     -1533.81057684
  -1/2 Hartree   DENC   =      -424.87884801
  -exchange  EXHF       =         0.00000000
  -V(xc)+E(xc)   XCENC  =         7.34256117
  PAW double counting   =      1518.51237383    -1542.78025272
  entropy T*S    EENTRO =        -0.01933531
  eigenvalues    EBANDS =        34.02170400
  atomic energy  EATOM  =      1786.61487174
  ---------------------------------------------------
  free energy    TOTEN  =       -20.84739760 eV

  energy without entropy =      -20.82806229  energy(sigma->0) =      -20.84095250


--------------------------------------------------------------------------------------------------------




 average (electrostatic) potential at core
  the test charge radii are     1.0103
  (the norm of the test charge is              1.0000)
       1 -46.2918       2 -46.0521       3 -46.0521
 
 
 
 E-fermi :   3.2747     XC(G=0): -11.3517     alpha+bet :-10.0907
   add alpha+bet to get absolut eigen values

 k-point   1 :       0.2500    0.2500    0.2500
  band No.  band energies     occupation 
      1      -1.4372      2.00000
      2       0.1681      2.00000
      3       0.5740      2.00000
      4       0.7970      2.00000
      5       1.0912      2.00000
      6       1.2915      2.00000
      7       1.4734      2.00000
      8       1.7697      2.00000
      9       2.4717      2.00000
     10       2.9398      2.03935
     11       2.9660      2.05136
     12       3.2173      1.46435
     13       3.3586      0.35424
     14       3.5912     -0.04775
     15       3.6291     -0.03105
     16       4.3247      0.00000

 k-point   2 :       0.2500   -0.2500    0.2500
  band No.  band energies     occupation 
      1      -1.3497      2.00000
      2       0.5062      2.00000
      3       0.6186      2.00000
      4       0.8186      2.00000
      5       0.9122      2.00000
      6       1.0977      2.00000
      7       1.7170      2.00000
      8       2.1354      2.00000
      9       2.1357      2.00000
     10       2.2393      2.00000
     11       2.6945      2.00032
     12       3.1503      1.85909
     13       3.3643      0.31935
     14       3.7354     -0.00532
     15       3.7500     -0.00394
     16       4.1174      0.00000


--------------------------------------------------------------------------------------------------------


 soft charge-density along one line, spin component           1
         0         1         2         3         4         5         6         7         8         9
 total charge-density along one line
 
 pseudopotential strength for first ion, spin component:           1
 -6.685   0.000   0.000   0.000   0.000  -0.326   0.000   0.000
  0.000  -6.616   0.009   0.000  -0.016   0.000  -0.345  -0.003
  0.000   0.009  -6.650   0.000   0.011   0.000  -0.003  -0.335
  0.000   0.000   0.000  -6.685   0.000   0.001   0.000   0.000
  0.000  -0.016   0.011   0.000  -6.662   0.000   0.005  -0.003
 -0.326   0.000   0.000   0.001   0.000   0.833   0.000   0.000
  0.000  -0.345  -0.003   0.000   0.005   0.000   0.838   0.001
  0.000  -0.003  -0.335   0.000  -0.003   0.000   0.001   0.835
  0.001   0.000   0.000  -0.326   0.000  -0.001   0.000   0.000
  0.000   0.005  -0.003   0.000  -0.332   0.000  -0.002   0.001
  0.000  -0.001  -0.003   0.000   0.005   0.000   0.000   0.000
  0.000   0.000   0.000   0.000  -0.001   0.000   0.000   0.000
  0.000   0.000   0.000   0.000   0.000   0.000   0.000   0.000
  0.000   0.000   0.000   0.000   0.000   0.000   0.000   0.000
  0.000   0.000   0.000   0.000   0.000   0.000   0.000   0.000
  0.000   0.000   0.000   0.000   0.000   0.000   0.000   0.000
  0.000   0.000   0.000   0.000   0.000   0.000   0.000   0.000
  0.000   0.000   0.000   0.000   0.000   0.000   0.000   0.000
 total augmentation occupancy for first ion, spin component:           1
  1.395   0.000   0.000  -0.169   0.000   0.200   0.000   0.000  -0.085   0.000   0.000   0.000   0.000   0.000   0.000   0.000
  0.000   1.460   0.041   0.000  -0.072   0.000   0.017  -0.011   0.000   0.018  -0.169   0.025   0.000   0.000   0.000   0.000
  0.000   0.041   1.336   0.000  -0.083   0.000  -0.010   0.064   0.000  -0.040  -0.081   0.018   0.000   0.000   0.000   0.000
 -0.169   0.000   0.000   1.395   0.000  -0.085   0.000   0.000   0.200   0.000   0.000   0.000   0.000   0.000   0.000   0.000
  0.000  -0.072  -0.083   0.000   1.432   0.000   0.017  -0.040   0.000   0.110   0.140  -0.031   0.000   0.000   0.000   0.000
  0.200   0.000   0.000  -0.085   0.000   0.082   0.000   0.000  -0.007   0.000   0.000   0.000   0.000   0.000   0.000   0.000
  0.000   0.017  -0.010   0.000   0.017   0.000   0.058  -0.004   0.000   0.007  -0.137   0.008   0.000   0.000   0.000   0.000
  0.000  -0.011   0.064   0.000  -0.040   0.000  -0.004   0.072   0.000  -0.038  -0.091   0.015   0.000   0.000   0.000   0.000
 -0.085   0.000   0.000   0.200   0.000  -0.007   0.000   0.000   0.082   0.000   0.000   0.000   0.000   0.000   0.000   0.000
  0.000   0.018  -0.040   0.000   0.110   0.000   0.007  -0.038   0.000   0.116   0.157  -0.026   0.000   0.000   0.000   0.000
  0.000  -0.169  -0.081   0.000   0.140   0.000  -0.137  -0.091   0.000   0.157   1.355  -0.200   0.000   0.000   0.000   0.000
  0.000   0.025   0.018   0.000  -0.031   0.000   0.008   0.015   0.000  -0.026  -0.200   0.040   0.000   0.000   0.000   0.000
  0.000   0.000   0.000   0.000   0.000   0.000   0.000   0.000   0.000   0.000   0.000   0.000   0.134  -0.044   0.000  -0.006
  0.000   0.000   0.000   0.000   0.000   0.000   0.000   0.000   0.000   0.000   0.000   0.000  -0.044   0.134   0.000   0.000
  0.000   0.000   0.000   0.000   0.000   0.000   0.000   0.000   0.000   0.000   0.000   0.000   0.000   0.000   0.235   0.000
  0.000   0.000   0.000   0.000   0.000   0.000   0.000   0.000   0.000   0.000   0.000   0.000  -0.006   0.000   0.000   0.000
  0.000   0.000   0.000   0.000   0.000   0.000   0.000   0.000   0.000   0.000   0.000   0.000   0.000  -0.006   0.000   0.000
  0.000   0.000   0.000   0.000   0.000   0.000   0.000   0.000   0.000   0.000   0.000   0.000   0.000   0.000  -0.009   0.000


------------------------ aborting loop because EDIFF is reached ----------------------------------------




--------------------------------------------------------------------------------------------------------



  FREE ENERGIE OF THE ION-ELECTRON SYSTEM (eV)
  ---------------------------------------------------
  free  energy   TOTEN  =       -20.847398 eV

  energy  without entropy=      -20.828062  energy(sigma->0) =      -20.840952
 
    CHARGE:  cpu time    0.11: real time    0.07
    FORLOC:  cpu time    0.01: real time    0.01
    FORNL :  cpu time    0.17: real time    0.18
    STRESS:  cpu time    0.61: real time    0.30
    FORCOR:  cpu time    0.26: real time    0.26
    FORHAR:  cpu time    0.06: real time    0.06
    MIXING:  cpu time    0.01: real time    0.01

  FORCE on cell =-STRESS in cart. coord.  units (eV):
  Direction    XX          YY          ZZ          XY          YZ          ZX
  --------------------------------------------------------------------------------------
  Alpha Z   134.15010   134.15010   134.15010
  Ewald    -470.78459  -531.51336  -531.51336     0.00000   -96.06365     0.00000
  Hartree   154.22021   135.29594   135.29594     0.00000   -43.94992     0.00000
  E(xc)    -116.09002  -115.73400  -115.73399     0.00000     0.28916     0.00000
  Local      52.00583   127.69533   127.69533     0.00000   137.55713     0.00000
  n-local   -88.69342   -89.29941   -89.29941    -1.77110    -0.68364     3.33883
  augment   112.94063   113.31788   113.31788    -0.00003    -0.03295    -0.00004
  Kinetic   217.37894   218.34376   218.34376    -0.02588     1.54546    -3.80280
  Fock        0.00000     0.00000     0.00000     0.00000     0.00000     0.00000
  -------------------------------------------------------------------------------------
  Total      -4.87231    -7.74376    -7.74376     0.00000    -1.33840     0.00000
  in kB    -169.41814  -269.26291  -269.26291     0.00000   -46.53815     0.00000
  external pressure =     -235.98 kB  Pullay stress =        0.00 kB


 VOLUME and BASIS-vectors are now :
 -----------------------------------------------------------------------------
  energy-cutoff  :      334.88
  volume of cell :       46.08
      direct lattice vectors                 reciprocal lattice vectors
     3.585051000  0.000000000  0.000000000     0.278936060  0.000000000  0.000000000
     0.000000000  3.585051000  0.000000000     0.000000000  0.278936060  0.000000000
     0.000000000  0.000000000  3.585051000     0.000000000  0.000000000  0.278936060

  length of vectors
     3.585051000  3.585051000  3.585051000     0.278936060  0.278936060  0.278936060


 FORCES acting on ions
    electron-ion (+dipol)            ewald-force                    non-local-force                 convergence-correction
 -----------------------------------------------------------------------------------------------
   0.902E-14 0.158E-12 0.996E-14   0.233E-14 -.533E-14 0.000E+00   0.000E+00 0.207E-24 0.517E-24   -.382E-13 -.887E-13 -.232E-13
   0.227E-12 0.477E+02 -.477E+02   -.468E-15 -.478E+02 0.478E+02   0.000E+00 -.125E+01 0.125E+01   -.485E-13 0.122E+00 -.122E+00
   0.221E-12 -.477E+02 0.477E+02   -.113E-14 0.478E+02 -.478E+02   0.000E+00 0.125E+01 -.125E+01   -.238E-13 -.122E+00 0.122E+00
 -----------------------------------------------------------------------------------------------
   0.457E-12 -.130E-11 -.438E-11   0.733E-15 -.711E-14 0.000E+00   0.000E+00 0.222E-15 0.000E+00   -.110E-12 -.162E-12 0.341E-13
 
 
 POSITION                                       TOTAL-FORCE (eV/Angst)
 -----------------------------------------------------------------------------------
      0.00000      0.89626      0.89626         0.000000      0.000000      0.000000
      1.79253     -0.06893      1.86146         0.000000     -1.153114      1.153114
      1.79253      1.86146     -0.06893         0.000000      1.153114     -1.153114
 -----------------------------------------------------------------------------------
    total drift:                                0.000000      0.000000      0.000000
 d Force = 0.3559839E+00[ 0.318E+00, 0.394E+00]  d Energy = 0.3449653E+00 0.110E-01
 d Force = 0.1713048E+02[ 0.132E+02, 0.211E+02]  d Ewald  = 0.1718270E+02-0.522E-01


--------------------------------------------------------------------------------------------------------


    POTLOK:  cpu time    0.45: real time    0.29


--------------------------------------------------------------------------------------------------------


 NEB: the previous image is higher in energy: F
 NEB: the next image is higher in energy    : F
 NEB: image is at an extrema
 NEB: diff energy (min, max):    20.847398   20.847398

 NEB: Tangent
 ----------------------------------------------
      0.00000     -0.70711     -0.70711
      0.00000      0.00000      0.00000
      0.00000      0.00000      0.00000

 NEB: forces: par spring, perp REAL, dneb     0.000000    2.306229    0.000000
 NEB: distance to prev, next image, angle between     1.274983    1.274983  167.584425
 NEB: projections on to tangent (spring, REAL)     0.000000    0.000000

  FORCES: max atom, RMS     1.630750    1.331502
  FORCE total and by dimension    2.306229    1.153114
 Quasi-Newton relaxation of ions (Broydens 2nd method)
  g(Force)  = 0.257E+00   g(Stress)= 0.000E+00

 retain information from N=  1 steps
 eigenvalues of (default step * inverse Hessian matrix)
  average eigenvalue of G=   5.1809
 eigenvalue spectrum of G is  5.1809


--------------------------------------------------------------------------------------------------------


    WAVPRE:  cpu time    0.04: real time    0.04
    FEWALD:  cpu time    0.00: real time    0.00
    ORTHCH:  cpu time    0.02: real time    0.01
     LOOP+:  cpu time   14.71: real time    6.06
   RESPFUN:  cpu time    0.17: real time    0.07


----------------------------------------- Iteration    3(   1)  ---------------------------------------


    POTLOK:  cpu time    0.25: real time    0.25
    SETDIJ:  cpu time    0.04: real time    0.04
     EDDAV:  cpu time    1.01: real time    0.26
       DOS:  cpu time    0.00: real time    0.00
    CHARGE:  cpu time    0.23: real time    0.07
    MIXING:  cpu time    0.01: real time    0.01
    --------------------------------------------
      LOOP:  cpu time    1.54: real time    0.62

 eigenvalue-minimisations  :    64
 total energy-change (2. order) : 0.1510864E+02  (-0.1997938E+03)
 number of electron   24.0000003 magnetization 
 augmentation part    14.1536737 magnetization 

 Broyden mixing:
  rms(total) = 0.94946E+00    rms(broyden)= 0.94679E+00
  rms(prec ) = 0.21207E+01
  weight for this iteration     100.00

 Free energy of the ion-electron system (eV)
  ---------------------------------------------------
  alpha Z        PSCENC =       134.15010455
  Ewald energy   TEWEN  =     -1491.42853984
  -1/2 Hartree   DENC   =      -452.89249707
  -exchange  EXHF       =         0.00000000
  -V(xc)+E(xc)   XCENC  =         7.97515791
  PAW double counting   =      1518.44159901    -1542.71209417
  entropy T*S    EENTRO =        -0.01019672
  eigenvalues    EBANDS =        34.12280532
  atomic energy  EATOM  =      1786.61487174
  ---------------------------------------------------
  free energy    TOTEN  =        -5.73878928 eV

  energy without entropy =       -5.72859256  energy(sigma->0) =       -5.73539037


--------------------------------------------------------------------------------------------------------




----------------------------------------- Iteration    3(   2)  ---------------------------------------


    POTLOK:  cpu time    0.25: real time    0.25
    SETDIJ:  cpu time    0.04: real time    0.04
     EDDAV:  cpu time    1.01: real time    0.26
       DOS:  cpu time    0.00: real time    0.00
    CHARGE:  cpu time    0.23: real time    0.07
    MIXING:  cpu time    0.01: real time    0.01
    --------------------------------------------
      LOOP:  cpu time    1.54: real time    0.62

 eigenvalue-minimisations  :    64
 total energy-change (2. order) :-0.1612119E+02  (-0.1870927E+02)
 number of electron   24.0000001 magnetization 
 augmentation part    11.7110517 magnetization 

 Broyden mixing:
  rms(total) = 0.20485E+01    rms(broyden)= 0.20482E+01
  rms(prec ) = 0.63278E+01
  weight for this iteration     100.00

 eigenvalues of (default mixing * dielectric matrix)
  average eigenvalue GAMMA=   0.2750
  0.2750

 Free energy of the ion-electron system (eV)
  ---------------------------------------------------
  alpha Z        PSCENC =       134.15010455
  Ewald energy   TEWEN  =     -1491.42853984
  -1/2 Hartree   DENC   =      -480.73235224
  -exchange  EXHF       =         0.00000000
  -V(xc)+E(xc)   XCENC  =         9.37865324
  PAW double counting   =      1584.06371651    -1618.55997771
  entropy T*S    EENTRO =        -0.02705351
  eigenvalues    EBANDS =        54.68059639
  atomic energy  EATOM  =      1786.61487174
  ---------------------------------------------------
  free energy    TOTEN  =       -21.85998087 eV

  energy without entropy =      -21.83292736  energy(sigma->0) =      -21.85096303


--------------------------------------------------------------------------------------------------------




----------------------------------------- Iteration    3(   3)  ---------------------------------------


    POTLOK:  cpu time    0.25: real time    0.25
    SETDIJ:  cpu time    0.04: real time    0.04
     EDDAV:  cpu time    1.55: real time    0.40
       DOS:  cpu time    0.00: real time    0.00
    CHARGE:  cpu time    0.23: real time    0.07
    MIXING:  cpu time    0.01: real time    0.01
    --------------------------------------------
      LOOP:  cpu time    2.08: real time    0.76

 eigenvalue-minimisations  :   112
 total energy-change (2. order) : 0.4309339E+00  (-0.5416851E+01)
 number of electron   24.0000000 magnetization 
 augmentation part    12.0934916 magnetization 

 Broyden mixing:
  rms(total) = 0.18742E+01    rms(broyden)= 0.18730E+01
  rms(prec ) = 0.55737E+01
  weight for this iteration     100.00

 eigenvalues of (default mixing * dielectric matrix)
  average eigenvalue GAMMA=   0.2929
  0.1050  0.4808

 Free energy of the ion-electron system (eV)
  ---------------------------------------------------
  alpha Z        PSCENC =       134.15010455
  Ewald energy   TEWEN  =     -1491.42853984
  -1/2 Hartree   DENC   =      -474.66091831
  -exchange  EXHF       =         0.00000000
  -V(xc)+E(xc)   XCENC  =         9.00486509
  PAW double counting   =      1575.35827335    -1608.05713886
  entropy T*S    EENTRO =         0.04448567
  eigenvalues    EBANDS =        47.54494964
  atomic energy  EATOM  =      1786.61487174
  ---------------------------------------------------
  free energy    TOTEN  =       -21.42904697 eV

  energy without entropy =      -21.47353264  energy(sigma->0) =      -21.44387553


--------------------------------------------------------------------------------------------------------




----------------------------------------- Iteration    3(   4)  ---------------------------------------


    POTLOK:  cpu time    0.25: real time    0.25
    SETDIJ:  cpu time    0.04: real time    0.04
     EDDAV:  cpu time    1.36: real time    0.35
       DOS:  cpu time    0.00: real time    0.00
    CHARGE:  cpu time    0.23: real time    0.07
    MIXING:  cpu time    0.01: real time    0.01
    --------------------------------------------
      LOOP:  cpu time    1.96: real time    0.81

 eigenvalue-minimisations  :    96
 total energy-change (2. order) : 0.2862299E+01  (-0.8393856E+00)
 number of electron   24.0000002 magnetization 
 augmentation part    12.3315621 magnetization 

 Broyden mixing:
  rms(total) = 0.46563E+00    rms(broyden)= 0.46321E+00
  rms(prec ) = 0.10171E+01
  weight for this iteration     100.00

 eigenvalues of (default mixing * dielectric matrix)
  average eigenvalue GAMMA=   0.4115
  0.5629  0.5629  0.1086

 Free energy of the ion-electron system (eV)
  ---------------------------------------------------
  alpha Z        PSCENC =       134.15010455
  Ewald energy   TEWEN  =     -1491.42853984
  -1/2 Hartree   DENC   =      -462.97926621
  -exchange  EXHF       =         0.00000000
  -V(xc)+E(xc)   XCENC  =         8.47182280
  PAW double counting   =      1564.80862678    -1594.44495788
  entropy T*S    EENTRO =        -0.05667300
  eigenvalues    EBANDS =        36.29726349
  atomic energy  EATOM  =      1786.61487174
  ---------------------------------------------------
  free energy    TOTEN  =       -18.56674758 eV

  energy without entropy =      -18.51007458  energy(sigma->0) =      -18.54785658


--------------------------------------------------------------------------------------------------------




----------------------------------------- Iteration    3(   5)  ---------------------------------------


    POTLOK:  cpu time    0.34: real time    0.25
    SETDIJ:  cpu time    0.04: real time    0.04
     EDDAV:  cpu time    1.27: real time    0.32
       DOS:  cpu time    0.00: real time    0.00
    CHARGE:  cpu time    0.23: real time    0.07
    MIXING:  cpu time    0.01: real time    0.01
    --------------------------------------------
      LOOP:  cpu time    1.90: real time    0.69

 eigenvalue-minimisations  :    88
 total energy-change (2. order) : 0.2966923E+00  (-0.1683351E+00)
 number of electron   24.0000001 magnetization 
 augmentation part    12.6989680 magnetization 

 Broyden mixing:
  rms(total) = 0.24374E+00    rms(broyden)= 0.24348E+00
  rms(prec ) = 0.68495E+00
  weight for this iteration     100.00

 eigenvalues of (default mixing * dielectric matrix)
  average eigenvalue GAMMA=   0.6575
  1.2706  0.1084  0.6255  0.6255

 Free energy of the ion-electron system (eV)
  ---------------------------------------------------
  alpha Z        PSCENC =       134.15010455
[...]
  weight for this iteration     100.00

 eigenvalues of (default mixing * dielectric matrix)
  average eigenvalue GAMMA=   0.0697
  0.0697

 Free energy of the ion-electron system (eV)
  ---------------------------------------------------
  alpha Z        PSCENC =       134.15010455
  Ewald energy   TEWEN  =     -1542.80033997
  -1/2 Hartree   DENC   =      -416.74485172
  -exchange  EXHF       =         0.00000000
  -V(xc)+E(xc)   XCENC  =         7.28669603
  PAW double counting   =      1513.40299932    -1537.30707961
  entropy T*S    EENTRO =         0.00092991
  eigenvalues    EBANDS =        34.33983495
  atomic energy  EATOM  =      1786.61487174
  ---------------------------------------------------
  free energy    TOTEN  =       -21.05683480 eV

  energy without entropy =      -21.05776471  energy(sigma->0) =      -21.05714477


--------------------------------------------------------------------------------------------------------




----------------------------------------- Iteration    7(   3)  ---------------------------------------


    POTLOK:  cpu time    0.25: real time    0.25
    SETDIJ:  cpu time    0.04: real time    0.04
     EDDAV:  cpu time    1.64: real time    0.42
       DOS:  cpu time    0.00: real time    0.00
    CHARGE:  cpu time    0.23: real time    0.07
    MIXING:  cpu time    0.01: real time    0.01
    --------------------------------------------
      LOOP:  cpu time    2.17: real time    0.78

 eigenvalue-minimisations  :   120
 total energy-change (2. order) : 0.1195311E-01  (-0.7620255E-02)
 number of electron   24.0000009 magnetization 
 augmentation part    12.5839563 magnetization 

 Broyden mixing:
  rms(total) = 0.21665E-01    rms(broyden)= 0.19946E-01
  rms(prec ) = 0.54115E-01
  weight for this iteration     100.00

 eigenvalues of (default mixing * dielectric matrix)
  average eigenvalue GAMMA=   0.0355
  0.0698  0.0012

 Free energy of the ion-electron system (eV)
  ---------------------------------------------------
  alpha Z        PSCENC =       134.15010455
  Ewald energy   TEWEN  =     -1542.80033997
  -1/2 Hartree   DENC   =      -416.75186579
  -exchange  EXHF       =         0.00000000
  -V(xc)+E(xc)   XCENC  =         7.28636222
  PAW double counting   =      1513.40149892    -1537.30061618
  entropy T*S    EENTRO =         0.00894922
  eigenvalues    EBANDS =        34.34615360
  atomic energy  EATOM  =      1786.61487174
  ---------------------------------------------------
  free energy    TOTEN  =       -21.04488170 eV

  energy without entropy =      -21.05383092  energy(sigma->0) =      -21.04786477


--------------------------------------------------------------------------------------------------------




----------------------------------------- Iteration    7(   4)  ---------------------------------------


    POTLOK:  cpu time    0.31: real time    0.25
    SETDIJ:  cpu time    0.04: real time    0.04
     EDDAV:  cpu time    1.36: real time    0.35
       DOS:  cpu time    0.00: real time    0.00
    CHARGE:  cpu time    0.23: real time    0.07
    MIXING:  cpu time    0.01: real time    0.01
    --------------------------------------------
      LOOP:  cpu time    1.96: real time    0.71

 eigenvalue-minimisations  :    96
 total energy-change (2. order) : 0.9116824E-03  (-0.3563047E-03)
 number of electron   24.0000009 magnetization 
 augmentation part    12.5843342 magnetization 

 Broyden mixing:
  rms(total) = 0.12548E-01    rms(broyden)= 0.12398E-01
  rms(prec ) = 0.33874E-01
  weight for this iteration     100.00

 eigenvalues of (default mixing * dielectric matrix)
  average eigenvalue GAMMA=   0.5657
  1.3025  0.3315  0.0631

 Free energy of the ion-electron system (eV)
  ---------------------------------------------------
  alpha Z        PSCENC =       134.15010455
  Ewald energy   TEWEN  =     -1542.80033997
  -1/2 Hartree   DENC   =      -416.76144145
  -exchange  EXHF       =         0.00000000
  -V(xc)+E(xc)   XCENC  =         7.28699781
  PAW double counting   =      1513.41901639    -1537.32865329
  entropy T*S    EENTRO =         0.00465991
  eigenvalues    EBANDS =        34.37081429
  atomic energy  EATOM  =      1786.61487174
  ---------------------------------------------------
  free energy    TOTEN  =       -21.04397001 eV

  energy without entropy =      -21.04862992  energy(sigma->0) =      -21.04552332


--------------------------------------------------------------------------------------------------------




----------------------------------------- Iteration    7(   5)  ---------------------------------------


    POTLOK:  cpu time    0.35: real time    0.25
    SETDIJ:  cpu time    0.04: real time    0.04
     EDDAV:  cpu time    0.66: real time    0.17
       DOS:  cpu time    0.00: real time    0.00
    CHARGE:  cpu time    0.23: real time    0.07
    MIXING:  cpu time    0.01: real time    0.01
    --------------------------------------------
      LOOP:  cpu time    1.29: real time    0.54

 eigenvalue-minimisations  :    32
 total energy-change (2. order) : 0.1692770E-03  (-0.4534288E-04)
 number of electron   24.0000009 magnetization 
 augmentation part    12.5836236 magnetization 

 Broyden mixing:
  rms(total) = 0.20690E-02    rms(broyden)= 0.17978E-02
  rms(prec ) = 0.33958E-02
  weight for this iteration     100.00
  WARNING: grid for Broyden might be to small

 eigenvalues of (default mixing * dielectric matrix)
  average eigenvalue GAMMA=   0.7943
  2.0153  0.0632  0.7323  0.3664

 Free energy of the ion-electron system (eV)
  ---------------------------------------------------
  alpha Z        PSCENC =       134.15010455
  Ewald energy   TEWEN  =     -1542.80033997
  -1/2 Hartree   DENC   =      -416.77345219
  -exchange  EXHF       =         0.00000000
  -V(xc)+E(xc)   XCENC  =         7.28752354
  PAW double counting   =      1513.43620720    -1537.34792291
  entropy T*S    EENTRO =         0.00640491
  eigenvalues    EBANDS =        34.38280240
  atomic energy  EATOM  =      1786.61487174
  ---------------------------------------------------
  free energy    TOTEN  =       -21.04380074 eV

  energy without entropy =      -21.05020565  energy(sigma->0) =      -21.04593571


--------------------------------------------------------------------------------------------------------




----------------------------------------- Iteration    7(   6)  ---------------------------------------


    POTLOK:  cpu time    0.41: real time    0.25
    SETDIJ:  cpu time    0.04: real time    0.04
     EDDAV:  cpu time    0.66: real time    0.17
       DOS:  cpu time    0.00: real time    0.00
    --------------------------------------------
      LOOP:  cpu time    1.11: real time    0.46

 eigenvalue-minimisations  :    32
 total energy-change (2. order) : 0.1688577E-04  (-0.5558356E-05)
 number of electron   24.0000009 magnetization 
 augmentation part    12.5836236 magnetization 

 Free energy of the ion-electron system (eV)
  ---------------------------------------------------
  alpha Z        PSCENC =       134.15010455
  Ewald energy   TEWEN  =     -1542.80033997
  -1/2 Hartree   DENC   =      -416.77026842
  -exchange  EXHF       =         0.00000000
  -V(xc)+E(xc)   XCENC  =         7.28737334
  PAW double counting   =      1513.42636631    -1537.34060406
  entropy T*S    EENTRO =         0.00578136
  eigenvalues    EBANDS =        34.38293131
  atomic energy  EATOM  =      1786.61487174
  ---------------------------------------------------
  free energy    TOTEN  =       -21.04378385 eV

  energy without entropy =      -21.04956521  energy(sigma->0) =      -21.04571097


--------------------------------------------------------------------------------------------------------




 average (electrostatic) potential at core
  the test charge radii are     1.0103
  (the norm of the test charge is              1.0000)
       1 -46.2010       2 -46.0791       3 -46.0791
 
 
 
 E-fermi :   3.2542     XC(G=0): -11.3723     alpha+bet :-10.0907
   add alpha+bet to get absolut eigen values

 k-point   1 :       0.2500    0.2500    0.2500
  band No.  band energies     occupation 
      1      -1.4263      2.00000
      2       0.1089      2.00000
      3       0.6197      2.00000
      4       0.9906      2.00000
      5       1.1045      2.00000
      6       1.3578      2.00000
      7       1.4856      2.00000
      8       1.7575      2.00000
      9       2.4192      2.00000
     10       2.8317      2.01092
     11       3.0332      2.06575
     12       3.1739      1.62297
     13       3.4672     -0.06122
     14       3.5255     -0.06646
     15       3.8449     -0.00024
     16       4.3528      0.00000

 k-point   2 :       0.2500   -0.2500    0.2500
  band No.  band energies     occupation 
      1      -1.3209      2.00000
      2       0.6293      2.00000
      3       0.6925      2.00000
      4       0.9157      2.00000
      5       1.1603      2.00000
      6       1.2255      2.00000
      7       1.4740      2.00000
      8       1.9790      2.00000
      9       2.0225      2.00000
     10       2.2632      2.00000
     11       2.7730      2.00348
     12       3.1054      1.94876
     13       3.3192      0.48071
     14       3.7274     -0.00413
     15       3.8139     -0.00055
     16       4.1164      0.00000


--------------------------------------------------------------------------------------------------------


 soft charge-density along one line, spin component           1
         0         1         2         3         4         5         6         7         8         9
 total charge-density along one line
 
 pseudopotential strength for first ion, spin component:           1
 -6.614   0.000   0.000  -0.034   0.000  -0.347   0.000   0.000
  0.000  -6.604  -0.012   0.000   0.021   0.000  -0.349   0.003
  0.000  -0.012  -6.606   0.000  -0.018   0.000   0.003  -0.348
 -0.034   0.000   0.000  -6.614   0.000   0.011   0.000   0.000
  0.000   0.021  -0.018   0.000  -6.585   0.000  -0.006   0.005
 -0.347   0.000   0.000   0.011   0.000   0.839   0.000   0.000
  0.000  -0.349   0.003   0.000  -0.006   0.000   0.839  -0.001
  0.000   0.003  -0.348   0.000   0.005   0.000  -0.001   0.839
  0.011   0.000   0.000  -0.347   0.000  -0.004   0.000   0.000
  0.000  -0.006   0.005   0.000  -0.355   0.000   0.001  -0.002
  0.000   0.009   0.002   0.000  -0.003   0.000  -0.003  -0.001
  0.000  -0.001   0.000   0.000   0.000   0.000   0.000   0.000
  0.000   0.000   0.000   0.000   0.000   0.000   0.000   0.000
  0.000   0.000   0.000   0.000   0.000   0.000   0.000   0.000
  0.000   0.000   0.000   0.000   0.000   0.000   0.000   0.000
  0.000   0.000   0.000   0.000   0.000   0.000   0.000   0.000
  0.000   0.000   0.000   0.000   0.000   0.000   0.000   0.000
  0.000   0.000   0.000   0.000   0.000   0.000   0.000   0.000
 total augmentation occupancy for first ion, spin component:           1
  1.373   0.000   0.000  -0.165   0.000   0.169   0.000   0.000  -0.082   0.000   0.000   0.000   0.000   0.000   0.000   0.000
  0.000   1.405   0.022   0.000  -0.038   0.000   0.025  -0.005   0.000   0.009  -0.192   0.043   0.000   0.000   0.000   0.000
  0.000   0.022   1.352   0.000  -0.086   0.000  -0.005   0.033   0.000  -0.030  -0.077   0.020   0.000   0.000   0.000   0.000
 -0.165   0.000   0.000   1.373   0.000  -0.082   0.000   0.000   0.169   0.000   0.000   0.000   0.000   0.000   0.000   0.000
  0.000  -0.038  -0.086   0.000   1.451   0.000   0.009  -0.030   0.000   0.069   0.133  -0.034   0.000   0.000   0.000   0.000
  0.169   0.000   0.000  -0.082   0.000   0.068   0.000   0.000  -0.006   0.000   0.000   0.000   0.000   0.000   0.000   0.000
  0.000   0.025  -0.005   0.000   0.009   0.000   0.046  -0.006   0.000   0.010  -0.107   0.007   0.000   0.000   0.000   0.000
  0.000  -0.005   0.033   0.000  -0.030   0.000  -0.006   0.065   0.000  -0.022  -0.062   0.013   0.000   0.000   0.000   0.000
 -0.082   0.000   0.000   0.169   0.000  -0.006   0.000   0.000   0.068   0.000   0.000   0.000   0.000   0.000   0.000   0.000
  0.000   0.009  -0.030   0.000   0.069   0.000   0.010  -0.022   0.000   0.091   0.107  -0.023   0.000   0.000   0.000   0.000
  0.000  -0.192  -0.077   0.000   0.133   0.000  -0.107  -0.062   0.000   0.107   1.242  -0.203   0.000   0.000   0.000   0.000
  0.000   0.043   0.020   0.000  -0.034   0.000   0.007   0.013   0.000  -0.023  -0.203   0.042   0.000   0.000   0.000   0.000
  0.000   0.000   0.000   0.000   0.000   0.000   0.000   0.000   0.000   0.000   0.000   0.000   0.123  -0.039   0.000  -0.006
  0.000   0.000   0.000   0.000   0.000   0.000   0.000   0.000   0.000   0.000   0.000   0.000  -0.039   0.123   0.000   0.001
  0.000   0.000   0.000   0.000   0.000   0.000   0.000   0.000   0.000   0.000   0.000   0.000   0.000   0.000   0.207   0.000
  0.000   0.000   0.000   0.000   0.000   0.000   0.000   0.000   0.000   0.000   0.000   0.000  -0.006   0.001   0.000   0.000
  0.000   0.000   0.000   0.000   0.000   0.000   0.000   0.000   0.000   0.000   0.000   0.000   0.001  -0.006   0.000   0.000
  0.000   0.000   0.000   0.000   0.000   0.000   0.000   0.000   0.000   0.000   0.000   0.000   0.000   0.000  -0.009   0.000


------------------------ aborting loop because EDIFF is reached ----------------------------------------




--------------------------------------------------------------------------------------------------------



  FREE ENERGIE OF THE ION-ELECTRON SYSTEM (eV)
  ---------------------------------------------------
  free  energy   TOTEN  =       -21.043784 eV

  energy  without entropy=      -21.049565  energy(sigma->0) =      -21.045711
 
    CHARGE:  cpu time    0.19: real time    0.07
    FORLOC:  cpu time    0.01: real time    0.01
    FORNL :  cpu time    0.17: real time    0.17
    STRESS:  cpu time    0.61: real time    0.30
    FORCOR:  cpu time    0.26: real time    0.26
    FORHAR:  cpu time    0.06: real time    0.06
    MIXING:  cpu time    0.01: real time    0.01

  FORCE on cell =-STRESS in cart. coord.  units (eV):
  Direction    XX          YY          ZZ          XY          YZ          ZX
  --------------------------------------------------------------------------------------
  Alpha Z   134.15010   134.15010   134.15010
  Ewald    -527.30436  -507.74832  -507.74832     0.00000  -111.81122     0.00000
  Hartree   127.60122   144.58562   144.58562     0.00000   -50.28915     0.00000
  E(xc)    -115.95014  -115.65347  -115.65347     0.00000     0.41277     0.00000
  Local     131.32219    97.20146    97.20146     0.00000   159.20178     0.00000
  n-local   -90.14319   -90.40722   -90.40721    -1.55599    -1.15409     3.71971
  augment   114.29064   112.64443   112.64447    -0.00001     0.00723    -0.00001
  Kinetic   219.73868   216.94825   216.94824    -0.54657     1.76092    -4.48226
  Fock        0.00000     0.00000     0.00000     0.00000     0.00000     0.00000
  -------------------------------------------------------------------------------------
  Total      -6.29488    -8.27913    -8.27913     0.00000    -1.87176     0.00000
  in kB    -218.88283  -287.87851  -287.87851     0.00000   -65.08422     0.00000
  external pressure =     -264.88 kB  Pullay stress =        0.00 kB


 VOLUME and BASIS-vectors are now :
 -----------------------------------------------------------------------------
  energy-cutoff  :      334.88
  volume of cell :       46.08
      direct lattice vectors                 reciprocal lattice vectors
     3.585051000  0.000000000  0.000000000     0.278936060  0.000000000  0.000000000
     0.000000000  3.585051000  0.000000000     0.000000000  0.278936060  0.000000000
     0.000000000  0.000000000  3.585051000     0.000000000  0.000000000  0.278936060

  length of vectors
     3.585051000  3.585051000  3.585051000     0.278936060  0.278936060  0.278936060


 FORCES acting on ions
    electron-ion (+dipol)            ewald-force                    non-local-force                 convergence-correction
 -----------------------------------------------------------------------------------------------
   0.885E-14 0.148E-12 0.263E-13   -.104E-14 -.107E-13 -.888E-14   0.000E+00 -.207E-24 -.207E-24   -.378E-15 -.524E-13 -.213E-13
   0.227E-12 0.158E+02 -.158E+02   0.107E-13 -.138E+02 0.138E+02   0.000E+00 -.202E+01 0.202E+01   -.741E-13 0.271E-01 -.271E-01
   0.214E-12 -.158E+02 0.158E+02   -.888E-14 0.138E+02 -.138E+02   0.000E+00 0.202E+01 -.202E+01   -.453E-13 -.271E-01 0.271E-01
 -----------------------------------------------------------------------------------------------
   0.449E-12 -.474E-11 -.171E-11   0.733E-15 0.355E-14 0.533E-14   0.000E+00 0.000E+00 0.444E-15   -.120E-12 0.837E-13 -.111E-12
 
 
 POSITION                                       TOTAL-FORCE (eV/Angst)
 -----------------------------------------------------------------------------------
      0.00000      0.89626      0.89626         0.000000      0.000000      0.000000
      1.79253     -0.14082      1.93334         0.000000     -0.002320      0.002320
      1.79253      1.93334     -0.14082         0.000000      0.002320     -0.002320
 -----------------------------------------------------------------------------------
    total drift:                                0.000000      0.000000      0.000000
 d Force = 0.3215146E-03[-0.257E-04, 0.669E-03]  d Energy = 0.3152326E-03 0.628E-05
 d Force =-0.1448628E+00[-0.153E+00,-0.137E+00]  d Ewald  =-0.1448734E+00 0.106E-04


--------------------------------------------------------------------------------------------------------


    POTLOK:  cpu time    0.45: real time    0.29


--------------------------------------------------------------------------------------------------------


 NEB: the previous image is higher in energy: F
 NEB: the next image is higher in energy    : F
 NEB: image is at an extrema
 NEB: diff energy (min, max):    21.043784   21.043784

 NEB: Tangent
 ----------------------------------------------
      0.00000     -0.70711     -0.70711
      0.00000      0.00000      0.00000
      0.00000      0.00000      0.00000

 NEB: forces: par spring, perp REAL, dneb     0.000000    0.004639    0.000000
 NEB: distance to prev, next image, angle between     1.298419    1.298419  154.945454
 NEB: projections on to tangent (spring, REAL)     0.000000    0.000000

  FORCES: max atom, RMS     0.003280    0.002678
  FORCE total and by dimension    0.004639    0.002320
 Quasi-Newton relaxation of ions (Broydens 2nd method)
  g(Force)  = 0.104E-05   g(Stress)= 0.000E+00

 retain information from N=  1 steps
 eigenvalues of (default step * inverse Hessian matrix)
  average eigenvalue of G=   0.9158
 eigenvalue spectrum of G is  0.9158


--------------------------------------------------------------------------------------------------------


  
 reached required accuracy - stopping structural energy minimisation
     LOOP+:  cpu time   12.07: real time    5.06
    4ORBIT:  cpu time    0.00: real time    0.00

 total amount of memory used by VASP on root node  40541. kBytes
========================================================================

   base      :    30000. kBytes
   nonl-proj :      211. kBytes
   fftplans  :     3916. kBytes
   grid      :     6018. kBytes
   one-center:       46. kBytes
   wavefun   :      350. kBytes
 
  
  
 General timing and accounting informations for this job:
 ========================================================
  
                  Total CPU time used (sec):      132.358
                            User time (sec):      131.385
                          System time (sec):        0.973
                         Elapsed time (sec):       52.768
  
                   Maximum memory used (kb):           0.
                   Average memory used (kb):           0.
  
                          Minor page faults:       103093
                          Major page faults:            0
                 Voluntary context switches:         1133
