       N       E                     dE             d eps       ncg     rms          rms(c)
DAV:   1     0.905593729514E+04    0.90559E+04   -0.31878E+05 46656   0.143E+03
DAV:   2     0.131486402829E+04   -0.77411E+04   -0.70690E+04 46656   0.318E+02
DAV:   3     0.259341891157E+02   -0.12889E+04   -0.11375E+04 47280   0.140E+02
DAV:   4    -0.519902882377E+02   -0.77924E+02   -0.76271E+02 50392   0.423E+01
DAV:   5    -0.526055012516E+02   -0.61521E+00   -0.61429E+00 50576   0.402E+00    0.286E+02
DAV:   6     0.517993032126E+03    0.57060E+03   -0.20906E+03 55596   0.132E+02    0.114E+02
DAV:   7     0.207970385520E+03   -0.31002E+03   -0.11249E+03 56544   0.879E+01    0.636E+01
DAV:   8    -0.282314963847E+03   -0.49029E+03   -0.14871E+02 57100   0.402E+01    0.583E+01
DAV:   9    -0.317249983460E+03   -0.34935E+02   -0.66863E+01 56908   0.420E+01    0.400E+01
DAV:  10    -0.460964573495E+03   -0.14371E+03   -0.37363E+02 54588   0.628E+01    0.602E+01
DAV:  11    -0.410621290388E+03    0.50343E+02   -0.75759E+01 56672   0.350E+01    0.274E+01
DAV:  12    -0.401127350011E+03    0.94939E+01   -0.22301E+01 58448   0.122E+01    0.130E+01
DAV:  13    -0.398684840534E+03    0.24425E+01   -0.40505E+00 56840   0.752E+00    0.568E+00
DAV:  14    -0.398331161373E+03    0.35368E+00   -0.39539E+00 57152   0.617E+00    0.176E+00
DAV:  15    -0.398360597773E+03   -0.29436E-01   -0.56329E-01 48832   0.224E+00    0.974E-01
DAV:  16    -0.398352409303E+03    0.81885E-02   -0.63422E-02 52080   0.134E+00    0.594E-01
DAV:  17    -0.398348523484E+03    0.38858E-02   -0.20551E-02 55640   0.728E-01    0.227E-01
DAV:  18    -0.398350217984E+03   -0.16945E-02   -0.12970E-02 50256   0.301E-01    0.213E-01
DAV:  19    -0.398349829914E+03    0.38807E-03   -0.24210E-03 49744   0.249E-01    0.140E-01
DAV:  20    -0.398349477380E+03    0.35253E-03   -0.75086E-04 51488   0.147E-01    0.386E-02
DAV:  21    -0.398349505041E+03   -0.27661E-04   -0.37537E-04 38168   0.633E-02
   1 F= -.39834951E+03 E0= -.39834951E+03  d E =0.000000E+00  mag=    -0.0037
