ITEM: TIMESTEP
2
ITEM: NUMBER OF ATOMS
309
ITEM: BOX BOUNDS pp pp pp
0 500
0 500
0 500
ITEM: ATOMS id type x y z c_pea 
1 1 266.849 259.097 268.666 -1.79664 
2 1 269.186 268.21 264.185 -1.5234 
3 1 257.388 256.43 254.525 -1.60066 
4 1 258.863 265.518 264.144 -2.96122 
5 1 262.86 256.016 257.527 -3.03731 
6 1 258.727 269.984 259.643 -2.38671 
7 1 263.074 269.592 257.49 -2.56162 
8 1 261.313 266.968 267.966 -2.44229 
9 1 263.069 256.86 264.04 -2.86799 
10 1 266.227 266.467 259.72 -2.84881 
11 1 252.481 267.227 262.908 -1.48616 
12 1 264.542 255.037 254.057 -1.62207 
13 1 258.527 265.372 252.318 -1.76921 
14 1 259.468 267.624 265.739 -2.68896 
15 1 270.183 261.938 265.27 -1.94193 
16 1 256.719 268.682 255.508 -1.93141 
17 1 260.29 269.763 263.896 -2.50749 
18 1 261.132 269.657 268.505 -1.47845 
19 1 258.14 267.995 263.48 -2.77698 
20 1 255.442 252.768 261.378 -1.26025 
21 1 258.521 255.193 256.695 -2.23158 
22 1 256.268 259.318 269.159 -1.9787 
23 1 255.447 261.616 264.776 -2.9219 
24 1 265.123 265.877 264.918 -3.1144 
25 1 262.87 260.875 265.782 -3.04615 
26 1 265.874 252.419 258.172 -1.23424 
27 1 264.219 261.14 256.746 -2.81903 
28 1 254.955 266.787 258.689 -2.37542 
29 1 256.549 266.47 265.089 -2.53486 
30 1 263.934 265.107 267.533 -2.82857 
31 1 257.304 268.082 260.883 -2.59814 
32 1 260.704 255.911 264.768 -2.49941 
33 1 255.689 256.098 263.507 -2.4737 
34 1 263.446 253.693 259.253 -2.38239 
35 1 268.82 262.407 260.703 -2.72042 
36 1 257.337 263.439 256.538 -3.03237 
37 1 263.479 265.652 257.102 -2.59571 
38 1 263.955 267.826 255.66 -1.95345 
39 1 261.536 262.479 251.11 -1.25662 
40 1 268.243 255.562 258.426 -1.66971 
41 1 258.739 268.197 268.232 -1.56422 
42 1 268.339 261.889 263.298 -2.65804 
43 1 260.55 271.137 261.277 -2.17342 
44 1 261.216 261.588 268.879 -2.94877 
45 1 264.137 257.626 252.687 -1.82375 
46 1 258.395 259.131 262.744 -3.02788 
47 1 255.405 263.993 258.281 -3.11646 
48 1 257.284 265.68 259.549 -3.2297 
49 1 260.993 266.795 254.586 -2.30501 
50 1 252.449 264.495 262.137 -2.17154 
51 1 255.306 261.107 257.814 -2.69196 
52 1 266.476 263.859 260.49 -3.03193 
53 1 265.273 256.446 256.263 -2.77344 
54 1 268.216 264.441 268.886 -1.61576 
55 1 257.114 269.021 265.866 -1.64466 
56 1 265.504 256.316 265.254 -2.10286 
57 1 261.421 258.28 253.131 -1.94946 
58 1 259.02 267.598 256.354 -2.90333 
59 1 256.377 266.301 254.059 -2.02067 
60 1 259.862 262.56 257.423 -3.27827 
61 1 261.601 258.413 259.375 -3.10286 
62 1 259.67 258.347 264.998 -3.17609 
63 1 265.938 253.487 260.726 -1.74977 
64 1 264.979 271.436 258.067 -1.14218 
65 1 268.369 263.732 266.243 -2.70155 
66 1 260.831 260.993 253.294 -2.57883 
67 1 267.563 261.839 253.709 -2.12463 
68 1 262.028 255.836 260.037 -2.90033 
69 1 254.558 265.645 263.456 -2.76097 
70 1 263.078 262.932 270.494 -1.74002 
71 1 263.1 259.772 268.242 -2.83537 
72 1 254.728 264.124 265.795 -2.39371 
73 1 256.987 263.458 261.143 -3.0766 
74 1 261.902 254.53 255.327 -1.64643 
75 1 267.037 258.545 265.929 -2.40586 
76 1 264.714 257.8 267.361 -2.46359 
77 1 263.978 254.324 264.087 -1.87497 
78 1 257.037 254.971 261.385 -2.78869 
79 1 261.596 260.158 261.395 -3.11718 
80 1 266.621 256.881 253.68 -1.76365 
81 1 267.199 268.09 266.171 -1.97532 
82 1 261.279 258.106 256.742 -2.82916 
83 1 262.1 258.256 266.275 -3.14085 
84 1 252.669 260.966 258.824 -1.6816 
85 1 256.101 254.052 256.221 -1.02635 
86 1 260.155 256.525 254.923 -2.1742 
87 1 254.213 258.718 257.274 -1.77956 
88 1 265.776 263.92 253.629 -2.09896 
89 1 258.766 265.276 254.994 -2.97729 
90 1 269.3 266.261 266.794 -1.61646 
91 1 267.934 256.913 256.062 -1.94124 
92 1 259.421 265.897 261.546 -3.18159 
93 1 264.433 267.577 261.565 -3.08774 
94 1 261.857 268.74 265.967 -2.7171 
95 1 254.81 264.945 260.715 -2.96112 
96 1 263.028 257.873 261.597 -2.97334 
97 1 262.32 271.65 259.14 -2.04731 
98 1 259.51 270.282 266.429 -1.56633 
99 1 260.051 265.171 266.458 -2.80912 
100 1 256.869 265.895 262.288 -3.02796 
101 1 259.546 267.303 259.183 -3.26826 
102 1 263.343 252.839 261.839 -1.59765 
103 1 257.543 262.088 258.906 -3.15586 
104 1 258.263 258.681 267.344 -2.79174 
105 1 259.088 270.113 254.99 -1.6258 
106 1 268.265 267.044 261.828 -2.32514 
107 1 261.494 267.353 257.263 -3.07427 
108 1 263.69 268.056 264.148 -3.09532 
109 1 264.049 263.564 255.663 -2.73476 
110 1 263.154 262.894 253.213 -2.45288 
111 1 264.215 260.095 262.352 -3.26514 
112 1 259.418 254.033 263.166 -2.16381 
113 1 255.672 259.517 266.501 -2.92275 
114 1 262.709 259.722 255.009 -3.10266 
115 1 258.965 262.667 252.143 -1.95801 
116 1 262.437 266.112 265.613 -3.08392 
117 1 270.118 264.038 257.317 -1.60536 
118 1 256.778 253.626 263.745 -1.8156 
119 1 265.374 262.033 251.673 -1.51662 
120 1 255.651 254.977 266.066 -1.64206 
121 1 268.888 261.563 256.142 -2.23267 
122 1 264.923 270.081 262.643 -2.35228 
123 1 257.173 268.273 258.211 -2.44904 
124 1 254.41 259.341 259.992 -2.41675 
125 1 262.62 260.227 270.84 -1.91837 
126 1 263.263 265.613 263 -3.22616 
127 1 267.807 265.962 264.547 -2.79425 
128 1 263.371 268.252 269.198 -1.41404 
129 1 260.033 261.008 263.681 -3.14471 
130 1 261.536 269.083 259.614 -2.98763 
131 1 259.739 272.223 258.503 -1.47503 
132 1 255.246 257.162 267.829 -1.77474 
133 1 261.03 267.121 263.57 -3.32263 
134 1 256.101 256.696 256.878 -2.2624 
135 1 257.67 260.809 256.521 -2.95416 
136 1 261.664 271.78 256.446 -1.42437 
137 1 262.06 259.314 263.84 -2.9798 
138 1 253.345 262.714 256.869 -1.80651 
139 1 256.785 263.911 264.094 -3.014 
140 1 252.485 261.805 261.542 -1.90953 
141 1 257.512 260.952 253.737 -2.04217 
142 1 267.376 261.823 268.338 -2.40546 
143 1 254.888 262.11 260.189 -2.97475 
144 1 265.548 263.758 269.295 -2.17775 
145 1 263.326 260.252 252.376 -2.20423 
146 1 266.641 268.981 260.793 -2.06424 
147 1 264.65 263.41 262.567 -2.88274 
148 1 268.848 259.93 252.168 -0.858279 
149 1 268.077 257.409 262.734 -2.02784 
150 1 268.79 259.845 261.681 -2.30369 
151 1 258.636 267.775 253.648 -1.79326 
152 1 262.468 262.02 263.252 -3.25388 
153 1 253.189 259.004 267.407 -1.36969 
154 1 260.224 260.577 266.488 -3.25503 
155 1 252.78 263.636 259.479 -2.21637 
156 1 261.197 257.853 271.032 -1.3911 
157 1 254.942 264.484 255.565 -2.24467 
158 1 261.879 266.772 261.013 -3.16834 
159 1 267.463 261.257 265.661 -2.90918 
160 1 258.572 253.95 259.117 -2.22752 
161 1 257.057 257.226 265.592 -2.81649 
162 1 264.518 258.922 264.907 -3.12874 
163 1 259.895 260.308 271.057 -1.92419 
164 1 258.01 270.424 262.307 -1.71489 
165 1 259.258 263.056 267.828 -2.71164 
166 1 265.3 260.501 266.972 -3.02912 
167 1 261.251 264.628 256.146 -3.08393 
168 1 256.249 258.936 255.31 -2.15892 
169 1 259.16 261.183 261.018 -3.05324 
170 1 268.756 257.864 259.878 -2.00599 
171 1 258.313 256.495 263.318 -3.05702 
172 1 256.766 258.918 258.415 -3.08093 
173 1 252.268 265.112 264.837 -1.50191 
174 1 265.593 255.094 258.514 -2.6034 
175 1 259.011 258.299 260.334 -3.07079 
176 1 256.934 263.626 253.85 -2.42949 
177 1 265.683 268.595 257.974 -1.92275 
178 1 260.86 253.344 260.607 -2.17683 
179 1 258.524 260.8 268.824 -2.70683 
180 1 253.793 261.656 266.842 -1.91401 
181 1 261.553 264.33 268.687 -2.58541 
182 1 265.512 264.341 258.054 -2.943 
183 1 253.05 265.373 257.423 -1.74452 
184 1 254.698 267.533 261.289 -2.07619 
185 1 257.658 270.766 257.22 -1.57181 
186 1 254.308 255.287 261.346 -1.66142 
187 1 266.015 265.641 262.379 -3.01904 
188 1 266.603 263.66 264.243 -2.87054 
189 1 261.799 255.047 262.525 -2.59653 
190 1 265.06 261.053 269.677 -2.2505 
191 1 268.283 264.243 255.15 -1.74776 
192 1 270.215 264.721 264.52 -1.92685 
193 1 253.96 267.161 265.62 -1.43557 
194 1 268.802 265.129 259.871 -2.43484 
195 1 256.475 257.64 261.371 -3.14455 
196 1 267.79 265.706 257.468 -1.96594 
197 1 269.1 259.026 257.327 -1.99291 
198 1 260.608 258.991 268.629 -2.77565 
199 1 259.403 260.059 258.447 -3.2 
200 1 265.221 258.767 254.977 -2.81952 
201 1 270.198 261.421 258.542 -1.82505 
202 1 266.698 256.245 260.653 -2.63723 
203 1 266.717 259.667 263.461 -3.00891 
204 1 261.043 254.033 257.913 -2.12832 
205 1 255.415 261.779 255.234 -2.08488 
206 1 257.661 256.059 268.079 -1.73603 
207 1 263.543 262.448 267.877 -2.94848 
208 1 259.53 255.697 260.966 -2.94887 
209 1 269.158 259.921 267.227 -1.68523 
210 1 261.679 269.306 255.171 -1.87246 
211 1 257.87 260.326 265.223 -3.08 
212 1 254.224 257.342 265.344 -2.06413 
213 1 264.459 267.709 266.771 -2.72834 
214 1 263.953 264.952 260.304 -3.40807 
215 1 261.196 264.29 264.074 -3.06853 
216 1 261.169 262.074 259.641 -2.65288 
217 1 260.078 260.2 255.744 -2.92424 
218 1 267.922 259.28 254.687 -2.22509 
219 1 262.976 255.656 266.436 -1.95657 
220 1 263.576 267.357 259.053 -2.89577 
221 1 266.144 259.524 252.543 -2.06408 
222 1 258.523 258.039 270.014 -1.82733 
223 1 263.875 259.81 259.616 -3.09196 
224 1 257.518 256.429 259.13 -2.86944 
225 1 259.296 263.849 259.887 -2.97856 
226 1 265.787 265.701 255.662 -2.2054 
227 1 252.543 266.345 260.066 -1.70976 
228 1 263.563 262.195 260.625 -2.9265 
229 1 263.032 263.125 258.096 -3.21452 
230 1 258.934 262.873 265.222 -3.22038 
231 1 258.835 258.673 253.943 -2.02938 
232 1 254.681 260.528 262.374 -2.63474 
233 1 259.604 263.045 270.506 -1.93826 
234 1 256.585 263.737 251.154 -0.873101 
235 1 261.485 265.156 258.927 -3.23835 
236 1 266.336 261.472 261.522 -3.12497 
237 1 262.967 257.03 255.015 -2.67325 
238 1 264.189 253.845 256.551 -2.01921 
239 1 268.409 264.396 262.432 -2.80033 
240 1 260.047 256.491 258.409 -2.8188 
241 1 264.339 257.174 259.487 -2.91608 
242 1 257.115 263.537 269.361 -1.89798 
243 1 262.364 269.235 262.166 -3.01715 
244 1 262.485 257.047 268.75 -2.00248 
245 1 260.147 256.666 267.27 -2.33917 
246 1 265.371 257.449 262.805 -2.87723 
247 1 257.38 264.631 266.768 -2.52705 
248 1 257.288 261.542 262.941 -3.08616 
249 1 254.452 267.216 255.956 -1.55545 
250 1 267.779 260.391 259.243 -2.77173 
251 1 253.907 257.9 262.398 -2.07887 
252 1 256.794 261.995 267.066 -2.88438 
253 1 270.031 262.475 267.988 -1.34616 
254 1 256.763 266.059 256.776 -2.93584 
255 1 253.44 259.81 264.688 -2.16061 
256 1 261.433 262.956 266.346 -2.83868 
257 1 265.493 266.543 269.324 -1.43755 
258 1 264.242 255.399 261.51 -2.90383 
259 1 270.77 262.86 262.58 -1.81194 
260 1 266.612 260.093 256.873 -2.80806 
261 1 265.07 261.521 264.43 -3.11499 
262 1 255.468 268.469 263.643 -1.8996 
263 1 261.642 264.029 261.439 -3.25905 
264 1 264.991 261.304 254.266 -2.82825 
265 1 259.863 268.514 261.569 -2.83953 
266 1 260.601 257.585 262.482 -3.06276 
267 1 252.817 262.467 264.324 -2.04334 
268 1 266.916 254.298 256.213 -1.63471 
269 1 266.583 257.827 258.249 -2.97299 
270 1 256.789 260.21 260.708 -2.90941 
271 1 260.867 264.266 253.426 -2.50813 
272 1 267.887 263.006 258.296 -2.87029 
273 1 266.611 265.635 267.078 -2.58906 
274 1 266.509 254.965 263.061 -1.78037 
275 1 262.876 270.73 264.416 -2.04715 
276 1 263.345 265.572 254.129 -2.13664 
277 1 261.924 260.506 257.708 -3.05733 
278 1 266.42 262.648 256.131 -2.81353 
279 1 263.645 263.679 265.104 -3.22224 
280 1 258.39 254.886 265.647 -2.04702 
281 1 256.01 258.879 263.857 -2.99437 
282 1 264.527 258.35 270.086 -1.61204 
283 1 258.194 252.469 261.36 -1.53873 
284 1 270.715 265.654 261.902 -1.5687 
285 1 265.557 261.8 258.903 -3.02056 
286 1 261.866 262.16 255.544 -2.99607 
287 1 270.206 291.008 274.693 0 
288 1 265.407 269.919 265.289 -1.96587 
289 1 266.188 258.898 260.758 -3.11153 
290 1 257.218 261.316 271.08 -1.46564 
291 1 255.089 261.729 269.227 -1.47745 
292 1 263.578 270.325 267.285 -1.5159 
293 1 259.128 265.187 257.625 -2.92277 
294 1 260.208 269.729 257.439 -2.69709 
295 1 263.116 271.873 261.777 -1.5801 
296 1 254.854 256.855 259.253 -2.09111 
297 1 259.049 265.524 268.969 -1.99248 
298 1 259.233 263.372 262.564 -3.10709 
299 1 259.282 262.635 254.855 -2.94999 
300 1 265.749 263.153 266.659 -2.93808 
301 1 255.817 254.299 259.004 -1.9105 
302 1 269.232 259.464 264.428 -1.97326 
303 1 267.611 270.301 263.197 -1.32022 
304 1 254.752 263.13 262.645 -2.81054 
305 1 264.117 269.817 260.071 -2.65419 
306 1 263.887 258.548 257.265 -3.1315 
307 1 266.335 267.98 263.565 -2.85002 
308 1 258.554 258.025 256.646 -3.13325 
309 1 271.108 263.674 259.925 -1.56228 
