   4   4   0   0
  0.1706785E+02  0.4087078E-09  0.4087078E-09  0.4087078E-09  0.1000000E-16
  1.000000000000000E-004
  CAR 
 unknown system                          
     13.18620185     -3.62356408  301      6.91925402      1.00000000
     -3.624  0.0000E+00  0.0000E+00
     -3.568  0.0000E+00  0.0000E+00
     -3.511  0.0000E+00  0.0000E+00
     -3.455  0.0000E+00  0.0000E+00
     -3.399  0.0000E+00  0.0000E+00
     -3.343  0.0000E+00  0.0000E+00
     -3.287  0.0000E+00  0.0000E+00
     -3.231 -0.6961E-26 -0.3900E-27
     -3.175 -0.5546E-24 -0.3146E-25
     -3.119 -0.3811E-22 -0.2167E-23
     -3.063 -0.2234E-20 -0.1274E-21
     -3.007 -0.1117E-18 -0.6388E-20
     -2.951 -0.4766E-17 -0.2734E-18
     -2.895 -0.1733E-15 -0.9986E-17
     -2.839 -0.5374E-14 -0.3111E-15
     -2.783 -0.1380E-12 -0.8044E-14
     -2.727 -0.3090E-11 -0.1812E-12
     -2.671 -0.5902E-10 -0.3488E-11
     -2.615 -0.9582E-09 -0.5718E-10
     -2.559 -0.1322E-07 -0.7980E-09
     -2.503 -0.1548E-06 -0.9474E-08
     -2.447 -0.1538E-05 -0.9564E-07
     -2.391 -0.1293E-04 -0.8199E-06
     -2.335 -0.9179E-04 -0.5963E-05
     -2.279 -0.5490E-03 -0.3672E-04
     -2.223 -0.2755E-02 -0.1911E-03
     -2.167 -0.1153E-01 -0.8372E-03
     -2.111 -0.3990E-01 -0.3073E-02
     -2.055 -0.1124E+00 -0.9373E-02
     -1.999 -0.2507E+00 -0.2342E-01
     -1.943 -0.4134E+00 -0.4658E-01
     -1.887 -0.3948E+00 -0.6870E-01
     -1.831  0.2135E+00 -0.5674E-01
     -1.774  0.1815E+01  0.4498E-01
     -1.718  0.4346E+01  0.2885E+00
     -1.662  0.6950E+01  0.6779E+00
     -1.606  0.8331E+01  0.1145E+01
     -1.550  0.7695E+01  0.1576E+01
     -1.494  0.5415E+01  0.1879E+01
     -1.438  0.2714E+01  0.2031E+01
     -1.382  0.7034E+00  0.2071E+01
     -1.326 -0.2557E+00  0.2056E+01
     -1.270 -0.4463E+00  0.2031E+01
     -1.214 -0.3173E+00  0.2014E+01
     -1.158 -0.1581E+00  0.2005E+01
     -1.102 -0.6113E-01  0.2001E+01
     -1.046 -0.1908E-01  0.2000E+01
     -0.990 -0.4901E-02  0.2000E+01
     -0.934 -0.1047E-02  0.2000E+01
     -0.878 -0.1872E-03  0.2000E+01
     -0.822 -0.2817E-04  0.2000E+01
     -0.766 -0.3576E-05  0.2000E+01
     -0.710 -0.3840E-06  0.2000E+01
     -0.654 -0.3494E-07  0.2000E+01
     -0.598 -0.2698E-08  0.2000E+01
     -0.542 -0.1770E-09  0.2000E+01
     -0.486 -0.9875E-11  0.2000E+01
     -0.430 -0.4597E-12  0.2000E+01
     -0.374 -0.2378E-13  0.2000E+01
     -0.318  0.0000E+00  0.2000E+01
     -0.262  0.0000E+00  0.2000E+01
     -0.206  0.0000E+00  0.2000E+01
     -0.150  0.0000E+00  0.2000E+01
     -0.094  0.0000E+00  0.2000E+01
     -0.037  0.0000E+00  0.2000E+01
      0.019  0.0000E+00  0.2000E+01
      0.075  0.0000E+00  0.2000E+01
      0.131  0.0000E+00  0.2000E+01
      0.187  0.0000E+00  0.2000E+01
      0.243  0.0000E+00  0.2000E+01
      0.299  0.0000E+00  0.2000E+01
      0.355  0.0000E+00  0.2000E+01
      0.411  0.0000E+00  0.2000E+01
      0.467  0.0000E+00  0.2000E+01
      0.523  0.0000E+00  0.2000E+01
      0.579  0.0000E+00  0.2000E+01
      0.635  0.0000E+00  0.2000E+01
      0.691  0.0000E+00  0.2000E+01
      0.747  0.0000E+00  0.2000E+01
      0.803  0.0000E+00  0.2000E+01
      0.859  0.0000E+00  0.2000E+01
      0.915  0.0000E+00  0.2000E+01
      0.971  0.0000E+00  0.2000E+01
      1.027 -0.1614E-27  0.2000E+01
      1.083 -0.3574E-25  0.2000E+01
      1.139 -0.2804E-23  0.2000E+01
      1.195 -0.1889E-21  0.2000E+01
      1.251 -0.1085E-19  0.2000E+01
      1.307 -0.5322E-18  0.2000E+01
      1.363 -0.2226E-16  0.2000E+01
      1.419 -0.7936E-15  0.2000E+01
      1.475 -0.2412E-13  0.2000E+01
      1.531 -0.6050E-12  0.2000E+01
      1.587 -0.1333E-10  0.2000E+01
      1.643 -0.2495E-09  0.2000E+01
      1.700 -0.3971E-08  0.2000E+01
      1.756 -0.5371E-07  0.2000E+01
      1.812 -0.6166E-06  0.2000E+01
      1.868 -0.6001E-05  0.2000E+01
      1.924 -0.4943E-04  0.2000E+01
      1.980 -0.3438E-03  0.2000E+01
      2.036 -0.2014E-02  0.2000E+01
      2.092 -0.9890E-02  0.1999E+01
      2.148 -0.4049E-01  0.1997E+01
      2.204 -0.1368E+00  0.1989E+01
      2.260 -0.3756E+00  0.1968E+01
      2.316 -0.8119E+00  0.1923E+01
      2.372 -0.1280E+01  0.1851E+01
      2.428 -0.1088E+01  0.1790E+01
      2.484  0.1038E+01  0.1848E+01
      2.540  0.6223E+01  0.2197E+01
      2.596  0.1402E+02  0.2982E+01
      2.652  0.2159E+02  0.4192E+01
      2.708  0.2509E+02  0.5598E+01
      2.764  0.2248E+02  0.6858E+01
      2.820  0.1528E+02  0.7714E+01
      2.876  0.7285E+01  0.8122E+01
      2.932  0.1616E+01  0.8212E+01
      2.988 -0.9247E+00  0.8161E+01
      3.044 -0.1319E+01  0.8087E+01
      3.100 -0.8908E+00  0.8037E+01
      3.156 -0.4295E+00  0.8013E+01
      3.212 -0.1618E+00  0.8004E+01
      3.268 -0.4935E-01  0.8001E+01
      3.324 -0.1240E-01  0.8000E+01
      3.381 -0.2595E-02  0.8000E+01
      3.437 -0.4550E-03  0.8000E+01
      3.493 -0.6714E-04  0.8000E+01
      3.549 -0.8362E-05  0.8000E+01
      3.605 -0.8812E-06  0.8000E+01
      3.661 -0.7871E-07  0.8000E+01
      3.717 -0.5966E-08  0.8000E+01
      3.773 -0.3842E-09  0.8000E+01
      3.829 -0.2104E-10  0.8000E+01
      3.885 -0.9828E-12  0.8000E+01
      3.941 -0.3963E-13  0.8000E+01
      3.997  0.0000E+00  0.8000E+01
      4.053  0.0000E+00  0.8000E+01
      4.109  0.0000E+00  0.8000E+01
      4.165  0.0000E+00  0.8000E+01
      4.221  0.0000E+00  0.8000E+01
      4.277  0.0000E+00  0.8000E+01
      4.333  0.0000E+00  0.8000E+01
      4.389  0.0000E+00  0.8000E+01
      4.445  0.0000E+00  0.8000E+01
      4.501  0.0000E+00  0.8000E+01
      4.557  0.0000E+00  0.8000E+01
      4.613  0.0000E+00  0.8000E+01
      4.669  0.0000E+00  0.8000E+01
      4.725  0.0000E+00  0.8000E+01
      4.781  0.0000E+00  0.8000E+01
      4.837  0.0000E+00  0.8000E+01
      4.893  0.0000E+00  0.8000E+01
      4.949  0.0000E+00  0.8000E+01
      5.005  0.0000E+00  0.8000E+01
      5.061  0.0000E+00  0.8000E+01
      5.118  0.0000E+00  0.8000E+01
      5.174  0.0000E+00  0.8000E+01
      5.230 -0.7439E-27  0.8000E+01
      5.286 -0.6663E-25  0.8000E+01
      5.342 -0.5141E-23  0.8000E+01
      5.398 -0.3385E-21  0.8000E+01
      5.454 -0.1902E-19  0.8000E+01
      5.510 -0.9115E-18  0.8000E+01
      5.566 -0.3726E-16  0.8000E+01
      5.622 -0.1299E-14  0.8000E+01
      5.678 -0.3858E-13  0.8000E+01
      5.734 -0.9470E-12  0.8000E+01
      5.790 -0.2036E-10  0.8000E+01
      5.846 -0.3724E-09  0.8000E+01
      5.902 -0.5792E-08  0.8000E+01
      5.958 -0.7653E-07  0.8000E+01
      6.014 -0.8583E-06  0.8000E+01
      6.070 -0.8159E-05  0.8000E+01
      6.126 -0.6562E-04  0.8000E+01
      6.182 -0.4456E-03  0.8000E+01
      6.238 -0.2546E-02  0.8000E+01
      6.294 -0.1219E-01  0.7999E+01
      6.350 -0.4861E-01  0.7996E+01
      6.406 -0.1597E+00  0.7987E+01
      6.462 -0.4250E+00  0.7964E+01
      6.518 -0.8844E+00  0.7914E+01
      6.574 -0.1317E+01  0.7840E+01
      6.630 -0.9387E+00  0.7788E+01
      6.686  0.1568E+01  0.7876E+01
      6.742  0.7198E+01  0.8279E+01
      6.798  0.1518E+02  0.9129E+01
      6.855  0.2241E+02  0.1038E+02
      6.911  0.2509E+02  0.1179E+02
      6.967  0.2167E+02  0.1300E+02
      7.023  0.1412E+02  0.1380E+02
      7.079  0.6307E+01  0.1415E+02
      7.135  0.1083E+01  0.1421E+02
      7.191 -0.1076E+01  0.1415E+02
      7.247 -0.1283E+01  0.1408E+02
      7.303 -0.8182E+00  0.1403E+02
      7.359 -0.3799E+00  0.1401E+02
      7.415 -0.1388E+00  0.1400E+02
      7.471 -0.4117E-01  0.1400E+02
      7.527 -0.1008E-01  0.1400E+02
      7.583 -0.2058E-02  0.1400E+02
      7.639 -0.3522E-03  0.1400E+02
      7.695 -0.5075E-04  0.1400E+02
      7.751 -0.6175E-05  0.1400E+02
      7.807 -0.6360E-06  0.1400E+02
      7.863 -0.5553E-07  0.1400E+02
      7.919 -0.4116E-08  0.1400E+02
      7.975 -0.2592E-09  0.1400E+02
      8.031 -0.1389E-10  0.1400E+02
      8.087 -0.6261E-12  0.1400E+02
      8.143 -0.2378E-13  0.1400E+02
      8.199  0.0000E+00  0.1400E+02
      8.255  0.0000E+00  0.1400E+02
      8.311  0.0000E+00  0.1400E+02
      8.367  0.0000E+00  0.1400E+02
      8.423  0.0000E+00  0.1400E+02
      8.479  0.0000E+00  0.1400E+02
      8.535  0.0000E+00  0.1400E+02
      8.592  0.0000E+00  0.1400E+02
      8.648  0.0000E+00  0.1400E+02
      8.704  0.0000E+00  0.1400E+02
      8.760  0.0000E+00  0.1400E+02
      8.816  0.0000E+00  0.1400E+02
      8.872  0.0000E+00  0.1400E+02
      8.928  0.0000E+00  0.1400E+02
      8.984  0.0000E+00  0.1400E+02
      9.040  0.0000E+00  0.1400E+02
      9.096  0.0000E+00  0.1400E+02
      9.152  0.0000E+00  0.1400E+02
      9.208  0.0000E+00  0.1400E+02
      9.264  0.0000E+00  0.1400E+02
      9.320  0.0000E+00  0.1400E+02
      9.376 -0.7077E-26  0.1400E+02
      9.432 -0.5635E-24  0.1400E+02
      9.488 -0.3870E-22  0.1400E+02
      9.544 -0.2268E-20  0.1400E+02
      9.600 -0.1133E-18  0.1400E+02
      9.656 -0.4832E-17  0.1400E+02
      9.712 -0.1756E-15  0.1400E+02
      9.768 -0.5441E-14  0.1400E+02
      9.824 -0.1397E-12  0.1400E+02
      9.880 -0.3126E-11  0.1400E+02
      9.936 -0.5965E-10  0.1400E+02
      9.992 -0.9679E-09  0.1400E+02
     10.048 -0.1335E-07  0.1400E+02
     10.104 -0.1562E-06  0.1400E+02
     10.160 -0.1551E-05  0.1400E+02
     10.216 -0.1303E-04  0.1400E+02
     10.273 -0.9250E-04  0.1400E+02
     10.329 -0.5533E-03  0.1400E+02
     10.385 -0.2778E-02  0.1400E+02
     10.441 -0.1165E-01  0.1400E+02
     10.497 -0.4046E-01  0.1400E+02
     10.553 -0.1150E+00  0.1399E+02
     10.609 -0.2615E+00  0.1398E+02
     10.665 -0.4533E+00  0.1395E+02
     10.721 -0.5195E+00  0.1392E+02
     10.777 -0.1054E+00  0.1392E+02
     10.833  0.1180E+01  0.1398E+02
     10.889  0.3462E+01  0.1418E+02
     10.945  0.6473E+01  0.1454E+02
     11.001  0.9815E+01  0.1509E+02
     11.057  0.1324E+02  0.1583E+02
     11.113  0.1637E+02  0.1675E+02
     11.169  0.1817E+02  0.1777E+02
     11.225  0.1734E+02  0.1874E+02
     11.281  0.1353E+02  0.1950E+02
     11.337  0.8107E+01  0.1995E+02
     11.393  0.3208E+01  0.2013E+02
     11.449  0.2174E+00  0.2014E+02
     11.505 -0.8614E+00  0.2009E+02
     11.561 -0.8393E+00  0.2005E+02
     11.617 -0.4979E+00  0.2002E+02
     11.673 -0.2208E+00  0.2001E+02
     11.729 -0.7775E-01  0.2000E+02
     11.785 -0.2234E-01  0.2000E+02
     11.841 -0.5309E-02  0.2000E+02
     11.897 -0.1053E-02  0.2000E+02
     11.953 -0.1753E-03  0.2000E+02
     12.010 -0.2459E-04  0.2000E+02
     12.066 -0.2913E-05  0.2000E+02
     12.122 -0.2922E-06  0.2000E+02
     12.178 -0.2485E-07  0.2000E+02
     12.234 -0.1794E-08  0.2000E+02
     12.290 -0.1101E-09  0.2000E+02
     12.346 -0.5746E-11  0.2000E+02
     12.402 -0.2457E-12  0.2000E+02
     12.458 -0.1585E-13  0.2000E+02
     12.514  0.0000E+00  0.2000E+02
     12.570  0.0000E+00  0.2000E+02
     12.626  0.0000E+00  0.2000E+02
     12.682  0.0000E+00  0.2000E+02
     12.738  0.0000E+00  0.2000E+02
     12.794  0.0000E+00  0.2000E+02
     12.850  0.0000E+00  0.2000E+02
     12.906  0.0000E+00  0.2000E+02
     12.962  0.0000E+00  0.2000E+02
     13.018  0.0000E+00  0.2000E+02
     13.074  0.0000E+00  0.2000E+02
     13.130  0.0000E+00  0.2000E+02
     13.186  0.0000E+00  0.2000E+02
