       N       E                     dE             d eps       ncg     rms          rms(c)
DAV:   1     0.165173727361E+03    0.16517E+03   -0.95916E+03    40   0.123E+03
DAV:   2    -0.166333540296E+02   -0.18181E+03   -0.17339E+03    40   0.318E+02
DAV:   3    -0.279474163217E+02   -0.11314E+02   -0.10835E+02    64   0.844E+01
DAV:   4    -0.282190663788E+02   -0.27165E+00   -0.22709E+00    48   0.128E+01
DAV:   5    -0.282706411068E+02   -0.51575E-01   -0.48698E-01    56   0.270E+00    0.250E+01
DAV:   6    -0.372864911399E+02   -0.90159E+01   -0.31405E+02    56   0.111E+02    0.208E+01
DAV:   7    -0.278584654726E+02    0.94280E+01   -0.20700E+01    40   0.572E+01    0.104E+01
DAV:   8    -0.259185830933E+02    0.19399E+01   -0.42163E+00    40   0.268E+01    0.622E+00
DAV:   9    -0.263480985599E+02   -0.42952E+00   -0.52483E-01    40   0.970E+00    0.746E+00
DAV:  10    -0.262276565925E+02    0.12044E+00   -0.12277E-02    56   0.122E+00    0.804E+00
DAV:  11    -0.239515412594E+02    0.22761E+01   -0.58801E+00    40   0.331E+01    0.513E+00
DAV:  12    -0.250541690952E+02   -0.11026E+01   -0.24066E-01    40   0.392E+00    0.330E+00
DAV:  13    -0.250870718088E+02   -0.32903E-01   -0.10027E-01    40   0.427E+00    0.205E+00
DAV:  14    -0.252213372230E+02   -0.13427E+00   -0.17741E-02    40   0.122E+00    0.147E+00
DAV:  15    -0.252358103603E+02   -0.14473E-01   -0.15187E-03    40   0.502E-01    0.659E-01
DAV:  16    -0.252529860914E+02   -0.17176E-01   -0.24732E-03    40   0.474E-01    0.537E-01
DAV:  17    -0.252550577647E+02   -0.20717E-02   -0.50961E-04    28   0.289E-01    0.794E-02
DAV:  18    -0.252552763263E+02   -0.21856E-03   -0.59707E-05    20   0.870E-02    0.147E-01
DAV:  19    -0.252552158079E+02    0.60518E-04   -0.22365E-05    20   0.764E-02
   1 F= -.25255216E+02 E0= -.25171466E+02  d E =-.251250E+00
