<?xml version="1.0" encoding="ISO-8859-1"?>
<modeling>
 <generator>
  <i name="program" type="string">vasp </i>
  <i name="version" type="string">5.2.2  </i>
  <i name="subversion" type="string">15Apr09 complex  parallel </i>
  <i name="platform" type="string">LinuxIFC </i>
  <i name="date" type="string">2013 06 14 </i>
  <i name="time" type="string">22:46:19 </i>
 </generator>
 <incar>
  <i type="string" name="PREC">accurate</i>
  <i type="int" name="IBRION">    -1</i>
  <i type="int" name="NSW">     0</i>
  <i type="int" name="ISIF">     2</i>
  <i name="ENCUT">    267.90700000</i>
  <i type="int" name="ISMEAR">     1</i>
  <i name="SIGMA">      0.20000000</i>
  <i type="logical" name="LWAVE"> F  </i>
  <i type="logical" name="LCHARG"> F  </i>
  <i type="logical" name="LPEAD"> F  </i>
  <i type="logical" name="LCALCPOL"> F  </i>
  <i type="logical" name="LCALCEPS"> F  </i>
  <v name="EFIELD_PEAD">      0.00000000      0.00000000      0.00000000</v>
  <i type="logical" name="LEFG"> F  </i>
 </incar>
 <kpoints>
  <generation param="Gamma">
   <v type="int" name="divisions">       1        1        1 </v>
   <v name="usershift">      0.00000000       0.00000000       0.00000000 </v>
   <v name="genvec1">      1.00000000       0.00000000       0.00000000 </v>
   <v name="genvec2">      0.00000000       1.00000000       0.00000000 </v>
   <v name="genvec3">      0.00000000       0.00000000       1.00000000 </v>
   <v name="shift">      0.00000000       0.00000000       0.00000000 </v>
  </generation>
  <varray name="kpointlist" >
   <v>       0.00000000       0.00000000       0.00000000 </v>
  </varray>
  <varray name="weights" >
   <v>       1.00000000 </v>
  </varray>
 </kpoints>
 <parameters>
  <separator name="general" >
   <i type="string" name="SYSTEM">unknown system</i>
   <i type="logical" name="LCOMPAT"> F  </i>
  </separator>
  <separator name="electronic" >
   <i type="string" name="PREC">accura</i>
   <i name="ENMAX">    267.90700000</i>
   <i name="ENAUG">    511.36800000</i>
   <i name="EDIFF">      0.00010000</i>
   <i type="int" name="IALGO">    38</i>
   <i type="int" name="IWAVPR">    10</i>
   <i type="int" name="NBANDS">    20</i>
   <i name="NELECT">     32.00000000</i>
   <separator name="electronic smearing" >
    <i type="int" name="ISMEAR">     1</i>
    <i name="SIGMA">      0.20000000</i>
   </separator>
   <separator name="electronic projectors" >
    <i type="logical" name="LREAL"> F  </i>
    <v name="ROPT">      0.00000000</v>
    <i type="int" name="LMAXPAW">  -100</i>
    <i type="int" name="LMAXMIX">     2</i>
   </separator>
   <separator name="electronic startup" >
    <i type="int" name="ISTART">     0</i>
    <i type="int" name="ICHARG">     2</i>
    <i type="int" name="INIWAV">     1</i>
   </separator>
   <separator name="electronic spin" >
    <i type="int" name="ISPIN">     1</i>
    <i type="logical" name="LNONCOLLINEAR"> F  </i>
    <v name="MAGMOM">      1.00000000      1.00000000      1.00000000      1.00000000</v>
    <i name="NUPDOWN">     -1.00000000</i>
    <i type="logical" name="LSORBIT"> F  </i>
    <v name="SAXIS">      0.00000000      0.00000000      1.00000000</v>
    <i type="logical" name="LSPIRAL"> F  </i>
    <v name="QSPIRAL">      0.00000000      0.00000000      0.00000000</v>
    <i type="logical" name="LZEROZ"> F  </i>
   </separator>
   <separator name="electronic exchange-correlation" >
    <i type="logical" name="LASPH"> F  </i>
    <i type="logical" name="LMETAGGA"> F  </i>
   </separator>
   <separator name="electronic convergence" >
    <i type="int" name="NELM">    60</i>
    <i type="int" name="NELMDL">    -5</i>
    <i type="int" name="NELMIN">     2</i>
    <i name="ENINI">    267.90700000</i>
    <separator name="electronic convergence detail" >
     <i type="logical" name="LDIAG"> T  </i>
     <i name="WEIMIN">      0.00000000</i>
     <i name="EBREAK">      0.00000125</i>
     <i name="DEPER">      0.30000000</i>
     <i type="int" name="NRMM">     4</i>
     <i name="TIME">      0.40000000</i>
    </separator>
   </separator>
   <separator name="electronic mixer" >
    <i name="AMIX">      0.40000000</i>
    <i name="BMIX">      1.00000000</i>
    <i name="AMIN">      0.10000000</i>
    <i name="AMIX_MAG">      1.60000000</i>
    <i name="BMIX_MAG">      1.00000000</i>
    <separator name="electronic mixer details" >
     <i type="int" name="IMIX">     4</i>
     <i type="int" name="MAXMIX">   -45</i>
     <i name="WC">    100.00000000</i>
     <i type="int" name="INIMIX">     1</i>
     <i type="int" name="MIXPRE">     1</i>
     <i type="int" name="MREMOVE">     5</i>
    </separator>
   </separator>
   <separator name="electronic dipolcorrection" >
    <i type="logical" name="LDIPOL"> F  </i>
    <i type="logical" name="LMONO"> F  </i>
    <i type="int" name="IDIPOL">     0</i>
    <i name="EPSILON">      1.00000000</i>
    <v name="DIPOL">   -100.00000000   -100.00000000   -100.00000000</v>
    <i name="EFIELD">      0.00000000</i>
   </separator>
  </separator>
  <separator name="grids" >
   <i type="int" name="NGX">    20</i>
   <i type="int" name="NGY">    20</i>
   <i type="int" name="NGZ">    20</i>
   <i type="int" name="NGXF">    40</i>
   <i type="int" name="NGYF">    40</i>
   <i type="int" name="NGZF">    40</i>
   <i type="logical" name="ADDGRID"> F  </i>
  </separator>
  <separator name="ionic" >
   <i type="int" name="NSW">     0</i>
   <i type="int" name="IBRION">    -1</i>
   <i type="int" name="ISIF">     2</i>
   <i name="PSTRESS">      0.00000000</i>
   <i name="EDIFFG">      0.00100000</i>
   <i type="int" name="NFREE">     0</i>
   <i name="POTIM">      0.50000000</i>
   <i name="SMASS">     -3.00000000</i>
  </separator>
  <separator name="ionic md" >
   <i name="TEBEG">      0.00010000</i>
   <i name="TEEND">      0.00010000</i>
   <i type="int" name="NBLOCK">     1</i>
   <i type="int" name="KBLOCK">     1</i>
   <i type="int" name="NPACO">   256</i>
   <i name="APACO">     16.00000000</i>
  </separator>
  <separator name="symmetry" >
   <i type="int" name="ISYM">     2</i>
   <i name="SYMPREC">      0.00001000</i>
  </separator>
  <separator name="dos" >
   <i type="logical" name="LORBIT"> F  </i>
   <v name="RWIGS">     -1.00000000</v>
   <i type="int" name="NEDOS">   301</i>
   <i name="EMIN">     10.00000000</i>
   <i name="EMAX">    -10.00000000</i>
   <i name="EFERMI">      0.00000000</i>
  </separator>
  <separator name="writing" >
   <i type="int" name="NWRITE">     2</i>
   <i type="logical" name="LWAVE"> F  </i>
   <i type="logical" name="LCHARG"> F  </i>
   <i type="logical" name="LPARD"> F  </i>
   <i type="logical" name="LVTOT"> F  </i>
   <i type="logical" name="LELF"> F  </i>
   <i type="logical" name="LOPTICS"> F  </i>
   <v name="STM">      0.00000000      0.00000000      0.00000000      0.00000000      0.00000000</v>
  </separator>
  <separator name="performance" >
   <i type="int" name="NPAR">     1</i>
   <i type="int" name="NSIM">     4</i>
   <i type="int" name="NBLK">    32</i>
   <i type="logical" name="LPLANE"> T  </i>
   <i type="logical" name="LSCALAPACK"> F  </i>
   <i type="logical" name="LSCAAWARE"> F  </i>
   <i type="logical" name="LSCALU"> F  </i>
   <i type="logical" name="LASYNC"> F  </i>
  </separator>
  <separator name="miscellaneous" >
   <i type="int" name="IDIOT">     3</i>
   <i type="logical" name="LMUSIC"> F  </i>
   <v name="POMASS">     55.84700000</v>
   <i type="logical" name="LCORR"> T  </i>
  </separator>
  <i type="logical" name="LREAL_COMPAT"> F  </i>
  <i type="logical" name="GGA_COMPAT"> T  </i>
  <i type="logical" name="LBERRY"> F  </i>
  <i type="int" name="ICORELEVEL">     0</i>
  <i type="logical" name="LDAU"> F  </i>
  <i type="int" name="I_CONSTRAINED_M">     0</i>
  <separator name="electronic exchange-correlation" >
   <i type="string" name="GGA">--</i>
   <i type="int" name="VOSKOWN">     0</i>
   <i type="logical" name="LHFCALC"> F  </i>
   <i type="logical" name="LHFONE"> F  </i>
   <i type="logical" name="LRHFCALC"> F  </i>
   <i type="logical" name="LTHOMAS"> F  </i>
   <i type="logical" name="LMODELHF"> F  </i>
   <i name="ENCUTFOCK">      0.00000000</i>
   <i name="ENCUT4O">     -1.00000000</i>
   <i type="int" name="EXXOEP">     0</i>
   <i type="int" name="FOURORBIT">     0</i>
   <i name="AEXX">      0.00000000</i>
   <i name="HFALPHA">      0.00000000</i>
   <i name="ALDAX">      1.00000000</i>
   <i name="AGGAX">      1.00000000</i>
   <i name="ALDAC">      1.00000000</i>
   <i name="AGGAC">      1.00000000</i>
   <i type="int" name="NKREDX">     1</i>
   <i type="int" name="NKREDY">     1</i>
   <i type="int" name="NKREDZ">     1</i>
   <i type="logical" name="SHIFTRED"> F  </i>
   <i type="logical" name="ODDONLY"> F  </i>
   <i type="logical" name="EVENONLY"> F  </i>
   <i type="int" name="LMAXFOCK">     0</i>
   <i type="int" name="NMAXFOCKAE">     0</i>
   <i name="HFSCREEN">      0.00000000</i>
   <i name="HFSCREENC">      0.00000000</i>
  </separator>
  <separator name="model GW" >
   <i type="int" name="MODEL_GW">     0</i>
   <i name="MODEL_EPS0">      6.91158036</i>
   <i name="MODEL_ALPHA">      1.00000000</i>
  </separator>
  <separator name="linear response parameters" >
   <i type="logical" name="LEPSILON"> F  </i>
   <i type="logical" name="LRPA"> F  </i>
   <i type="logical" name="LNABLA"> F  </i>
   <i type="logical" name="LVEL"> F  </i>
   <i type="int" name="KINTER">     0</i>
   <i name="CSHIFT">      0.10000000</i>
   <i name="OMEGAMAX">     -1.00000000</i>
  </separator>
  <separator name="orbital magnetization" >
   <i type="logical" name="ORBITALMAG"> F  </i>
   <i type="logical" name="LMAGBLOCH"> F  </i>
   <i type="logical" name="LCHIMAG"> F  </i>
   <i type="logical" name="LGAUGE"> T  </i>
   <i type="int" name="MAGATOM">     0</i>
   <v name="MAGDIPOL">      0.00000000      0.00000000      0.00000000</v>
   <v name="AVECCONST">      0.00000000      0.00000000      0.00000000</v>
  </separator>
  <separator name="response functions" >
   <i type="logical" name="LRPA"> T  </i>
   <i type="logical" name="LTCTE"> F  </i>
   <i type="logical" name="LTETE"> F  </i>
   <i type="logical" name="L2ORDER"> F  </i>
   <i type="logical" name="LGWLF"> F  </i>
   <i name="ENCUTGW">    178.60466667</i>
   <i name="ENCUTGWSOFT">     -2.00000000</i>
   <i name="ENCUTLF">     -1.00000000</i>
   <i type="int" name="LMAXMP2">    -1</i>
   <i name="SCISSOR">      0.00000000</i>
   <i type="int" name="NOMEGA">     0</i>
   <i type="int" name="NOMEGAR">     0</i>
   <i type="int" name="NBANDSGW">    -1</i>
   <i type="int" name="NBANDSLF">    -1</i>
   <i type="int" name="NELM">     1</i>
   <i type="int" name="DIM">     3</i>
   <i type="int" name="ANTIRES">     0</i>
   <i type="logical" name="LUSEW"> F  </i>
   <i name="OMEGAMAX">    -30.00000000</i>
   <i name="OMEGATL">   -200.00000000</i>
   <i type="int" name="OMEGAGRID">     0</i>
   <i name="CSHIFT">     -0.10000000</i>
   <i type="logical" name="SELFENERGY"> F  </i>
   <i type="logical" name="LSPECTRAL"> F  </i>
   <i type="logical" name="ODDONLYGW"> F  </i>
   <i type="logical" name="EVENONLYGW"> F  </i>
   <i type="int" name="NKREDLFX">     1</i>
   <i type="int" name="NKREDLFY">     1</i>
   <i type="int" name="NKREDLFZ">     1</i>
   <i type="int" name="MAXMEM">  1024</i>
   <i type="int" name="TELESCOPE">     0</i>
  </separator>
 </parameters>
 <atominfo>
  <atoms>       4 </atoms>
  <types>       1 </types>
  <array name="atoms" >
   <dimension dim="1">ion</dimension>
   <field type="string">element</field>
   <field type="int">atomtype</field>
   <set>
    <rc><c>Fe</c><c>   1</c></rc>
    <rc><c>Fe</c><c>   1</c></rc>
    <rc><c>Fe</c><c>   1</c></rc>
    <rc><c>Fe</c><c>   1</c></rc>
   </set>
  </array>
  <array name="atomtypes" >
   <dimension dim="1">type</dimension>
   <field type="int">atomspertype</field>
   <field type="string">element</field>
   <field>mass</field>
   <field>valence</field>
   <field type="string">pseudopotential</field>
   <set>
    <rc><c>   4</c><c>Fe</c><c>     55.84700000</c><c>      8.00000000</c><c> PAW_GGA Fe 03Mar1998                   </c></rc>
   </set>
  </array>
 </atominfo>
 <structure name="initialpos" >
  <crystal>
   <varray name="basis" >
    <v>       3.58505124       0.00000000       0.00000000 </v>
    <v>       0.00000000       3.58505124       0.00000000 </v>
    <v>       0.00000000       0.00000000       3.58505124 </v>
   </varray>
   <i name="volume">     46.07720238 </i>
   <varray name="rec_basis" >
    <v>       0.27893604       0.00000000       0.00000000 </v>
    <v>       0.00000000       0.27893604       0.00000000 </v>
    <v>       0.00000000       0.00000000       0.27893604 </v>
   </varray>
  </crystal>
  <varray name="positions" >
   <v>       0.00000000       0.00000000       0.00000000 </v>
   <v>       0.00000000       0.50000000       0.50000000 </v>
   <v>       0.50000000       0.00000000       0.50000000 </v>
   <v>       0.50000000       0.50000000       0.00000000 </v>
  </varray>
 </structure>
 <calculation>
  <scstep>
   <time name="dav">    0.71    0.19</time>
   <time name="total">    1.22    0.52</time>
   <energy>
    <i name="alphaZ">    238.48902642 </i>
    <i name="ewald">  -2357.20283757 </i>
    <i name="hartreedc">   -450.93868662 </i>
    <i name="XCdc">     14.34142779 </i>
    <i name="pawpsdc">   1918.52679501 </i>
    <i name="pawaedc">  -1949.62344792 </i>
    <i name="eentropy">     -0.03998589 </i>
    <i name="bandstr">    369.51068397 </i>
    <i name="atom">   2382.11075216 </i>
    <i name="e_fr_energy">    165.17372736 </i>
    <i name="e_wo_entrp">    165.21371325 </i>
    <i name="e_0_energy">    165.18705599 </i>
   </energy>
  </scstep>
  <scstep>
   <time name="dav">    0.42    0.10</time>
   <time name="total">    0.43    0.11</time>
   <energy>
    <i name="e_fr_energy">    -16.63335403 </i>
    <i name="e_wo_entrp">    -16.63148799 </i>
    <i name="e_0_energy">    -16.63273201 </i>
   </energy>
  </scstep>
  <scstep>
   <time name="dav">    0.60    0.15</time>
   <time name="total">    0.61    0.15</time>
   <energy>
    <i name="e_fr_energy">    -27.94741632 </i>
    <i name="e_wo_entrp">    -27.92887694 </i>
    <i name="e_0_energy">    -27.94123653 </i>
   </energy>
  </scstep>
  <scstep>
   <time name="dav">    0.47    0.12</time>
   <time name="total">    0.48    0.12</time>
   <energy>
    <i name="e_fr_energy">    -28.21906638 </i>
    <i name="e_wo_entrp">    -28.15749390 </i>
    <i name="e_0_energy">    -28.19854222 </i>
   </energy>
  </scstep>
  <scstep>
   <time name="dav">    0.54    0.14</time>
   <time name="total">    0.71    0.18</time>
   <energy>
    <i name="e_fr_energy">    -28.27064111 </i>
    <i name="e_wo_entrp">    -28.20774777 </i>
    <i name="e_0_energy">    -28.24967666 </i>
   </energy>
  </scstep>
  <scstep>
   <time name="dav">    0.52    0.14</time>
   <time name="total">    0.88    0.35</time>
   <energy>
    <i name="e_fr_energy">    -37.28649114 </i>
    <i name="e_wo_entrp">    -37.15856425 </i>
    <i name="e_0_energy">    -37.24384884 </i>
   </energy>
  </scstep>
  <scstep>
   <time name="dav">    0.38    0.10</time>
   <time name="total">    0.69    0.31</time>
   <energy>
    <i name="e_fr_energy">    -27.85846547 </i>
    <i name="e_wo_entrp">    -27.45400566 </i>
    <i name="e_0_energy">    -27.72364553 </i>
   </energy>
  </scstep>
  <scstep>
   <time name="dav">    0.38    0.10</time>
   <time name="total">    0.72    0.31</time>
   <energy>
    <i name="e_fr_energy">    -25.91858309 </i>
    <i name="e_wo_entrp">    -25.72909584 </i>
    <i name="e_0_energy">    -25.85542068 </i>
   </energy>
  </scstep>
  <scstep>
   <time name="dav">    0.39    0.10</time>
   <time name="total">    0.78    0.32</time>
   <energy>
    <i name="e_fr_energy">    -26.34809856 </i>
    <i name="e_wo_entrp">    -25.96718671 </i>
    <i name="e_0_energy">    -26.22112794 </i>
   </energy>
  </scstep>
  <scstep>
   <time name="dav">    0.50    0.13</time>
   <time name="total">    0.93    0.34</time>
   <energy>
    <i name="e_fr_energy">    -26.22765659 </i>
    <i name="e_wo_entrp">    -25.95338611 </i>
    <i name="e_0_energy">    -26.13623310 </i>
   </energy>
  </scstep>
  <scstep>
   <time name="dav">    0.38    0.10</time>
   <time name="total">    0.81    0.31</time>
   <energy>
    <i name="e_fr_energy">    -23.95154126 </i>
    <i name="e_wo_entrp">    -23.85159602 </i>
    <i name="e_0_energy">    -23.91822618 </i>
   </energy>
  </scstep>
  <scstep>
   <time name="dav">    0.38    0.10</time>
   <time name="total">    0.81    0.31</time>
   <energy>
    <i name="e_fr_energy">    -25.05416910 </i>
    <i name="e_wo_entrp">    -24.80843333 </i>
    <i name="e_0_energy">    -24.97225718 </i>
   </energy>
  </scstep>
  <scstep>
   <time name="dav">    0.38    0.10</time>
   <time name="total">    0.81    0.31</time>
   <energy>
    <i name="e_fr_energy">    -25.08707181 </i>
    <i name="e_wo_entrp">    -24.90531885 </i>
    <i name="e_0_energy">    -25.02648749 </i>
   </energy>
  </scstep>
  <scstep>
   <time name="dav">    0.38    0.10</time>
   <time name="total">    0.81    0.31</time>
   <energy>
    <i name="e_fr_energy">    -25.22133722 </i>
    <i name="e_wo_entrp">    -24.96501243 </i>
    <i name="e_0_energy">    -25.13589563 </i>
   </energy>
  </scstep>
  <scstep>
   <time name="dav">    0.38    0.10</time>
   <time name="total">    0.81    0.31</time>
   <energy>
    <i name="e_fr_energy">    -25.23581036 </i>
    <i name="e_wo_entrp">    -25.01103617 </i>
    <i name="e_0_energy">    -25.16088563 </i>
   </energy>
  </scstep>
  <scstep>
   <time name="dav">    0.38    0.10</time>
   <time name="total">    0.81    0.32</time>
   <energy>
    <i name="e_fr_energy">    -25.25298609 </i>
    <i name="e_wo_entrp">    -24.99155442 </i>
    <i name="e_0_energy">    -25.16584220 </i>
   </energy>
  </scstep>
  <scstep>
   <time name="dav">    0.30    0.08</time>
   <time name="total">    0.73    0.30</time>
   <energy>
    <i name="e_fr_energy">    -25.25505776 </i>
    <i name="e_wo_entrp">    -25.00814672 </i>
    <i name="e_0_energy">    -25.17275408 </i>
   </energy>
  </scstep>
  <scstep>
   <time name="dav">    0.25    0.07</time>
   <time name="total">    0.68    0.28</time>
   <energy>
    <i name="e_fr_energy">    -25.25527633 </i>
    <i name="e_wo_entrp">    -24.99693034 </i>
    <i name="e_0_energy">    -25.16916100 </i>
   </energy>
  </scstep>
  <scstep>
   <time name="dav">    0.25    0.07</time>
   <time name="total">    0.52    0.24</time>
   <energy>
    <i name="alphaZ">    238.48902642 </i>
    <i name="ewald">  -2357.20283757 </i>
    <i name="hartreedc">   -444.78754398 </i>
    <i name="XCdc">     14.27774491 </i>
    <i name="pawpsdc">   2209.31146902 </i>
    <i name="pawaedc">  -2239.47351767 </i>
    <i name="eentropy">     -0.25124973 </i>
    <i name="bandstr">    172.27094063 </i>
    <i name="atom">   2382.11075216 </i>
    <i name="e_fr_energy">    -25.25521581 </i>
    <i name="e_wo_entrp">    -25.00396608 </i>
    <i name="e_0_energy">    -25.17146590 </i>
   </energy>
  </scstep>
  <structure>
   <crystal>
    <varray name="basis" >
     <v>       3.58505124       0.00000000       0.00000000 </v>
     <v>       0.00000000       3.58505124       0.00000000 </v>
     <v>       0.00000000       0.00000000       3.58505124 </v>
    </varray>
    <i name="volume">     46.07720238 </i>
    <varray name="rec_basis" >
     <v>       0.27893604       0.00000000       0.00000000 </v>
     <v>       0.00000000       0.27893604       0.00000000 </v>
     <v>       0.00000000       0.00000000       0.27893604 </v>
    </varray>
   </crystal>
   <varray name="positions" >
    <v>       0.00000000       0.00000000       0.00000000 </v>
    <v>       0.00000000       0.50000000       0.50000000 </v>
    <v>       0.50000000       0.00000000       0.50000000 </v>
    <v>       0.50000000       0.50000000       0.00000000 </v>
   </varray>
  </structure>
  <varray name="forces" >
   <v>       0.00000000       0.00000000       0.00000000 </v>
   <v>       0.00000000       0.00000000       0.00000000 </v>
   <v>       0.00000000       0.00000000       0.00000000 </v>
   <v>       0.00000000       0.00000000       0.00000000 </v>
  </varray>
  <varray name="stress" >
   <v>      -2.01844820       0.00000000       0.00000000 </v>
   <v>       0.00000000      -2.01844820       0.00000000 </v>
   <v>       0.00000000       0.00000000      -2.01844820 </v>
  </varray>
  <energy>
   <i name="e_fr_energy">    -25.25521581 </i>
   <i name="e_wo_entrp">    -25.17146590 </i>
   <i name="e_0_energy">     -0.25124973 </i>
  </energy>
  <time name="totalsc">   15.46    6.19</time>
  <eigenvalues>
   <array>
    <dimension dim="1">band</dimension>
    <dimension dim="2">kpoint</dimension>
    <dimension dim="3">spin</dimension>
    <field>eigene</field>
    <field>occ</field>
    <set>
     <set comment="spin 1">
      <set comment="kpoint 1">
       <r>   -2.4700    1.0000 </r>
       <r>    2.6017    1.0000 </r>
       <r>    2.6017    1.0000 </r>
       <r>    2.6017    1.0000 </r>
       <r>    3.5701    1.0000 </r>
       <r>    3.5701    1.0000 </r>
       <r>    3.5701    1.0000 </r>
       <r>    6.1929    1.0000 </r>
       <r>    6.1929    1.0000 </r>
       <r>    6.1929    1.0000 </r>
       <r>    7.8621    1.0000 </r>
       <r>    7.8621    1.0000 </r>
       <r>    8.8907    0.9078 </r>
       <r>    8.8907    0.9078 </r>
       <r>    8.8907    0.9078 </r>
       <r>    9.0663    0.2553 </r>
       <r>    9.0663    0.2553 </r>
       <r>    9.0663    0.2553 </r>
       <r>    9.0663    0.2553 </r>
       <r>    9.0663    0.2553 </r>
      </set>
     </set>
    </set>
   </array>
  </eigenvalues>
  <separator name="orbital magnetization" >
   <v name="MAGDIPOLOUT">      0.00000000      0.00000000      0.00000000</v>
  </separator>
  <dos>
   <i name="efermi">      9.00545891 </i>
   <total>
    <array>
     <dimension dim="1">gridpoints</dimension>
     <dimension dim="2">spin</dimension>
     <field>energy</field>
     <field>total</field>
     <field>integrated</field>
     <set>
      <set comment="spin 1">
       <r>  -4.4700   0.0000   0.0000 </r>
       <r>  -4.4182   0.0000   0.0000 </r>
       <r>  -4.3664   0.0000   0.0000 </r>
       <r>  -4.3146   0.0000   0.0000 </r>
       <r>  -4.2628   0.0000   0.0000 </r>
       <r>  -4.2110   0.0000   0.0000 </r>
       <r>  -4.1592   0.0000   0.0000 </r>
       <r>  -4.1074   0.0000   0.0000 </r>
       <r>  -4.0557   0.0000   0.0000 </r>
       <r>  -4.0039   0.0000   0.0000 </r>
       <r>  -3.9521   0.0000   0.0000 </r>
       <r>  -3.9003   0.0000   0.0000 </r>
       <r>  -3.8485   0.0000   0.0000 </r>
       <r>  -3.7967   0.0000   0.0000 </r>
       <r>  -3.7449   0.0000   0.0000 </r>
       <r>  -3.6931   0.0000   0.0000 </r>
       <r>  -3.6414   0.0000   0.0000 </r>
       <r>  -3.5896   0.0000   0.0000 </r>
       <r>  -3.5378   0.0000   0.0000 </r>
       <r>  -3.4860   0.0000   0.0000 </r>
       <r>  -3.4342   0.0000   0.0000 </r>
       <r>  -3.3824   0.0000   0.0000 </r>
       <r>  -3.3306   0.0000   0.0000 </r>
       <r>  -3.2788   0.0000   0.0000 </r>
       <r>  -3.2271   0.0000   0.0000 </r>
       <r>  -3.1753  -0.0001   0.0000 </r>
       <r>  -3.1235  -0.0006   0.0000 </r>
       <r>  -3.0717  -0.0027  -0.0002 </r>
       <r>  -3.0199  -0.0102  -0.0007 </r>
       <r>  -2.9681  -0.0329  -0.0024 </r>
       <r>  -2.9163  -0.0895  -0.0070 </r>
       <r>  -2.8645  -0.2006  -0.0174 </r>
       <r>  -2.8128  -0.3563  -0.0359 </r>
       <r>  -2.7610  -0.4503  -0.0592 </r>
       <r>  -2.7092  -0.2211  -0.0707 </r>
       <r>  -2.6574   0.6954  -0.0346 </r>
       <r>  -2.6056   2.5207   0.0959 </r>
       <r>  -2.5538   4.9984   0.3548 </r>
       <r>  -2.5020   7.2921   0.7324 </r>
       <r>  -2.4502   8.3714   1.1659 </r>
       <r>  -2.3985   7.6934   1.5644 </r>
       <r>  -2.3467   5.6029   1.8545 </r>
       <r>  -2.2949   3.0758   2.0138 </r>
       <r>  -2.2431   1.0481   2.0681 </r>
       <r>  -2.1913  -0.0781   2.0640 </r>
       <r>  -2.1395  -0.4380   2.0413 </r>
       <r>  -2.0877  -0.3914   2.0211 </r>
       <r>  -2.0359  -0.2355   2.0089 </r>
       <r>  -1.9842  -0.1105   2.0032 </r>
       <r>  -1.9324  -0.0425   2.0010 </r>
       <r>  -1.8806  -0.0137   2.0003 </r>
       <r>  -1.8288  -0.0037   2.0001 </r>
       <r>  -1.7770  -0.0009   2.0000 </r>
       <r>  -1.7252  -0.0002   2.0000 </r>
       <r>  -1.6734   0.0000   2.0000 </r>
       <r>  -1.6216   0.0000   2.0000 </r>
       <r>  -1.5699   0.0000   2.0000 </r>
       <r>  -1.5181   0.0000   2.0000 </r>
       <r>  -1.4663   0.0000   2.0000 </r>
       <r>  -1.4145   0.0000   2.0000 </r>
       <r>  -1.3627   0.0000   2.0000 </r>
       <r>  -1.3109   0.0000   2.0000 </r>
       <r>  -1.2591   0.0000   2.0000 </r>
       <r>  -1.2073   0.0000   2.0000 </r>
       <r>  -1.1556   0.0000   2.0000 </r>
       <r>  -1.1038   0.0000   2.0000 </r>
       <r>  -1.0520   0.0000   2.0000 </r>
       <r>  -1.0002   0.0000   2.0000 </r>
       <r>  -0.9484   0.0000   2.0000 </r>
       <r>  -0.8966   0.0000   2.0000 </r>
       <r>  -0.8448   0.0000   2.0000 </r>
       <r>  -0.7930   0.0000   2.0000 </r>
       <r>  -0.7413   0.0000   2.0000 </r>
       <r>  -0.6895   0.0000   2.0000 </r>
       <r>  -0.6377   0.0000   2.0000 </r>
       <r>  -0.5859   0.0000   2.0000 </r>
       <r>  -0.5341   0.0000   2.0000 </r>
       <r>  -0.4823   0.0000   2.0000 </r>
       <r>  -0.4305   0.0000   2.0000 </r>
       <r>  -0.3787   0.0000   2.0000 </r>
       <r>  -0.3270   0.0000   2.0000 </r>
       <r>  -0.2752   0.0000   2.0000 </r>
       <r>  -0.2234   0.0000   2.0000 </r>
       <r>  -0.1716   0.0000   2.0000 </r>
       <r>  -0.1198   0.0000   2.0000 </r>
       <r>  -0.0680   0.0000   2.0000 </r>
       <r>  -0.0162   0.0000   2.0000 </r>
       <r>   0.0356   0.0000   2.0000 </r>
       <r>   0.0873   0.0000   2.0000 </r>
       <r>   0.1391   0.0000   2.0000 </r>
       <r>   0.1909   0.0000   2.0000 </r>
       <r>   0.2427   0.0000   2.0000 </r>
       <r>   0.2945   0.0000   2.0000 </r>
       <r>   0.3463   0.0000   2.0000 </r>
       <r>   0.3981   0.0000   2.0000 </r>
       <r>   0.4499   0.0000   2.0000 </r>
       <r>   0.5016   0.0000   2.0000 </r>
       <r>   0.5534   0.0000   2.0000 </r>
       <r>   0.6052   0.0000   2.0000 </r>
       <r>   0.6570   0.0000   2.0000 </r>
       <r>   0.7088   0.0000   2.0000 </r>
       <r>   0.7606   0.0000   2.0000 </r>
       <r>   0.8124   0.0000   2.0000 </r>
       <r>   0.8642   0.0000   2.0000 </r>
       <r>   0.9159   0.0000   2.0000 </r>
       <r>   0.9677   0.0000   2.0000 </r>
       <r>   1.0195   0.0000   2.0000 </r>
       <r>   1.0713   0.0000   2.0000 </r>
       <r>   1.1231   0.0000   2.0000 </r>
       <r>   1.1749   0.0000   2.0000 </r>
       <r>   1.2267   0.0000   2.0000 </r>
       <r>   1.2785   0.0000   2.0000 </r>
       <r>   1.3302   0.0000   2.0000 </r>
       <r>   1.3820   0.0000   2.0000 </r>
       <r>   1.4338   0.0000   2.0000 </r>
       <r>   1.4856   0.0000   2.0000 </r>
       <r>   1.5374   0.0000   2.0000 </r>
       <r>   1.5892   0.0000   2.0000 </r>
       <r>   1.6410   0.0000   2.0000 </r>
       <r>   1.6928   0.0000   2.0000 </r>
       <r>   1.7445   0.0000   2.0000 </r>
       <r>   1.7963   0.0000   2.0000 </r>
       <r>   1.8481  -0.0001   2.0000 </r>
       <r>   1.8999  -0.0004   2.0000 </r>
       <r>   1.9517  -0.0020   1.9999 </r>
       <r>   2.0035  -0.0089   1.9994 </r>
       <r>   2.0553  -0.0333   1.9977 </r>
       <r>   2.1071  -0.1063   1.9922 </r>
       <r>   2.1588  -0.2852   1.9774 </r>
       <r>   2.2106  -0.6302   1.9448 </r>
       <r>   2.2624  -1.0995   1.8878 </r>
       <r>   2.3142  -1.3465   1.8181 </r>
       <r>   2.3660  -0.5557   1.7893 </r>
       <r>   2.4178   2.3665   1.9119 </r>
       <r>   2.4696   8.0181   2.3271 </r>
       <r>   2.5214  15.5086   3.1303 </r>
       <r>   2.5731  22.2372   4.2819 </r>
       <r>   2.6249  25.1462   5.5841 </r>
       <r>   2.6767  22.7663   6.7632 </r>
       <r>   2.7285  16.3054   7.6076 </r>
       <r>   2.7803   8.7495   8.0607 </r>
       <r>   2.8321   2.8309   8.2073 </r>
       <r>   2.8839  -0.3681   8.1882 </r>
       <r>   2.9357  -1.3338   8.1192 </r>
       <r>   2.9874  -1.1592   8.0591 </r>
       <r>   3.0392  -0.7243   8.0216 </r>
       <r>   3.0910  -0.4587   7.9979 </r>
       <r>   3.1428  -0.4889   7.9725 </r>
       <r>   3.1946  -0.8042   7.9309 </r>
       <r>   3.2464  -1.2352   7.8669 </r>
       <r>   3.2982  -1.2690   7.8012 </r>
       <r>   3.3500   0.0533   7.8040 </r>
       <r>   3.4017   3.7861   8.0000 </r>
       <r>   3.4535  10.1715   8.5268 </r>
       <r>   3.5053  17.7643   9.4468 </r>
       <r>   3.5571  23.6303  10.6705 </r>
       <r>   3.6089  24.9827  11.9643 </r>
       <r>   3.6607  21.1309  13.0586 </r>
       <r>   3.7125  13.9970  13.7835 </r>
       <r>   3.7643   6.7080  14.1309 </r>
       <r>   3.8160   1.5803  14.2127 </r>
       <r>   3.8678  -0.8454  14.1689 </r>
       <r>   3.9196  -1.3475  14.0992 </r>
       <r>   3.9714  -1.0078  14.0470 </r>
       <r>   4.0232  -0.5485  14.0186 </r>
       <r>   4.0750  -0.2383  14.0062 </r>
       <r>   4.1268  -0.0857  14.0018 </r>
       <r>   4.1786  -0.0260  14.0004 </r>
       <r>   4.2303  -0.0067  14.0001 </r>
       <r>   4.2821  -0.0015  14.0000 </r>
       <r>   4.3339  -0.0003  14.0000 </r>
       <r>   4.3857   0.0000  14.0000 </r>
       <r>   4.4375   0.0000  14.0000 </r>
       <r>   4.4893   0.0000  14.0000 </r>
       <r>   4.5411   0.0000  14.0000 </r>
       <r>   4.5929   0.0000  14.0000 </r>
       <r>   4.6446   0.0000  14.0000 </r>
       <r>   4.6964   0.0000  14.0000 </r>
       <r>   4.7482   0.0000  14.0000 </r>
       <r>   4.8000   0.0000  14.0000 </r>
       <r>   4.8518   0.0000  14.0000 </r>
       <r>   4.9036   0.0000  14.0000 </r>
       <r>   4.9554   0.0000  14.0000 </r>
       <r>   5.0072   0.0000  14.0000 </r>
       <r>   5.0589   0.0000  14.0000 </r>
       <r>   5.1107   0.0000  14.0000 </r>
       <r>   5.1625   0.0000  14.0000 </r>
       <r>   5.2143   0.0000  14.0000 </r>
       <r>   5.2661   0.0000  14.0000 </r>
       <r>   5.3179   0.0000  14.0000 </r>
       <r>   5.3697   0.0000  14.0000 </r>
       <r>   5.4215   0.0000  14.0000 </r>
       <r>   5.4732  -0.0002  14.0000 </r>
       <r>   5.5250  -0.0012  13.9999 </r>
       <r>   5.5768  -0.0054  13.9996 </r>
       <r>   5.6286  -0.0215  13.9985 </r>
       <r>   5.6804  -0.0727  13.9948 </r>
       <r>   5.7322  -0.2074  13.9840 </r>
       <r>   5.7840  -0.4915  13.9586 </r>
       <r>   5.8358  -0.9368  13.9101 </r>
       <r>   5.8875  -1.3274  13.8413 </r>
       <r>   5.9393  -1.0128  13.7889 </r>
       <r>   5.9911   1.0625  13.8439 </r>
       <r>   6.0429   5.7845  14.1435 </r>
       <r>   6.0947  12.8613  14.8095 </r>
       <r>   6.1465  20.2151  15.8564 </r>
       <r>   6.1983  24.7224  17.1367 </r>
       <r>   6.2501  24.1596  18.3879 </r>
       <r>   6.3018  18.8150  19.3623 </r>
       <r>   6.3536  11.2719  19.9460 </r>
       <r>   6.4054   4.5728  20.1828 </r>
       <r>   6.4572   0.4316  20.2052 </r>
       <r>   6.5090  -1.1851  20.1438 </r>
       <r>   6.5608  -1.2751  20.0778 </r>
       <r>   6.6126  -0.8362  20.0345 </r>
       <r>   6.6644  -0.4175  20.0128 </r>
       <r>   6.7161  -0.1692  20.0041 </r>
       <r>   6.7679  -0.0572  20.0011 </r>
       <r>   6.8197  -0.0164  20.0003 </r>
       <r>   6.8715  -0.0040  20.0001 </r>
       <r>   6.9233  -0.0008  20.0000 </r>
       <r>   6.9751  -0.0002  20.0000 </r>
       <r>   7.0269   0.0000  20.0000 </r>
       <r>   7.0787   0.0000  20.0000 </r>
       <r>   7.1304  -0.0001  20.0000 </r>
       <r>   7.1822  -0.0005  20.0000 </r>
       <r>   7.2340  -0.0026  19.9998 </r>
       <r>   7.2858  -0.0106  19.9993 </r>
       <r>   7.3376  -0.0371  19.9974 </r>
       <r>   7.3894  -0.1102  19.9917 </r>
       <r>   7.4412  -0.2732  19.9775 </r>
       <r>   7.4930  -0.5500  19.9490 </r>
       <r>   7.5447  -0.8452  19.9053 </r>
       <r>   7.5965  -0.8001  19.8638 </r>
       <r>   7.6483   0.2453  19.8765 </r>
       <r>   7.7001   2.9625  20.0299 </r>
       <r>   7.7519   7.3970  20.4130 </r>
       <r>   7.8037  12.4340  21.0569 </r>
       <r>   7.8555  16.0551  21.8884 </r>
       <r>   7.9073  16.5143  22.7436 </r>
       <r>   7.9590  13.5767  23.4467 </r>
       <r>   8.0108   8.6943  23.8970 </r>
       <r>   8.0626   3.9518  24.1016 </r>
       <r>   8.1144   0.7605  24.1410 </r>
       <r>   8.1662  -0.6594  24.1069 </r>
       <r>   8.2180  -0.8888  24.0609 </r>
       <r>   8.2698  -0.6369  24.0279 </r>
       <r>   8.3216  -0.3527  24.0096 </r>
       <r>   8.3733  -0.2075  23.9989 </r>
       <r>   8.4251  -0.2433  23.9863 </r>
       <r>   8.4769  -0.4903  23.9609 </r>
       <r>   8.5287  -0.9631  23.9110 </r>
       <r>   8.5805  -1.5200  23.8323 </r>
       <r>   8.6323  -1.6531  23.7467 </r>
       <r>   8.6841  -0.4172  23.7251 </r>
       <r>   8.7359   3.2605  23.8939 </r>
       <r>   8.7876   9.9421  24.4088 </r>
       <r>   8.8394  19.1997  25.4031 </r>
       <r>   8.8912  29.7338  26.9429 </r>
       <r>   8.9430  39.8231  29.0053 </r>
       <r>   8.9948  47.4823  31.4643 </r>
       <r>   9.0466  50.4606  34.0775 </r>
       <r>   9.0984  46.9689  36.5099 </r>
       <r>   9.1502  37.1654  38.4346 </r>
       <r>   9.2019  23.8766  39.6711 </r>
       <r>   9.2537  11.3016  40.2564 </r>
       <r>   9.3055   2.5948  40.3908 </r>
       <r>   9.3573  -1.5560  40.3102 </r>
       <r>   9.4091  -2.4372  40.1840 </r>
       <r>   9.4609  -1.8451  40.0884 </r>
       <r>   9.5127  -1.0213  40.0355 </r>
       <r>   9.5645  -0.4521  40.0121 </r>
       <r>   9.6162  -0.1657  40.0035 </r>
       <r>   9.6680  -0.0512  40.0009 </r>
       <r>   9.7198  -0.0135  40.0002 </r>
       <r>   9.7716  -0.0030  40.0000 </r>
       <r>   9.8234  -0.0006  40.0000 </r>
       <r>   9.8752  -0.0001  40.0000 </r>
       <r>   9.9270   0.0000  40.0000 </r>
       <r>   9.9788   0.0000  40.0000 </r>
       <r>  10.0305   0.0000  40.0000 </r>
       <r>  10.0823   0.0000  40.0000 </r>
       <r>  10.1341   0.0000  40.0000 </r>
       <r>  10.1859   0.0000  40.0000 </r>
       <r>  10.2377   0.0000  40.0000 </r>
       <r>  10.2895   0.0000  40.0000 </r>
       <r>  10.3413   0.0000  40.0000 </r>
       <r>  10.3931   0.0000  40.0000 </r>
       <r>  10.4448   0.0000  40.0000 </r>
       <r>  10.4966   0.0000  40.0000 </r>
       <r>  10.5484   0.0000  40.0000 </r>
       <r>  10.6002   0.0000  40.0000 </r>
       <r>  10.6520   0.0000  40.0000 </r>
       <r>  10.7038   0.0000  40.0000 </r>
       <r>  10.7556   0.0000  40.0000 </r>
       <r>  10.8074   0.0000  40.0000 </r>
       <r>  10.8591   0.0000  40.0000 </r>
       <r>  10.9109   0.0000  40.0000 </r>
       <r>  10.9627   0.0000  40.0000 </r>
       <r>  11.0145   0.0000  40.0000 </r>
       <r>  11.0663   0.0000  40.0000 </r>
      </set>
     </set>
    </array>
   </total>
  </dos>
 </calculation>
 <structure name="finalpos" >
  <crystal>
   <varray name="basis" >
    <v>       3.58505124       0.00000000       0.00000000 </v>
    <v>       0.00000000       3.58505124       0.00000000 </v>
    <v>       0.00000000       0.00000000       3.58505124 </v>
   </varray>
   <i name="volume">     46.07720238 </i>
   <varray name="rec_basis" >
    <v>       0.27893604       0.00000000       0.00000000 </v>
    <v>       0.00000000       0.27893604       0.00000000 </v>
    <v>       0.00000000       0.00000000       0.27893604 </v>
   </varray>
  </crystal>
  <varray name="positions" >
   <v>       0.00000000       0.00000000       0.00000000 </v>
   <v>       0.00000000       0.50000000       0.50000000 </v>
   <v>       0.50000000       0.00000000       0.50000000 </v>
   <v>       0.50000000       0.50000000       0.00000000 </v>
  </varray>
 </structure>
</modeling>
