<?xml version="1.0" encoding="ISO-8859-1"?>
<modeling>
 <generator>
  <i name="program" type="string">vasp </i>
  <i name="version" type="string">5.2.2  </i>
  <i name="subversion" type="string">15Apr09 complex  parallel </i>
  <i name="platform" type="string">LinuxIFC </i>
  <i name="date" type="string">2013 07 09 </i>
  <i name="time" type="string">22:36:41 </i>
 </generator>
 <incar>
  <i type="string" name="PREC">normal</i>
  <i type="int" name="IBRION">     5</i>
  <i type="int" name="NFREE">     2</i>
  <i type="int" name="NSW">   191</i>
  <i name="ENCUT">    313.02000000</i>
  <i name="POTIM">      0.01000000</i>
  <i type="logical" name="LPEAD"> F  </i>
  <i type="logical" name="LCALCPOL"> F  </i>
  <i type="logical" name="LCALCEPS"> F  </i>
  <v name="EFIELD_PEAD">      0.00000000      0.00000000      0.00000000</v>
  <i type="logical" name="LEFG"> F  </i>
 </incar>
 <kpoints>
  <generation param="Gamma">
   <v type="int" name="divisions">       1        1        1 </v>
   <v name="usershift">      0.00000000       0.00000000       0.00000000 </v>
   <v name="genvec1">      1.00000000       0.00000000       0.00000000 </v>
   <v name="genvec2">      0.00000000       1.00000000       0.00000000 </v>
   <v name="genvec3">      0.00000000       0.00000000       1.00000000 </v>
   <v name="shift">      0.00000000       0.00000000       0.00000000 </v>
  </generation>
  <varray name="kpointlist" >
   <v>       0.00000000       0.00000000       0.00000000 </v>
  </varray>
  <varray name="weights" >
   <v>       1.00000000 </v>
  </varray>
 </kpoints>
 <parameters>
  <separator name="general" >
   <i type="string" name="SYSTEM">unknown system</i>
   <i type="logical" name="LCOMPAT"> F  </i>
  </separator>
  <separator name="electronic" >
   <i type="string" name="PREC">normal</i>
   <i name="ENMAX">    313.02000000</i>
   <i name="ENAUG">    462.75800000</i>
   <i name="EDIFF">      0.00000100</i>
   <i type="int" name="IALGO">    38</i>
   <i type="int" name="IWAVPR">    11</i>
   <i type="int" name="NBANDS">    18</i>
   <i name="NELECT">     29.00000000</i>
   <separator name="electronic smearing" >
    <i type="int" name="ISMEAR">     1</i>
    <i name="SIGMA">      0.20000000</i>
   </separator>
   <separator name="electronic projectors" >
    <i type="logical" name="LREAL"> F  </i>
    <v name="ROPT">      0.00000000      0.00000000</v>
    <i type="int" name="LMAXPAW">  -100</i>
    <i type="int" name="LMAXMIX">     2</i>
   </separator>
   <separator name="electronic startup" >
    <i type="int" name="ISTART">     1</i>
    <i type="int" name="ICHARG">     0</i>
    <i type="int" name="INIWAV">     1</i>
   </separator>
   <separator name="electronic spin" >
    <i type="int" name="ISPIN">     1</i>
    <i type="logical" name="LNONCOLLINEAR"> F  </i>
    <v name="MAGMOM">      1.00000000      1.00000000      1.00000000      1.00000000      1.00000000      1.00000000      1.00000000</v>
    <i name="NUPDOWN">     -1.00000000</i>
    <i type="logical" name="LSORBIT"> F  </i>
    <v name="SAXIS">      0.00000000      0.00000000      1.00000000</v>
    <i type="logical" name="LSPIRAL"> F  </i>
    <v name="QSPIRAL">      0.00000000      0.00000000      0.00000000</v>
    <i type="logical" name="LZEROZ"> F  </i>
   </separator>
   <separator name="electronic exchange-correlation" >
    <i type="logical" name="LASPH"> F  </i>
    <i type="logical" name="LMETAGGA"> F  </i>
   </separator>
   <separator name="electronic convergence" >
    <i type="int" name="NELM">    60</i>
    <i type="int" name="NELMDL">     0</i>
    <i type="int" name="NELMIN">     2</i>
    <i name="ENINI">    313.02000000</i>
    <separator name="electronic convergence detail" >
     <i type="logical" name="LDIAG"> T  </i>
     <i name="WEIMIN">      0.00100000</i>
     <i name="EBREAK">      0.00000001</i>
     <i name="DEPER">      0.30000000</i>
     <i type="int" name="NRMM">     4</i>
     <i name="TIME">      0.40000000</i>
    </separator>
   </separator>
   <separator name="electronic mixer" >
    <i name="AMIX">      0.40000000</i>
    <i name="BMIX">      1.00000000</i>
    <i name="AMIN">      0.10000000</i>
    <i name="AMIX_MAG">      1.60000000</i>
    <i name="BMIX_MAG">      1.00000000</i>
    <separator name="electronic mixer details" >
     <i type="int" name="IMIX">     4</i>
     <i type="int" name="MAXMIX">   -45</i>
     <i name="WC">    100.00000000</i>
     <i type="int" name="INIMIX">     1</i>
     <i type="int" name="MIXPRE">     1</i>
     <i type="int" name="MREMOVE">     5</i>
    </separator>
   </separator>
   <separator name="electronic dipolcorrection" >
    <i type="logical" name="LDIPOL"> F  </i>
    <i type="logical" name="LMONO"> F  </i>
    <i type="int" name="IDIPOL">     0</i>
    <i name="EPSILON">      1.00000000</i>
    <v name="DIPOL">   -100.00000000   -100.00000000   -100.00000000</v>
    <i name="EFIELD">      0.00000000</i>
   </separator>
  </separator>
  <separator name="grids" >
   <i type="int" name="NGX">    28</i>
   <i type="int" name="NGY">    30</i>
   <i type="int" name="NGZ">    32</i>
   <i type="int" name="NGXF">    56</i>
   <i type="int" name="NGYF">    60</i>
   <i type="int" name="NGZF">    64</i>
   <i type="logical" name="ADDGRID"> F  </i>
  </separator>
  <separator name="ionic" >
   <i type="int" name="NSW">   121</i>
   <i type="int" name="IBRION">     5</i>
   <i type="int" name="ISIF">     2</i>
   <i name="PSTRESS">      0.00000000</i>
   <i name="EDIFFG">      0.00001000</i>
   <i type="int" name="NFREE">     2</i>
   <i name="POTIM">      0.01000000</i>
   <i name="SMASS">     -3.00000000</i>
  </separator>
  <separator name="ionic md" >
   <i name="TEBEG">      0.00010000</i>
   <i name="TEEND">      0.00010000</i>
   <i type="int" name="NBLOCK">     1</i>
   <i type="int" name="KBLOCK">     1</i>
   <i type="int" name="NPACO">   256</i>
   <i name="APACO">     16.00000000</i>
  </separator>
  <separator name="symmetry" >
   <i type="int" name="ISYM">     2</i>
   <i name="SYMPREC">      0.00001000</i>
  </separator>
  <separator name="dos" >
   <i type="logical" name="LORBIT"> F  </i>
   <v name="RWIGS">     -1.00000000     -1.00000000</v>
   <i type="int" name="NEDOS">   301</i>
   <i name="EMIN">     10.00000000</i>
   <i name="EMAX">    -10.00000000</i>
   <i name="EFERMI">      0.00000000</i>
  </separator>
  <separator name="writing" >
   <i type="int" name="NWRITE">     2</i>
   <i type="logical" name="LWAVE"> T  </i>
   <i type="logical" name="LCHARG"> T  </i>
   <i type="logical" name="LPARD"> F  </i>
   <i type="logical" name="LVTOT"> F  </i>
   <i type="logical" name="LELF"> F  </i>
   <i type="logical" name="LOPTICS"> F  </i>
   <v name="STM">      0.00000000      0.00000000      0.00000000      0.00000000      0.00000000</v>
  </separator>
  <separator name="performance" >
   <i type="int" name="NPAR">     1</i>
   <i type="int" name="NSIM">     4</i>
   <i type="int" name="NBLK">    32</i>
   <i type="logical" name="LPLANE"> T  </i>
   <i type="logical" name="LSCALAPACK"> F  </i>
   <i type="logical" name="LSCAAWARE"> F  </i>
   <i type="logical" name="LSCALU"> F  </i>
   <i type="logical" name="LASYNC"> F  </i>
  </separator>
  <separator name="miscellaneous" >
   <i type="int" name="IDIOT">     3</i>
   <i type="logical" name="LMUSIC"> F  </i>
   <v name="POMASS">     69.72300000     74.92200000</v>
   <i type="logical" name="LCORR"> T  </i>
  </separator>
  <i type="logical" name="LREAL_COMPAT"> F  </i>
  <i type="logical" name="GGA_COMPAT"> T  </i>
  <i type="logical" name="LBERRY"> F  </i>
  <i type="int" name="ICORELEVEL">     0</i>
  <i type="logical" name="LDAU"> F  </i>
  <i type="int" name="I_CONSTRAINED_M">     0</i>
  <separator name="electronic exchange-correlation" >
   <i type="string" name="GGA">--</i>
   <i type="int" name="VOSKOWN">     0</i>
   <i type="logical" name="LHFCALC"> F  </i>
   <i type="logical" name="LHFONE"> F  </i>
   <i type="logical" name="LRHFCALC"> F  </i>
   <i type="logical" name="LTHOMAS"> F  </i>
   <i type="logical" name="LMODELHF"> F  </i>
   <i name="ENCUTFOCK">      0.00000000</i>
   <i name="ENCUT4O">     -1.00000000</i>
   <i type="int" name="EXXOEP">     0</i>
   <i type="int" name="FOURORBIT">     0</i>
   <i name="AEXX">      0.00000000</i>
   <i name="HFALPHA">      0.00000000</i>
   <i name="ALDAX">      1.00000000</i>
   <i name="AGGAX">      1.00000000</i>
   <i name="ALDAC">      1.00000000</i>
   <i name="AGGAC">      1.00000000</i>
   <i type="int" name="NKREDX">     1</i>
   <i type="int" name="NKREDY">     1</i>
   <i type="int" name="NKREDZ">     1</i>
   <i type="logical" name="SHIFTRED"> F  </i>
   <i type="logical" name="ODDONLY"> F  </i>
   <i type="logical" name="EVENONLY"> F  </i>
   <i type="int" name="LMAXFOCK">     0</i>
   <i type="int" name="NMAXFOCKAE">     0</i>
   <i name="HFSCREEN">      0.00000000</i>
   <i name="HFSCREENC">      0.00000000</i>
  </separator>
  <separator name="model GW" >
   <i type="int" name="MODEL_GW">     0</i>
   <i name="MODEL_EPS0">     13.88571429</i>
   <i name="MODEL_ALPHA">      1.00000000</i>
  </separator>
  <separator name="linear response parameters" >
   <i type="logical" name="LEPSILON"> F  </i>
   <i type="logical" name="LRPA"> F  </i>
   <i type="logical" name="LNABLA"> F  </i>
   <i type="logical" name="LVEL"> F  </i>
   <i type="int" name="KINTER">     0</i>
   <i name="CSHIFT">      0.10000000</i>
   <i name="OMEGAMAX">     -1.00000000</i>
  </separator>
  <separator name="orbital magnetization" >
   <i type="logical" name="ORBITALMAG"> F  </i>
   <i type="logical" name="LMAGBLOCH"> F  </i>
   <i type="logical" name="LCHIMAG"> F  </i>
   <i type="logical" name="LGAUGE"> T  </i>
   <i type="int" name="MAGATOM">     0</i>
   <v name="MAGDIPOL">      0.00000000      0.00000000      0.00000000</v>
   <v name="AVECCONST">      0.00000000      0.00000000      0.00000000</v>
  </separator>
  <separator name="response functions" >
   <i type="logical" name="LRPA"> T  </i>
   <i type="logical" name="LTCTE"> F  </i>
   <i type="logical" name="LTETE"> F  </i>
   <i type="logical" name="L2ORDER"> F  </i>
   <i type="logical" name="LGWLF"> F  </i>
   <i name="ENCUTGW">    208.68000000</i>
   <i name="ENCUTGWSOFT">     -2.00000000</i>
   <i name="ENCUTLF">     -1.00000000</i>
   <i type="int" name="LMAXMP2">    -1</i>
   <i name="SCISSOR">      0.00000000</i>
   <i type="int" name="NOMEGA">     0</i>
   <i type="int" name="NOMEGAR">     0</i>
   <i type="int" name="NBANDSGW">    -1</i>
   <i type="int" name="NBANDSLF">    -1</i>
   <i type="int" name="NELM">     1</i>
   <i type="int" name="DIM">     3</i>
   <i type="int" name="ANTIRES">     0</i>
   <i type="logical" name="LUSEW"> F  </i>
   <i name="OMEGAMAX">    -30.00000000</i>
   <i name="OMEGATL">   -200.00000000</i>
   <i type="int" name="OMEGAGRID">     0</i>
   <i name="CSHIFT">     -0.10000000</i>
   <i type="logical" name="SELFENERGY"> F  </i>
   <i type="logical" name="LSPECTRAL"> F  </i>
   <i type="logical" name="ODDONLYGW"> F  </i>
   <i type="logical" name="EVENONLYGW"> F  </i>
   <i type="int" name="NKREDLFX">     1</i>
   <i type="int" name="NKREDLFY">     1</i>
   <i type="int" name="NKREDLFZ">     1</i>
   <i type="int" name="MAXMEM">  1024</i>
   <i type="int" name="TELESCOPE">     0</i>
  </separator>
 </parameters>
 <atominfo>
  <atoms>       7 </atoms>
  <types>       2 </types>
  <array name="atoms" >
   <dimension dim="1">ion</dimension>
   <field type="string">element</field>
   <field type="int">atomtype</field>
   <set>
    <rc><c>Ga</c><c>   1</c></rc>
    <rc><c>Ga</c><c>   1</c></rc>
    <rc><c>Ga</c><c>   1</c></rc>
    <rc><c>As</c><c>   2</c></rc>
    <rc><c>As</c><c>   2</c></rc>
    <rc><c>As</c><c>   2</c></rc>
    <rc><c>As</c><c>   2</c></rc>
   </set>
  </array>
  <array name="atomtypes" >
   <dimension dim="1">type</dimension>
   <field type="int">atomspertype</field>
   <field type="string">element</field>
   <field>mass</field>
   <field>valence</field>
   <field type="string">pseudopotential</field>
   <set>
    <rc><c>   3</c><c>Ga</c><c>     69.72300000</c><c>      3.00000000</c><c> PAW_PBE Ga 08Apr2002                   </c></rc>
    <rc><c>   4</c><c>As</c><c>     74.92200000</c><c>      5.00000000</c><c> PAW_PBE As 06Sep2000                   </c></rc>
   </set>
  </array>
 </atominfo>
 <structure name="initialpos" >
  <crystal>
   <varray name="basis" >
    <v>       6.00000000       1.00000000       1.00000000 </v>
    <v>       2.00000000       6.00000000       2.00000000 </v>
    <v>       3.00000000       3.00000000       6.00000000 </v>
   </varray>
   <i name="volume">    162.00000000 </i>
   <varray name="rec_basis" >
    <v>       0.18518519      -0.03703704      -0.07407407 </v>
    <v>      -0.01851852       0.20370370      -0.09259259 </v>
    <v>      -0.02469136      -0.06172840       0.20987654 </v>
   </varray>
  </crystal>
  <varray name="positions" >
   <v>       0.50000000       0.50000000       0.00000000 </v>
   <v>       0.00000000       0.50000000       0.50000000 </v>
   <v>       0.50000000       0.00000000       0.50000000 </v>
   <v>       0.31195000       0.31195000       0.31195000 </v>
   <v>       0.68805000       0.68805000       0.31195000 </v>
   <v>       0.31195000       0.68805000       0.68805000 </v>
   <v>       0.68805000       0.31195000       0.68805000 </v>
  </varray>
  <varray name="selective"  type="logical" >
   <v type="logical" >  T  T  T </v>
   <v type="logical" >  F  F  F </v>
   <v type="logical" >  F  F  F </v>
   <v type="logical" >  F  F  F </v>
   <v type="logical" >  F  F  F </v>
   <v type="logical" >  F  F  F </v>
   <v type="logical" >  F  F  F </v>
  </varray>
  <nose>
   <v>      -3.00000000       0.00000000       0.00010000       0.00010000 </v>
  </nose>
 </structure>
 <calculation>
  <scstep>
   <time name="dav">    3.01    0.82</time>
   <time name="total">    3.84    1.52</time>
   <energy>
    <i name="alphaZ">     65.88305281 </i>
    <i name="ewald">   -622.42526164 </i>
    <i name="hartreedc">   -196.49166027 </i>
    <i name="XCdc">   -100.70714904 </i>
    <i name="pawpsdc">    469.30319123 </i>
    <i name="pawaedc">   -316.25683009 </i>
    <i name="eentropy">     -0.05641891 </i>
    <i name="bandstr">   -201.20143753 </i>
    <i name="atom">    856.89852722 </i>
    <i name="e_fr_energy">    -45.05398622 </i>
    <i name="e_wo_entrp">    -44.99756731 </i>
    <i name="e_0_energy">    -45.03517991 </i>
   </energy>
  </scstep>
  <scstep>
   <time name="dav">    1.99    0.53</time>
   <time name="total">    2.73    1.17</time>
   <energy>
    <i name="e_fr_energy">    -18.13089845 </i>
    <i name="e_wo_entrp">    -18.07448125 </i>
    <i name="e_0_energy">    -18.11209272 </i>
   </energy>
  </scstep>
  <scstep>
   <time name="dav">    1.82    0.48</time>
   <time name="total">    2.57    1.12</time>
   <energy>
    <i name="e_fr_energy">      5.83979164 </i>
    <i name="e_wo_entrp">      5.89621060 </i>
    <i name="e_0_energy">      5.85859796 </i>
   </energy>
  </scstep>
  <scstep>
   <time name="dav">    2.14    0.57</time>
   <time name="total">    2.93    1.21</time>
   <energy>
    <i name="e_fr_energy">      5.84266357 </i>
    <i name="e_wo_entrp">      5.89905463 </i>
    <i name="e_0_energy">      5.86146059 </i>
   </energy>
  </scstep>
  <scstep>
   <time name="dav">    1.74    0.46</time>
   <time name="total">    2.71    1.18</time>
   <energy>
    <i name="e_fr_energy">      6.17504218 </i>
    <i name="e_wo_entrp">      6.23127577 </i>
    <i name="e_0_energy">      6.19378671 </i>
   </energy>
  </scstep>
  <scstep>
   <time name="dav">    2.03    0.53</time>
   <time name="total">    3.10    1.26</time>
   <energy>
    <i name="e_fr_energy">      6.15816029 </i>
    <i name="e_wo_entrp">      6.21423288 </i>
    <i name="e_0_energy">      6.17685115 </i>
   </energy>
  </scstep>
  <scstep>
   <time name="dav">    1.75    0.46</time>
   <time name="total">    2.82    1.19</time>
   <energy>
    <i name="e_fr_energy">      6.14844690 </i>
    <i name="e_wo_entrp">      6.20446837 </i>
    <i name="e_0_energy">      6.16712073 </i>
   </energy>
  </scstep>
  <scstep>
   <time name="dav">    2.29    0.60</time>
   <time name="total">    3.36    1.33</time>
   <energy>
    <i name="e_fr_energy">      6.14608039 </i>
    <i name="e_wo_entrp">      6.20207925 </i>
    <i name="e_0_energy">      6.16474668 </i>
   </energy>
  </scstep>
  <scstep>
   <time name="dav">    2.02    0.53</time>
   <time name="total">    3.09    1.26</time>
   <energy>
    <i name="e_fr_energy">      6.14560677 </i>
    <i name="e_wo_entrp">      6.20161374 </i>
    <i name="e_0_energy">      6.16427576 </i>
   </energy>
  </scstep>
  <scstep>
   <time name="dav">    1.75    0.46</time>
   <time name="total">    2.82    1.19</time>
   <energy>
    <i name="e_fr_energy">      6.14546232 </i>
    <i name="e_wo_entrp">      6.20147271 </i>
    <i name="e_0_energy">      6.16413245 </i>
   </energy>
  </scstep>
  <scstep>
   <time name="dav">    2.02    0.53</time>
   <time name="total">    3.10    1.26</time>
   <energy>
    <i name="e_fr_energy">      6.14544026 </i>
    <i name="e_wo_entrp">      6.20145067 </i>
    <i name="e_0_energy">      6.16411040 </i>
   </energy>
  </scstep>
  <scstep>
   <time name="dav">    1.75    0.46</time>
   <time name="total">    2.83    1.20</time>
   <energy>
    <i name="e_fr_energy">      6.14543492 </i>
    <i name="e_wo_entrp">      6.20144371 </i>
    <i name="e_0_energy">      6.16410451 </i>
   </energy>
  </scstep>
  <scstep>
   <time name="dav">    1.17    0.31</time>
   <time name="total">    2.25    1.05</time>
   <energy>
    <i name="e_fr_energy">      6.14543379 </i>
    <i name="e_wo_entrp">      6.20144248 </i>
    <i name="e_0_energy">      6.16410335 </i>
   </energy>
  </scstep>
  <scstep>
   <time name="dav">    1.04    0.28</time>
   <time name="total">    1.77    0.87</time>
   <energy>
    <i name="alphaZ">     65.88305281 </i>
    <i name="ewald">   -622.42526164 </i>
    <i name="hartreedc">   -233.25413284 </i>
    <i name="XCdc">   -101.67456473 </i>
    <i name="pawpsdc">    693.45267482 </i>
    <i name="pawaedc">   -540.64639756 </i>
    <i name="eentropy">     -0.05600889 </i>
    <i name="bandstr">   -112.03245542 </i>
    <i name="atom">    856.89852722 </i>
    <i name="e_fr_energy">      6.14543378 </i>
    <i name="e_wo_entrp">      6.20144268 </i>
    <i name="e_0_energy">      6.16410341 </i>
   </energy>
  </scstep>
  <structure>
   <crystal>
    <varray name="basis" >
     <v>       6.00000000       1.00000000       1.00000000 </v>
     <v>       2.00000000       6.00000000       2.00000000 </v>
     <v>       3.00000000       3.00000000       6.00000000 </v>
    </varray>
    <i name="volume">    162.00000000 </i>
    <varray name="rec_basis" >
     <v>       0.18518519      -0.03703704      -0.07407407 </v>
     <v>      -0.01851852       0.20370370      -0.09259259 </v>
     <v>      -0.02469136      -0.06172840       0.20987654 </v>
    </varray>
   </crystal>
   <varray name="positions" >
    <v>       0.50000000       0.50000000       0.00000000 </v>
    <v>       0.00000000       0.50000000       0.50000000 </v>
    <v>       0.50000000       0.00000000       0.50000000 </v>
    <v>       0.31195000       0.31195000       0.31195000 </v>
    <v>       0.68805000       0.68805000       0.31195000 </v>
    <v>       0.31195000       0.68805000       0.68805000 </v>
    <v>       0.68805000       0.31195000       0.68805000 </v>
   </varray>
  </structure>
  <varray name="forces" >
   <v>      25.95669015      17.30731175     -55.95336512 </v>
   <v>       8.59190927      10.80221443       3.18652163 </v>
   <v>      26.21321666     -10.12339257      10.59288288 </v>
   <v>     -37.39995730      -0.17159828      40.12272530 </v>
   <v>      -4.20932295       9.07945616     -15.65859883 </v>
   <v>     -12.05942833      -8.24802171       3.06428616 </v>
   <v>      -7.09310750     -18.64596977      14.64554798 </v>
  </varray>
  <varray name="stress" >
   <v>     712.08836587     -42.67404036    -173.72098734 </v>
   <v>     -42.67400916     724.43090588    -534.23447811 </v>
   <v>    -173.72101365    -534.23448809    1120.95455235 </v>
  </varray>
  <energy>
   <i name="e_fr_energy">      6.14543378 </i>
   <i name="e_wo_entrp">      6.16410341 </i>
   <i name="e_0_energy">     -0.05600889 </i>
  </energy>
  <kpoints>
   <generation param="Gamma">
    <v type="int" name="divisions">       1        1        1 </v>
    <v name="usershift">      0.00000000       0.00000000       0.00000000 </v>
    <v name="genvec1">      1.00000000       0.00000000       0.00000000 </v>
    <v name="genvec2">      0.00000000       1.00000000       0.00000000 </v>
    <v name="genvec3">      0.00000000       0.00000000       1.00000000 </v>
    <v name="shift">      0.00000000       0.00000000       0.00000000 </v>
   </generation>
   <varray name="kpointlist" >
    <v>       0.00000000       0.00000000       0.00000000 </v>
   </varray>
   <varray name="weights" >
    <v>       1.00000000 </v>
   </varray>
  </kpoints>
  <time name="totalsc">   45.25   21.14</time>
 </calculation>
 <calculation>
  <scstep>
   <time name="dav">    2.23    0.60</time>
   <time name="total">    3.55    1.69</time>
   <energy>
    <i name="alphaZ">     65.88305281 </i>
    <i name="ewald">   -623.03980469 </i>
    <i name="hartreedc">   -232.95514185 </i>
    <i name="XCdc">   -101.66863015 </i>
    <i name="pawpsdc">    693.45087826 </i>
    <i name="pawaedc">   -540.64453475 </i>
    <i name="eentropy">     -0.05596958 </i>
    <i name="bandstr">   -111.98264152 </i>
    <i name="atom">    856.89852722 </i>
    <i name="e_fr_energy">      5.88573573 </i>
    <i name="e_wo_entrp">      5.94170532 </i>
    <i name="e_0_energy">      5.90439226 </i>
   </energy>
  </scstep>
  <scstep>
   <time name="dav">    3.14    0.85</time>
   <time name="total">    4.00    1.58</time>
   <energy>
    <i name="e_fr_energy">      5.88575722 </i>
    <i name="e_wo_entrp">      5.94172479 </i>
    <i name="e_0_energy">      5.90441308 </i>
   </energy>
  </scstep>
  <scstep>
   <time name="dav">    1.76    0.47</time>
   <time name="total">    2.51    1.11</time>
   <energy>
    <i name="e_fr_energy">      5.88578123 </i>
    <i name="e_wo_entrp">      5.94174647 </i>
    <i name="e_0_energy">      5.90443631 </i>
   </energy>
  </scstep>
  <scstep>
   <time name="dav">    2.77    0.75</time>
   <time name="total">    3.66    1.47</time>
   <energy>
    <i name="e_fr_energy">      5.88578468 </i>
    <i name="e_wo_entrp">      5.94174924 </i>
    <i name="e_0_energy">      5.90443953 </i>
   </energy>
  </scstep>
  <scstep>
   <time name="dav">    1.07    0.29</time>
   <time name="total">    1.67    0.83</time>
   <energy>
    <i name="alphaZ">     65.88305281 </i>
    <i name="ewald">   -623.03980469 </i>
    <i name="hartreedc">   -232.98712965 </i>
    <i name="XCdc">   -101.67036607 </i>
    <i name="pawpsdc">    692.62551290 </i>
    <i name="pawaedc">   -539.80892797 </i>
    <i name="eentropy">     -0.05596448 </i>
    <i name="bandstr">   -111.95911468 </i>
    <i name="atom">    856.89852722 </i>
    <i name="e_fr_energy">      5.88578539 </i>
    <i name="e_wo_entrp">      5.94174988 </i>
    <i name="e_0_energy">      5.90444022 </i>
   </energy>
  </scstep>
  <structure>
   <crystal>
    <varray name="basis" >
     <v>       6.00000000       1.00000000       1.00000000 </v>
     <v>       2.00000000       6.00000000       2.00000000 </v>
     <v>       3.00000000       3.00000000       6.00000000 </v>
    </varray>
    <i name="volume">    162.00000000 </i>
    <varray name="rec_basis" >
     <v>       0.18518519      -0.03703704      -0.07407407 </v>
     <v>      -0.01851852       0.20370370      -0.09259259 </v>
     <v>      -0.02469136      -0.06172840       0.20987654 </v>
    </varray>
   </crystal>
   <varray name="positions" >
    <v>       0.50185185       0.49981481      -0.00024691 </v>
    <v>       0.00000000       0.50000000       0.50000000 </v>
    <v>       0.50000000       0.00000000       0.50000000 </v>
    <v>       0.31195000       0.31195000       0.31195000 </v>
    <v>       0.68805000       0.68805000       0.31195000 </v>
    <v>       0.31195000       0.68805000       0.68805000 </v>
    <v>       0.68805000       0.31195000       0.68805000 </v>
   </varray>
  </structure>
  <varray name="forces" >
   <v>      25.97298530      17.08041156     -55.16368735 </v>
   <v>       8.59247418      10.79144866       3.17648849 </v>
   <v>      26.21394483     -10.13915086      10.60483390 </v>
   <v>     -37.46693875       0.07723942      39.27408311 </v>
   <v>      -4.20078081       9.08761557     -15.65812012 </v>
   <v>     -12.01407909      -8.25394252       3.10995936 </v>
   <v>      -7.09760564     -18.64362182      14.65644260 </v>
  </varray>
  <varray name="stress" >
   <v>     714.02242572     -42.29103184    -174.95929898 </v>
   <v>     -42.29102405     723.46319338    -531.33704718 </v>
   <v>    -174.95914996    -531.33701349    1108.87013802 </v>
  </varray>
  <energy>
   <i name="e_fr_energy">      5.88578539 </i>
   <i name="e_wo_entrp">      5.90444022 </i>
   <i name="e_0_energy">     -0.05596448 </i>
  </energy>
  <kpoints>
   <generation param="Gamma">
    <v type="int" name="divisions">       1        1        1 </v>
    <v name="usershift">      0.00000000       0.00000000       0.00000000 </v>
    <v name="genvec1">      1.00000000       0.00000000       0.00000000 </v>
    <v name="genvec2">      0.00000000       1.00000000       0.00000000 </v>
    <v name="genvec3">      0.00000000       0.00000000       1.00000000 </v>
    <v name="shift">      0.00000000       0.00000000       0.00000000 </v>
   </generation>
   <varray name="kpointlist" >
    <v>       0.00000000       0.00000000       0.00000000 </v>
   </varray>
   <varray name="weights" >
    <v>       1.00000000 </v>
   </varray>
  </kpoints>
  <time name="totalsc">   19.61   10.00</time>
 </calculation>
 <calculation>
  <scstep>
   <time name="dav">    1.77    0.46</time>
   <time name="total">    2.83    1.20</time>
   <energy>
    <i name="alphaZ">     65.88305281 </i>
    <i name="ewald">   -621.81362414 </i>
    <i name="hartreedc">   -233.58385165 </i>
    <i name="XCdc">   -101.68239606 </i>
    <i name="pawpsdc">    692.62082601 </i>
    <i name="pawaedc">   -539.80417860 </i>
    <i name="eentropy">     -0.05604203 </i>
    <i name="bandstr">   -112.05759607 </i>
    <i name="atom">    856.89852722 </i>
    <i name="e_fr_energy">      6.40471749 </i>
    <i name="e_wo_entrp">      6.46075952 </i>
    <i name="e_0_energy">      6.42339817 </i>
   </energy>
  </scstep>
  <scstep>
   <time name="dav">    3.06    0.83</time>
   <time name="total">    4.16    1.84</time>
   <energy>
    <i name="e_fr_energy">      6.40477962 </i>
    <i name="e_wo_entrp">      6.46082447 </i>
    <i name="e_0_energy">      6.42346124 </i>
   </energy>
  </scstep>
  <scstep>
   <time name="dav">    1.69    0.44</time>
   <time name="total">    2.44    1.08</time>
   <energy>
    <i name="e_fr_energy">      6.40484975 </i>
    <i name="e_wo_entrp">      6.46089860 </i>
    <i name="e_0_energy">      6.42353270 </i>
   </energy>
  </scstep>
  <scstep>
   <time name="dav">    2.07    0.54</time>
   <time name="total">    2.85    1.19</time>
   <energy>
    <i name="e_fr_energy">      6.40485194 </i>
    <i name="e_wo_entrp">      6.46090195 </i>
    <i name="e_0_energy">      6.42353528 </i>
   </energy>
  </scstep>
  <scstep>
   <time name="dav">    1.35    0.36</time>
   <time name="total">    2.20    1.03</time>
   <energy>
    <i name="e_fr_energy">      6.40485089 </i>
    <i name="e_wo_entrp">      6.46090098 </i>
    <i name="e_0_energy">      6.42353425 </i>
   </energy>
  </scstep>
  <scstep>
   <time name="dav">    0.96    0.26</time>
   <time name="total">    1.58    0.79</time>
   <energy>
    <i name="alphaZ">     65.88305281 </i>
    <i name="ewald">   -621.81362414 </i>
    <i name="hartreedc">   -233.51967908 </i>
    <i name="XCdc">   -101.67872696 </i>
    <i name="pawpsdc">    694.27223863 </i>
    <i name="pawaedc">   -541.47614003 </i>
    <i name="eentropy">     -0.05605005 </i>
    <i name="bandstr">   -112.10474769 </i>
    <i name="atom">    856.89852722 </i>
    <i name="e_fr_energy">      6.40485071 </i>
    <i name="e_wo_entrp">      6.46090076 </i>
    <i name="e_0_energy">      6.42353406 </i>
   </energy>
  </scstep>
  <structure>
   <crystal>
    <varray name="basis" >
     <v>       6.00000000       1.00000000       1.00000000 </v>
     <v>       2.00000000       6.00000000       2.00000000 </v>
     <v>       3.00000000       3.00000000       6.00000000 </v>
    </varray>
    <i name="volume">    162.00000000 </i>
    <varray name="rec_basis" >
     <v>       0.18518519      -0.03703704      -0.07407407 </v>
     <v>      -0.01851852       0.20370370      -0.09259259 </v>
     <v>      -0.02469136      -0.06172840       0.20987654 </v>
    </varray>
   </crystal>
   <varray name="positions" >
    <v>       0.49814815       0.50018519       0.00024691 </v>
    <v>       0.00000000       0.50000000       0.50000000 </v>
    <v>       0.50000000       0.00000000       0.50000000 </v>
    <v>       0.31195000       0.31195000       0.31195000 </v>
    <v>       0.68805000       0.68805000       0.31195000 </v>
    <v>       0.31195000       0.68805000       0.68805000 </v>
    <v>       0.68805000       0.31195000       0.68805000 </v>
   </varray>
  </structure>
  <varray name="forces" >
   <v>      25.92671628      17.53295116     -56.73868276 </v>
   <v>       8.59163915      10.81298711       3.19657010 </v>
   <v>      26.21222115     -10.10746411      10.58080010 </v>
   <v>     -37.31879497      -0.41953900      40.96808463 </v>
   <v>      -4.21820928       9.07130263     -15.65921036 </v>
   <v>     -12.10506218      -8.24198529       3.01769607 </v>
   <v>      -7.08851016     -18.64825250      14.63474222 </v>
  </varray>
  <varray name="stress" >
   <v>     710.07915936     -43.11248627    -172.29218253 </v>
   <v>     -43.11262383     725.39274219    -537.11910235 </v>
   <v>    -172.29206399    -537.11905161    1133.02353242 </v>
  </varray>
  <energy>
   <i name="e_fr_energy">      6.40485071 </i>
   <i name="e_wo_entrp">      6.42353406 </i>
   <i name="e_0_energy">     -0.05605005 </i>
  </energy>
  <kpoints>
   <generation param="Gamma">
    <v type="int" name="divisions">       1        1        1 </v>
    <v name="usershift">      0.00000000       0.00000000       0.00000000 </v>
    <v name="genvec1">      1.00000000       0.00000000       0.00000000 </v>
    <v name="genvec2">      0.00000000       1.00000000       0.00000000 </v>
    <v name="genvec3">      0.00000000       0.00000000       1.00000000 </v>
    <v name="shift">      0.00000000       0.00000000       0.00000000 </v>
   </generation>
   <varray name="kpointlist" >
    <v>       0.00000000       0.00000000       0.00000000 </v>
   </varray>
   <varray name="weights" >
    <v>       1.00000000 </v>
   </varray>
  </kpoints>
  <time name="totalsc">   20.19   10.26</time>
 </calculation>
 <calculation>
  <scstep>
   <time name="dav">    1.76    0.46</time>
   <time name="total">    2.81    1.18</time>
   <energy>
    <i name="alphaZ">     65.88305281 </i>
    <i name="ewald">   -622.82565797 </i>
    <i name="hartreedc">   -233.01615957 </i>
    <i name="XCdc">   -101.67000533 </i>
    <i name="pawpsdc">    694.27681949 </i>
    <i name="pawaedc">   -541.48077401 </i>
    <i name="eentropy">     -0.05594670 </i>
    <i name="bandstr">   -112.03870205 </i>
    <i name="atom">    856.89852722 </i>
    <i name="e_fr_energy">      5.97115389 </i>
    <i name="e_wo_entrp">      6.02710059 </i>
    <i name="e_0_energy">      5.98980279 </i>
   </energy>
  </scstep>
  <scstep>
   <time name="dav">    2.08    0.55</time>
   <time name="total">    2.92    1.29</time>
   <energy>
    <i name="e_fr_energy">      5.97123382 </i>
    <i name="e_wo_entrp">      6.02717460 </i>
    <i name="e_0_energy">      5.98988075 </i>
   </energy>
  </scstep>
  <scstep>
   <time name="dav">    2.83    0.76</time>
   <time name="total">    3.70    1.49</time>
   <energy>
    <i name="e_fr_energy">      5.97129192 </i>
    <i name="e_wo_entrp">      6.02723020 </i>
    <i name="e_0_energy">      5.98993801 </i>
   </energy>
  </scstep>
  <scstep>
   <time name="dav">    1.92    0.50</time>
   <time name="total">    2.73    1.14</time>
   <energy>
    <i name="e_fr_energy">      5.97129950 </i>
    <i name="e_wo_entrp">      6.02723661 </i>
    <i name="e_0_energy">      5.98994521 </i>
   </energy>
  </scstep>
  <scstep>
   <time name="dav">    1.11    0.30</time>
   <time name="total">    2.06    1.00</time>
   <energy>
    <i name="e_fr_energy">      5.97130084 </i>
    <i name="e_wo_entrp">      6.02723778 </i>
    <i name="e_0_energy">      5.98994649 </i>
   </energy>
  </scstep>
  <scstep>
   <time name="dav">    1.06    0.28</time>
   <time name="total">    1.79    0.86</time>
   <energy>
    <i name="alphaZ">     65.88305281 </i>
    <i name="ewald">   -622.82565797 </i>
    <i name="hartreedc">   -233.07107523 </i>
    <i name="XCdc">   -101.67220633 </i>
    <i name="pawpsdc">    692.96312197 </i>
    <i name="pawaedc">   -540.14915473 </i>
    <i name="eentropy">     -0.05593705 </i>
    <i name="bandstr">   -111.99936968 </i>
    <i name="atom">    856.89852722 </i>
    <i name="e_fr_energy">      5.97130101 </i>
    <i name="e_wo_entrp">      6.02723806 </i>
    <i name="e_0_energy">      5.98994670 </i>
   </energy>
  </scstep>
  <structure>
   <crystal>
    <varray name="basis" >
     <v>       6.00000000       1.00000000       1.00000000 </v>
     <v>       2.00000000       6.00000000       2.00000000 </v>
     <v>       3.00000000       3.00000000       6.00000000 </v>
    </varray>
    <i name="volume">    162.00000000 </i>
    <varray name="rec_basis" >
     <v>       0.18518519      -0.03703704      -0.07407407 </v>
     <v>      -0.01851852       0.20370370      -0.09259259 </v>
     <v>      -0.02469136      -0.06172840       0.20987654 </v>
    </varray>
   </crystal>
   <varray name="positions" >
    <v>       0.49962963       0.50203704      -0.00061728 </v>
    <v>       0.00000000       0.50000000       0.50000000 </v>
    <v>       0.50000000       0.00000000       0.50000000 </v>
    <v>       0.31195000       0.31195000       0.31195000 </v>
    <v>       0.68805000       0.68805000       0.31195000 </v>
    <v>       0.31195000       0.68805000       0.68805000 </v>
    <v>       0.68805000       0.31195000       0.68805000 </v>
   </varray>
  </structure>
  <varray name="forces" >
   <v>      25.72814283      17.51872219     -55.35063063 </v>
   <v>       8.58622599      10.79428062       3.18514679 </v>
   <v>      26.19769496     -10.08886995      10.55314373 </v>
   <v>     -37.15208014      -0.42682990      39.54538655 </v>
   <v>      -4.20470645       9.08802948     -15.66261842 </v>
   <v>     -12.07496491      -8.25750537       3.06617748 </v>
   <v>      -7.08031228     -18.62782708      14.66339449 </v>
  </varray>
  <varray name="stress" >
   <v>     710.71444817     -41.16957404    -170.71165442 </v>
   <v>     -41.16951651     726.44463563    -537.53888357 </v>
   <v>    -170.71163020    -537.53889601    1113.28182552 </v>
  </varray>
  <energy>
   <i name="e_fr_energy">      5.97130101 </i>
   <i name="e_wo_entrp">      5.98994670 </i>
   <i name="e_0_energy">     -0.05593705 </i>
  </energy>
  <kpoints>
   <generation param="Gamma">
    <v type="int" name="divisions">       1        1        1 </v>
    <v name="usershift">      0.00000000       0.00000000       0.00000000 </v>
    <v name="genvec1">      1.00000000       0.00000000       0.00000000 </v>
    <v name="genvec2">      0.00000000       1.00000000       0.00000000 </v>
    <v name="genvec3">      0.00000000       0.00000000       1.00000000 </v>
    <v name="shift">      0.00000000       0.00000000       0.00000000 </v>
   </generation>
   <varray name="kpointlist" >
    <v>       0.00000000       0.00000000       0.00000000 </v>
   </varray>
   <varray name="weights" >
    <v>       1.00000000 </v>
   </varray>
  </kpoints>
  <time name="totalsc">   20.20   10.12</time>
 </calculation>
 <calculation>
  <scstep>
   <time name="dav">    1.72    0.45</time>
   <time name="total">    2.78    1.19</time>
   <energy>
    <i name="alphaZ">     65.88305281 </i>
    <i name="ewald">   -622.02860750 </i>
    <i name="hartreedc">   -233.48192590 </i>
    <i name="XCdc">   -101.67792878 </i>
    <i name="pawpsdc">    692.96222542 </i>
    <i name="pawaedc">   -540.14824821 </i>
    <i name="eentropy">     -0.05606567 </i>
    <i name="bandstr">   -112.03373665 </i>
    <i name="atom">    856.89852722 </i>
    <i name="e_fr_energy">      6.31729274 </i>
    <i name="e_wo_entrp">      6.37335841 </i>
    <i name="e_0_energy">      6.33598130 </i>
   </energy>
  </scstep>
  <scstep>
   <time name="dav">    3.14    0.85</time>
   <time name="total">    4.32    1.89</time>
   <energy>
    <i name="e_fr_energy">      6.31734086 </i>
    <i name="e_wo_entrp">      6.37340995 </i>
    <i name="e_0_energy">      6.33603056 </i>
   </energy>
  </scstep>
  <scstep>
   <time name="dav">    3.35    0.92</time>
   <time name="total">    4.10    1.56</time>
   <energy>
    <i name="e_fr_energy">      6.31739602 </i>
    <i name="e_wo_entrp">      6.37346589 </i>
    <i name="e_0_energy">      6.33608598 </i>
   </energy>
  </scstep>
  <scstep>
   <time name="dav">    1.69    0.44</time>
   <time name="total">    2.47    1.08</time>
   <energy>
    <i name="e_fr_energy">      6.31739664 </i>
    <i name="e_wo_entrp">      6.37346714 </i>
    <i name="e_0_energy">      6.33608680 </i>
   </energy>
  </scstep>
  <scstep>
   <time name="dav">    1.11    0.30</time>
   <time name="total">    1.75    0.87</time>
   <energy>
    <i name="alphaZ">     65.88305281 </i>
    <i name="ewald">   -622.02860750 </i>
    <i name="hartreedc">   -233.43624638 </i>
    <i name="XCdc">   -101.67690186 </i>
    <i name="pawpsdc">    693.92388866 </i>
    <i name="pawaedc">   -541.12496933 </i>
    <i name="eentropy">     -0.05607055 </i>
    <i name="bandstr">   -112.06527733 </i>
    <i name="atom">    856.89852722 </i>
    <i name="e_fr_energy">      6.31739576 </i>
    <i name="e_wo_entrp">      6.37346631 </i>
    <i name="e_0_energy">      6.33608595 </i>
   </energy>
  </scstep>
  <structure>
   <crystal>
    <varray name="basis" >
     <v>       6.00000000       1.00000000       1.00000000 </v>
     <v>       2.00000000       6.00000000       2.00000000 </v>
     <v>       3.00000000       3.00000000       6.00000000 </v>
    </varray>
    <i name="volume">    162.00000000 </i>
    <varray name="rec_basis" >
     <v>       0.18518519      -0.03703704      -0.07407407 </v>
     <v>      -0.01851852       0.20370370      -0.09259259 </v>
     <v>      -0.02469136      -0.06172840       0.20987654 </v>
    </varray>
   </crystal>
   <varray name="positions" >
    <v>       0.50037037       0.49796296       0.00061728 </v>
    <v>       0.00000000       0.50000000       0.50000000 </v>
    <v>       0.50000000       0.00000000       0.50000000 </v>
    <v>       0.31195000       0.31195000       0.31195000 </v>
    <v>       0.68805000       0.68805000       0.31195000 </v>
    <v>       0.31195000       0.68805000       0.68805000 </v>
    <v>       0.68805000       0.31195000       0.68805000 </v>
   </varray>
  </structure>
  <varray name="forces" >
   <v>      26.18059862      17.08452872     -56.54640250 </v>
   <v>       8.59758468      10.80991821       3.18759966 </v>
   <v>      26.22856370     -10.15771239      10.63266455 </v>
   <v>     -37.64350250       0.09516988      40.69029563 </v>
   <v>      -4.21399035       9.07087477     -15.65483036 </v>
   <v>     -12.04373134      -8.23863207       3.06281525 </v>
   <v>      -7.10552281     -18.66414712      14.62785778 </v>
  </varray>
  <varray name="stress" >
   <v>     713.44062862     -44.24602210    -176.67426335 </v>
   <v>     -44.24606458     722.43483556    -530.79137906 </v>
   <v>    -176.67437688    -530.79143329    1128.52562673 </v>
  </varray>
  <energy>
   <i name="e_fr_energy">      6.31739576 </i>
   <i name="e_wo_entrp">      6.33608595 </i>
   <i name="e_0_energy">     -0.05607055 </i>
  </energy>
  <kpoints>
   <generation param="Gamma">
    <v type="int" name="divisions">       1        1        1 </v>
    <v name="usershift">      0.00000000       0.00000000       0.00000000 </v>
    <v name="genvec1">      1.00000000       0.00000000       0.00000000 </v>
    <v name="genvec2">      0.00000000       1.00000000       0.00000000 </v>
    <v name="genvec3">      0.00000000       0.00000000       1.00000000 </v>
    <v name="shift">      0.00000000       0.00000000       0.00000000 </v>
   </generation>
   <varray name="kpointlist" >
    <v>       0.00000000       0.00000000       0.00000000 </v>
   </varray>
   <varray name="weights" >
    <v>       1.00000000 </v>
   </varray>
  </kpoints>
  <time name="totalsc">   19.56    9.72</time>
 </calculation>
 <calculation>
  <scstep>
   <time name="dav">    1.70    0.45</time>
   <time name="total">    2.80    1.22</time>
   <energy>
    <i name="alphaZ">     65.88305281 </i>
    <i name="ewald">   -621.93621993 </i>
    <i name="hartreedc">   -233.23690802 </i>
    <i name="XCdc">   -101.70083525 </i>
    <i name="pawpsdc">    693.92991106 </i>
    <i name="pawaedc">   -541.13111857 </i>
    <i name="eentropy">     -0.05603853 </i>
    <i name="bandstr">   -111.93715547 </i>
    <i name="atom">    856.89852722 </i>
    <i name="e_fr_energy">      6.71321533 </i>
    <i name="e_wo_entrp">      6.76925386 </i>
    <i name="e_0_energy">      6.73189484 </i>
   </energy>
  </scstep>
  <scstep>
   <time name="dav">    3.17    0.86</time>
   <time name="total">    4.31    1.86</time>
   <energy>
    <i name="e_fr_energy">      6.71329862 </i>
    <i name="e_wo_entrp">      6.76933126 </i>
    <i name="e_0_energy">      6.73197616 </i>
   </energy>
  </scstep>
  <scstep>
   <time name="dav">    2.79    0.75</time>
   <time name="total">    3.61    1.44</time>
   <energy>
    <i name="e_fr_energy">      6.71335353 </i>
    <i name="e_wo_entrp">      6.76938853 </i>
    <i name="e_0_energy">      6.73203186 </i>
   </energy>
  </scstep>
  <scstep>
   <time name="dav">    2.77    0.75</time>
   <time name="total">    3.67    1.48</time>
   <energy>
    <i name="e_fr_energy">      6.71335534 </i>
    <i name="e_wo_entrp">      6.76939160 </i>
    <i name="e_0_energy">      6.73203410 </i>
   </energy>
  </scstep>
  <scstep>
   <time name="dav">    1.12    0.30</time>
   <time name="total">    1.83    0.92</time>
   <energy>
    <i name="alphaZ">     65.88305281 </i>
    <i name="ewald">   -621.93621993 </i>
    <i name="hartreedc">   -233.15836495 </i>
    <i name="XCdc">   -101.70045186 </i>
    <i name="pawpsdc">    694.57368765 </i>
    <i name="pawaedc">   -541.78374095 </i>
    <i name="eentropy">     -0.05603634 </i>
    <i name="bandstr">   -112.00709867 </i>
    <i name="atom">    856.89852722 </i>
    <i name="e_fr_energy">      6.71335498 </i>
    <i name="e_wo_entrp">      6.76939132 </i>
    <i name="e_0_energy">      6.73203376 </i>
   </energy>
  </scstep>
  <structure>
   <crystal>
    <varray name="basis" >
     <v>       6.00000000       1.00000000       1.00000000 </v>
     <v>       2.00000000       6.00000000       2.00000000 </v>
     <v>       3.00000000       3.00000000       6.00000000 </v>
    </varray>
    <i name="volume">    162.00000000 </i>
    <varray name="rec_basis" >
     <v>       0.18518519      -0.03703704      -0.07407407 </v>
     <v>      -0.01851852       0.20370370      -0.09259259 </v>
     <v>      -0.02469136      -0.06172840       0.20987654 </v>
    </varray>
   </crystal>
   <varray name="positions" >
    <v>       0.49925926       0.49907407       0.00209877 </v>
    <v>       0.00000000       0.50000000       0.50000000 </v>
    <v>       0.50000000       0.00000000       0.50000000 </v>
    <v>       0.31195000       0.31195000       0.31195000 </v>
    <v>       0.68805000       0.68805000       0.31195000 </v>
    <v>       0.31195000       0.68805000       0.68805000 </v>
    <v>       0.68805000       0.31195000       0.68805000 </v>
   </varray>
  </structure>
  <varray name="forces" >
   <v>      26.75595157      17.91285924     -57.63662155 </v>
   <v>       8.59320339      10.81158218       3.20523275 </v>
   <v>      26.23709655     -10.17998408      10.65904924 </v>
   <v>     -38.27056886      -0.74070533      41.68557549 </v>
   <v>      -4.20979805       9.08165956     -15.65866110 </v>
   <v>     -12.00455029      -8.25098607       3.09572543 </v>
   <v>      -7.10133430     -18.63442550      14.64969975 </v>
  </varray>
  <varray name="stress" >
   <v>     716.32998733     -39.61256781    -183.16686459 </v>
   <v>     -39.61249779     726.60251721    -540.38714676 </v>
   <v>    -183.16683831    -540.38716739    1135.15762074 </v>
  </varray>
  <energy>
   <i name="e_fr_energy">      6.71335498 </i>
   <i name="e_wo_entrp">      6.73203376 </i>
   <i name="e_0_energy">     -0.05603634 </i>
  </energy>
  <kpoints>
   <generation param="Gamma">
    <v type="int" name="divisions">       1        1        1 </v>
    <v name="usershift">      0.00000000       0.00000000       0.00000000 </v>
    <v name="genvec1">      1.00000000       0.00000000       0.00000000 </v>
    <v name="genvec2">      0.00000000       1.00000000       0.00000000 </v>
    <v name="genvec3">      0.00000000       0.00000000       1.00000000 </v>
    <v name="shift">      0.00000000       0.00000000       0.00000000 </v>
   </generation>
   <varray name="kpointlist" >
    <v>       0.00000000       0.00000000       0.00000000 </v>
   </varray>
   <varray name="weights" >
    <v>       1.00000000 </v>
   </varray>
  </kpoints>
  <time name="totalsc">   20.61   10.32</time>
 </calculation>
 <calculation>
  <scstep>
   <time name="dav">    1.76    0.46</time>
   <time name="total">    2.83    1.20</time>
   <energy>
    <i name="alphaZ">     65.88305281 </i>
    <i name="ewald">   -622.89894326 </i>
    <i name="hartreedc">   -233.15132308 </i>
    <i name="XCdc">   -101.64805936 </i>
    <i name="pawpsdc">    694.58262543 </i>
    <i name="pawaedc">   -541.79282932 </i>
    <i name="eentropy">     -0.05598270 </i>
    <i name="bandstr">   -112.22388259 </i>
    <i name="atom">    856.89852722 </i>
    <i name="e_fr_energy">      5.59318515 </i>
    <i name="e_wo_entrp">      5.64916786 </i>
    <i name="e_0_energy">      5.61184606 </i>
   </energy>
  </scstep>
  <scstep>
   <time name="dav">    3.09    0.83</time>
   <time name="total">    4.22    1.86</time>
   <energy>
    <i name="e_fr_energy">      5.59389923 </i>
    <i name="e_wo_entrp">      5.64988887 </i>
    <i name="e_0_energy">      5.61256244 </i>
   </energy>
  </scstep>
  <scstep>
   <time name="dav">    1.97    0.52</time>
   <time name="total">    2.71    1.16</time>
   <energy>
    <i name="e_fr_energy">      5.59421365 </i>
    <i name="e_wo_entrp">      5.65019785 </i>
    <i name="e_0_energy">      5.61287505 </i>
   </energy>
  </scstep>
  <scstep>
   <time name="dav">    2.00    0.53</time>
   <time name="total">    2.78    1.17</time>
   <energy>
    <i name="e_fr_energy">      5.59424214 </i>
    <i name="e_wo_entrp">      5.65022274 </i>
    <i name="e_0_energy">      5.61290234 </i>
   </energy>
  </scstep>
  <scstep>
   <time name="dav">    1.59    0.42</time>
   <time name="total">    2.43    1.09</time>
   <energy>
    <i name="e_fr_energy">      5.59424566 </i>
    <i name="e_wo_entrp">      5.65022580 </i>
    <i name="e_0_energy">      5.61290571 </i>
   </energy>
  </scstep>
  <scstep>
   <time name="dav">    1.02    0.27</time>
   <time name="total">    1.65    0.81</time>
   <energy>
    <i name="alphaZ">     65.88305281 </i>
    <i name="ewald">   -622.89894326 </i>
    <i name="hartreedc">   -233.34915003 </i>
    <i name="XCdc">   -101.64910271 </i>
    <i name="pawpsdc">    692.33508799 </i>
    <i name="pawaedc">   -539.51254072 </i>
    <i name="eentropy">     -0.05598047 </i>
    <i name="bandstr">   -112.05670499 </i>
    <i name="atom">    856.89852722 </i>
    <i name="e_fr_energy">      5.59424584 </i>
    <i name="e_wo_entrp">      5.65022631 </i>
    <i name="e_0_energy">      5.61290600 </i>
   </energy>
  </scstep>
  <structure>
   <crystal>
    <varray name="basis" >
     <v>       6.00000000       1.00000000       1.00000000 </v>
     <v>       2.00000000       6.00000000       2.00000000 </v>
     <v>       3.00000000       3.00000000       6.00000000 </v>
    </varray>
    <i name="volume">    162.00000000 </i>
    <varray name="rec_basis" >
     <v>       0.18518519      -0.03703704      -0.07407407 </v>
     <v>      -0.01851852       0.20370370      -0.09259259 </v>
     <v>      -0.02469136      -0.06172840       0.20987654 </v>
    </varray>
   </crystal>
   <varray name="positions" >
    <v>       0.50074074       0.50092593      -0.00209877 </v>
    <v>       0.00000000       0.50000000       0.50000000 </v>
    <v>       0.50000000       0.00000000       0.50000000 </v>
    <v>       0.31195000       0.31195000       0.31195000 </v>
    <v>       0.68805000       0.68805000       0.31195000 </v>
    <v>       0.31195000       0.68805000       0.68805000 </v>
    <v>       0.68805000       0.31195000       0.68805000 </v>
   </varray>
  </structure>
  <varray name="forces" >
   <v>      25.18076876      16.71676549     -54.28983273 </v>
   <v>       8.59071845      10.79286568       3.16777607 </v>
   <v>      26.18959321     -10.06724412      10.52707509 </v>
   <v>     -36.55184778       0.38286543      38.58045298 </v>
   <v>      -4.20905792       9.07712384     -15.65881329 </v>
   <v>     -12.11541176      -8.24480360       3.03194462 </v>
   <v>      -7.08476296     -18.65757270      14.64139727 </v>
  </varray>
  <varray name="stress" >
   <v>     708.00981279     -45.66578556    -164.36879370 </v>
   <v>     -45.66574297     722.35179189    -528.17640632 </v>
   <v>    -164.36874896    -528.17635769    1106.76667586 </v>
  </varray>
  <energy>
   <i name="e_fr_energy">      5.59424584 </i>
   <i name="e_wo_entrp">      5.61290600 </i>
   <i name="e_0_energy">     -0.05598047 </i>
  </energy>
  <dynmat>
   <varray name="hessian" >
    <v>       0.03318060      -0.32449672       1.12953337 </v>
    <v>      -0.32449672       0.31137033       0.85763149 </v>
    <v>       1.12953337       0.85763149      -2.40006083 </v>
   </varray>
   <v name="eigenvalues"> -3.09068224E+00  4.75231294E-01  5.59941050E-01</v>
   <varray name="eigenvectors" >
    <v>  -3.52113487E-01 -2.60229935E-01  8.99053098E-01</v>
    <v>  -9.35546058E-01  1.26329663E-01 -3.29839946E-01</v>
    <v>   2.77428467E-02  9.57246675E-01  2.87939468E-01</v>
   </varray>
  </dynmat>
  <kpoints>
   <generation param="Gamma">
    <v type="int" name="divisions">       1        1        1 </v>
    <v name="usershift">      0.00000000       0.00000000       0.00000000 </v>
    <v name="genvec1">      1.00000000       0.00000000       0.00000000 </v>
    <v name="genvec2">      0.00000000       1.00000000       0.00000000 </v>
    <v name="genvec3">      0.00000000       0.00000000       1.00000000 </v>
    <v name="shift">      0.00000000       0.00000000       0.00000000 </v>
   </generation>
   <varray name="kpointlist" >
    <v>       0.00000000       0.00000000       0.00000000 </v>
   </varray>
   <varray name="weights" >
    <v>       1.00000000 </v>
   </varray>
  </kpoints>
  <time name="totalsc">   20.40   10.16</time>
  <eigenvalues>
   <array>
    <dimension dim="1">band</dimension>
    <dimension dim="2">kpoint</dimension>
    <dimension dim="3">spin</dimension>
    <field>eigene</field>
    <field>occ</field>
    <set>
     <set comment="spin 1">
      <set comment="kpoint 1">
       <r>  -14.4900    1.0000 </r>
       <r>  -12.0531    1.0000 </r>
       <r>   -9.5372    1.0000 </r>
       <r>   -6.1283    1.0000 </r>
       <r>   -5.2517    1.0000 </r>
       <r>   -4.6397    1.0000 </r>
       <r>   -3.8289    1.0000 </r>
       <r>   -2.6109    1.0000 </r>
       <r>   -2.1515    1.0000 </r>
       <r>   -1.8946    1.0000 </r>
       <r>   -0.2558    1.0000 </r>
       <r>    0.8866    1.0000 </r>
       <r>    1.8675    1.0000 </r>
       <r>    2.1928    1.0000 </r>
       <r>    3.7333    0.5004 </r>
       <r>    4.2810   -0.0004 </r>
       <r>    5.0332    0.0000 </r>
       <r>    5.8405    0.0000 </r>
      </set>
     </set>
    </set>
   </array>
  </eigenvalues>
  <separator name="orbital magnetization" >
   <v name="MAGDIPOLOUT">      0.00000000      0.00000000      0.00000000</v>
  </separator>
  <dos>
   <i name="efermi">      3.73343778 </i>
   <total>
    <array>
     <dimension dim="1">gridpoints</dimension>
     <dimension dim="2">spin</dimension>
     <field>energy</field>
     <field>total</field>
     <field>integrated</field>
     <set>
      <set comment="spin 1">
       <r> -16.4900   0.0000   0.0000 </r>
       <r> -16.4089   0.0000   0.0000 </r>
       <r> -16.3278   0.0000   0.0000 </r>
       <r> -16.2467   0.0000   0.0000 </r>
       <r> -16.1656   0.0000   0.0000 </r>
       <r> -16.0845   0.0000   0.0000 </r>
       <r> -16.0034   0.0000   0.0000 </r>
       <r> -15.9223   0.0000   0.0000 </r>
       <r> -15.8412   0.0000   0.0000 </r>
       <r> -15.7601   0.0000   0.0000 </r>
       <r> -15.6790   0.0000   0.0000 </r>
       <r> -15.5979   0.0000   0.0000 </r>
       <r> -15.5168   0.0000   0.0000 </r>
       <r> -15.4357   0.0000   0.0000 </r>
       <r> -15.3546   0.0000   0.0000 </r>
       <r> -15.2735   0.0000   0.0000 </r>
       <r> -15.1924  -0.0001   0.0000 </r>
       <r> -15.1113  -0.0012  -0.0001 </r>
       <r> -15.0302  -0.0099  -0.0009 </r>
       <r> -14.9491  -0.0567  -0.0055 </r>
       <r> -14.8680  -0.2090  -0.0225 </r>
       <r> -14.7868  -0.4222  -0.0567 </r>
       <r> -14.7057  -0.0776  -0.0630 </r>
       <r> -14.6246   2.0046   0.0996 </r>
       <r> -14.5435   5.7296   0.5643 </r>
       <r> -14.4624   8.2167   1.2307 </r>
       <r> -14.3813   6.8452   1.7858 </r>
       <r> -14.3002   3.1084   2.0379 </r>
       <r> -14.2191   0.3538   2.0666 </r>
       <r> -14.1380  -0.4261   2.0321 </r>
       <r> -14.0569  -0.2837   2.0090 </r>
       <r> -13.9758  -0.0908   2.0017 </r>
       <r> -13.8947  -0.0181   2.0002 </r>
       <r> -13.8136  -0.0024   2.0000 </r>
       <r> -13.7325  -0.0002   2.0000 </r>
       <r> -13.6514   0.0000   2.0000 </r>
       <r> -13.5703   0.0000   2.0000 </r>
       <r> -13.4892   0.0000   2.0000 </r>
       <r> -13.4081   0.0000   2.0000 </r>
       <r> -13.3270   0.0000   2.0000 </r>
       <r> -13.2459   0.0000   2.0000 </r>
       <r> -13.1648   0.0000   2.0000 </r>
       <r> -13.0837   0.0000   2.0000 </r>
       <r> -13.0026   0.0000   2.0000 </r>
       <r> -12.9215   0.0000   2.0000 </r>
       <r> -12.8404   0.0000   2.0000 </r>
       <r> -12.7593  -0.0001   2.0000 </r>
       <r> -12.6782  -0.0010   1.9999 </r>
       <r> -12.5971  -0.0090   1.9992 </r>
       <r> -12.5160  -0.0527   1.9949 </r>
       <r> -12.4349  -0.1989   1.9788 </r>
       <r> -12.3538  -0.4165   1.9450 </r>
       <r> -12.2727  -0.1238   1.9350 </r>
       <r> -12.1916   1.8590   2.0857 </r>
       <r> -12.1105   5.5531   2.5361 </r>
       <r> -12.0294   8.1794   3.1995 </r>
       <r> -11.9483   6.9890   3.7663 </r>
       <r> -11.8672   3.2819   4.0324 </r>
       <r> -11.7861   0.4346   4.0677 </r>
       <r> -11.7050  -0.4202   4.0336 </r>
       <r> -11.6239  -0.2950   4.0097 </r>
       <r> -11.5428  -0.0969   4.0018 </r>
       <r> -11.4617  -0.0197   4.0002 </r>
       <r> -11.3806  -0.0027   4.0000 </r>
       <r> -11.2995  -0.0002   4.0000 </r>
       <r> -11.2184   0.0000   4.0000 </r>
       <r> -11.1373   0.0000   4.0000 </r>
       <r> -11.0562   0.0000   4.0000 </r>
       <r> -10.9751   0.0000   4.0000 </r>
       <r> -10.8940   0.0000   4.0000 </r>
       <r> -10.8129   0.0000   4.0000 </r>
       <r> -10.7318   0.0000   4.0000 </r>
       <r> -10.6507   0.0000   4.0000 </r>
       <r> -10.5696   0.0000   4.0000 </r>
       <r> -10.4885   0.0000   4.0000 </r>
       <r> -10.4074   0.0000   4.0000 </r>
       <r> -10.3263   0.0000   4.0000 </r>
       <r> -10.2452  -0.0001   4.0000 </r>
       <r> -10.1640  -0.0010   3.9999 </r>
       <r> -10.0829  -0.0086   3.9992 </r>
       <r> -10.0018  -0.0510   3.9951 </r>
       <r>  -9.9207  -0.1942   3.9793 </r>
       <r>  -9.8396  -0.4136   3.9458 </r>
       <r>  -9.7585  -0.1441   3.9341 </r>
       <r>  -9.6774   1.7920   4.0794 </r>
       <r>  -9.5963   5.4693   4.5230 </r>
       <r>  -9.5152   8.1586   5.1847 </r>
       <r>  -9.4341   7.0547   5.7568 </r>
       <r>  -9.3530   3.3645   6.0297 </r>
       <r>  -9.2719   0.4742   6.0682 </r>
       <r>  -9.1908  -0.4167   6.0344 </r>
       <r>  -9.1097  -0.3003   6.0100 </r>
       <r>  -9.0286  -0.0998   6.0019 </r>
       <r>  -8.9475  -0.0205   6.0002 </r>
       <r>  -8.8664  -0.0028   6.0000 </r>
       <r>  -8.7853  -0.0003   6.0000 </r>
       <r>  -8.7042   0.0000   6.0000 </r>
       <r>  -8.6231   0.0000   6.0000 </r>
       <r>  -8.5420   0.0000   6.0000 </r>
       <r>  -8.4609   0.0000   6.0000 </r>
       <r>  -8.3798   0.0000   6.0000 </r>
       <r>  -8.2987   0.0000   6.0000 </r>
       <r>  -8.2176   0.0000   6.0000 </r>
       <r>  -8.1365   0.0000   6.0000 </r>
       <r>  -8.0554   0.0000   6.0000 </r>
       <r>  -7.9743   0.0000   6.0000 </r>
       <r>  -7.8932   0.0000   6.0000 </r>
       <r>  -7.8121   0.0000   6.0000 </r>
       <r>  -7.7310   0.0000   6.0000 </r>
       <r>  -7.6499   0.0000   6.0000 </r>
       <r>  -7.5688   0.0000   6.0000 </r>
       <r>  -7.4877   0.0000   6.0000 </r>
       <r>  -7.4066   0.0000   6.0000 </r>
       <r>  -7.3255   0.0000   6.0000 </r>
       <r>  -7.2444   0.0000   6.0000 </r>
       <r>  -7.1633   0.0000   6.0000 </r>
       <r>  -7.0822   0.0000   6.0000 </r>
       <r>  -7.0011   0.0000   6.0000 </r>
       <r>  -6.9200   0.0000   6.0000 </r>
       <r>  -6.8389  -0.0001   6.0000 </r>
       <r>  -6.7578  -0.0009   5.9999 </r>
       <r>  -6.6767  -0.0081   5.9993 </r>
       <r>  -6.5956  -0.0484   5.9953 </r>
       <r>  -6.5145  -0.1873   5.9802 </r>
       <r>  -6.4334  -0.4087   5.9470 </r>
       <r>  -6.3523  -0.1732   5.9330 </r>
       <r>  -6.2712   1.6933   6.0703 </r>
       <r>  -6.1901   5.3425   6.5036 </r>
       <r>  -6.1090   8.1236   7.1624 </r>
       <r>  -6.0279   7.1507   7.7423 </r>
       <r>  -5.9468   3.4892   8.0253 </r>
       <r>  -5.8657   0.5344   8.0687 </r>
       <r>  -5.7846  -0.4223   8.0344 </r>
       <r>  -5.7035  -0.3733   8.0041 </r>
       <r>  -5.6224  -0.3335   7.9771 </r>
       <r>  -5.5413  -0.4516   7.9405 </r>
       <r>  -5.4601   0.0193   7.9420 </r>
       <r>  -5.3790   2.2951   8.1282 </r>
       <r>  -5.2979   6.0596   8.6196 </r>
       <r>  -5.2168   8.2580   9.2894 </r>
       <r>  -5.1357   6.5273   9.8187 </r>
       <r>  -5.0546   2.6609  10.0345 </r>
       <r>  -4.9735  -0.1252  10.0244 </r>
       <r>  -4.8924  -0.8101   9.9587 </r>
       <r>  -4.8113   0.5220  10.0010 </r>
       <r>  -4.7302   3.8786  10.3156 </r>
       <r>  -4.6491   7.4612  10.9207 </r>
       <r>  -4.5680   7.9532  11.5657 </r>
       <r>  -4.4869   4.8675  11.9605 </r>
       <r>  -4.4058   1.3449  12.0696 </r>
       <r>  -4.3247  -0.2916  12.0459 </r>
       <r>  -4.2436  -0.5105  12.0045 </r>
       <r>  -4.1625  -0.5010  11.9639 </r>
       <r>  -4.0814  -0.4167  11.9301 </r>
       <r>  -4.0003   0.7839  11.9936 </r>
       <r>  -3.9192   3.9687  12.3155 </r>
       <r>  -3.8381   7.4834  12.9224 </r>
       <r>  -3.7570   7.9506  13.5672 </r>
       <r>  -3.6759   4.8571  13.9612 </r>
       <r>  -3.5948   1.3413  14.0699 </r>
       <r>  -3.5137  -0.2664  14.0483 </r>
       <r>  -3.4326  -0.3869  14.0170 </r>
       <r>  -3.3515  -0.1625  14.0038 </r>
       <r>  -3.2704  -0.0399  14.0005 </r>
       <r>  -3.1893  -0.0100  13.9997 </r>
       <r>  -3.1082  -0.0268  13.9975 </r>
       <r>  -3.0271  -0.1202  13.9878 </r>
       <r>  -2.9460  -0.3336  13.9607 </r>
       <r>  -2.8649  -0.3832  13.9297 </r>
       <r>  -2.7838   0.7489  13.9904 </r>
       <r>  -2.7027   3.8890  14.3058 </r>
       <r>  -2.6216   7.3907  14.9052 </r>
       <r>  -2.5405   7.7997  15.5378 </r>
       <r>  -2.4594   4.5219  15.9045 </r>
       <r>  -2.3783   1.1561  15.9983 </r>
       <r>  -2.2972   1.1917  16.0949 </r>
       <r>  -2.2161   4.4491  16.4558 </r>
       <r>  -2.1350   7.6045  17.0725 </r>
       <r>  -2.0539   8.3458  17.7494 </r>
       <r>  -1.9728   8.1663  18.4117 </r>
       <r>  -1.8917   8.4136  19.0940 </r>
       <r>  -1.8106   7.2608  19.6829 </r>
       <r>  -1.7295   3.9549  20.0036 </r>
       <r>  -1.6484   0.8561  20.0731 </r>
       <r>  -1.5673  -0.3700  20.0431 </r>
       <r>  -1.4862  -0.3589  20.0139 </r>
       <r>  -1.4051  -0.1360  20.0029 </r>
       <r>  -1.3240  -0.0309  20.0004 </r>
       <r>  -1.2429  -0.0046  20.0000 </r>
       <r>  -1.1618  -0.0005  20.0000 </r>
       <r>  -1.0807   0.0000  20.0000 </r>
       <r>  -0.9996   0.0000  20.0000 </r>
       <r>  -0.9185  -0.0003  20.0000 </r>
       <r>  -0.8374  -0.0035  19.9997 </r>
       <r>  -0.7562  -0.0245  19.9977 </r>
       <r>  -0.6751  -0.1142  19.9884 </r>
       <r>  -0.5940  -0.3245  19.9621 </r>
       <r>  -0.5129  -0.3945  19.9301 </r>
       <r>  -0.4318   0.6691  19.9844 </r>
       <r>  -0.3507   3.7476  20.2883 </r>
       <r>  -0.2696   7.3368  20.8834 </r>
       <r>  -0.1885   8.0379  21.5352 </r>
       <r>  -0.1074   5.0810  21.9473 </r>
       <r>  -0.0263   1.4987  22.0689 </r>
       <r>   0.0548  -0.2267  22.0505 </r>
       <r>   0.1359  -0.3976  22.0182 </r>
       <r>   0.2170  -0.1739  22.0041 </r>
       <r>   0.2981  -0.0463  22.0004 </r>
       <r>   0.3792  -0.0280  21.9981 </r>
       <r>   0.4603  -0.1026  21.9898 </r>
       <r>   0.5414  -0.3038  21.9651 </r>
       <r>   0.6225  -0.4141  21.9316 </r>
       <r>   0.7036   0.5007  21.9722 </r>
       <r>   0.7847   3.4186  22.2494 </r>
       <r>   0.8658   7.0968  22.8250 </r>
       <r>   0.9469   8.1439  23.4855 </r>
       <r>   1.0280   5.4143  23.9246 </r>
       <r>   1.1091   1.7488  24.0664 </r>
       <r>   1.1902  -0.1572  24.0537 </r>
       <r>   1.2713  -0.4138  24.0201 </r>
       <r>   1.3524  -0.2089  24.0032 </r>
       <r>   1.4335  -0.1392  23.9919 </r>
       <r>   1.5146  -0.2895  23.9684 </r>
       <r>   1.5957  -0.4305  23.9335 </r>
       <r>   1.6768   0.3171  23.9592 </r>
       <r>   1.7579   2.9778  24.2007 </r>
       <r>   1.8390   6.5305  24.7303 </r>
       <r>   1.9201   7.7962  25.3626 </r>
       <r>   2.0012   6.0889  25.8564 </r>
       <r>   2.0823   5.0655  26.2673 </r>
       <r>   2.1634   6.7071  26.8112 </r>
       <r>   2.2445   7.8082  27.4445 </r>
       <r>   2.3256   5.6036  27.8989 </r>
       <r>   2.4067   2.0198  28.0628 </r>
       <r>   2.4878  -0.0636  28.0576 </r>
       <r>   2.5689  -0.4257  28.0231 </r>
       <r>   2.6500  -0.2141  28.0057 </r>
       <r>   2.7311  -0.0587  28.0009 </r>
       <r>   2.8122  -0.0103  28.0001 </r>
       <r>   2.8933  -0.0012  28.0000 </r>
       <r>   2.9744  -0.0001  28.0000 </r>
       <r>   3.0555  -0.0002  28.0000 </r>
       <r>   3.1366  -0.0023  27.9998 </r>
       <r>   3.2177  -0.0175  27.9984 </r>
       <r>   3.2988  -0.0886  27.9912 </r>
       <r>   3.3799  -0.2793  27.9685 </r>
       <r>   3.4610  -0.4279  27.9338 </r>
       <r>   3.5421   0.3240  27.9601 </r>
       <r>   3.6232   3.0418  28.2068 </r>
       <r>   3.7043   6.7844  28.7570 </r>
       <r>   3.7854   8.2014  29.4222 </r>
       <r>   3.8665   5.6734  29.8823 </r>
       <r>   3.9477   1.7232  30.0221 </r>
       <r>   4.0288  -0.4347  29.9868 </r>
       <r>   4.1099   0.3723  30.0170 </r>
       <r>   4.1910   3.7674  30.3225 </r>
       <r>   4.2721   7.4321  30.9253 </r>
       <r>   4.3532   7.9356  31.5689 </r>
       <r>   4.4343   4.8427  31.9616 </r>
       <r>   4.5154   1.3170  32.0684 </r>
       <r>   4.5965  -0.3535  32.0398 </r>
       <r>   4.6776  -0.6592  31.9863 </r>
       <r>   4.7587  -0.5920  31.9383 </r>
       <r>   4.8398   0.2411  31.9579 </r>
       <r>   4.9209   2.9376  32.1961 </r>
       <r>   5.0020   6.7007  32.7395 </r>
       <r>   5.0831   8.2437  33.4081 </r>
       <r>   5.1642   5.8968  33.8864 </r>
       <r>   5.2453   2.1464  34.0604 </r>
       <r>   5.3264  -0.0474  34.0566 </r>
       <r>   5.4075  -0.5174  34.0146 </r>
       <r>   5.4886  -0.5027  33.9739 </r>
       <r>   5.5697  -0.4869  33.9344 </r>
       <r>   5.6508   0.3431  33.9622 </r>
       <r>   5.7319   3.1071  34.2142 </r>
       <r>   5.8130   6.8451  34.7693 </r>
       <r>   5.8941   8.2167  35.4357 </r>
       <r>   5.9752   5.7296  35.9004 </r>
       <r>   6.0563   2.0046  36.0630 </r>
       <r>   6.1374  -0.0776  36.0567 </r>
       <r>   6.2185  -0.4222  36.0225 </r>
       <r>   6.2996  -0.2090  36.0055 </r>
       <r>   6.3807  -0.0567  36.0009 </r>
       <r>   6.4618  -0.0099  36.0001 </r>
       <r>   6.5429  -0.0012  36.0000 </r>
       <r>   6.6240  -0.0001  36.0000 </r>
       <r>   6.7051   0.0000  36.0000 </r>
       <r>   6.7862   0.0000  36.0000 </r>
       <r>   6.8673   0.0000  36.0000 </r>
       <r>   6.9484   0.0000  36.0000 </r>
       <r>   7.0295   0.0000  36.0000 </r>
       <r>   7.1106   0.0000  36.0000 </r>
       <r>   7.1917   0.0000  36.0000 </r>
       <r>   7.2728   0.0000  36.0000 </r>
       <r>   7.3539   0.0000  36.0000 </r>
       <r>   7.4350   0.0000  36.0000 </r>
       <r>   7.5161   0.0000  36.0000 </r>
       <r>   7.5972   0.0000  36.0000 </r>
       <r>   7.6783   0.0000  36.0000 </r>
       <r>   7.7594   0.0000  36.0000 </r>
       <r>   7.8405   0.0000  36.0000 </r>
      </set>
     </set>
    </array>
   </total>
  </dos>
 </calculation>
 <structure name="finalpos" >
  <crystal>
   <varray name="basis" >
    <v>       6.00000000       1.00000000       1.00000000 </v>
    <v>       2.00000000       6.00000000       2.00000000 </v>
    <v>       3.00000000       3.00000000       6.00000000 </v>
   </varray>
   <i name="volume">    162.00000000 </i>
   <varray name="rec_basis" >
    <v>       0.18518519      -0.03703704      -0.07407407 </v>
    <v>      -0.01851852       0.20370370      -0.09259259 </v>
    <v>      -0.02469136      -0.06172840       0.20987654 </v>
   </varray>
  </crystal>
  <varray name="positions" >
   <v>       0.50074074       0.50092593      -0.00209877 </v>
   <v>       0.00000000       0.50000000       0.50000000 </v>
   <v>       0.50000000       0.00000000       0.50000000 </v>
   <v>       0.31195000       0.31195000       0.31195000 </v>
   <v>       0.68805000       0.68805000       0.31195000 </v>
   <v>       0.31195000       0.68805000       0.68805000 </v>
   <v>       0.68805000       0.31195000       0.68805000 </v>
  </varray>
  <varray name="selective"  type="logical" >
   <v type="logical" >  T  T  T </v>
   <v type="logical" >  F  F  F </v>
   <v type="logical" >  F  F  F </v>
   <v type="logical" >  F  F  F </v>
   <v type="logical" >  F  F  F </v>
   <v type="logical" >  F  F  F </v>
   <v type="logical" >  F  F  F </v>
  </varray>
  <nose>
   <v>      -3.00000000       0.00000000       0.00010000       0.00010000 </v>
  </nose>
 </structure>
</modeling>
