   8   8   0   0
  0.2226630E+02  0.5626600E-09  0.5626600E-09  0.5626600E-09  0.5000000E-15
  1.000000000000000E-004
  CAR 
 unknown system                          
     10.92138410    -13.18988735  301      2.76923479      1.00000000
    -13.190  0.0000E+00  0.0000E+00  0.0000E+00  0.0000E+00
    -13.110  0.0000E+00  0.0000E+00  0.0000E+00  0.0000E+00
    -13.029  0.0000E+00  0.0000E+00  0.0000E+00  0.0000E+00
    -12.949  0.0000E+00  0.0000E+00  0.0000E+00  0.0000E+00
    -12.868 -0.7215E-29 -0.7577E-29 -0.5799E-30 -0.6089E-30
    -12.788 -0.5592E-26 -0.5860E-26 -0.4500E-27 -0.4716E-27
    -12.708 -0.2834E-23 -0.2963E-23 -0.2282E-24 -0.2386E-24
    -12.627 -0.1039E-20 -0.1083E-20 -0.8372E-22 -0.8732E-22
    -12.547 -0.2754E-18 -0.2866E-18 -0.2222E-19 -0.2312E-19
    -12.467 -0.5282E-16 -0.5483E-16 -0.4267E-17 -0.4430E-17
    -12.386 -0.7324E-14 -0.7586E-14 -0.5929E-15 -0.6141E-15
    -12.306 -0.7108E-12 -0.7345E-12 -0.5772E-13 -0.5964E-13
    -12.225 -0.5127E-10 -0.5285E-10 -0.4179E-11 -0.4307E-11
    -12.145 -0.2666E-08 -0.2741E-08 -0.2184E-09 -0.2246E-09
    -12.065 -0.9985E-07 -0.1024E-06 -0.8243E-08 -0.8457E-08
    -11.984 -0.2691E-05 -0.2753E-05 -0.2245E-06 -0.2298E-06
    -11.904 -0.5204E-04 -0.5313E-04 -0.4407E-05 -0.4500E-05
    -11.824 -0.7205E-03 -0.7337E-03 -0.6231E-04 -0.6347E-04
    -11.743 -0.7107E-02 -0.7220E-02 -0.6335E-03 -0.6438E-03
    -11.663 -0.4960E-01 -0.5027E-01 -0.4620E-02 -0.4684E-02
    -11.582 -0.2417E+00 -0.2443E+00 -0.2404E-01 -0.2431E-01
    -11.502 -0.7966E+00 -0.8026E+00 -0.8807E-01 -0.8882E-01
    -11.422 -0.1608E+01 -0.1613E+01 -0.2173E+00 -0.2184E+00
    -11.341 -0.1026E+01 -0.1008E+01 -0.2998E+00 -0.2995E+00
    -11.261  0.4953E+01  0.5031E+01  0.9832E-01  0.1049E+00
    -11.181  0.1997E+02  0.2012E+02  0.1703E+01  0.1722E+01
    -11.100  0.4046E+02  0.4062E+02  0.4955E+01  0.4986E+01
    -11.020  0.5301E+02  0.5304E+02  0.9216E+01  0.9249E+01
    -10.940  0.4601E+02  0.4588E+02  0.1291E+02  0.1294E+02
    -10.859  0.2484E+02  0.2466E+02  0.1491E+02  0.1492E+02
    -10.779  0.6098E+01  0.5991E+01  0.1540E+02  0.1540E+02
    -10.698 -0.1682E+01 -0.1705E+01  0.1526E+02  0.1526E+02
    -10.618 -0.2109E+01 -0.2100E+01  0.1510E+02  0.1509E+02
    -10.538 -0.9069E+00 -0.8988E+00  0.1502E+02  0.1502E+02
    -10.457 -0.2346E+00 -0.2317E+00  0.1500E+02  0.1500E+02
    -10.377 -0.4062E-01 -0.4000E-01  0.1500E+02  0.1500E+02
    -10.297 -0.6390E-02 -0.6307E-02  0.1500E+02  0.1500E+02
    -10.216 -0.1142E-01 -0.1144E-01  0.1500E+02  0.1500E+02
    -10.136 -0.5219E-01 -0.5229E-01  0.1499E+02  0.1499E+02
    -10.055 -0.1531E+00 -0.1533E+00  0.1498E+02  0.1498E+02
     -9.975 -0.2074E+00 -0.2072E+00  0.1497E+02  0.1497E+02
     -9.895  0.2420E+00  0.2433E+00  0.1499E+02  0.1499E+02
     -9.814  0.1676E+01  0.1679E+01  0.1512E+02  0.1512E+02
     -9.734  0.3511E+01  0.3513E+01  0.1540E+02  0.1540E+02
     -9.654  0.4091E+01  0.4090E+01  0.1573E+02  0.1573E+02
     -9.573  0.2792E+01  0.2789E+01  0.1596E+02  0.1596E+02
     -9.493  0.9548E+00  0.9525E+00  0.1603E+02  0.1603E+02
     -9.412 -0.5002E-01 -0.5075E-01  0.1603E+02  0.1603E+02
     -9.332 -0.2106E+00 -0.2105E+00  0.1601E+02  0.1601E+02
     -9.252 -0.1041E+00 -0.1040E+00  0.1600E+02  0.1600E+02
     -9.171 -0.2858E-01 -0.2852E-01  0.1600E+02  0.1600E+02
     -9.091 -0.5065E-02 -0.5050E-02  0.1600E+02  0.1600E+02
     -9.011 -0.6093E-03 -0.6072E-03  0.1600E+02  0.1600E+02
     -8.930 -0.5095E-04 -0.5075E-04  0.1600E+02  0.1600E+02
     -8.850 -0.3005E-05 -0.2992E-05  0.1600E+02  0.1600E+02
     -8.769 -0.3070E-06 -0.3060E-06  0.1600E+02  0.1600E+02
     -8.689 -0.4192E-05 -0.4185E-05  0.1600E+02  0.1600E+02
     -8.609 -0.6844E-04 -0.6834E-04  0.1600E+02  0.1600E+02
     -8.528 -0.7864E-03 -0.7854E-03  0.1600E+02  0.1600E+02
     -8.448 -0.6269E-02 -0.6262E-02  0.1600E+02  0.1600E+02
     -8.368 -0.3380E-01 -0.3378E-01  0.1600E+02  0.1600E+02
     -8.287 -0.1166E+00 -0.1165E+00  0.1599E+02  0.1599E+02
     -8.207 -0.2155E+00 -0.2154E+00  0.1597E+02  0.1597E+02
     -8.127  0.1060E-01  0.1027E-01  0.1597E+02  0.1597E+02
     -8.046  0.1132E+01  0.1132E+01  0.1606E+02  0.1606E+02
     -7.966  0.2997E+01  0.2996E+01  0.1630E+02  0.1630E+02
     -7.885  0.4117E+01  0.4117E+01  0.1663E+02  0.1663E+02
     -7.805  0.3279E+01  0.3280E+01  0.1690E+02  0.1690E+02
     -7.725  0.1261E+01  0.1262E+01  0.1700E+02  0.1700E+02
     -7.644 -0.2757E+00 -0.2751E+00  0.1698E+02  0.1698E+02
     -7.564 -0.3041E+00 -0.3049E+00  0.1695E+02  0.1695E+02
     -7.484  0.1803E+01  0.1800E+01  0.1710E+02  0.1710E+02
     -7.403  0.5579E+01  0.5576E+01  0.1755E+02  0.1754E+02
     -7.323  0.8182E+01  0.8181E+01  0.1820E+02  0.1820E+02
     -7.242  0.6989E+01  0.6991E+01  0.1876E+02  0.1876E+02
     -7.162  0.3313E+01  0.3316E+01  0.1903E+02  0.1903E+02
     -7.082  0.4646E+00  0.4660E+00  0.1907E+02  0.1907E+02
     -7.001 -0.4166E+00 -0.4165E+00  0.1903E+02  0.1903E+02
     -6.921 -0.3036E+00 -0.3038E+00  0.1901E+02  0.1901E+02
     -6.841 -0.1029E+00 -0.1030E+00  0.1900E+02  0.1900E+02
     -6.760 -0.2161E-01 -0.2164E-01  0.1900E+02  0.1900E+02
     -6.680 -0.3035E-02 -0.3040E-02  0.1900E+02  0.1900E+02
     -6.599 -0.2940E-03 -0.2946E-03  0.1900E+02  0.1900E+02
     -6.519 -0.1996E-04 -0.2001E-04  0.1900E+02  0.1900E+02
     -6.439 -0.9590E-06 -0.9614E-06  0.1900E+02  0.1900E+02
     -6.358 -0.3445E-07 -0.3454E-07  0.1900E+02  0.1900E+02
     -6.278 -0.6093E-07 -0.6092E-07  0.1900E+02  0.1900E+02
     -6.198 -0.1550E-05 -0.1550E-05  0.1900E+02  0.1900E+02
     -6.117 -0.2838E-04 -0.2837E-04  0.1900E+02  0.1900E+02
     -6.037 -0.3665E-03 -0.3665E-03  0.1900E+02  0.1900E+02
     -5.957 -0.3302E-02 -0.3301E-02  0.1900E+02  0.1900E+02
     -5.876 -0.2033E-01 -0.2033E-01  0.1900E+02  0.1900E+02
     -5.796 -0.8202E-01 -0.8202E-01  0.1899E+02  0.1899E+02
     -5.715 -0.1935E+00 -0.1935E+00  0.1898E+02  0.1898E+02
     -5.635 -0.1368E+00 -0.1368E+00  0.1896E+02  0.1896E+02
     -5.555  0.6451E+00  0.6451E+00  0.1902E+02  0.1902E+02
     -5.474  0.2375E+01  0.2375E+01  0.1921E+02  0.1921E+02
     -5.394  0.3946E+01  0.3946E+01  0.1952E+02  0.1952E+02
     -5.314  0.3797E+01  0.3798E+01  0.1983E+02  0.1983E+02
     -5.233  0.2091E+01  0.2091E+01  0.2000E+02  0.2000E+02
     -5.153  0.4658E+00  0.4659E+00  0.2004E+02  0.2004E+02
     -5.072 -0.1750E+00 -0.1750E+00  0.2002E+02  0.2002E+02
     -4.992 -0.1784E+00 -0.1784E+00  0.2001E+02  0.2001E+02
     -4.912 -0.6893E-01 -0.6893E-01  0.2000E+02  0.2000E+02
     -4.831 -0.1600E-01 -0.1600E-01  0.2000E+02  0.2000E+02
     -4.751 -0.2454E-02 -0.2454E-02  0.2000E+02  0.2000E+02
     -4.671 -0.2582E-03 -0.2582E-03  0.2000E+02  0.2000E+02
     -4.590 -0.1899E-04 -0.1899E-04  0.2000E+02  0.2000E+02
     -4.510 -0.9864E-06 -0.9865E-06  0.2000E+02  0.2000E+02
     -4.429 -0.3643E-07 -0.3643E-07  0.2000E+02  0.2000E+02
     -4.349 -0.9604E-09 -0.9606E-09  0.2000E+02  0.2000E+02
     -4.269 -0.1813E-10 -0.1814E-10  0.2000E+02  0.2000E+02
     -4.188 -0.2459E-12 -0.2459E-12  0.2000E+02  0.2000E+02
     -4.108 -0.2763E-14 -0.2763E-14  0.2000E+02  0.2000E+02
     -4.028 -0.7885E-16 -0.7890E-16  0.2000E+02  0.2000E+02
     -3.947 -0.1070E-13 -0.1070E-13  0.2000E+02  0.2000E+02
     -3.867 -0.1012E-11 -0.1012E-11  0.2000E+02  0.2000E+02
     -3.786 -0.7075E-10 -0.7079E-10  0.2000E+02  0.2000E+02
     -3.706 -0.3549E-08 -0.3551E-08  0.2000E+02  0.2000E+02
     -3.626 -0.1275E-06 -0.1275E-06  0.2000E+02  0.2000E+02
     -3.545 -0.3267E-05 -0.3268E-05  0.2000E+02  0.2000E+02
     -3.465 -0.5946E-04 -0.5949E-04  0.2000E+02  0.2000E+02
     -3.385 -0.7634E-03 -0.7637E-03  0.2000E+02  0.2000E+02
     -3.304 -0.6834E-02 -0.6836E-02  0.2000E+02  0.2000E+02
     -3.224 -0.4179E-01 -0.4180E-01  0.2000E+02  0.2000E+02
     -3.144 -0.1673E+00 -0.1673E+00  0.1998E+02  0.1998E+02
     -3.063 -0.3903E+00 -0.3903E+00  0.1995E+02  0.1995E+02
     -2.983 -0.2627E+00 -0.2626E+00  0.1993E+02  0.1993E+02
     -2.902  0.1335E+01  0.1336E+01  0.2004E+02  0.2004E+02
     -2.822  0.4816E+01  0.4816E+01  0.2042E+02  0.2042E+02
     -2.742  0.7921E+01  0.7921E+01  0.2106E+02  0.2106E+02
     -2.661  0.7555E+01  0.7555E+01  0.2167E+02  0.2167E+02
     -2.581  0.4116E+01  0.4115E+01  0.2200E+02  0.2200E+02
     -2.501  0.8926E+00  0.8923E+00  0.2207E+02  0.2207E+02
     -2.420 -0.3570E+00 -0.3571E+00  0.2204E+02  0.2204E+02
     -2.340 -0.3529E+00 -0.3529E+00  0.2201E+02  0.2201E+02
     -2.259 -0.1350E+00 -0.1350E+00  0.2200E+02  0.2200E+02
     -2.179 -0.3109E-01 -0.3108E-01  0.2200E+02  0.2200E+02
     -2.099 -0.4745E-02 -0.4744E-02  0.2200E+02  0.2200E+02
     -2.018 -0.6236E-03 -0.6237E-03  0.2200E+02  0.2200E+02
     -1.938 -0.1386E-02 -0.1388E-02  0.2200E+02  0.2200E+02
     -1.858 -0.9811E-02 -0.9827E-02  0.2200E+02  0.2200E+02
     -1.777 -0.4778E-01 -0.4784E-01  0.2200E+02  0.2200E+02
     -1.697 -0.1453E+00 -0.1454E+00  0.2198E+02  0.2198E+02
     -1.616 -0.2123E+00 -0.2122E+00  0.2197E+02  0.2197E+02
     -1.536  0.1849E+00  0.1857E+00  0.2198E+02  0.2198E+02
     -1.456  0.1556E+01  0.1558E+01  0.2211E+02  0.2211E+02
     -1.375  0.3412E+01  0.3413E+01  0.2238E+02  0.2238E+02
     -1.295  0.4115E+01  0.4115E+01  0.2271E+02  0.2271E+02
     -1.215  0.2913E+01  0.2911E+01  0.2295E+02  0.2295E+02
     -1.134  0.1057E+01  0.1055E+01  0.2303E+02  0.2303E+02
     -1.054 -0.1623E-01 -0.1674E-01  0.2303E+02  0.2303E+02
     -0.974 -0.2144E+00 -0.2144E+00  0.2301E+02  0.2301E+02
     -0.893 -0.1164E+00 -0.1163E+00  0.2300E+02  0.2300E+02
     -0.813 -0.6039E-01 -0.6032E-01  0.2300E+02  0.2300E+02
     -0.732 -0.1114E+00 -0.1113E+00  0.2299E+02  0.2299E+02
     -0.652 -0.2202E+00 -0.2201E+00  0.2297E+02  0.2297E+02
     -0.572 -0.9824E-01 -0.9858E-01  0.2296E+02  0.2296E+02
     -0.491  0.7708E+00  0.7697E+00  0.2303E+02  0.2303E+02
     -0.411  0.2390E+01  0.2389E+01  0.2322E+02  0.2322E+02
     -0.331  0.3917E+01  0.3917E+01  0.2353E+02  0.2353E+02
     -0.250  0.5166E+01  0.5168E+01  0.2395E+02  0.2395E+02
     -0.170  0.6937E+01  0.6940E+01  0.2450E+02  0.2451E+02
     -0.089  0.8331E+01  0.8332E+01  0.2517E+02  0.2517E+02
     -0.009  0.7050E+01  0.7049E+01  0.2574E+02  0.2574E+02
      0.071  0.3513E+01  0.3511E+01  0.2602E+02  0.2602E+02
      0.152  0.5907E+00  0.5897E+00  0.2607E+02  0.2607E+02
      0.232 -0.4076E+00 -0.4077E+00  0.2604E+02  0.2604E+02
      0.312 -0.3320E+00 -0.3319E+00  0.2601E+02  0.2601E+02
      0.393 -0.1469E+00 -0.1468E+00  0.2600E+02  0.2600E+02
      0.473 -0.1583E+00 -0.1582E+00  0.2599E+02  0.2599E+02
      0.554 -0.3537E+00 -0.3536E+00  0.2596E+02  0.2596E+02
      0.634 -0.3625E+00 -0.3627E+00  0.2593E+02  0.2593E+02
      0.714  0.8636E+00  0.8628E+00  0.2600E+02  0.2600E+02
      0.795  0.4066E+01  0.4064E+01  0.2633E+02  0.2633E+02
      0.875  0.7525E+01  0.7524E+01  0.2693E+02  0.2693E+02
      0.955  0.7942E+01  0.7943E+01  0.2757E+02  0.2757E+02
      1.036  0.4864E+01  0.4866E+01  0.2796E+02  0.2796E+02
      1.116  0.1359E+01  0.1360E+01  0.2807E+02  0.2807E+02
      1.197 -0.3064E+00 -0.3061E+00  0.2804E+02  0.2804E+02
      1.277 -0.5459E+00 -0.5459E+00  0.2800E+02  0.2800E+02
      1.357 -0.3770E+00 -0.3772E+00  0.2797E+02  0.2797E+02
      1.438  0.2005E+00  0.1997E+00  0.2799E+02  0.2799E+02
      1.518  0.1672E+01  0.1670E+01  0.2812E+02  0.2812E+02
      1.598  0.3512E+01  0.3511E+01  0.2840E+02  0.2840E+02
      1.679  0.4090E+01  0.4091E+01  0.2873E+02  0.2873E+02
      1.759  0.2789E+01  0.2791E+01  0.2896E+02  0.2896E+02
      1.839  0.9528E+00  0.9540E+00  0.2903E+02  0.2903E+02
      1.920 -0.5084E-01 -0.5044E-01  0.2903E+02  0.2903E+02
      2.000 -0.2126E+00 -0.2126E+00  0.2901E+02  0.2901E+02
      2.081 -0.1198E+00 -0.1199E+00  0.2900E+02  0.2900E+02
      2.161 -0.1096E+00 -0.1095E+00  0.2899E+02  0.2899E+02
      2.241 -0.2674E+00 -0.2673E+00  0.2897E+02  0.2897E+02
      2.322 -0.4337E+00 -0.4337E+00  0.2894E+02  0.2894E+02
      2.402  0.1853E+00  0.1847E+00  0.2895E+02  0.2895E+02
      2.482  0.2690E+01  0.2688E+01  0.2917E+02  0.2917E+02
      2.563  0.6437E+01  0.6435E+01  0.2968E+02  0.2968E+02
      2.643  0.8275E+01  0.8275E+01  0.3035E+02  0.3035E+02
      2.724  0.6252E+01  0.6253E+01  0.3085E+02  0.3085E+02
      2.804  0.2505E+01  0.2506E+01  0.3105E+02  0.3105E+02
      2.884  0.1112E+00  0.1118E+00  0.3106E+02  0.3106E+02
      2.965 -0.4340E+00 -0.4340E+00  0.3103E+02  0.3103E+02
      3.045 -0.2544E+00 -0.2545E+00  0.3101E+02  0.3101E+02
      3.125 -0.1019E+00 -0.1019E+00  0.3100E+02  0.3100E+02
      3.206 -0.1140E+00 -0.1140E+00  0.3099E+02  0.3099E+02
      3.286 -0.2099E+00 -0.2099E+00  0.3097E+02  0.3097E+02
      3.367 -0.6984E-01 -0.6982E-01  0.3097E+02  0.3097E+02
      3.447  0.8917E+00  0.8918E+00  0.3104E+02  0.3104E+02
      3.527  0.2713E+01  0.2713E+01  0.3126E+02  0.3126E+02
      3.608  0.4070E+01  0.4070E+01  0.3158E+02  0.3158E+02
      3.688  0.3571E+01  0.3571E+01  0.3187E+02  0.3187E+02
      3.768  0.1754E+01  0.1754E+01  0.3201E+02  0.3201E+02
      3.849  0.2808E+00  0.2808E+00  0.3203E+02  0.3203E+02
      3.929 -0.2032E+00 -0.2032E+00  0.3202E+02  0.3202E+02
      4.009 -0.1580E+00 -0.1580E+00  0.3201E+02  0.3201E+02
      4.090 -0.5512E-01 -0.5512E-01  0.3200E+02  0.3200E+02
      4.170 -0.1184E-01 -0.1184E-01  0.3200E+02  0.3200E+02
      4.251 -0.1697E-02 -0.1697E-02  0.3200E+02  0.3200E+02
      4.331 -0.1675E-03 -0.1675E-03  0.3200E+02  0.3200E+02
      4.411 -0.1159E-04 -0.1158E-04  0.3200E+02  0.3200E+02
      4.492 -0.5667E-06 -0.5666E-06  0.3200E+02  0.3200E+02
      4.572 -0.2438E-07 -0.2437E-07  0.3200E+02  0.3200E+02
      4.652 -0.1675E-06 -0.1672E-06  0.3200E+02  0.3200E+02
      4.733 -0.4277E-05 -0.4269E-05  0.3200E+02  0.3200E+02
      4.813 -0.7797E-04 -0.7783E-04  0.3200E+02  0.3200E+02
      4.894 -0.1005E-02 -0.1003E-02  0.3200E+02  0.3200E+02
      4.974 -0.9061E-02 -0.9048E-02  0.3200E+02  0.3200E+02
      5.054 -0.5605E-01 -0.5598E-01  0.3199E+02  0.3199E+02
      5.135 -0.2285E+00 -0.2283E+00  0.3198E+02  0.3198E+02
      5.215 -0.5513E+00 -0.5511E+00  0.3193E+02  0.3193E+02
      5.295 -0.4371E+00 -0.4376E+00  0.3190E+02  0.3190E+02
      5.376  0.1703E+01  0.1700E+01  0.3203E+02  0.3203E+02
      5.456  0.6668E+01  0.6664E+01  0.3257E+02  0.3257E+02
      5.537  0.1150E+02  0.1150E+02  0.3349E+02  0.3349E+02
      5.617  0.1153E+02  0.1153E+02  0.3442E+02  0.3442E+02
      5.697  0.6733E+01  0.6737E+01  0.3496E+02  0.3496E+02
      5.778  0.1750E+01  0.1754E+01  0.3510E+02  0.3510E+02
      5.858 -0.4219E+00 -0.4210E+00  0.3507E+02  0.3507E+02
      5.938 -0.5535E+00 -0.5537E+00  0.3502E+02  0.3502E+02
      6.019 -0.2370E+00 -0.2373E+00  0.3501E+02  0.3501E+02
      6.099 -0.8637E-01 -0.8653E-01  0.3500E+02  0.3500E+02
      6.180 -0.1142E+00 -0.1144E+00  0.3499E+02  0.3499E+02
      6.260 -0.2120E+00 -0.2121E+00  0.3497E+02  0.3497E+02
      6.340 -0.4703E-01 -0.4629E-01  0.3497E+02  0.3497E+02
      6.421  0.9643E+00  0.9666E+00  0.3505E+02  0.3505E+02
      6.501  0.2804E+01  0.2806E+01  0.3527E+02  0.3527E+02
      6.581  0.4093E+01  0.4094E+01  0.3560E+02  0.3560E+02
      6.662  0.3501E+01  0.3499E+01  0.3588E+02  0.3588E+02
      6.742  0.1658E+01  0.1655E+01  0.3601E+02  0.3601E+02
      6.822  0.1948E+00  0.1935E+00  0.3603E+02  0.3603E+02
      6.903 -0.3743E+00 -0.3745E+00  0.3600E+02  0.3600E+02
      6.983 -0.5417E+00 -0.5416E+00  0.3596E+02  0.3596E+02
      7.064 -0.3175E+00 -0.3173E+00  0.3593E+02  0.3593E+02
      7.144  0.1312E+01  0.1312E+01  0.3604E+02  0.3604E+02
      7.224  0.4796E+01  0.4796E+01  0.3642E+02  0.3642E+02
      7.305  0.7912E+01  0.7913E+01  0.3706E+02  0.3706E+02
      7.385  0.7566E+01  0.7566E+01  0.3767E+02  0.3767E+02
      7.465  0.4134E+01  0.4134E+01  0.3800E+02  0.3800E+02
      7.546  0.9034E+00  0.9031E+00  0.3807E+02  0.3807E+02
      7.626 -0.3551E+00 -0.3552E+00  0.3804E+02  0.3804E+02
      7.707 -0.3540E+00 -0.3540E+00  0.3801E+02  0.3801E+02
      7.787 -0.1360E+00 -0.1360E+00  0.3800E+02  0.3800E+02
      7.867 -0.3357E-01 -0.3355E-01  0.3800E+02  0.3800E+02
      7.948 -0.2154E-01 -0.2149E-01  0.3800E+02  0.3800E+02
      8.028 -0.8518E-01 -0.8501E-01  0.3799E+02  0.3799E+02
      8.108 -0.2697E+00 -0.2694E+00  0.3797E+02  0.3797E+02
      8.189 -0.4319E+00 -0.4320E+00  0.3794E+02  0.3794E+02
      8.269  0.2309E+00  0.2287E+00  0.3795E+02  0.3795E+02
      8.350  0.2797E+01  0.2792E+01  0.3818E+02  0.3818E+02
      8.430  0.6526E+01  0.6522E+01  0.3870E+02  0.3870E+02
      8.510  0.8203E+01  0.8204E+01  0.3936E+02  0.3936E+02
      8.591  0.5968E+01  0.5973E+01  0.3984E+02  0.3984E+02
      8.671  0.2216E+01  0.2221E+01  0.4002E+02  0.4002E+02
      8.751  0.4924E+00  0.4905E+00  0.4006E+02  0.4006E+02
      8.832  0.1582E+01  0.1576E+01  0.4019E+02  0.4019E+02
      8.912  0.3509E+01  0.3504E+01  0.4047E+02  0.4047E+02
      8.992  0.3907E+01  0.3910E+01  0.4078E+02  0.4078E+02
      9.073  0.2437E+01  0.2444E+01  0.4098E+02  0.4098E+02
      9.153  0.6956E+00  0.7003E+00  0.4103E+02  0.4103E+02
      9.234 -0.1241E+00 -0.1229E+00  0.4102E+02  0.4102E+02
      9.314 -0.1972E+00 -0.1975E+00  0.4101E+02  0.4101E+02
      9.394 -0.8579E-01 -0.8613E-01  0.4100E+02  0.4100E+02
      9.475 -0.2165E-01 -0.2177E-01  0.4100E+02  0.4100E+02
      9.555 -0.3572E-02 -0.3596E-02  0.4100E+02  0.4100E+02
      9.635 -0.4023E-03 -0.4055E-03  0.4100E+02  0.4100E+02
      9.716 -0.3158E-04 -0.3187E-04  0.4100E+02  0.4100E+02
      9.796 -0.1748E-05 -0.1766E-05  0.4100E+02  0.4100E+02
      9.877 -0.6872E-07 -0.6953E-07  0.4100E+02  0.4100E+02
      9.957 -0.1928E-08 -0.1953E-08  0.4100E+02  0.4100E+02
     10.037 -0.3871E-10 -0.3926E-10  0.4100E+02  0.4100E+02
     10.118 -0.5581E-12 -0.5664E-12  0.4100E+02  0.4100E+02
     10.198 -0.5525E-14 -0.5525E-14  0.4100E+02  0.4100E+02
     10.278  0.0000E+00  0.0000E+00  0.4100E+02  0.4100E+02
     10.359  0.0000E+00  0.0000E+00  0.4100E+02  0.4100E+02
     10.439  0.0000E+00  0.0000E+00  0.4100E+02  0.4100E+02
     10.520  0.0000E+00  0.0000E+00  0.4100E+02  0.4100E+02
     10.600  0.0000E+00  0.0000E+00  0.4100E+02  0.4100E+02
     10.680  0.0000E+00  0.0000E+00  0.4100E+02  0.4100E+02
     10.761  0.0000E+00  0.0000E+00  0.4100E+02  0.4100E+02
     10.841  0.0000E+00  0.0000E+00  0.4100E+02  0.4100E+02
     10.921  0.0000E+00  0.0000E+00  0.4100E+02  0.4100E+02
