 vasp.5.2.2 15Apr09 complex 
 executed on             LinuxIFC date 2013.11.25  22:34:39
 running on    1 nodes
 distr:  one band on    1 nodes,    1 groups


--------------------------------------------------------------------------------------------------------


 INCAR:
 POTCAR:   PAW_PBE Ga_d 06Sep2000                 
 POTCAR:   PAW_PBE As 06Sep2000                   
 POTCAR:   PAW_PBE Ga_d 06Sep2000                 
   VRHFIN =Ga: s2p1                                                             
   LEXCH  = PE                                                                  
   EATOM  =  2149.0616 eV,  157.9516 Ry                                         
                                                                                
   TITEL  = PAW_PBE Ga_d 06Sep2000                                              
   LULTRA =        F    use ultrasoft PP ?                                      
   IUNSCR =        1    unscreen: 0-lin 1-nonlin 2-no                           
   RPACOR =    2.000    partial core radius                                     
   POMASS =   69.723; ZVAL   =   13.000    mass and valenz                      
   RCORE  =    2.300    outmost cutoff radius                                   
   RWIGS  =    2.300; RWIGS  =    1.217    wigner-seitz radius (au A)           
   ENMAX  =  282.697; ENMIN  =  212.022 eV                                      
   ICORE  =        3    local potential                                         
   LCOR   =        T    correct aug charges                                     
   LPAW   =        T    paw PP                                                  
   EAUG   =  490.690                                                            
   DEXC   =    -.001                                                            
   RMAX   =    2.742    core radius for proj-oper                               
   RAUG   =    1.300    factor for augmentation sphere                          
   RDEP   =    2.413    radius for radial grids                                 
   QCUT   =   -4.558; QGAM   =    9.117    optimization parameters              
                                                                                
   Description                                                                  
     l     E      TYP  RCUT    TYP  RCUT                                        
     2   .000     23  2.300                                                     
     2  -.400     23  2.300                                                     
     0   .000     23  2.300                                                     
     0   .000     23  2.300                                                     
     1   .000     23  2.300                                                     
     1   .000     23  2.300                                                     
     3  -.100      7  2.300                                                     
  local pseudopotential read in
  partial core-charges read in
  atomic valenz-charges read in
  non local Contribution for L=           2  read in
    real space projection operators read in
  non local Contribution for L=           2  read in
    real space projection operators read in
  non local Contribution for L=           0  read in
    real space projection operators read in
  non local Contribution for L=           0  read in
    real space projection operators read in
  non local Contribution for L=           1  read in
    real space projection operators read in
  non local Contribution for L=           1  read in
    real space projection operators read in
    PAW grid and wavefunctions read in
 
   number of l-projection  operators is LMAX  =           6
   number of lm-projection operators is LMMAX =          18
 
 POTCAR:   PAW_PBE As 06Sep2000                   
   VRHFIN =As: s2p3                                                             
   LEXCH  = PE                                                                  
   EATOM  =   170.0753 eV,   12.5002 Ry                                         
                                                                                
   TITEL  = PAW_PBE As 06Sep2000                                                
   LULTRA =        F    use ultrasoft PP ?                                      
   IUNSCR =        1    unscreen: 0-lin 1-nonlin 2-no                           
   RPACOR =    1.900    partial core radius                                     
   POMASS =   74.922; ZVAL   =    5.000    mass and valenz                      
   RCORE  =    2.100    outmost cutoff radius                                   
   RWIGS  =    2.300; RWIGS  =    1.217    wigner-seitz radius (au A)           
   ENMAX  =  208.680; ENMIN  =  156.510 eV                                      
   ICORE  =        3    local potential                                         
   LCOR   =        T    correct aug charges                                     
   LPAW   =        T    paw PP                                                  
   EAUG   =  462.758                                                            
   DEXC   =    -.108                                                            
   RMAX   =    3.192    core radius for proj-oper                               
   RAUG   =    1.300    factor for augmentation sphere                          
   RDEP   =    2.140    radius for radial grids                                 
   QCUT   =   -3.916; QGAM   =    7.833    optimization parameters              
                                                                                
   Description                                                                  
     l     E      TYP  RCUT    TYP  RCUT                                        
     0   .000     23  2.100                                                     
     0   .000     23  2.100                                                     
     1   .000     23  2.100                                                     
     1   .000     23  2.100                                                     
     2   .000     23  2.100                                                     
     3  -.100      7  2.100                                                     
  local pseudopotential read in
  partial core-charges read in
  atomic valenz-charges read in
  non local Contribution for L=           0  read in
    real space projection operators read in
  non local Contribution for L=           0  read in
    real space projection operators read in
  non local Contribution for L=           1  read in
    real space projection operators read in
  non local Contribution for L=           1  read in
    real space projection operators read in
  non local Contribution for L=           2  read in
    real space projection operators read in
    PAW grid and wavefunctions read in
 
   number of l-projection  operators is LMAX  =           5
   number of lm-projection operators is LMMAX =          13
 
 PAW_PBE Ga_d 06Sep2000                 :
 energy of atom  1       EATOM=-2149.0616
 kinetic energy error for atom=    0.0253 (will be added to EATOM!!)
 PAW_PBE As 06Sep2000                   :
 energy of atom  2       EATOM= -170.0753
 kinetic energy error for atom=    0.0022 (will be added to EATOM!!)
 
 
 POSCAR: Ga3 As5                                 
  positions in direct lattice
  velocities in cartesian coordinates
 exchange correlation table for  LEXCH =        8
   RHO(1)=    0.500       N(1)  =     2000
   RHO(2)=  100.500       N(2)  =     4000

 VTST: version 2.03d, (02/18/09)

 CHAIN: initializing optimizer
 
 OPT: Using VASP Dynamics algorithm
 CHAIN: Read ICHAIN            0
 


--------------------------------------------------------------------------------------------------------


 ion  position               nearest neighbor table
   1  0.500  0.500  0.000-   5 2.43   6 2.43   7 2.43   8 2.43
   2  0.000  0.500  0.500-   5 2.43   6 2.43   7 2.43   8 2.43
   3  0.500  0.000  0.500-   5 2.43   6 2.43   7 2.43   8 2.43
   4  0.000  0.000  0.000-   5 2.47   6 2.47   7 2.47   8 2.47
   5  0.253  0.253  0.253-   1 2.43   2 2.43   3 2.43   4 2.47
   6  0.747  0.747  0.253-   1 2.43   2 2.43   3 2.43   4 2.47
   7  0.253  0.747  0.747-   1 2.43   2 2.43   3 2.43   4 2.47
   8  0.747  0.253  0.747-   1 2.43   2 2.43   3 2.43   4 2.47
 
  LATTYP: Found a simple cubic cell.
 ALAT       =     5.6266000000
  
  Lattice vectors:
  
 A1 = (   5.6266000000,   0.0000000000,   0.0000000000)
 A2 = (   0.0000000000,   5.6266000000,   0.0000000000)
 A3 = (   0.0000000000,   0.0000000000,   5.6266000000)
 Subroutine PRICEL returns:
 Original cell was already a primitive cell.
 

Analysis of symmetry for initial positions (statically):

 Routine SETGRP: Setting up the symmetry group for a 
 simple cubic supercell.


 Subroutine GETGRP returns: Found 24 space group operations
 (whereof 24 operations were pure point group operations)
 out of a pool of 48 trial point group operations.


The static configuration has the point symmetry T_d .

Analysis of symmetry for dynamics (positions and initial velocities):

 Subroutine DYNSYM returns: Found 24 space group operations
 (whereof 24 operations were pure point group operations)
 out of a pool of 24 trial space group operations
 (whereof 24 operations were pure point group operations)
 and found also     1 'primitive' translations


The dynamic configuration has the point symmetry T_d .

Analysis of magnetic symmetry:

 Subroutine MAGSYM returns: Found 24 space group operations
 (whereof 24 operations were pure point group operations)
 out of a pool of 24 trial space group operations
 (whereof 24 operations were pure point group operations)
 and found also     1 'primitive' translations


The magnetic configuration has the point symmetry T_d .
 
 
 KPOINTS: Automatic kpoint scheme                 

Automatic generation of k-mesh.
 
 Subroutine IBZKPT returns following result:
 ===========================================
 
 Found      1 irreducible k-points:
 
 Following reciprocal coordinates:
            Coordinates               Weight
  0.250000  0.250000  0.250000      8.000000
 
 Following cartesian coordinates:
            Coordinates               Weight
  0.044432  0.044432  0.044432      8.000000
 


--------------------------------------------------------------------------------------------------------




 Dimension of arrays:
   k-points           NKPTS =      1   k-points in BZ     NKDIM =      1   number of bands    NBANDS=     41
   number of dos      NEDOS =    301   number of ions     NIONS =      8
   non local maximal  LDIM  =      6   non local SUM 2l+1 LMDIM =     18
   total plane-waves  NPLWV =  13824
   max r-space proj   IRMAX =      1   max aug-charges    IRDMAX=   3410
   dimension x,y,z NGX =    24 NGY =   24 NGZ =   24
   dimension x,y,z NGXF=    48 NGYF=   48 NGZF=   48
   support grid    NGXF=    48 NGYF=   48 NGZF=   48
   ions per type =               3   5
 NGX,Y,Z   is equivalent  to a cutoff of   7.09,  7.09,  7.09 a.u.
 NGXF,Y,Z  is equivalent  to a cutoff of  14.18, 14.18, 14.18 a.u.


 I would recommend the setting:
   dimension x,y,z NGX =    24 NGY =   24 NGZ =   24
 SYSTEM =  unknown system                          
 POSCAR =  Ga3 As5                                 

 Startparameter for this run:
   NWRITE =      2    write-flag & timer
   PREC   = normal    medium, high low
   ISTART =      0    job   : 0-new  1-cont  2-samecut
   ICHARG =      2    charge: 1-file 2-atom 10-const
   ISPIN  =      2    spin polarized calculation?
   LNONCOLLINEAR =      F non collinear calculations
   LSORBIT =      F    spin-orbit coupling
   INIWAV =      1    electr: 0-lowe 1-rand  2-diag
   LASPH  =      F    aspherical Exc in radial PAW
   METAGGA=      F    non-selfconsistent MetaGGA calc.

 Electronic Relaxation 1
   ENCUT  =  313.0 eV  23.00 Ry    4.80 a.u.   8.12  8.12  8.12*2*pi/ulx,y,z
   ENINI  =  313.0     initial cutoff
   ENAUG  =  490.7 eV  augmentation charge cutoff
   NELM   =     60;   NELMIN=  2; NELMDL= -5     # of ELM steps 
   EDIFF  = 0.1E-03   stopping-criterion for ELM
   LREAL  =      F    real-space projection
   LCOMPAT=      F    compatible to vasp.4.4
   LREAL_COMPAT= F    compatible to vasp.4.5.1-3
   GGA_COMPAT  = T    GGA compatible to vasp.4.4-vasp.4.6
   LMAXPAW     = -100 max onsite density
   LMAXMIX     =    2 max onsite mixed and CHGCAR
   VOSKOWN=      0    Vosko Wilk Nusair interpolation
   ROPT   =    0.00000   0.00000
 Ionic relaxation
   EDIFFG = 0.1E-02   stopping-criterion for IOM
   NSW    =      0    number of steps for IOM
   NBLOCK =      1;   KBLOCK =      1    inner block; outer block 
   IBRION =     -1    ionic relax: 0-MD 1-quasi-New 2-CG
   NFREE  =      0    steps in history (QN), initial steepest desc. (CG)
   ISIF   =      2    stress and relaxation
   IWAVPR =     10    prediction:  0-non 1-charg 2-wave 3-comb
   ISYM   =      2    0-nonsym 1-usesym 2-fastsym
   LCORR  =      T    Harris-Foulkes like correction to forces

   POTIM  = 0.5000    time-step for ionic-motion
   TEIN   =    0.0    initial temperature
   TEBEG  =    0.0;   TEEND  =   0.0 temperature during run
   SMASS  =  -3.00    Nose mass-parameter (am)
   estimated Nose-frequenzy (Omega)   =  0.10E-29 period in steps =****** mass=  -0.723E-27a.u.
   NPACO  =    256;   APACO  = 16.0  distance and # of slots for P.C.
   PSTRESS=    0.0 pullay stress

  Mass of Ions in am
   POMASS =  69.72 74.92
  Ionic Valenz
   ZVAL   =  13.00  5.00
  Atomic Wigner-Seitz radii
   RWIGS  =  -1.00 -1.00
   NELECT =      62.0000    total number of electrons
   NUPDOWN=      -1.0000    fix difference up-down

 DOS related values:
   EMIN   =  10.00;   EMAX   =-10.00  energy-range for DOS
   EFERMI =   0.00
   ISMEAR =     1;   SIGMA  =   0.20  broadening in eV -4-tet -1-fermi 0-gaus

 Electronic relaxation 2 (details)
   IALGO  =     38    algorithm
   LDIAG  =      T    sub-space diagonalisation
   IMIX   =      4    mixing-type and parameters
     AMIX     =   0.40;   BMIX     =  1.00
     AMIX_MAG =   1.60;   BMIX_MAG =  1.00
     AMIN     =   0.10
     WC   =   100.;   INIMIX=   1;  MIXPRE=   1

 Intra band minimization:
   WEIMIN = 0.0000     energy-eigenvalue tresh-hold
   EBREAK =  0.61E-06  absolut break condition
   DEPER  =   0.30     relativ break condition  

   TIME   =   0.40     timestep for ELM

  volume/ion in A,a.u.               =      22.27       150.26
  Fermi-wavevector in a.u.,A,eV,Ry     =   1.151576  2.176163 18.043064  1.326128
  Thomas-Fermi vector in A             =   2.288233
 
 Write flags
   LWAVE  =      F    write WAVECAR
   LCHARG =      F    write CHGCAR
   LVTOT  =      F    write LOCPOT, local potential
   LELF   =      F    write electronic localiz. function (ELF)
   LORBIT =      0    0 simple, 1 ext, 2 COOP (PROOUT)


 Dipole corrections
   LMONO  =      F    monopole corrections only (constant potential shift)
   LDIPOL =      F    correct potential (dipole corrections)
   IDIPOL =      0    1-x, 2-y, 3-z, 4-all directions 
   EPSILON=  1.0000000 bulk dielectric constant

 Exchange correlation treatment:
   GGA     =    --    GGA type
   LEXCH   =     8    internal setting for exchange type
   VOSKOWN=      0    Vosko Wilk Nusair interpolation
   LHFCALC =     F    Hartree Fock is set to
   LHFONE  =     F    Hartree Fock one center treatment
   AEXX    =    0.0000 exact exchange contribution

 Linear response parameters
   LEPSILON=     F    determine dielectric tensor
   LRPA    =     F    only Hartree local field effects (RPA)
   LNABLA  =     F    use nabla operator in PAW spheres
   LVEL    =     F    velocity operator in full k-point grid
   LINTERFAST=   F  fast interpolation
   KINTER  =     0    interpolate to denser k-point grid
   CSHIFT  =0.1000    complex shift for real part using Kramers Kronig
   OMEGAMAX=  -1.0    maximum frequency

 Orbital magnetization related:
   ORBITALMAG=     F  switch on orbital magnetization
   LCHIMAG   =     F  perturbation theory with respect to B field



--------------------------------------------------------------------------------------------------------


 Static calculation
 charge density and potential will be updated during run
 spin polarized calculation
 Variant of blocked Davidson
 Davidson routine will perform the subspace rotation
 perform sub-space diagonalisation
    after iterative eigenvector-optimisation
 modified Broyden-mixing scheme, WC =      100.0
 initial mixing is a Kerker type mixing with AMIX =  0.4000 and BMIX =      1.0000
 Hartree-type preconditioning will be used
 using additional bands           10
 reciprocal scheme for non local part
 use partial core corrections
 calculate Harris-corrections to forces 
   (improved forces if not selfconsistent)
 use gradient corrections 
 use of overlap-Matrix (Vanderbilt PP)
 Methfessel and Paxton  Order N= 1 SIGMA  =   0.20


--------------------------------------------------------------------------------------------------------


  energy-cutoff  :      313.00
  volume of cell :      178.13
      direct lattice vectors                 reciprocal lattice vectors
     5.626600000  0.000000000  0.000000000     0.177727224  0.000000000  0.000000000
     0.000000000  5.626600000  0.000000000     0.000000000  0.177727224  0.000000000
     0.000000000  0.000000000  5.626600000     0.000000000  0.000000000  0.177727224

  length of vectors
     5.626600000  5.626600000  5.626600000     0.177727224  0.177727224  0.177727224


 
 k-points in units of 2pi/SCALE and weight: Automatic kpoint scheme                 
   0.04443181  0.04443181  0.04443181       1.000
 
 k-points in reciprocal lattice and weights: Automatic kpoint scheme                 
   0.25000000  0.25000000  0.25000000       1.000
 
 position of ions in fractional coordinates (direct lattice) 
   0.50000000  0.50000000  0.00000000
   0.00000000  0.50000000  0.50000000
   0.50000000  0.00000000  0.50000000
   0.00000000  0.00000000  0.00000000
   0.25295500  0.25295500  0.25295500
   0.74704500  0.74704500  0.25295500
   0.25295500  0.74704500  0.74704500
   0.74704500  0.25295500  0.74704500
 
 position of ions in cartesian coordinates  (Angst):
   2.81330000  2.81330000  0.00000000
   0.00000000  2.81330000  2.81330000
   2.81330000  0.00000000  2.81330000
   0.00000000  0.00000000  0.00000000
   1.42327660  1.42327660  1.42327660
   4.20332340  4.20332340  1.42327660
   1.42327660  4.20332340  4.20332340
   4.20332340  1.42327660  4.20332340
 


--------------------------------------------------------------------------------------------------------


 k-point  1 :  0.25000.25000.2500  plane waves:    2238

 maximum and minimum number of plane-waves per node :    2238   2238

 maximum number of plane-waves:    2238
 maximal index in each direction: 
   IXMAX=  7   IYMAX=  7   IZMAX=  7
   IXMIN= -8   IYMIN= -8   IZMIN= -8

 WARNING: aliasing errors must be expected set NGX to  32 to avoid them
 WARNING: aliasing errors must be expected set NGY to  32 to avoid them
 WARNING: aliasing errors must be expected set NGZ to  32 to avoid them
 aliasing errors are usually negligible using standard VASP settings
 and one can safely disregard these warnings

 serial   3D FFT for wavefunctions
 parallel 3D FFT for charge:
    minimum data exchange during FFTs selected (reduces bandwidth)


 total amount of memory used by VASP on root node  48453. kBytes
========================================================================

   base      :    30000. kBytes
   nonl-proj :      931. kBytes
   fftplans  :     3916. kBytes
   grid      :    10266. kBytes
   one-center:      248. kBytes
   wavefun   :     3092. kBytes
 
 Broyden mixing: mesh for mixing (old mesh)
   NGX = 17   NGY = 17   NGZ = 17
  (NGX  = 48   NGY  = 48   NGZ  = 48)
  gives a total of   4913 points

 initial charge density was supplied:
 charge density of overlapping atoms calculated
 number of electron   64.0000000 magnetization    8.0000000
 keeping initial charge density in first step


--------------------------------------------------------------------------------------------------------


 Maximum index for augmentation-charges         3119 (set IRDMAX)


--------------------------------------------------------------------------------------------------------


 First call to EWALD:  gamma=   0.315
 Maximum number of real-space cells 3x 3x 3
 Maximum number of reciprocal cells 3x 3x 3

    FEWALD:  cpu time    0.02: real time    0.00
   RESPFUN:  cpu time    0.00: real time    0.00


----------------------------------------- Iteration    1(   1)  ---------------------------------------


    POTLOK:  cpu time    0.63: real time    0.49
    SETDIJ:  cpu time    0.14: real time    0.14
     EDDAV:  cpu time    5.49: real time    1.39
       DOS:  cpu time    0.00: real time    0.00
    --------------------------------------------
      LOOP:  cpu time    6.27: real time    2.02

 eigenvalue-minimisations  :   180
 total energy-change (2. order) : 0.4091735E+03  (-0.2094044E+04)
 number of electron   64.0000000 magnetization    8.0000000
 augmentation part    64.0000000 magnetization    8.0000000

 Free energy of the ion-electron system (eV)
  ---------------------------------------------------
  alpha Z        PSCENC =       238.57420726
  Ewald energy   TEWEN  =     -4007.57598818
  -1/2 Hartree   DENC   =     -2336.36795077
  -exchange  EXHF       =         0.00000000
  -V(xc)+E(xc)   XCENC  =       131.33728770
  PAW double counting   =      4603.32715501    -5555.02375600
  entropy T*S    EENTRO =         0.01105296
  eigenvalues    EBANDS =        37.41698785
  atomic energy  EATOM  =      7297.47453259
  ---------------------------------------------------
  free energy    TOTEN  =       409.17352844 eV

  energy without entropy =      409.16247547  energy(sigma->0) =      409.16984411


--------------------------------------------------------------------------------------------------------




----------------------------------------- Iteration    1(   2)  ---------------------------------------


     EDDAV:  cpu time    4.97: real time    1.25
       DOS:  cpu time    0.00: real time    0.00
    --------------------------------------------
      LOOP:  cpu time    4.98: real time    1.25

 eigenvalue-minimisations  :   172
 total energy-change (2. order) :-0.3816630E+03  (-0.3626601E+03)
 number of electron   64.0000000 magnetization    8.0000000
 augmentation part    64.0000000 magnetization    8.0000000

 Free energy of the ion-electron system (eV)
  ---------------------------------------------------
  alpha Z        PSCENC =       238.57420726
  Ewald energy   TEWEN  =     -4007.57598818
  -1/2 Hartree   DENC   =     -2336.36795077
  -exchange  EXHF       =         0.00000000
  -V(xc)+E(xc)   XCENC  =       131.33728770
  PAW double counting   =      4603.32715501    -5555.02375600
  entropy T*S    EENTRO =         0.02412097
  eigenvalues    EBANDS =      -344.25908496
  atomic energy  EATOM  =      7297.47453259
  ---------------------------------------------------
  free energy    TOTEN  =        27.51052362 eV

  energy without entropy =       27.48640265  energy(sigma->0) =       27.50248330


--------------------------------------------------------------------------------------------------------




----------------------------------------- Iteration    1(   3)  ---------------------------------------


     EDDAV:  cpu time    5.48: real time    1.39
       DOS:  cpu time    0.00: real time    0.00
    --------------------------------------------
      LOOP:  cpu time    5.49: real time    1.39

 eigenvalue-minimisations  :   198
 total energy-change (2. order) :-0.6312426E+02  (-0.6132192E+02)
 number of electron   64.0000000 magnetization    8.0000000
 augmentation part    64.0000000 magnetization    8.0000000

 Free energy of the ion-electron system (eV)
  ---------------------------------------------------
  alpha Z        PSCENC =       238.57420726
  Ewald energy   TEWEN  =     -4007.57598818
  -1/2 Hartree   DENC   =     -2336.36795077
  -exchange  EXHF       =         0.00000000
  -V(xc)+E(xc)   XCENC  =       131.33728770
  PAW double counting   =      4603.32715501    -5555.02375600
  entropy T*S    EENTRO =         0.02224195
  eigenvalues    EBANDS =      -407.38146139
  atomic energy  EATOM  =      7297.47453259
  ---------------------------------------------------
  free energy    TOTEN  =       -35.61373182 eV

  energy without entropy =      -35.63597377  energy(sigma->0) =      -35.62114580


--------------------------------------------------------------------------------------------------------




----------------------------------------- Iteration    1(   4)  ---------------------------------------


     EDDAV:  cpu time    5.53: real time    1.40
       DOS:  cpu time    0.00: real time    0.00
    --------------------------------------------
      LOOP:  cpu time    5.54: real time    1.40

 eigenvalue-minimisations  :   200
 total energy-change (2. order) :-0.3099757E+01  (-0.3082666E+01)
 number of electron   64.0000000 magnetization    8.0000000
 augmentation part    64.0000000 magnetization    8.0000000

 Free energy of the ion-electron system (eV)
  ---------------------------------------------------
  alpha Z        PSCENC =       238.57420726
  Ewald energy   TEWEN  =     -4007.57598818
  -1/2 Hartree   DENC   =     -2336.36795077
  -exchange  EXHF       =         0.00000000
  -V(xc)+E(xc)   XCENC  =       131.33728770
  PAW double counting   =      4603.32715501    -5555.02375600
  entropy T*S    EENTRO =         0.01992929
  eigenvalues    EBANDS =      -410.47890591
  atomic energy  EATOM  =      7297.47453259
  ---------------------------------------------------
  free energy    TOTEN  =       -38.71348900 eV

  energy without entropy =      -38.73341829  energy(sigma->0) =      -38.72013210


--------------------------------------------------------------------------------------------------------




----------------------------------------- Iteration    1(   5)  ---------------------------------------


     EDDAV:  cpu time    5.41: real time    1.36
       DOS:  cpu time    0.00: real time    0.00
    CHARGE:  cpu time    0.23: real time    0.13
    MIXING:  cpu time    0.01: real time    0.01
    --------------------------------------------
      LOOP:  cpu time    5.66: real time    1.50

 eigenvalue-minimisations  :   192
 total energy-change (2. order) :-0.6485412E-01  (-0.6479619E-01)
 number of electron   61.9999020 magnetization    0.8706374
 augmentation part    21.3965672 magnetization    0.9567402

 Broyden mixing:
  rms(total) = 0.13320E+01    rms(broyden)= 0.13235E+01
  rms(prec ) = 0.15600E+01
  weight for this iteration     100.00

 Free energy of the ion-electron system (eV)
  ---------------------------------------------------
  alpha Z        PSCENC =       238.57420726
  Ewald energy   TEWEN  =     -4007.57598818
  -1/2 Hartree   DENC   =     -2336.36795077
  -exchange  EXHF       =         0.00000000
  -V(xc)+E(xc)   XCENC  =       131.33728770
  PAW double counting   =      4603.32715501    -5555.02375600
  entropy T*S    EENTRO =         0.02019258
  eigenvalues    EBANDS =      -410.54402332
  atomic energy  EATOM  =      7297.47453259
  ---------------------------------------------------
  free energy    TOTEN  =       -38.77834312 eV

  energy without entropy =      -38.79853570  energy(sigma->0) =      -38.78507398


--------------------------------------------------------------------------------------------------------




----------------------------------------- Iteration    1(   6)  ---------------------------------------


    POTLOK:  cpu time    0.49: real time    0.49
    SETDIJ:  cpu time    0.15: real time    0.15
     EDDAV:  cpu time    6.43: real time    1.67
       DOS:  cpu time    0.00: real time    0.00
    CHARGE:  cpu time    0.22: real time    0.12
    MIXING:  cpu time    0.01: real time    0.01
    --------------------------------------------
      LOOP:  cpu time    7.31: real time    2.44

 eigenvalue-minimisations  :   240
 total energy-change (2. order) :-0.1268723E+01  (-0.1453952E+00)
 number of electron   61.9999019 magnetization    0.3001483
 augmentation part    21.4324931 magnetization    0.1730322

 Broyden mixing:
  rms(total) = 0.50564E+00    rms(broyden)= 0.50563E+00
  rms(prec ) = 0.65419E+00
  weight for this iteration     100.00

 eigenvalues of (default mixing * dielectric matrix)
  average eigenvalue GAMMA=   0.7565
  0.7565

 Free energy of the ion-electron system (eV)
  ---------------------------------------------------
  alpha Z        PSCENC =       238.57420726
  Ewald energy   TEWEN  =     -4007.57598818
  -1/2 Hartree   DENC   =     -2329.78728617
  -exchange  EXHF       =         0.00000000
  -V(xc)+E(xc)   XCENC  =       125.00711509
  PAW double counting   =      4657.36459533    -5607.60596081
  entropy T*S    EENTRO =         0.02463179
  eigenvalues    EBANDS =      -413.52291304
  atomic energy  EATOM  =      7297.47453259
  ---------------------------------------------------
  free energy    TOTEN  =       -40.04706612 eV

  energy without entropy =      -40.07169792  energy(sigma->0) =      -40.05527672


--------------------------------------------------------------------------------------------------------




----------------------------------------- Iteration    1(   7)  ---------------------------------------


    POTLOK:  cpu time    0.49: real time    0.49
    SETDIJ:  cpu time    0.14: real time    0.14
     EDDAV:  cpu time    5.93: real time    1.50
       DOS:  cpu time    0.00: real time    0.00
    CHARGE:  cpu time    0.22: real time    0.12
    MIXING:  cpu time    0.01: real time    0.01
    --------------------------------------------
      LOOP:  cpu time    6.80: real time    2.27

 eigenvalue-minimisations  :   216
 total energy-change (2. order) :-0.1824519E+00  (-0.4948422E-01)
 number of electron   61.9999020 magnetization   -0.1067550
 augmentation part    21.4427051 magnetization   -0.1154629

 Broyden mixing:
  rms(total) = 0.20659E+00    rms(broyden)= 0.20659E+00
  rms(prec ) = 0.33693E+00
  weight for this iteration     100.00

 eigenvalues of (default mixing * dielectric matrix)
  average eigenvalue GAMMA=   0.9558
  0.7174  1.1942

 Free energy of the ion-electron system (eV)
  ---------------------------------------------------
  alpha Z        PSCENC =       238.57420726
  Ewald energy   TEWEN  =     -4007.57598818
  -1/2 Hartree   DENC   =     -2329.84128824
  -exchange  EXHF       =         0.00000000
  -V(xc)+E(xc)   XCENC  =       125.02296960
  PAW double counting   =      4692.43982633    -5644.98257037
  entropy T*S    EENTRO =         0.02323755
  eigenvalues    EBANDS =      -411.36444456
  atomic energy  EATOM  =      7297.47453259
  ---------------------------------------------------
  free energy    TOTEN  =       -40.22951802 eV

  energy without entropy =      -40.25275557  energy(sigma->0) =      -40.23726387


--------------------------------------------------------------------------------------------------------




----------------------------------------- Iteration    1(   8)  ---------------------------------------


    POTLOK:  cpu time    0.51: real time    0.49
    SETDIJ:  cpu time    0.14: real time    0.14
     EDDAV:  cpu time    5.73: real time    1.45
       DOS:  cpu time    0.00: real time    0.00
    CHARGE:  cpu time    0.22: real time    0.12
    MIXING:  cpu time    0.02: real time    0.01
    --------------------------------------------
      LOOP:  cpu time    6.64: real time    2.22

 eigenvalue-minimisations  :   191
 total energy-change (2. order) : 0.2434055E-01  (-0.9303319E-02)
 number of electron   61.9999020 magnetization   -0.0647893
 augmentation part    21.4531724 magnetization   -0.0600167

 Broyden mixing:
  rms(total) = 0.84698E-01    rms(broyden)= 0.84698E-01
  rms(prec ) = 0.13893E+00
  weight for this iteration     100.00

 eigenvalues of (default mixing * dielectric matrix)
  average eigenvalue GAMMA=   1.1620
  1.8826  0.9048  0.6986

 Free energy of the ion-electron system (eV)
  ---------------------------------------------------
  alpha Z        PSCENC =       238.57420726
  Ewald energy   TEWEN  =     -4007.57598818
  -1/2 Hartree   DENC   =     -2330.65454255
  -exchange  EXHF       =         0.00000000
  -V(xc)+E(xc)   XCENC  =       125.26398792
  PAW double counting   =      4734.38888185    -5689.83140638
  entropy T*S    EENTRO =         0.02320077
  eigenvalues    EBANDS =      -407.86805075
  atomic energy  EATOM  =      7297.47453259
  ---------------------------------------------------
  free energy    TOTEN  =       -40.20517747 eV

  energy without entropy =      -40.22837823  energy(sigma->0) =      -40.21291106


--------------------------------------------------------------------------------------------------------




----------------------------------------- Iteration    1(   9)  ---------------------------------------


    POTLOK:  cpu time    0.54: real time    0.49
    SETDIJ:  cpu time    0.14: real time    0.15
     EDDAV:  cpu time    5.42: real time    1.37
       DOS:  cpu time    0.00: real time    0.00
    CHARGE:  cpu time    0.22: real time    0.12
    MIXING:  cpu time    0.03: real time    0.01
    --------------------------------------------
      LOOP:  cpu time    6.36: real time    2.14

 eigenvalue-minimisations  :   192
 total energy-change (2. order) :-0.2667398E-02  (-0.2391539E-02)
 number of electron   61.9999020 magnetization   -0.0181606
 augmentation part    21.4561796 magnetization   -0.0082313

 Broyden mixing:
  rms(total) = 0.28872E-01    rms(broyden)= 0.28872E-01
  rms(prec ) = 0.37259E-01
  weight for this iteration     100.00

 eigenvalues of (default mixing * dielectric matrix)
  average eigenvalue GAMMA=   1.2354
  2.4154  1.0749  0.7849  0.6664

 Free energy of the ion-electron system (eV)
  ---------------------------------------------------
  alpha Z        PSCENC =       238.57420726
  Ewald energy   TEWEN  =     -4007.57598818
  -1/2 Hartree   DENC   =     -2331.64490544
  -exchange  EXHF       =         0.00000000
  -V(xc)+E(xc)   XCENC  =       125.43412664
  PAW double counting   =      4759.06085556    -5716.26574283
  entropy T*S    EENTRO =         0.02320378
  eigenvalues    EBANDS =      -405.28813425
  atomic energy  EATOM  =      7297.47453259
  ---------------------------------------------------
  free energy    TOTEN  =       -40.20784486 eV

  energy without entropy =      -40.23104864  energy(sigma->0) =      -40.21557946


--------------------------------------------------------------------------------------------------------




----------------------------------------- Iteration    1(  10)  ---------------------------------------


    POTLOK:  cpu time    0.57: real time    0.49
    SETDIJ:  cpu time    0.14: real time    0.14
     EDDAV:  cpu time    6.19: real time    1.57
       DOS:  cpu time    0.00: real time    0.00
    CHARGE:  cpu time    0.22: real time    0.12
    MIXING:  cpu time    0.03: real time    0.01
    --------------------------------------------
      LOOP:  cpu time    7.16: real time    2.35

 eigenvalue-minimisations  :   214
 total energy-change (2. order) :-0.6571660E-03  (-0.2686071E-03)
 number of electron   61.9999020 magnetization   -0.0016211
 augmentation part    21.4563163 magnetization    0.0060168

 Broyden mixing:
  rms(total) = 0.98179E-02    rms(broyden)= 0.98179E-02
  rms(prec ) = 0.15524E-01
  weight for this iteration     100.00

 eigenvalues of (default mixing * dielectric matrix)
  average eigenvalue GAMMA=   1.2099
  2.5320  1.2171  0.6422  0.7476  0.9104

 Free energy of the ion-electron system (eV)
  ---------------------------------------------------
  alpha Z        PSCENC =       238.57420726
  Ewald energy   TEWEN  =     -4007.57598818
  -1/2 Hartree   DENC   =     -2331.91458611
  -exchange  EXHF       =         0.00000000
  -V(xc)+E(xc)   XCENC  =       125.46344707
  PAW double counting   =      4761.49698302    -5718.83623216
  entropy T*S    EENTRO =         0.02319728
  eigenvalues    EBANDS =      -404.91406281
  atomic energy  EATOM  =      7297.47453259
  ---------------------------------------------------
  free energy    TOTEN  =       -40.20850203 eV

  energy without entropy =      -40.23169931  energy(sigma->0) =      -40.21623446


--------------------------------------------------------------------------------------------------------




----------------------------------------- Iteration    1(  11)  ---------------------------------------


    POTLOK:  cpu time    0.56: real time    0.48
    SETDIJ:  cpu time    0.14: real time    0.14
     EDDAV:  cpu time    4.75: real time    1.20
       DOS:  cpu time    0.00: real time    0.00
    CHARGE:  cpu time    0.23: real time    0.12
    MIXING:  cpu time    0.03: real time    0.02
    --------------------------------------------
      LOOP:  cpu time    5.72: real time    1.97

 eigenvalue-minimisations  :   160
 total energy-change (2. order) :-0.4179728E-03  (-0.5106405E-04)
 number of electron   61.9999020 magnetization    0.0025142
 augmentation part    21.4563887 magnetization    0.0037086

 Broyden mixing:
  rms(total) = 0.44464E-02    rms(broyden)= 0.44463E-02
  rms(prec ) = 0.73564E-02
  weight for this iteration     100.00

 eigenvalues of (default mixing * dielectric matrix)
  average eigenvalue GAMMA=   1.2802
  2.5525  1.7725  1.0891  0.8898  0.7410  0.6366

 Free energy of the ion-electron system (eV)
  ---------------------------------------------------
  alpha Z        PSCENC =       238.57420726
  Ewald energy   TEWEN  =     -4007.57598818
  -1/2 Hartree   DENC   =     -2332.08518702
  -exchange  EXHF       =         0.00000000
  -V(xc)+E(xc)   XCENC  =       125.47478162
  PAW double counting   =      4760.92825417    -5718.19395697
  entropy T*S    EENTRO =         0.02319204
  eigenvalues    EBANDS =      -404.82875552
  atomic energy  EATOM  =      7297.47453259
  ---------------------------------------------------
  free energy    TOTEN  =       -40.20892000 eV

  energy without entropy =      -40.23211204  energy(sigma->0) =      -40.21665068


--------------------------------------------------------------------------------------------------------




----------------------------------------- Iteration    1(  12)  ---------------------------------------


    POTLOK:  cpu time    0.56: real time    0.48
    SETDIJ:  cpu time    0.14: real time    0.14
     EDDAV:  cpu time    5.06: real time    1.28
       DOS:  cpu time    0.00: real time    0.00
    CHARGE:  cpu time    0.22: real time    0.13
    MIXING:  cpu time    0.03: real time    0.02
    --------------------------------------------
      LOOP:  cpu time    6.04: real time    2.05

 eigenvalue-minimisations  :   160
 total energy-change (2. order) :-0.1919121E-03  (-0.2257007E-04)
 number of electron   61.9999020 magnetization    0.0021729
 augmentation part    21.4565431 magnetization    0.0005768

 Broyden mixing:
  rms(total) = 0.17087E-02    rms(broyden)= 0.17086E-02
  rms(prec ) = 0.29723E-02
  weight for this iteration     100.00

 eigenvalues of (default mixing * dielectric matrix)
  average eigenvalue GAMMA=   1.3199
  2.6228  2.3920  1.1549  0.9387  0.6304  0.7466  0.7537

 Free energy of the ion-electron system (eV)
  ---------------------------------------------------
  alpha Z        PSCENC =       238.57420726
  Ewald energy   TEWEN  =     -4007.57598818
  -1/2 Hartree   DENC   =     -2332.20880951
  -exchange  EXHF       =         0.00000000
  -V(xc)+E(xc)   XCENC  =       125.48256231
  PAW double counting   =      4759.96386923    -5717.16491562
  entropy T*S    EENTRO =         0.02319208
  eigenvalues    EBANDS =      -404.77776208
  atomic energy  EATOM  =      7297.47453259
  ---------------------------------------------------
  free energy    TOTEN  =       -40.20911192 eV

  energy without entropy =      -40.23230399  energy(sigma->0) =      -40.21684261


--------------------------------------------------------------------------------------------------------




----------------------------------------- Iteration    1(  13)  ---------------------------------------


    POTLOK:  cpu time    0.56: real time    0.48
    SETDIJ:  cpu time    0.14: real time    0.14
     EDDAV:  cpu time    3.85: real time    0.97
       DOS:  cpu time    0.00: real time    0.00
    --------------------------------------------
      LOOP:  cpu time    4.56: real time    1.60

 eigenvalue-minimisations  :   104
 total energy-change (2. order) :-0.3119857E-04  (-0.3712480E-05)
 number of electron   61.9999020 magnetization    0.0021729
 augmentation part    21.4565431 magnetization    0.0005768

 Free energy of the ion-electron system (eV)
  ---------------------------------------------------
  alpha Z        PSCENC =       238.57420726
  Ewald energy   TEWEN  =     -4007.57598818
  -1/2 Hartree   DENC   =     -2332.26441956
  -exchange  EXHF       =         0.00000000
  -V(xc)+E(xc)   XCENC  =       125.48639143
  PAW double counting   =      4759.56887452    -5716.76758702
  entropy T*S    EENTRO =         0.02319174
  eigenvalues    EBANDS =      -404.72834589
  atomic energy  EATOM  =      7297.47453259
  ---------------------------------------------------
  free energy    TOTEN  =       -40.20914311 eV

  energy without entropy =      -40.23233485  energy(sigma->0) =      -40.21687369


--------------------------------------------------------------------------------------------------------




 average (electrostatic) potential at core
  the test charge radii are     1.0314  1.0621
  (the norm of the test charge is              1.0000)
       1 -29.6333       2 -29.6333       3 -29.6333       4 -52.5121       5 -51.1291
       6 -51.1291       7 -51.1291       8 -51.1291
 
 
 
 E-fermi :   2.7692     XC(G=0):  -9.3477     alpha+bet : -9.1293
   add alpha+bet to get absolut eigen values

 spin component 1

 k-point   1 :       0.2500    0.2500    0.2500
  band No.  band energies     occupation 
      1     -11.1893      1.00000
      2     -11.1547      1.00000
      3     -11.1547      1.00000
      4     -11.0980      1.00000
      5     -11.0572      1.00000
      6     -11.0572      1.00000
      7     -11.0480      1.00000
      8     -11.0375      1.00000
      9     -11.0375      1.00000
     10     -11.0268      1.00000
     11     -11.0089      1.00000
     12     -11.0089      1.00000
     13     -10.9837      1.00000
     14     -10.9837      1.00000
     15     -10.9705      1.00000
     16      -9.7106      1.00000
     17      -7.9177      1.00000
     18      -7.3470      1.00000
     19      -7.3470      1.00000
     20      -5.3998      1.00000
     21      -2.7489      1.00000
     22      -2.7489      1.00000
     23      -1.3468      1.00000
     24      -0.3542      1.00000
     25      -0.1061      1.00000
     26      -0.1061      1.00000
     27       0.8833      1.00000
     28       0.8833      1.00000
     29       1.6215      1.00000
     30       2.6008      1.00002
     31       2.6008      1.00002
     32       3.5877      0.00000
     33       5.5254      0.00000
     34       5.5254      0.00000
     35       5.5604      0.00000
     36       6.5576      0.00000
     37       7.2979      0.00000
     38       7.2979      0.00000
     39       8.4654      0.00000
     40       8.4654      0.00000
     41       8.9211      0.00000

 spin component 2

 k-point   1 :       0.2500    0.2500    0.2500
  band No.  band energies     occupation 
      1     -11.1899      1.00000
      2     -11.1553      1.00000
      3     -11.1553      1.00000
      4     -11.0986      1.00000
      5     -11.0578      1.00000
      6     -11.0578      1.00000
      7     -11.0487      1.00000
      8     -11.0381      1.00000
      9     -11.0381      1.00000
     10     -11.0274      1.00000
     11     -11.0095      1.00000
     12     -11.0095      1.00000
     13     -10.9844      1.00000
     14     -10.9844      1.00000
     15     -10.9711      1.00000
     16      -9.7108      1.00000
     17      -7.9176      1.00000
     18      -7.3469      1.00000
     19      -7.3469      1.00000
     20      -5.3998      1.00000
     21      -2.7489      1.00000
     22      -2.7489      1.00000
     23      -1.3469      1.00000
     24      -0.3541      1.00000
     25      -0.1061      1.00000
     26      -0.1061      1.00000
     27       0.8833      1.00000
     28       0.8833      1.00000
     29       1.6216      1.00000
     30       2.6009      0.99998
     31       2.6009      0.99998
     32       3.5877      0.00000
     33       5.5254      0.00000
     34       5.5254      0.00000
     35       5.5605      0.00000
     36       6.5574      0.00000
     37       7.2978      0.00000
     38       7.2978      0.00000
     39       8.4655      0.00000
     40       8.4655      0.00000
     41       8.9214      0.00000


--------------------------------------------------------------------------------------------------------


 soft charge-density along one line, spin component           1
         0         1         2         3         4         5         6         7         8         9
 total charge-density along one line
 
 soft charge-density along one line, spin component           2
         0         1         2         3         4         5         6         7         8         9
 total charge-density along one line
 
 pseudopotential strength for first ion, spin component:           1
-14.908   0.000   0.000   0.000   0.000   8.980   0.000   0.000
  0.000 -14.923   0.000   0.000   0.000   0.000   8.993   0.000
  0.000   0.000 -14.928   0.000   0.000   0.000   0.000   8.998
  0.000   0.000   0.000 -14.923   0.000   0.000   0.000   0.000
  0.000   0.000   0.000   0.000 -14.906   0.000   0.000   0.000
  8.980   0.000   0.000   0.000   0.000  -3.304   0.000   0.000
  0.000   8.993   0.000   0.000   0.000   0.000  -3.315   0.000
  0.000   0.000   8.998   0.000   0.000   0.000   0.000  -3.320
  0.000   0.000   0.000   8.993   0.000   0.000   0.000   0.000
  0.000   0.000   0.000   0.000   8.978   0.000   0.000   0.000
  0.000   0.000  -0.001   0.000   0.000   0.000   0.000   0.002
  0.000   0.000   0.000   0.000   0.000   0.000   0.000   0.000
  0.000   0.000   0.000  -0.002   0.000   0.000   0.000   0.000
 -0.002   0.000   0.000   0.000   0.000   0.003   0.000   0.000
  0.000  -0.002   0.000   0.000   0.000   0.000   0.003   0.000
  0.000   0.000   0.000   0.000   0.000   0.000   0.000   0.000
  0.000   0.000   0.000   0.000   0.000   0.000   0.000   0.000
  0.000   0.000   0.000   0.000   0.000   0.000   0.000   0.000
 pseudopotential strength for first ion, spin component:           2
-14.909   0.000   0.000   0.000   0.000   8.980   0.000   0.000
  0.000 -14.924   0.000   0.000   0.000   0.000   8.994   0.000
  0.000   0.000 -14.929   0.000   0.000   0.000   0.000   8.999
  0.000   0.000   0.000 -14.924   0.000   0.000   0.000   0.000
  0.000   0.000   0.000   0.000 -14.907   0.000   0.000   0.000
  8.980   0.000   0.000   0.000   0.000  -3.305   0.000   0.000
  0.000   8.994   0.000   0.000   0.000   0.000  -3.316   0.000
  0.000   0.000   8.999   0.000   0.000   0.000   0.000  -3.321
  0.000   0.000   0.000   8.994   0.000   0.000   0.000   0.000
  0.000   0.000   0.000   0.000   8.979   0.000   0.000   0.000
  0.000   0.000  -0.001   0.000   0.000   0.000   0.000   0.002
  0.000   0.000   0.000   0.000   0.000   0.000   0.000   0.000
  0.000   0.000   0.000  -0.002   0.000   0.000   0.000   0.000
 -0.002   0.000   0.000   0.000   0.000   0.003   0.000   0.000
  0.000  -0.002   0.000   0.000   0.000   0.000   0.003   0.000
  0.000   0.000   0.000   0.000   0.000   0.000   0.000   0.000
  0.000   0.000   0.000   0.000   0.000   0.000   0.000   0.000
  0.000   0.000   0.000   0.000   0.000   0.000   0.000   0.000
 total augmentation occupancy for first ion, spin component:           1
  2.042   0.000   0.000   0.000   0.000   0.062   0.000   0.000   0.000   0.000   0.000   0.000   0.000   0.141   0.000   0.000
  0.000   2.046   0.000   0.000   0.000   0.000   0.066   0.000   0.000   0.000   0.000   0.000   0.000   0.000   0.130   0.000
  0.000   0.000   2.009   0.000   0.000   0.000   0.000   0.014   0.000   0.000   0.003  -0.003   0.000   0.000   0.000   0.000
  0.000   0.000   0.000   2.046   0.000   0.000   0.000   0.000   0.066   0.000   0.000   0.000   0.130   0.000   0.000  -0.065
  0.000   0.000   0.000   0.000   2.007   0.000   0.000   0.000   0.000   0.016   0.000   0.000   0.000   0.000   0.000   0.000
  0.062   0.000   0.000   0.000   0.000   0.085   0.000   0.000   0.000   0.000   0.000   0.000   0.000   0.241   0.000   0.000
  0.000   0.066   0.000   0.000   0.000   0.000   0.089   0.000   0.000   0.000   0.000   0.000   0.000   0.000   0.219   0.000
  0.000   0.000   0.014   0.000   0.000   0.000   0.000   0.014   0.000   0.000  -0.001  -0.005   0.000   0.000   0.000   0.000
  0.000   0.000   0.000   0.066   0.000   0.000   0.000   0.000   0.089   0.000   0.000   0.000   0.219   0.000   0.000  -0.073
  0.000   0.000   0.000   0.000   0.016   0.000   0.000   0.000   0.000   0.024   0.000   0.000   0.000   0.000   0.000   0.000
  0.000   0.000   0.003   0.000   0.000   0.000   0.000  -0.001   0.000   0.000   1.359  -0.318   0.000   0.000   0.000   0.000
  0.000   0.000  -0.003   0.000   0.000   0.000   0.000  -0.005   0.000   0.000  -0.318   0.137   0.000   0.000   0.000   0.000
  0.000   0.000   0.000   0.130   0.000   0.000   0.000   0.000   0.219   0.000   0.000   0.000   0.880   0.000   0.000  -0.272
  0.141   0.000   0.000   0.000   0.000   0.241   0.000   0.000   0.000   0.000   0.000   0.000   0.000   0.891   0.000   0.000
  0.000   0.130   0.000   0.000   0.000   0.000   0.219   0.000   0.000   0.000   0.000   0.000   0.000   0.000   0.880   0.000
  0.000   0.000   0.000  -0.065   0.000   0.000   0.000   0.000  -0.073   0.000   0.000   0.000  -0.272   0.000   0.000   0.101
 -0.067   0.000   0.000   0.000   0.000  -0.076   0.000   0.000   0.000   0.000   0.000   0.000   0.000  -0.274   0.000   0.000
  0.000  -0.065   0.000   0.000   0.000   0.000  -0.073   0.000   0.000   0.000   0.000   0.000   0.000   0.000  -0.272   0.000
 total augmentation occupancy for first ion, spin component:           2
  0.000   0.000   0.000   0.000   0.000   0.000   0.000   0.000   0.000   0.000   0.000   0.000   0.000   0.000   0.000   0.000
  0.000   0.000   0.000   0.000   0.000   0.000   0.000   0.000   0.000   0.000   0.000   0.000   0.000   0.000   0.000   0.000
  0.000   0.000   0.000   0.000   0.000   0.000   0.000   0.000   0.000   0.000   0.000   0.000   0.000   0.000   0.000   0.000
  0.000   0.000   0.000   0.000   0.000   0.000   0.000   0.000   0.000   0.000   0.000   0.000   0.000   0.000   0.000   0.000
  0.000   0.000   0.000   0.000   0.000   0.000   0.000   0.000   0.000   0.000   0.000   0.000   0.000   0.000   0.000   0.000
  0.000   0.000   0.000   0.000   0.000   0.000   0.000   0.000   0.000   0.000   0.000   0.000   0.000   0.000   0.000   0.000
  0.000   0.000   0.000   0.000   0.000   0.000   0.000   0.000   0.000   0.000   0.000   0.000   0.000   0.000   0.000   0.000
  0.000   0.000   0.000   0.000   0.000   0.000   0.000   0.000   0.000   0.000   0.000   0.000   0.000   0.000   0.000   0.000
  0.000   0.000   0.000   0.000   0.000   0.000   0.000   0.000   0.000   0.000   0.000   0.000   0.000   0.000   0.000   0.000
  0.000   0.000   0.000   0.000   0.000   0.000   0.000   0.000   0.000   0.000   0.000   0.000   0.000   0.000   0.000   0.000
  0.000   0.000   0.000   0.000   0.000   0.000   0.000   0.000   0.000   0.000   0.000   0.000   0.000   0.000   0.000   0.000
  0.000   0.000   0.000   0.000   0.000   0.000   0.000   0.000   0.000   0.000   0.000   0.000   0.000   0.000   0.000   0.000
  0.000   0.000   0.000   0.000   0.000   0.000   0.000   0.000   0.000   0.000   0.000   0.000   0.000   0.000   0.000   0.000
  0.000   0.000   0.000   0.000   0.000   0.000   0.000   0.000   0.000   0.000   0.000   0.000   0.000   0.000   0.000   0.000
  0.000   0.000   0.000   0.000   0.000   0.000   0.000   0.000   0.000   0.000   0.000   0.000   0.000   0.000   0.000   0.000
  0.000   0.000   0.000   0.000   0.000   0.000   0.000   0.000   0.000   0.000   0.000   0.000   0.000   0.000   0.000   0.000
  0.000   0.000   0.000   0.000   0.000   0.000   0.000   0.000   0.000   0.000   0.000   0.000   0.000   0.000   0.000   0.000
  0.000   0.000   0.000   0.000   0.000   0.000   0.000   0.000   0.000   0.000   0.000   0.000   0.000   0.000   0.000   0.000


------------------------ aborting loop because EDIFF is reached ----------------------------------------




--------------------------------------------------------------------------------------------------------



  FREE ENERGIE OF THE ION-ELECTRON SYSTEM (eV)
  ---------------------------------------------------
  free  energy   TOTEN  =       -40.209143 eV

  energy  without entropy=      -40.232335  energy(sigma->0) =      -40.216874
 
    CHARGE:  cpu time    0.19: real time    0.12
    FORLOC:  cpu time    0.03: real time    0.03
    FORNL :  cpu time    0.79: real time    0.79
    STRESS:  cpu time    3.50: real time    1.09
    FORCOR:  cpu time    0.51: real time    0.51
    FORHAR:  cpu time    0.08: real time    0.08
    MIXING:  cpu time    0.04: real time    0.02

  FORCE on cell =-STRESS in cart. coord.  units (eV):
  Direction    XX          YY          ZZ          XY          YZ          ZX
  --------------------------------------------------------------------------------------
  Alpha Z   238.57421   238.57421   238.57421
  Ewald   -1335.86050 -1335.86050 -1335.86050     0.00000     0.00000     0.00000
  Hartree   777.43655   777.43655   777.43655     0.00000     0.00000     0.00000
  E(xc)    -314.06820  -314.06820  -314.06820     0.00000     0.00000     0.00000
  Local     210.38402   210.38402   210.38402     0.00000     0.00000     0.00000
  n-local   139.08282   139.08280   139.08275    -4.18123    -4.18121    -4.18121
  augment  -137.43897  -137.43897  -137.43893    -0.00001     0.00000    -0.00002
  Kinetic   411.30560   411.30558   411.30565   -11.74924   -11.74924   -11.74923
  Fock        0.00000     0.00000     0.00000     0.00000     0.00000     0.00000
  -------------------------------------------------------------------------------------
  Total     -10.58448   -10.58448   -10.58448     0.00000     0.00000     0.00000
  in kB     -95.20110   -95.20110   -95.20110     0.00000     0.00000     0.00000
  external pressure =      -95.20 kB  Pullay stress =        0.00 kB


 VOLUME and BASIS-vectors are now :
 -----------------------------------------------------------------------------
  energy-cutoff  :      313.00
  volume of cell :      178.13
      direct lattice vectors                 reciprocal lattice vectors
     5.626600000  0.000000000  0.000000000     0.177727224  0.000000000  0.000000000
     0.000000000  5.626600000  0.000000000     0.000000000  0.177727224  0.000000000
     0.000000000  0.000000000  5.626600000     0.000000000  0.000000000  0.177727224

  length of vectors
     5.626600000  5.626600000  5.626600000     0.177727224  0.177727224  0.177727224


 FORCES acting on ions
    electron-ion (+dipol)            ewald-force                    non-local-force                 convergence-correction
 -----------------------------------------------------------------------------------------------
   0.968E-12 -.365E-11 -.458E-11   -.169E-13 0.178E-14 0.000E+00   0.763E-16 -.139E-16 0.694E-17   -.258E-12 -.194E-12 0.343E-12
   0.947E-13 0.913E-12 0.522E-12   -.702E-13 -.542E-13 0.266E-13   -.694E-17 0.208E-16 -.139E-16   -.208E-12 -.175E-12 0.205E-12
   0.907E-12 0.464E-13 -.514E-11   -.444E-13 -.293E-13 -.178E-14   0.139E-16 0.000E+00 0.555E-16   -.278E-12 -.232E-12 0.226E-12
   -.197E-13 -.224E-13 -.109E-13   -.167E-13 -.666E-15 -.244E-14   -.555E-16 0.555E-16 0.000E+00   -.956E-14 -.134E-13 0.918E-14
   0.458E+02 0.458E+02 0.458E+02   -.441E+02 -.441E+02 -.441E+02   -.174E+01 -.174E+01 -.174E+01   0.102E-02 0.102E-02 0.101E-02
   -.458E+02 -.458E+02 0.458E+02   0.441E+02 0.441E+02 -.441E+02   0.174E+01 0.174E+01 -.174E+01   -.102E-02 -.102E-02 0.101E-02
   0.458E+02 -.458E+02 -.458E+02   -.441E+02 0.441E+02 0.441E+02   -.174E+01 0.174E+01 0.174E+01   0.102E-02 -.102E-02 -.101E-02
   -.458E+02 0.458E+02 -.458E+02   0.441E+02 -.441E+02 0.441E+02   0.174E+01 -.174E+01 0.174E+01   -.102E-02 0.102E-02 -.101E-02
 -----------------------------------------------------------------------------------------------
   0.992E-07 0.992E-07 -.130E-06   0.000E+00 0.000E+00 0.497E-13   -.222E-15 0.666E-15 0.666E-15   -.735E-12 -.636E-12 0.818E-12
 
 
 POSITION                                       TOTAL-FORCE (eV/Angst)
 -----------------------------------------------------------------------------------
      2.81330      2.81330      0.00000         0.000000      0.000000      0.000000
      0.00000      2.81330      2.81330         0.000000      0.000000      0.000000
      2.81330      0.00000      2.81330         0.000000      0.000000      0.000000
      0.00000      0.00000      0.00000         0.000000      0.000000      0.000000
      1.42328      1.42328      1.42328        -0.000149     -0.000149     -0.000149
      4.20332      4.20332      1.42328         0.000149      0.000149     -0.000149
      1.42328      4.20332      4.20332        -0.000149      0.000149      0.000149
      4.20332      1.42328      4.20332         0.000149     -0.000149      0.000149
 -----------------------------------------------------------------------------------
    total drift:                                0.000000      0.000000      0.000000


--------------------------------------------------------------------------------------------------------


    POTLOK:  cpu time    0.77: real time    0.63


--------------------------------------------------------------------------------------------------------


  FORCES: max atom, RMS     0.000258    0.000182
  FORCE total and by dimension    0.000515    0.000149
     LOOP+:  cpu time   84.65: real time   28.03
    4ORBIT:  cpu time    0.00: real time    0.00

 total amount of memory used by VASP on root node  48453. kBytes
========================================================================

   base      :    30000. kBytes
   nonl-proj :      931. kBytes
   fftplans  :     3916. kBytes
   grid      :    10266. kBytes
   one-center:      248. kBytes
   wavefun   :     3092. kBytes
 
  
  
 General timing and accounting informations for this job:
 ========================================================
  
                  Total CPU time used (sec):       86.023
                            User time (sec):       85.010
                          System time (sec):        1.013
                         Elapsed time (sec):       28.965
  
                   Maximum memory used (kb):           0.
                   Average memory used (kb):           0.
  
                          Minor page faults:        34164
                          Major page faults:            0
                 Voluntary context switches:          335
