<?xml version="1.0" encoding="ISO-8859-1"?>
<modeling>
 <generator>
  <i name="program" type="string">vasp </i>
  <i name="version" type="string">5.2.2  </i>
  <i name="subversion" type="string">15Apr09 complex  parallel </i>
  <i name="platform" type="string">LinuxIFC </i>
  <i name="date" type="string">2013 11 25 </i>
  <i name="time" type="string">22:34:39 </i>
 </generator>
 <incar>
  <i type="string" name="PREC">normal</i>
  <i type="int" name="ISPIN">     2</i>
  <i type="int" name="IBRION">    -1</i>
  <i type="int" name="NSW">     0</i>
  <i name="ENCUT">    313.00000000</i>
  <i name="NELECT">     62.00000000</i>
  <i type="logical" name="LWAVE"> F  </i>
  <i type="logical" name="LCHARG"> F  </i>
  <i type="logical" name="LPEAD"> F  </i>
  <i type="logical" name="LCALCPOL"> F  </i>
  <i type="logical" name="LCALCEPS"> F  </i>
  <v name="EFIELD_PEAD">      0.00000000      0.00000000      0.00000000</v>
  <i type="logical" name="LEFG"> F  </i>
 </incar>
 <kpoints>
  <generation param="Monkhorst-Pack">
   <v type="int" name="divisions">       2        2        2 </v>
   <v name="usershift">      0.00000000       0.00000000       0.00000000 </v>
   <v name="genvec1">      0.50000000       0.00000000       0.00000000 </v>
   <v name="genvec2">      0.00000000       0.50000000       0.00000000 </v>
   <v name="genvec3">      0.00000000       0.00000000       0.50000000 </v>
   <v name="shift">      0.50000000       0.50000000       0.50000000 </v>
  </generation>
  <varray name="kpointlist" >
   <v>       0.25000000       0.25000000       0.25000000 </v>
  </varray>
  <varray name="weights" >
   <v>       1.00000000 </v>
  </varray>
 </kpoints>
 <parameters>
  <separator name="general" >
   <i type="string" name="SYSTEM">unknown system</i>
   <i type="logical" name="LCOMPAT"> F  </i>
  </separator>
  <separator name="electronic" >
   <i type="string" name="PREC">normal</i>
   <i name="ENMAX">    313.00000000</i>
   <i name="ENAUG">    490.69000000</i>
   <i name="EDIFF">      0.00010000</i>
   <i type="int" name="IALGO">    38</i>
   <i type="int" name="IWAVPR">    10</i>
   <i type="int" name="NBANDS">    41</i>
   <i name="NELECT">     62.00000000</i>
   <separator name="electronic smearing" >
    <i type="int" name="ISMEAR">     1</i>
    <i name="SIGMA">      0.20000000</i>
   </separator>
   <separator name="electronic projectors" >
    <i type="logical" name="LREAL"> F  </i>
    <v name="ROPT">      0.00000000      0.00000000</v>
    <i type="int" name="LMAXPAW">  -100</i>
    <i type="int" name="LMAXMIX">     2</i>
   </separator>
   <separator name="electronic startup" >
    <i type="int" name="ISTART">     0</i>
    <i type="int" name="ICHARG">     2</i>
    <i type="int" name="INIWAV">     1</i>
   </separator>
   <separator name="electronic spin" >
    <i type="int" name="ISPIN">     2</i>
    <i type="logical" name="LNONCOLLINEAR"> F  </i>
    <v name="MAGMOM">      1.00000000      1.00000000      1.00000000      1.00000000      1.00000000      1.00000000      1.00000000      1.00000000</v>
    <i name="NUPDOWN">     -1.00000000</i>
    <i type="logical" name="LSORBIT"> F  </i>
    <v name="SAXIS">      0.00000000      0.00000000      1.00000000</v>
    <i type="logical" name="LSPIRAL"> F  </i>
    <v name="QSPIRAL">      0.00000000      0.00000000      0.00000000</v>
    <i type="logical" name="LZEROZ"> F  </i>
   </separator>
   <separator name="electronic exchange-correlation" >
    <i type="logical" name="LASPH"> F  </i>
    <i type="logical" name="LMETAGGA"> F  </i>
   </separator>
   <separator name="electronic convergence" >
    <i type="int" name="NELM">    60</i>
    <i type="int" name="NELMDL">    -5</i>
    <i type="int" name="NELMIN">     2</i>
    <i name="ENINI">    313.00000000</i>
    <separator name="electronic convergence detail" >
     <i type="logical" name="LDIAG"> T  </i>
     <i name="WEIMIN">      0.00000000</i>
     <i name="EBREAK">      0.00000061</i>
     <i name="DEPER">      0.30000000</i>
     <i type="int" name="NRMM">     4</i>
     <i name="TIME">      0.40000000</i>
    </separator>
   </separator>
   <separator name="electronic mixer" >
    <i name="AMIX">      0.40000000</i>
    <i name="BMIX">      1.00000000</i>
    <i name="AMIN">      0.10000000</i>
    <i name="AMIX_MAG">      1.60000000</i>
    <i name="BMIX_MAG">      1.00000000</i>
    <separator name="electronic mixer details" >
     <i type="int" name="IMIX">     4</i>
     <i type="int" name="MAXMIX">   -45</i>
     <i name="WC">    100.00000000</i>
     <i type="int" name="INIMIX">     1</i>
     <i type="int" name="MIXPRE">     1</i>
     <i type="int" name="MREMOVE">     5</i>
    </separator>
   </separator>
   <separator name="electronic dipolcorrection" >
    <i type="logical" name="LDIPOL"> F  </i>
    <i type="logical" name="LMONO"> F  </i>
    <i type="int" name="IDIPOL">     0</i>
    <i name="EPSILON">      1.00000000</i>
    <v name="DIPOL">   -100.00000000   -100.00000000   -100.00000000</v>
    <i name="EFIELD">      0.00000000</i>
   </separator>
  </separator>
  <separator name="grids" >
   <i type="int" name="NGX">    24</i>
   <i type="int" name="NGY">    24</i>
   <i type="int" name="NGZ">    24</i>
   <i type="int" name="NGXF">    48</i>
   <i type="int" name="NGYF">    48</i>
   <i type="int" name="NGZF">    48</i>
   <i type="logical" name="ADDGRID"> F  </i>
  </separator>
  <separator name="ionic" >
   <i type="int" name="NSW">     0</i>
   <i type="int" name="IBRION">    -1</i>
   <i type="int" name="ISIF">     2</i>
   <i name="PSTRESS">      0.00000000</i>
   <i name="EDIFFG">      0.00100000</i>
   <i type="int" name="NFREE">     0</i>
   <i name="POTIM">      0.50000000</i>
   <i name="SMASS">     -3.00000000</i>
  </separator>
  <separator name="ionic md" >
   <i name="TEBEG">      0.00010000</i>
   <i name="TEEND">      0.00010000</i>
   <i type="int" name="NBLOCK">     1</i>
   <i type="int" name="KBLOCK">     1</i>
   <i type="int" name="NPACO">   256</i>
   <i name="APACO">     16.00000000</i>
  </separator>
  <separator name="symmetry" >
   <i type="int" name="ISYM">     2</i>
   <i name="SYMPREC">      0.00001000</i>
  </separator>
  <separator name="dos" >
   <i type="logical" name="LORBIT"> F  </i>
   <v name="RWIGS">     -1.00000000     -1.00000000</v>
   <i type="int" name="NEDOS">   301</i>
   <i name="EMIN">     10.00000000</i>
   <i name="EMAX">    -10.00000000</i>
   <i name="EFERMI">      0.00000000</i>
  </separator>
  <separator name="writing" >
   <i type="int" name="NWRITE">     2</i>
   <i type="logical" name="LWAVE"> F  </i>
   <i type="logical" name="LCHARG"> F  </i>
   <i type="logical" name="LPARD"> F  </i>
   <i type="logical" name="LVTOT"> F  </i>
   <i type="logical" name="LELF"> F  </i>
   <i type="logical" name="LOPTICS"> F  </i>
   <v name="STM">      0.00000000      0.00000000      0.00000000      0.00000000      0.00000000</v>
  </separator>
  <separator name="performance" >
   <i type="int" name="NPAR">     1</i>
   <i type="int" name="NSIM">     4</i>
   <i type="int" name="NBLK">    32</i>
   <i type="logical" name="LPLANE"> T  </i>
   <i type="logical" name="LSCALAPACK"> F  </i>
   <i type="logical" name="LSCAAWARE"> F  </i>
   <i type="logical" name="LSCALU"> F  </i>
   <i type="logical" name="LASYNC"> F  </i>
  </separator>
  <separator name="miscellaneous" >
   <i type="int" name="IDIOT">     3</i>
   <i type="logical" name="LMUSIC"> F  </i>
   <v name="POMASS">     69.72300000     74.92200000</v>
   <i type="logical" name="LCORR"> T  </i>
  </separator>
  <i type="logical" name="LREAL_COMPAT"> F  </i>
  <i type="logical" name="GGA_COMPAT"> T  </i>
  <i type="logical" name="LBERRY"> F  </i>
  <i type="int" name="ICORELEVEL">     0</i>
  <i type="logical" name="LDAU"> F  </i>
  <i type="int" name="I_CONSTRAINED_M">     0</i>
  <separator name="electronic exchange-correlation" >
   <i type="string" name="GGA">--</i>
   <i type="int" name="VOSKOWN">     0</i>
   <i type="logical" name="LHFCALC"> F  </i>
   <i type="logical" name="LHFONE"> F  </i>
   <i type="logical" name="LRHFCALC"> F  </i>
   <i type="logical" name="LTHOMAS"> F  </i>
   <i type="logical" name="LMODELHF"> F  </i>
   <i name="ENCUTFOCK">      0.00000000</i>
   <i name="ENCUT4O">     -1.00000000</i>
   <i type="int" name="EXXOEP">     0</i>
   <i type="int" name="FOURORBIT">     0</i>
   <i name="AEXX">      0.00000000</i>
   <i name="HFALPHA">      0.00000000</i>
   <i name="ALDAX">      1.00000000</i>
   <i name="AGGAX">      1.00000000</i>
   <i name="ALDAC">      1.00000000</i>
   <i name="AGGAC">      1.00000000</i>
   <i type="int" name="NKREDX">     1</i>
   <i type="int" name="NKREDY">     1</i>
   <i type="int" name="NKREDZ">     1</i>
   <i type="logical" name="SHIFTRED"> F  </i>
   <i type="logical" name="ODDONLY"> F  </i>
   <i type="logical" name="EVENONLY"> F  </i>
   <i type="int" name="LMAXFOCK">     0</i>
   <i type="int" name="NMAXFOCKAE">     0</i>
   <i name="HFSCREEN">      0.00000000</i>
   <i name="HFSCREENC">      0.00000000</i>
  </separator>
  <separator name="model GW" >
   <i type="int" name="MODEL_GW">     0</i>
   <i name="MODEL_EPS0">     13.35978254</i>
   <i name="MODEL_ALPHA">      1.00000000</i>
  </separator>
  <separator name="linear response parameters" >
   <i type="logical" name="LEPSILON"> F  </i>
   <i type="logical" name="LRPA"> F  </i>
   <i type="logical" name="LNABLA"> F  </i>
   <i type="logical" name="LVEL"> F  </i>
   <i type="int" name="KINTER">     0</i>
   <i name="CSHIFT">      0.10000000</i>
   <i name="OMEGAMAX">     -1.00000000</i>
  </separator>
  <separator name="orbital magnetization" >
   <i type="logical" name="ORBITALMAG"> F  </i>
   <i type="logical" name="LMAGBLOCH"> F  </i>
   <i type="logical" name="LCHIMAG"> F  </i>
   <i type="logical" name="LGAUGE"> T  </i>
   <i type="int" name="MAGATOM">     0</i>
   <v name="MAGDIPOL">      0.00000000      0.00000000      0.00000000</v>
   <v name="AVECCONST">      0.00000000      0.00000000      0.00000000</v>
  </separator>
  <separator name="response functions" >
   <i type="logical" name="LRPA"> T  </i>
   <i type="logical" name="LTCTE"> F  </i>
   <i type="logical" name="LTETE"> F  </i>
   <i type="logical" name="L2ORDER"> F  </i>
   <i type="logical" name="LGWLF"> F  </i>
   <i name="ENCUTGW">    208.66666667</i>
   <i name="ENCUTGWSOFT">     -2.00000000</i>
   <i name="ENCUTLF">     -1.00000000</i>
   <i type="int" name="LMAXMP2">    -1</i>
   <i name="SCISSOR">      0.00000000</i>
   <i type="int" name="NOMEGA">     0</i>
   <i type="int" name="NOMEGAR">     0</i>
   <i type="int" name="NBANDSGW">    -1</i>
   <i type="int" name="NBANDSLF">    -1</i>
   <i type="int" name="NELM">     1</i>
   <i type="int" name="DIM">     3</i>
   <i type="int" name="ANTIRES">     0</i>
   <i type="logical" name="LUSEW"> F  </i>
   <i name="OMEGAMAX">    -30.00000000</i>
   <i name="OMEGATL">   -200.00000000</i>
   <i type="int" name="OMEGAGRID">     0</i>
   <i name="CSHIFT">     -0.10000000</i>
   <i type="logical" name="SELFENERGY"> F  </i>
   <i type="logical" name="LSPECTRAL"> F  </i>
   <i type="logical" name="ODDONLYGW"> F  </i>
   <i type="logical" name="EVENONLYGW"> F  </i>
   <i type="int" name="NKREDLFX">     1</i>
   <i type="int" name="NKREDLFY">     1</i>
   <i type="int" name="NKREDLFZ">     1</i>
   <i type="int" name="MAXMEM">  1024</i>
   <i type="int" name="TELESCOPE">     0</i>
  </separator>
 </parameters>
 <atominfo>
  <atoms>       8 </atoms>
  <types>       2 </types>
  <array name="atoms" >
   <dimension dim="1">ion</dimension>
   <field type="string">element</field>
   <field type="int">atomtype</field>
   <set>
    <rc><c>Ga</c><c>   1</c></rc>
    <rc><c>Ga</c><c>   1</c></rc>
    <rc><c>Ga</c><c>   1</c></rc>
    <rc><c>As</c><c>   2</c></rc>
    <rc><c>As</c><c>   2</c></rc>
    <rc><c>As</c><c>   2</c></rc>
    <rc><c>As</c><c>   2</c></rc>
    <rc><c>As</c><c>   2</c></rc>
   </set>
  </array>
  <array name="atomtypes" >
   <dimension dim="1">type</dimension>
   <field type="int">atomspertype</field>
   <field type="string">element</field>
   <field>mass</field>
   <field>valence</field>
   <field type="string">pseudopotential</field>
   <set>
    <rc><c>   3</c><c>Ga</c><c>     69.72300000</c><c>     13.00000000</c><c> PAW_PBE Ga_d 06Sep2000                 </c></rc>
    <rc><c>   5</c><c>As</c><c>     74.92200000</c><c>      5.00000000</c><c> PAW_PBE As 06Sep2000                   </c></rc>
   </set>
  </array>
 </atominfo>
 <structure name="initialpos" >
  <crystal>
   <varray name="basis" >
    <v>       5.62660000       0.00000000       0.00000000 </v>
    <v>       0.00000000       5.62660000       0.00000000 </v>
    <v>       0.00000000       0.00000000       5.62660000 </v>
   </varray>
   <i name="volume">    178.13043383 </i>
   <varray name="rec_basis" >
    <v>       0.17772722       0.00000000       0.00000000 </v>
    <v>       0.00000000       0.17772722       0.00000000 </v>
    <v>       0.00000000       0.00000000       0.17772722 </v>
   </varray>
  </crystal>
  <varray name="positions" >
   <v>       0.50000000       0.50000000       0.00000000 </v>
   <v>       0.00000000       0.50000000       0.50000000 </v>
   <v>       0.50000000       0.00000000       0.50000000 </v>
   <v>       0.00000000       0.00000000       0.00000000 </v>
   <v>       0.25295500       0.25295500       0.25295500 </v>
   <v>       0.74704500       0.74704500       0.25295500 </v>
   <v>       0.25295500       0.74704500       0.74704500 </v>
   <v>       0.74704500       0.25295500       0.74704500 </v>
  </varray>
 </structure>
 <calculation>
  <scstep>
   <time name="dav">    5.49    1.39</time>
   <time name="total">    6.27    2.02</time>
   <energy>
    <i name="alphaZ">    238.57420726 </i>
    <i name="ewald">  -4007.57598818 </i>
    <i name="hartreedc">  -2336.36795077 </i>
    <i name="XCdc">    131.33728770 </i>
    <i name="pawpsdc">   4603.32715501 </i>
    <i name="pawaedc">  -5555.02375600 </i>
    <i name="eentropy">      0.01105296 </i>
    <i name="bandstr">     37.41698785 </i>
    <i name="atom">   7297.47453259 </i>
    <i name="e_fr_energy">    409.17352844 </i>
    <i name="e_wo_entrp">    409.16247547 </i>
    <i name="e_0_energy">    409.16984411 </i>
   </energy>
  </scstep>
  <scstep>
   <time name="dav">    4.97    1.25</time>
   <time name="total">    4.98    1.25</time>
   <energy>
    <i name="e_fr_energy">     27.51052362 </i>
    <i name="e_wo_entrp">     27.48640265 </i>
    <i name="e_0_energy">     27.50248330 </i>
   </energy>
  </scstep>
  <scstep>
   <time name="dav">    5.48    1.39</time>
   <time name="total">    5.49    1.39</time>
   <energy>
    <i name="e_fr_energy">    -35.61373182 </i>
    <i name="e_wo_entrp">    -35.63597377 </i>
    <i name="e_0_energy">    -35.62114580 </i>
   </energy>
  </scstep>
  <scstep>
   <time name="dav">    5.53    1.40</time>
   <time name="total">    5.54    1.40</time>
   <energy>
    <i name="e_fr_energy">    -38.71348900 </i>
    <i name="e_wo_entrp">    -38.73341829 </i>
    <i name="e_0_energy">    -38.72013210 </i>
   </energy>
  </scstep>
  <scstep>
   <time name="dav">    5.41    1.36</time>
   <time name="total">    5.66    1.50</time>
   <energy>
    <i name="e_fr_energy">    -38.77834312 </i>
    <i name="e_wo_entrp">    -38.79853570 </i>
    <i name="e_0_energy">    -38.78507398 </i>
   </energy>
  </scstep>
  <scstep>
   <time name="dav">    6.43    1.67</time>
   <time name="total">    7.31    2.44</time>
   <energy>
    <i name="e_fr_energy">    -40.04706612 </i>
    <i name="e_wo_entrp">    -40.07169792 </i>
    <i name="e_0_energy">    -40.05527672 </i>
   </energy>
  </scstep>
  <scstep>
   <time name="dav">    5.93    1.50</time>
   <time name="total">    6.80    2.27</time>
   <energy>
    <i name="e_fr_energy">    -40.22951802 </i>
    <i name="e_wo_entrp">    -40.25275557 </i>
    <i name="e_0_energy">    -40.23726387 </i>
   </energy>
  </scstep>
  <scstep>
   <time name="dav">    5.73    1.45</time>
   <time name="total">    6.64    2.22</time>
   <energy>
    <i name="e_fr_energy">    -40.20517747 </i>
    <i name="e_wo_entrp">    -40.22837823 </i>
    <i name="e_0_energy">    -40.21291106 </i>
   </energy>
  </scstep>
  <scstep>
   <time name="dav">    5.42    1.37</time>
   <time name="total">    6.36    2.14</time>
   <energy>
    <i name="e_fr_energy">    -40.20784486 </i>
    <i name="e_wo_entrp">    -40.23104864 </i>
    <i name="e_0_energy">    -40.21557946 </i>
   </energy>
  </scstep>
  <scstep>
   <time name="dav">    6.19    1.57</time>
   <time name="total">    7.16    2.35</time>
   <energy>
    <i name="e_fr_energy">    -40.20850203 </i>
    <i name="e_wo_entrp">    -40.23169931 </i>
    <i name="e_0_energy">    -40.21623446 </i>
   </energy>
  </scstep>
  <scstep>
   <time name="dav">    4.75    1.20</time>
   <time name="total">    5.72    1.97</time>
   <energy>
    <i name="e_fr_energy">    -40.20892000 </i>
    <i name="e_wo_entrp">    -40.23211204 </i>
    <i name="e_0_energy">    -40.21665068 </i>
   </energy>
  </scstep>
  <scstep>
   <time name="dav">    5.06    1.28</time>
   <time name="total">    6.04    2.05</time>
   <energy>
    <i name="e_fr_energy">    -40.20911192 </i>
    <i name="e_wo_entrp">    -40.23230399 </i>
    <i name="e_0_energy">    -40.21684261 </i>
   </energy>
  </scstep>
  <scstep>
   <time name="dav">    3.85    0.97</time>
   <time name="total">    4.56    1.60</time>
   <energy>
    <i name="alphaZ">    238.57420726 </i>
    <i name="ewald">  -4007.57598818 </i>
    <i name="hartreedc">  -2332.26441956 </i>
    <i name="XCdc">    125.48639143 </i>
    <i name="pawpsdc">   4759.56887452 </i>
    <i name="pawaedc">  -5716.76758702 </i>
    <i name="eentropy">      0.02319174 </i>
    <i name="bandstr">   -404.72834589 </i>
    <i name="atom">   7297.47453259 </i>
    <i name="e_fr_energy">    -40.20914311 </i>
    <i name="e_wo_entrp">    -40.23233485 </i>
    <i name="e_0_energy">    -40.21687369 </i>
   </energy>
  </scstep>
  <structure>
   <crystal>
    <varray name="basis" >
     <v>       5.62660000       0.00000000       0.00000000 </v>
     <v>       0.00000000       5.62660000       0.00000000 </v>
     <v>       0.00000000       0.00000000       5.62660000 </v>
    </varray>
    <i name="volume">    178.13043383 </i>
    <varray name="rec_basis" >
     <v>       0.17772722       0.00000000       0.00000000 </v>
     <v>       0.00000000       0.17772722       0.00000000 </v>
     <v>       0.00000000       0.00000000       0.17772722 </v>
    </varray>
   </crystal>
   <varray name="positions" >
    <v>       0.50000000       0.50000000       0.00000000 </v>
    <v>       0.00000000       0.50000000       0.50000000 </v>
    <v>       0.50000000       0.00000000       0.50000000 </v>
    <v>       0.00000000       0.00000000       0.00000000 </v>
    <v>       0.25295500       0.25295500       0.25295500 </v>
    <v>       0.74704500       0.74704500       0.25295500 </v>
    <v>       0.25295500       0.74704500       0.74704500 </v>
    <v>       0.74704500       0.25295500       0.74704500 </v>
   </varray>
  </structure>
  <varray name="forces" >
   <v>       0.00000000       0.00000000       0.00000000 </v>
   <v>       0.00000000       0.00000000       0.00000000 </v>
   <v>       0.00000000       0.00000000       0.00000000 </v>
   <v>       0.00000000       0.00000000       0.00000000 </v>
   <v>      -0.00014870      -0.00014870      -0.00014870 </v>
   <v>       0.00014870       0.00014870      -0.00014870 </v>
   <v>      -0.00014870       0.00014870       0.00014870 </v>
   <v>       0.00014870      -0.00014870       0.00014870 </v>
  </varray>
  <varray name="stress" >
   <v>     -95.20109789       0.00000000       0.00000000 </v>
   <v>       0.00000000     -95.20109789       0.00000000 </v>
   <v>       0.00000000       0.00000000     -95.20109789 </v>
  </varray>
  <energy>
   <i name="e_fr_energy">    -40.20914311 </i>
   <i name="e_wo_entrp">    -40.21687369 </i>
   <i name="e_0_energy">      0.02319174 </i>
  </energy>
  <time name="totalsc">   84.65   28.03</time>
  <eigenvalues>
   <array>
    <dimension dim="1">band</dimension>
    <dimension dim="2">kpoint</dimension>
    <dimension dim="3">spin</dimension>
    <field>eigene</field>
    <field>occ</field>
    <set>
     <set comment="spin 1">
      <set comment="kpoint 1">
       <r>  -11.1893    1.0000 </r>
       <r>  -11.1547    1.0000 </r>
       <r>  -11.1547    1.0000 </r>
       <r>  -11.0980    1.0000 </r>
       <r>  -11.0572    1.0000 </r>
       <r>  -11.0572    1.0000 </r>
       <r>  -11.0480    1.0000 </r>
       <r>  -11.0375    1.0000 </r>
       <r>  -11.0375    1.0000 </r>
       <r>  -11.0268    1.0000 </r>
       <r>  -11.0089    1.0000 </r>
       <r>  -11.0089    1.0000 </r>
       <r>  -10.9837    1.0000 </r>
       <r>  -10.9837    1.0000 </r>
       <r>  -10.9705    1.0000 </r>
       <r>   -9.7106    1.0000 </r>
       <r>   -7.9177    1.0000 </r>
       <r>   -7.3470    1.0000 </r>
       <r>   -7.3470    1.0000 </r>
       <r>   -5.3998    1.0000 </r>
       <r>   -2.7489    1.0000 </r>
       <r>   -2.7489    1.0000 </r>
       <r>   -1.3468    1.0000 </r>
       <r>   -0.3542    1.0000 </r>
       <r>   -0.1061    1.0000 </r>
       <r>   -0.1061    1.0000 </r>
       <r>    0.8833    1.0000 </r>
       <r>    0.8833    1.0000 </r>
       <r>    1.6215    1.0000 </r>
       <r>    2.6008    1.0000 </r>
       <r>    2.6008    1.0000 </r>
       <r>    3.5877    0.0000 </r>
       <r>    5.5254    0.0000 </r>
       <r>    5.5254    0.0000 </r>
       <r>    5.5604    0.0000 </r>
       <r>    6.5576    0.0000 </r>
       <r>    7.2979    0.0000 </r>
       <r>    7.2979    0.0000 </r>
       <r>    8.4654    0.0000 </r>
       <r>    8.4654    0.0000 </r>
       <r>    8.9211    0.0000 </r>
      </set>
     </set>
     <set comment="spin 2">
      <set comment="kpoint 1">
       <r>  -11.1899    1.0000 </r>
       <r>  -11.1553    1.0000 </r>
       <r>  -11.1553    1.0000 </r>
       <r>  -11.0986    1.0000 </r>
       <r>  -11.0578    1.0000 </r>
       <r>  -11.0578    1.0000 </r>
       <r>  -11.0487    1.0000 </r>
       <r>  -11.0381    1.0000 </r>
       <r>  -11.0381    1.0000 </r>
       <r>  -11.0274    1.0000 </r>
       <r>  -11.0095    1.0000 </r>
       <r>  -11.0095    1.0000 </r>
       <r>  -10.9844    1.0000 </r>
       <r>  -10.9844    1.0000 </r>
       <r>  -10.9711    1.0000 </r>
       <r>   -9.7108    1.0000 </r>
       <r>   -7.9176    1.0000 </r>
       <r>   -7.3469    1.0000 </r>
       <r>   -7.3469    1.0000 </r>
       <r>   -5.3998    1.0000 </r>
       <r>   -2.7489    1.0000 </r>
       <r>   -2.7489    1.0000 </r>
       <r>   -1.3469    1.0000 </r>
       <r>   -0.3541    1.0000 </r>
       <r>   -0.1061    1.0000 </r>
       <r>   -0.1061    1.0000 </r>
       <r>    0.8833    1.0000 </r>
       <r>    0.8833    1.0000 </r>
       <r>    1.6216    1.0000 </r>
       <r>    2.6009    1.0000 </r>
       <r>    2.6009    1.0000 </r>
       <r>    3.5877    0.0000 </r>
       <r>    5.5254    0.0000 </r>
       <r>    5.5254    0.0000 </r>
       <r>    5.5605    0.0000 </r>
       <r>    6.5574    0.0000 </r>
       <r>    7.2978    0.0000 </r>
       <r>    7.2978    0.0000 </r>
       <r>    8.4655    0.0000 </r>
       <r>    8.4655    0.0000 </r>
       <r>    8.9214    0.0000 </r>
      </set>
     </set>
    </set>
   </array>
  </eigenvalues>
  <separator name="orbital magnetization" >
   <v name="MAGDIPOLOUT">      0.00000000      0.00000000      0.00000000</v>
  </separator>
  <dos>
   <i name="efermi">      2.76923479 </i>
   <total>
    <array>
     <dimension dim="1">gridpoints</dimension>
     <dimension dim="2">spin</dimension>
     <field>energy</field>
     <field>total</field>
     <field>integrated</field>
     <set>
      <set comment="spin 1">
       <r> -13.1899   0.0000   0.0000 </r>
       <r> -13.1095   0.0000   0.0000 </r>
       <r> -13.0291   0.0000   0.0000 </r>
       <r> -12.9488   0.0000   0.0000 </r>
       <r> -12.8684   0.0000   0.0000 </r>
       <r> -12.7880   0.0000   0.0000 </r>
       <r> -12.7077   0.0000   0.0000 </r>
       <r> -12.6273   0.0000   0.0000 </r>
       <r> -12.5469   0.0000   0.0000 </r>
       <r> -12.4665   0.0000   0.0000 </r>
       <r> -12.3862   0.0000   0.0000 </r>
       <r> -12.3058   0.0000   0.0000 </r>
       <r> -12.2254   0.0000   0.0000 </r>
       <r> -12.1451   0.0000   0.0000 </r>
       <r> -12.0647   0.0000   0.0000 </r>
       <r> -11.9843   0.0000   0.0000 </r>
       <r> -11.9040  -0.0001   0.0000 </r>
       <r> -11.8236  -0.0007  -0.0001 </r>
       <r> -11.7432  -0.0071  -0.0006 </r>
       <r> -11.6628  -0.0496  -0.0046 </r>
       <r> -11.5825  -0.2417  -0.0240 </r>
       <r> -11.5021  -0.7966  -0.0881 </r>
       <r> -11.4217  -1.6076  -0.2173 </r>
       <r> -11.3414  -1.0263  -0.2998 </r>
       <r> -11.2610   4.9530   0.0983 </r>
       <r> -11.1806  19.9676   1.7031 </r>
       <r> -11.1002  40.4627   4.9552 </r>
       <r> -11.0199  53.0108   9.2157 </r>
       <r> -10.9395  46.0088  12.9134 </r>
       <r> -10.8591  24.8416  14.9100 </r>
       <r> -10.7788   6.0976  15.4001 </r>
       <r> -10.6984  -1.6816  15.2649 </r>
       <r> -10.6180  -2.1088  15.0954 </r>
       <r> -10.5376  -0.9069  15.0225 </r>
       <r> -10.4573  -0.2346  15.0037 </r>
       <r> -10.3769  -0.0406  15.0004 </r>
       <r> -10.2965  -0.0064  14.9999 </r>
       <r> -10.2162  -0.0114  14.9990 </r>
       <r> -10.1358  -0.0522  14.9948 </r>
       <r> -10.0554  -0.1531  14.9825 </r>
       <r>  -9.9751  -0.2074  14.9658 </r>
       <r>  -9.8947   0.2420  14.9853 </r>
       <r>  -9.8143   1.6765  15.1200 </r>
       <r>  -9.7339   3.5108  15.4022 </r>
       <r>  -9.6536   4.0908  15.7310 </r>
       <r>  -9.5732   2.7919  15.9553 </r>
       <r>  -9.4928   0.9548  16.0321 </r>
       <r>  -9.4125  -0.0500  16.0281 </r>
       <r>  -9.3321  -0.2106  16.0111 </r>
       <r>  -9.2517  -0.1041  16.0028 </r>
       <r>  -9.1713  -0.0286  16.0005 </r>
       <r>  -9.0910  -0.0051  16.0001 </r>
       <r>  -9.0106  -0.0006  16.0000 </r>
       <r>  -8.9302  -0.0001  16.0000 </r>
       <r>  -8.8499   0.0000  16.0000 </r>
       <r>  -8.7695   0.0000  16.0000 </r>
       <r>  -8.6891   0.0000  16.0000 </r>
       <r>  -8.6087  -0.0001  16.0000 </r>
       <r>  -8.5284  -0.0008  15.9999 </r>
       <r>  -8.4480  -0.0063  15.9994 </r>
       <r>  -8.3676  -0.0338  15.9967 </r>
       <r>  -8.2873  -0.1166  15.9873 </r>
       <r>  -8.2069  -0.2155  15.9700 </r>
       <r>  -8.1265   0.0106  15.9709 </r>
       <r>  -8.0461   1.1325  16.0619 </r>
       <r>  -7.9658   2.9972  16.3028 </r>
       <r>  -7.8854   4.1174  16.6337 </r>
       <r>  -7.8050   3.2790  16.8972 </r>
       <r>  -7.7247   1.2610  16.9986 </r>
       <r>  -7.6443  -0.2757  16.9764 </r>
       <r>  -7.5639  -0.3041  16.9520 </r>
       <r>  -7.4836   1.8027  17.0969 </r>
       <r>  -7.4032   5.5790  17.5453 </r>
       <r>  -7.3228   8.1819  18.2028 </r>
       <r>  -7.2424   6.9887  18.7645 </r>
       <r>  -7.1621   3.3132  19.0308 </r>
       <r>  -7.0817   0.4646  19.0682 </r>
       <r>  -7.0013  -0.4166  19.0347 </r>
       <r>  -6.9210  -0.3036  19.0103 </r>
       <r>  -6.8406  -0.1029  19.0020 </r>
       <r>  -6.7602  -0.0216  19.0003 </r>
       <r>  -6.6798  -0.0030  19.0000 </r>
       <r>  -6.5995  -0.0003  19.0000 </r>
       <r>  -6.5191   0.0000  19.0000 </r>
       <r>  -6.4387   0.0000  19.0000 </r>
       <r>  -6.3584   0.0000  19.0000 </r>
       <r>  -6.2780   0.0000  19.0000 </r>
       <r>  -6.1976   0.0000  19.0000 </r>
       <r>  -6.1172   0.0000  19.0000 </r>
       <r>  -6.0369  -0.0004  19.0000 </r>
       <r>  -5.9565  -0.0033  18.9997 </r>
       <r>  -5.8761  -0.0203  18.9981 </r>
       <r>  -5.7958  -0.0820  18.9915 </r>
       <r>  -5.7154  -0.1935  18.9759 </r>
       <r>  -5.6350  -0.1368  18.9649 </r>
       <r>  -5.5547   0.6451  19.0168 </r>
       <r>  -5.4743   2.3746  19.2076 </r>
       <r>  -5.3939   3.9456  19.5247 </r>
       <r>  -5.3135   3.7975  19.8299 </r>
       <r>  -5.2332   2.0911  19.9980 </r>
       <r>  -5.1528   0.4658  20.0354 </r>
       <r>  -5.0724  -0.1750  20.0214 </r>
       <r>  -4.9921  -0.1784  20.0070 </r>
       <r>  -4.9117  -0.0689  20.0015 </r>
       <r>  -4.8313  -0.0160  20.0002 </r>
       <r>  -4.7509  -0.0025  20.0000 </r>
       <r>  -4.6706  -0.0003  20.0000 </r>
       <r>  -4.5902   0.0000  20.0000 </r>
       <r>  -4.5098   0.0000  20.0000 </r>
       <r>  -4.4295   0.0000  20.0000 </r>
       <r>  -4.3491   0.0000  20.0000 </r>
       <r>  -4.2687   0.0000  20.0000 </r>
       <r>  -4.1883   0.0000  20.0000 </r>
       <r>  -4.1080   0.0000  20.0000 </r>
       <r>  -4.0276   0.0000  20.0000 </r>
       <r>  -3.9472   0.0000  20.0000 </r>
       <r>  -3.8669   0.0000  20.0000 </r>
       <r>  -3.7865   0.0000  20.0000 </r>
       <r>  -3.7061   0.0000  20.0000 </r>
       <r>  -3.6257   0.0000  20.0000 </r>
       <r>  -3.5454   0.0000  20.0000 </r>
       <r>  -3.4650  -0.0001  20.0000 </r>
       <r>  -3.3846  -0.0008  19.9999 </r>
       <r>  -3.3043  -0.0068  19.9994 </r>
       <r>  -3.2239  -0.0418  19.9960 </r>
       <r>  -3.1435  -0.1673  19.9826 </r>
       <r>  -3.0632  -0.3903  19.9512 </r>
       <r>  -2.9828  -0.2627  19.9301 </r>
       <r>  -2.9024   1.3353  20.0374 </r>
       <r>  -2.8220   4.8157  20.4245 </r>
       <r>  -2.7417   7.9207  21.0611 </r>
       <r>  -2.6613   7.5553  21.6683 </r>
       <r>  -2.5809   4.1159  21.9991 </r>
       <r>  -2.5006   0.8926  22.0708 </r>
       <r>  -2.4202  -0.3570  22.0421 </r>
       <r>  -2.3398  -0.3529  22.0138 </r>
       <r>  -2.2594  -0.1350  22.0029 </r>
       <r>  -2.1791  -0.0311  22.0004 </r>
       <r>  -2.0987  -0.0047  22.0000 </r>
       <r>  -2.0183  -0.0006  22.0000 </r>
       <r>  -1.9380  -0.0014  21.9999 </r>
       <r>  -1.8576  -0.0098  21.9991 </r>
       <r>  -1.7772  -0.0478  21.9953 </r>
       <r>  -1.6968  -0.1453  21.9836 </r>
       <r>  -1.6165  -0.2123  21.9665 </r>
       <r>  -1.5361   0.1849  21.9814 </r>
       <r>  -1.4557   1.5564  22.1065 </r>
       <r>  -1.3754   3.4117  22.3807 </r>
       <r>  -1.2950   4.1155  22.7114 </r>
       <r>  -1.2146   2.9130  22.9456 </r>
       <r>  -1.1343   1.0567  23.0305 </r>
       <r>  -1.0539  -0.0162  23.0292 </r>
       <r>  -0.9735  -0.2144  23.0119 </r>
       <r>  -0.8931  -0.1164  23.0026 </r>
       <r>  -0.8128  -0.0604  22.9977 </r>
       <r>  -0.7324  -0.1114  22.9888 </r>
       <r>  -0.6520  -0.2202  22.9711 </r>
       <r>  -0.5717  -0.0982  22.9632 </r>
       <r>  -0.4913   0.7708  23.0251 </r>
       <r>  -0.4109   2.3899  23.2172 </r>
       <r>  -0.3305   3.9172  23.5321 </r>
       <r>  -0.2502   5.1658  23.9472 </r>
       <r>  -0.1698   6.9371  24.5048 </r>
       <r>  -0.0894   8.3311  25.1743 </r>
       <r>  -0.0091   7.0499  25.7410 </r>
       <r>   0.0713   3.5130  26.0233 </r>
       <r>   0.1517   0.5907  26.0708 </r>
       <r>   0.2321  -0.4076  26.0380 </r>
       <r>   0.3124  -0.3320  26.0113 </r>
       <r>   0.3928  -0.1469  25.9995 </r>
       <r>   0.4732  -0.1583  25.9868 </r>
       <r>   0.5535  -0.3537  25.9584 </r>
       <r>   0.6339  -0.3625  25.9292 </r>
       <r>   0.7143   0.8636  25.9986 </r>
       <r>   0.7947   4.0660  26.3254 </r>
       <r>   0.8750   7.5247  26.9302 </r>
       <r>   0.9554   7.9422  27.5685 </r>
       <r>   1.0358   4.8643  27.9595 </r>
       <r>   1.1161   1.3587  28.0687 </r>
       <r>   1.1965  -0.3064  28.0440 </r>
       <r>   1.2769  -0.5459  28.0002 </r>
       <r>   1.3572  -0.3770  27.9699 </r>
       <r>   1.4376   0.2005  27.9860 </r>
       <r>   1.5180   1.6719  28.1203 </r>
       <r>   1.5984   3.5119  28.4026 </r>
       <r>   1.6787   4.0902  28.7313 </r>
       <r>   1.7591   2.7895  28.9555 </r>
       <r>   1.8395   0.9528  29.0321 </r>
       <r>   1.9198  -0.0508  29.0280 </r>
       <r>   2.0002  -0.2126  29.0109 </r>
       <r>   2.0806  -0.1198  29.0013 </r>
       <r>   2.1610  -0.1096  28.9925 </r>
       <r>   2.2413  -0.2674  28.9710 </r>
       <r>   2.3217  -0.4337  28.9361 </r>
       <r>   2.4021   0.1853  28.9510 </r>
       <r>   2.4824   2.6896  29.1672 </r>
       <r>   2.5628   6.4366  29.6845 </r>
       <r>   2.6432   8.2747  30.3496 </r>
       <r>   2.7236   6.2516  30.8520 </r>
       <r>   2.8039   2.5046  31.0533 </r>
       <r>   2.8843   0.1112  31.0622 </r>
       <r>   2.9647  -0.4340  31.0274 </r>
       <r>   3.0450  -0.2544  31.0069 </r>
       <r>   3.1254  -0.1019  30.9987 </r>
       <r>   3.2058  -0.1140  30.9896 </r>
       <r>   3.2861  -0.2099  30.9727 </r>
       <r>   3.3665  -0.0698  30.9671 </r>
       <r>   3.4469   0.8917  31.0388 </r>
       <r>   3.5273   2.7133  31.2568 </r>
       <r>   3.6076   4.0704  31.5840 </r>
       <r>   3.6880   3.5712  31.8710 </r>
       <r>   3.7684   1.7544  32.0120 </r>
       <r>   3.8487   0.2808  32.0346 </r>
       <r>   3.9291  -0.2032  32.0182 </r>
       <r>   4.0095  -0.1580  32.0055 </r>
       <r>   4.0899  -0.0551  32.0011 </r>
       <r>   4.1702  -0.0118  32.0002 </r>
       <r>   4.2506  -0.0017  32.0000 </r>
       <r>   4.3310  -0.0002  32.0000 </r>
       <r>   4.4113   0.0000  32.0000 </r>
       <r>   4.4917   0.0000  32.0000 </r>
       <r>   4.5721   0.0000  32.0000 </r>
       <r>   4.6525   0.0000  32.0000 </r>
       <r>   4.7328   0.0000  32.0000 </r>
       <r>   4.8132  -0.0001  32.0000 </r>
       <r>   4.8936  -0.0010  31.9999 </r>
       <r>   4.9739  -0.0091  31.9992 </r>
       <r>   5.0543  -0.0560  31.9947 </r>
       <r>   5.1347  -0.2285  31.9763 </r>
       <r>   5.2150  -0.5513  31.9320 </r>
       <r>   5.2954  -0.4371  31.8969 </r>
       <r>   5.3758   1.7030  32.0337 </r>
       <r>   5.4562   6.6684  32.5697 </r>
       <r>   5.5365  11.4995  33.4939 </r>
       <r>   5.6169  11.5308  34.4207 </r>
       <r>   5.6973   6.7326  34.9618 </r>
       <r>   5.7776   1.7505  35.1024 </r>
       <r>   5.8580  -0.4219  35.0685 </r>
       <r>   5.9384  -0.5535  35.0241 </r>
       <r>   6.0188  -0.2370  35.0050 </r>
       <r>   6.0991  -0.0864  34.9981 </r>
       <r>   6.1795  -0.1142  34.9889 </r>
       <r>   6.2599  -0.2120  34.9718 </r>
       <r>   6.3402  -0.0470  34.9681 </r>
       <r>   6.4206   0.9643  35.0456 </r>
       <r>   6.5010   2.8036  35.2709 </r>
       <r>   6.5814   4.0935  35.5999 </r>
       <r>   6.6617   3.5008  35.8813 </r>
       <r>   6.7421   1.6581  36.0145 </r>
       <r>   6.8225   0.1948  36.0302 </r>
       <r>   6.9028  -0.3743  36.0001 </r>
       <r>   6.9832  -0.5417  35.9566 </r>
       <r>   7.0636  -0.3175  35.9310 </r>
       <r>   7.1440   1.3118  36.0365 </r>
       <r>   7.2243   4.7957  36.4219 </r>
       <r>   7.3047   7.9124  37.0578 </r>
       <r>   7.3851   7.5665  37.6660 </r>
       <r>   7.4654   4.1343  37.9982 </r>
       <r>   7.5458   0.9034  38.0708 </r>
       <r>   7.6262  -0.3551  38.0423 </r>
       <r>   7.7065  -0.3540  38.0139 </r>
       <r>   7.7869  -0.1360  38.0029 </r>
       <r>   7.8673  -0.0336  38.0002 </r>
       <r>   7.9477  -0.0215  37.9985 </r>
       <r>   8.0280  -0.0852  37.9917 </r>
       <r>   8.1084  -0.2697  37.9700 </r>
       <r>   8.1888  -0.4319  37.9353 </r>
       <r>   8.2691   0.2309  37.9538 </r>
       <r>   8.3495   2.7969  38.1786 </r>
       <r>   8.4299   6.5264  38.7031 </r>
       <r>   8.5103   8.2033  39.3624 </r>
       <r>   8.5906   5.9677  39.8421 </r>
       <r>   8.6710   2.2164  40.0202 </r>
       <r>   8.7514   0.4924  40.0598 </r>
       <r>   8.8317   1.5824  40.1870 </r>
       <r>   8.9121   3.5088  40.4690 </r>
       <r>   8.9925   3.9070  40.7830 </r>
       <r>   9.0729   2.4373  40.9789 </r>
       <r>   9.1532   0.6956  41.0348 </r>
       <r>   9.2336  -0.1241  41.0248 </r>
       <r>   9.3140  -0.1972  41.0090 </r>
       <r>   9.3943  -0.0858  41.0021 </r>
       <r>   9.4747  -0.0216  41.0003 </r>
       <r>   9.5551  -0.0036  41.0000 </r>
       <r>   9.6354  -0.0004  41.0000 </r>
       <r>   9.7158   0.0000  41.0000 </r>
       <r>   9.7962   0.0000  41.0000 </r>
       <r>   9.8766   0.0000  41.0000 </r>
       <r>   9.9569   0.0000  41.0000 </r>
       <r>  10.0373   0.0000  41.0000 </r>
       <r>  10.1177   0.0000  41.0000 </r>
       <r>  10.1980   0.0000  41.0000 </r>
       <r>  10.2784   0.0000  41.0000 </r>
       <r>  10.3588   0.0000  41.0000 </r>
       <r>  10.4392   0.0000  41.0000 </r>
       <r>  10.5195   0.0000  41.0000 </r>
       <r>  10.5999   0.0000  41.0000 </r>
       <r>  10.6803   0.0000  41.0000 </r>
       <r>  10.7606   0.0000  41.0000 </r>
       <r>  10.8410   0.0000  41.0000 </r>
       <r>  10.9214   0.0000  41.0000 </r>
      </set>
      <set comment="spin 2">
       <r> -13.1899   0.0000   0.0000 </r>
       <r> -13.1095   0.0000   0.0000 </r>
       <r> -13.0291   0.0000   0.0000 </r>
       <r> -12.9488   0.0000   0.0000 </r>
       <r> -12.8684   0.0000   0.0000 </r>
       <r> -12.7880   0.0000   0.0000 </r>
       <r> -12.7077   0.0000   0.0000 </r>
       <r> -12.6273   0.0000   0.0000 </r>
       <r> -12.5469   0.0000   0.0000 </r>
       <r> -12.4665   0.0000   0.0000 </r>
       <r> -12.3862   0.0000   0.0000 </r>
       <r> -12.3058   0.0000   0.0000 </r>
       <r> -12.2254   0.0000   0.0000 </r>
       <r> -12.1451   0.0000   0.0000 </r>
       <r> -12.0647   0.0000   0.0000 </r>
       <r> -11.9843   0.0000   0.0000 </r>
       <r> -11.9040  -0.0001   0.0000 </r>
       <r> -11.8236  -0.0007  -0.0001 </r>
       <r> -11.7432  -0.0072  -0.0006 </r>
       <r> -11.6628  -0.0503  -0.0047 </r>
       <r> -11.5825  -0.2443  -0.0243 </r>
       <r> -11.5021  -0.8026  -0.0888 </r>
       <r> -11.4217  -1.6125  -0.2184 </r>
       <r> -11.3414  -1.0083  -0.2995 </r>
       <r> -11.2610   5.0314   0.1049 </r>
       <r> -11.1806  20.1185   1.7219 </r>
       <r> -11.1002  40.6162   4.9862 </r>
       <r> -11.0199  53.0419   9.2492 </r>
       <r> -10.9395  45.8797  12.9366 </r>
       <r> -10.8591  24.6633  14.9188 </r>
       <r> -10.7788   5.9911  15.4004 </r>
       <r> -10.6984  -1.7054  15.2633 </r>
       <r> -10.6180  -2.1004  15.0945 </r>
       <r> -10.5376  -0.8988  15.0222 </r>
       <r> -10.4573  -0.2317  15.0036 </r>
       <r> -10.3769  -0.0400  15.0004 </r>
       <r> -10.2965  -0.0063  14.9999 </r>
       <r> -10.2162  -0.0114  14.9990 </r>
       <r> -10.1358  -0.0523  14.9948 </r>
       <r> -10.0554  -0.1533  14.9825 </r>
       <r>  -9.9751  -0.2072  14.9658 </r>
       <r>  -9.8947   0.2433  14.9854 </r>
       <r>  -9.8143   1.6793  15.1203 </r>
       <r>  -9.7339   3.5130  15.4027 </r>
       <r>  -9.6536   4.0901  15.7314 </r>
       <r>  -9.5732   2.7891  15.9556 </r>
       <r>  -9.4928   0.9525  16.0321 </r>
       <r>  -9.4125  -0.0508  16.0280 </r>
       <r>  -9.3321  -0.2105  16.0111 </r>
       <r>  -9.2517  -0.1040  16.0028 </r>
       <r>  -9.1713  -0.0285  16.0005 </r>
       <r>  -9.0910  -0.0051  16.0001 </r>
       <r>  -9.0106  -0.0006  16.0000 </r>
       <r>  -8.9302  -0.0001  16.0000 </r>
       <r>  -8.8499   0.0000  16.0000 </r>
       <r>  -8.7695   0.0000  16.0000 </r>
       <r>  -8.6891   0.0000  16.0000 </r>
       <r>  -8.6087  -0.0001  16.0000 </r>
       <r>  -8.5284  -0.0008  15.9999 </r>
       <r>  -8.4480  -0.0063  15.9994 </r>
       <r>  -8.3676  -0.0338  15.9967 </r>
       <r>  -8.2873  -0.1165  15.9873 </r>
       <r>  -8.2069  -0.2154  15.9700 </r>
       <r>  -8.1265   0.0103  15.9709 </r>
       <r>  -8.0461   1.1316  16.0618 </r>
       <r>  -7.9658   2.9962  16.3026 </r>
       <r>  -7.8854   4.1173  16.6335 </r>
       <r>  -7.8050   3.2800  16.8971 </r>
       <r>  -7.7247   1.2622  16.9986 </r>
       <r>  -7.6443  -0.2751  16.9765 </r>
       <r>  -7.5639  -0.3049  16.9520 </r>
       <r>  -7.4836   1.8002  17.0966 </r>
       <r>  -7.4032   5.5760  17.5448 </r>
       <r>  -7.3228   8.1812  18.2023 </r>
       <r>  -7.2424   6.9911  18.7642 </r>
       <r>  -7.1621   3.3162  19.0307 </r>
       <r>  -7.0817   0.4660  19.0682 </r>
       <r>  -7.0013  -0.4165  19.0347 </r>
       <r>  -6.9210  -0.3038  19.0103 </r>
       <r>  -6.8406  -0.1030  19.0020 </r>
       <r>  -6.7602  -0.0216  19.0003 </r>
       <r>  -6.6798  -0.0030  19.0000 </r>
       <r>  -6.5995  -0.0003  19.0000 </r>
       <r>  -6.5191   0.0000  19.0000 </r>
       <r>  -6.4387   0.0000  19.0000 </r>
       <r>  -6.3584   0.0000  19.0000 </r>
       <r>  -6.2780   0.0000  19.0000 </r>
       <r>  -6.1976   0.0000  19.0000 </r>
       <r>  -6.1172   0.0000  19.0000 </r>
       <r>  -6.0369  -0.0004  19.0000 </r>
       <r>  -5.9565  -0.0033  18.9997 </r>
       <r>  -5.8761  -0.0203  18.9981 </r>
       <r>  -5.7958  -0.0820  18.9915 </r>
       <r>  -5.7154  -0.1935  18.9759 </r>
       <r>  -5.6350  -0.1368  18.9649 </r>
       <r>  -5.5547   0.6451  19.0168 </r>
       <r>  -5.4743   2.3745  19.2076 </r>
       <r>  -5.3939   3.9455  19.5247 </r>
       <r>  -5.3135   3.7975  19.8299 </r>
       <r>  -5.2332   2.0911  19.9980 </r>
       <r>  -5.1528   0.4659  20.0354 </r>
       <r>  -5.0724  -0.1750  20.0214 </r>
       <r>  -4.9921  -0.1784  20.0070 </r>
       <r>  -4.9117  -0.0689  20.0015 </r>
       <r>  -4.8313  -0.0160  20.0002 </r>
       <r>  -4.7509  -0.0025  20.0000 </r>
       <r>  -4.6706  -0.0003  20.0000 </r>
       <r>  -4.5902   0.0000  20.0000 </r>
       <r>  -4.5098   0.0000  20.0000 </r>
       <r>  -4.4295   0.0000  20.0000 </r>
       <r>  -4.3491   0.0000  20.0000 </r>
       <r>  -4.2687   0.0000  20.0000 </r>
       <r>  -4.1883   0.0000  20.0000 </r>
       <r>  -4.1080   0.0000  20.0000 </r>
       <r>  -4.0276   0.0000  20.0000 </r>
       <r>  -3.9472   0.0000  20.0000 </r>
       <r>  -3.8669   0.0000  20.0000 </r>
       <r>  -3.7865   0.0000  20.0000 </r>
       <r>  -3.7061   0.0000  20.0000 </r>
       <r>  -3.6257   0.0000  20.0000 </r>
       <r>  -3.5454   0.0000  20.0000 </r>
       <r>  -3.4650  -0.0001  20.0000 </r>
       <r>  -3.3846  -0.0008  19.9999 </r>
       <r>  -3.3043  -0.0068  19.9994 </r>
       <r>  -3.2239  -0.0418  19.9960 </r>
       <r>  -3.1435  -0.1673  19.9826 </r>
       <r>  -3.0632  -0.3903  19.9512 </r>
       <r>  -2.9828  -0.2626  19.9301 </r>
       <r>  -2.9024   1.3357  20.0375 </r>
       <r>  -2.8220   4.8163  20.4245 </r>
       <r>  -2.7417   7.9210  21.0612 </r>
       <r>  -2.6613   7.5550  21.6684 </r>
       <r>  -2.5809   4.1153  21.9991 </r>
       <r>  -2.5006   0.8923  22.0708 </r>
       <r>  -2.4202  -0.3571  22.0421 </r>
       <r>  -2.3398  -0.3529  22.0138 </r>
       <r>  -2.2594  -0.1350  22.0029 </r>
       <r>  -2.1791  -0.0311  22.0004 </r>
       <r>  -2.0987  -0.0047  22.0000 </r>
       <r>  -2.0183  -0.0006  22.0000 </r>
       <r>  -1.9380  -0.0014  21.9999 </r>
       <r>  -1.8576  -0.0098  21.9991 </r>
       <r>  -1.7772  -0.0478  21.9952 </r>
       <r>  -1.6968  -0.1454  21.9836 </r>
       <r>  -1.6165  -0.2122  21.9665 </r>
       <r>  -1.5361   0.1857  21.9814 </r>
       <r>  -1.4557   1.5581  22.1067 </r>
       <r>  -1.3754   3.4132  22.3810 </r>
       <r>  -1.2950   4.1152  22.7117 </r>
       <r>  -1.2146   2.9112  22.9457 </r>
       <r>  -1.1343   1.0552  23.0305 </r>
       <r>  -1.0539  -0.0167  23.0292 </r>
       <r>  -0.9735  -0.2144  23.0119 </r>
       <r>  -0.8931  -0.1163  23.0026 </r>
       <r>  -0.8128  -0.0603  22.9977 </r>
       <r>  -0.7324  -0.1113  22.9888 </r>
       <r>  -0.6520  -0.2201  22.9711 </r>
       <r>  -0.5717  -0.0986  22.9632 </r>
       <r>  -0.4913   0.7697  23.0250 </r>
       <r>  -0.4109   2.3887  23.2170 </r>
       <r>  -0.3305   3.9174  23.5319 </r>
       <r>  -0.2502   5.1681  23.9472 </r>
       <r>  -0.1698   6.9401  24.5050 </r>
       <r>  -0.0894   8.3322  25.1747 </r>
       <r>  -0.0091   7.0486  25.7412 </r>
       <r>   0.0713   3.5110  26.0234 </r>
       <r>   0.1517   0.5897  26.0708 </r>
       <r>   0.2321  -0.4077  26.0380 </r>
       <r>   0.3124  -0.3319  26.0113 </r>
       <r>   0.3928  -0.1468  25.9995 </r>
       <r>   0.4732  -0.1582  25.9868 </r>
       <r>   0.5535  -0.3536  25.9584 </r>
       <r>   0.6339  -0.3627  25.9292 </r>
       <r>   0.7143   0.8628  25.9986 </r>
       <r>   0.7947   4.0645  26.3252 </r>
       <r>   0.8750   7.5238  26.9299 </r>
       <r>   0.9554   7.9428  27.5683 </r>
       <r>   1.0358   4.8658  27.9594 </r>
       <r>   1.1161   1.3598  28.0687 </r>
       <r>   1.1965  -0.3061  28.0441 </r>
       <r>   1.2769  -0.5459  28.0002 </r>
       <r>   1.3572  -0.3772  27.9699 </r>
       <r>   1.4376   0.1997  27.9859 </r>
       <r>   1.5180   1.6704  28.1202 </r>
       <r>   1.5984   3.5107  28.4023 </r>
       <r>   1.6787   4.0905  28.7311 </r>
       <r>   1.7591   2.7910  28.9554 </r>
       <r>   1.8395   0.9540  29.0321 </r>
       <r>   1.9198  -0.0504  29.0280 </r>
       <r>   2.0002  -0.2126  29.0109 </r>
       <r>   2.0806  -0.1199  29.0013 </r>
       <r>   2.1610  -0.1095  28.9925 </r>
       <r>   2.2413  -0.2673  28.9710 </r>
       <r>   2.3217  -0.4337  28.9362 </r>
       <r>   2.4021   0.1847  28.9510 </r>
       <r>   2.4824   2.6880  29.1670 </r>
       <r>   2.5628   6.4351  29.6842 </r>
       <r>   2.6432   8.2747  30.3493 </r>
       <r>   2.7236   6.2532  30.8519 </r>
       <r>   2.8039   2.5061  31.0533 </r>
       <r>   2.8843   0.1118  31.0623 </r>
       <r>   2.9647  -0.4340  31.0274 </r>
       <r>   3.0450  -0.2545  31.0069 </r>
       <r>   3.1254  -0.1019  30.9987 </r>
       <r>   3.2058  -0.1140  30.9896 </r>
       <r>   3.2861  -0.2099  30.9727 </r>
       <r>   3.3665  -0.0698  30.9671 </r>
       <r>   3.4469   0.8918  31.0388 </r>
       <r>   3.5273   2.7134  31.2568 </r>
       <r>   3.6076   4.0704  31.5840 </r>
       <r>   3.6880   3.5711  31.8710 </r>
       <r>   3.7684   1.7544  32.0120 </r>
       <r>   3.8487   0.2808  32.0346 </r>
       <r>   3.9291  -0.2032  32.0182 </r>
       <r>   4.0095  -0.1580  32.0055 </r>
       <r>   4.0899  -0.0551  32.0011 </r>
       <r>   4.1702  -0.0118  32.0002 </r>
       <r>   4.2506  -0.0017  32.0000 </r>
       <r>   4.3310  -0.0002  32.0000 </r>
       <r>   4.4113   0.0000  32.0000 </r>
       <r>   4.4917   0.0000  32.0000 </r>
       <r>   4.5721   0.0000  32.0000 </r>
       <r>   4.6525   0.0000  32.0000 </r>
       <r>   4.7328   0.0000  32.0000 </r>
       <r>   4.8132  -0.0001  32.0000 </r>
       <r>   4.8936  -0.0010  31.9999 </r>
       <r>   4.9739  -0.0090  31.9992 </r>
       <r>   5.0543  -0.0560  31.9947 </r>
       <r>   5.1347  -0.2283  31.9763 </r>
       <r>   5.2150  -0.5511  31.9320 </r>
       <r>   5.2954  -0.4376  31.8969 </r>
       <r>   5.3758   1.7002  32.0335 </r>
       <r>   5.4562   6.6636  32.5691 </r>
       <r>   5.5365  11.4965  33.4931 </r>
       <r>   5.6169  11.5328  34.4200 </r>
       <r>   5.6973   6.7374  34.9615 </r>
       <r>   5.7776   1.7539  35.1024 </r>
       <r>   5.8580  -0.4210  35.0686 </r>
       <r>   5.9384  -0.5537  35.0241 </r>
       <r>   6.0188  -0.2373  35.0050 </r>
       <r>   6.0991  -0.0865  34.9981 </r>
       <r>   6.1795  -0.1144  34.9889 </r>
       <r>   6.2599  -0.2121  34.9718 </r>
       <r>   6.3402  -0.0463  34.9681 </r>
       <r>   6.4206   0.9666  35.0458 </r>
       <r>   6.5010   2.8064  35.2713 </r>
       <r>   6.5814   4.0941  35.6004 </r>
       <r>   6.6617   3.4986  35.8816 </r>
       <r>   6.7421   1.6554  36.0146 </r>
       <r>   6.8225   0.1935  36.0302 </r>
       <r>   6.9028  -0.3745  36.0001 </r>
       <r>   6.9832  -0.5416  35.9565 </r>
       <r>   7.0636  -0.3173  35.9310 </r>
       <r>   7.1440   1.3123  36.0365 </r>
       <r>   7.2243   4.7963  36.4220 </r>
       <r>   7.3047   7.9127  37.0579 </r>
       <r>   7.3851   7.5661  37.6660 </r>
       <r>   7.4654   4.1337  37.9983 </r>
       <r>   7.5458   0.9031  38.0708 </r>
       <r>   7.6262  -0.3552  38.0423 </r>
       <r>   7.7065  -0.3540  38.0139 </r>
       <r>   7.7869  -0.1360  38.0029 </r>
       <r>   7.8673  -0.0336  38.0002 </r>
       <r>   7.9477  -0.0215  37.9985 </r>
       <r>   8.0280  -0.0850  37.9917 </r>
       <r>   8.1084  -0.2694  37.9700 </r>
       <r>   8.1888  -0.4320  37.9353 </r>
       <r>   8.2691   0.2287  37.9537 </r>
       <r>   8.3495   2.7916  38.1780 </r>
       <r>   8.4299   6.5216  38.7022 </r>
       <r>   8.5103   8.2040  39.3616 </r>
       <r>   8.5906   5.9734  39.8416 </r>
       <r>   8.6710   2.2208  40.0201 </r>
       <r>   8.7514   0.4905  40.0595 </r>
       <r>   8.8317   1.5757  40.1862 </r>
       <r>   8.9121   3.5043  40.4678 </r>
       <r>   8.9925   3.9096  40.7820 </r>
       <r>   9.0729   2.4439  40.9785 </r>
       <r>   9.1532   0.7003  41.0347 </r>
       <r>   9.2336  -0.1229  41.0249 </r>
       <r>   9.3140  -0.1975  41.0090 </r>
       <r>   9.3943  -0.0861  41.0021 </r>
       <r>   9.4747  -0.0218  41.0003 </r>
       <r>   9.5551  -0.0036  41.0000 </r>
       <r>   9.6354  -0.0004  41.0000 </r>
       <r>   9.7158   0.0000  41.0000 </r>
       <r>   9.7962   0.0000  41.0000 </r>
       <r>   9.8766   0.0000  41.0000 </r>
       <r>   9.9569   0.0000  41.0000 </r>
       <r>  10.0373   0.0000  41.0000 </r>
       <r>  10.1177   0.0000  41.0000 </r>
       <r>  10.1980   0.0000  41.0000 </r>
       <r>  10.2784   0.0000  41.0000 </r>
       <r>  10.3588   0.0000  41.0000 </r>
       <r>  10.4392   0.0000  41.0000 </r>
       <r>  10.5195   0.0000  41.0000 </r>
       <r>  10.5999   0.0000  41.0000 </r>
       <r>  10.6803   0.0000  41.0000 </r>
       <r>  10.7606   0.0000  41.0000 </r>
       <r>  10.8410   0.0000  41.0000 </r>
       <r>  10.9214   0.0000  41.0000 </r>
      </set>
     </set>
    </array>
   </total>
  </dos>
 </calculation>
 <structure name="finalpos" >
  <crystal>
   <varray name="basis" >
    <v>       5.62660000       0.00000000       0.00000000 </v>
    <v>       0.00000000       5.62660000       0.00000000 </v>
    <v>       0.00000000       0.00000000       5.62660000 </v>
   </varray>
   <i name="volume">    178.13043383 </i>
   <varray name="rec_basis" >
    <v>       0.17772722       0.00000000       0.00000000 </v>
    <v>       0.00000000       0.17772722       0.00000000 </v>
    <v>       0.00000000       0.00000000       0.17772722 </v>
   </varray>
  </crystal>
  <varray name="positions" >
   <v>       0.50000000       0.50000000       0.00000000 </v>
   <v>       0.00000000       0.50000000       0.50000000 </v>
   <v>       0.50000000       0.00000000       0.50000000 </v>
   <v>       0.00000000       0.00000000       0.00000000 </v>
   <v>       0.25295500       0.25295500       0.25295500 </v>
   <v>       0.74704500       0.74704500       0.25295500 </v>
   <v>       0.25295500       0.74704500       0.74704500 </v>
   <v>       0.74704500       0.25295500       0.74704500 </v>
  </varray>
 </structure>
</modeling>
