 107 107   0   0
  0.1212439E+02  0.1090639E-08  0.1090639E-08  0.1090639E-08  0.5000000E-15
  1.000000000000000E-004
  CAR 
 unknown system                          
     26.92511484     -7.53246748  301      3.68635168      1.00000000
     -7.532  0.0000E+00  0.0000E+00  0.0000E+00  0.0000E+00
     -7.418  0.0000E+00  0.0000E+00  0.0000E+00  0.0000E+00
     -7.303  0.0000E+00  0.0000E+00  0.0000E+00  0.0000E+00
     -7.188  0.0000E+00  0.0000E+00  0.0000E+00  0.0000E+00
     -7.073  0.0000E+00  0.0000E+00  0.0000E+00  0.0000E+00
     -6.958  0.0000E+00  0.0000E+00  0.0000E+00  0.0000E+00
     -6.843  0.0000E+00  0.0000E+00  0.0000E+00  0.0000E+00
     -6.728  0.0000E+00  0.0000E+00  0.0000E+00  0.0000E+00
     -6.614  0.0000E+00  0.0000E+00  0.0000E+00  0.0000E+00
     -6.499  0.0000E+00  0.0000E+00  0.0000E+00  0.0000E+00
     -6.384  0.0000E+00  0.0000E+00  0.0000E+00  0.0000E+00
     -6.269  0.0000E+00  0.0000E+00  0.0000E+00  0.0000E+00
     -6.154  0.0000E+00  0.0000E+00  0.0000E+00  0.0000E+00
     -6.039  0.0000E+00  0.0000E+00  0.0000E+00  0.0000E+00
     -5.924  0.0000E+00  0.0000E+00  0.0000E+00  0.0000E+00
     -5.810  0.0000E+00  0.0000E+00  0.0000E+00  0.0000E+00
     -5.695  0.0000E+00  0.0000E+00  0.0000E+00  0.0000E+00
     -5.580  0.0000E+00  0.0000E+00  0.0000E+00  0.0000E+00
     -5.465  0.1190E+01  0.1185E+01  0.7479E-01  0.7427E-01
     -5.350  0.3003E+01  0.3001E+01  0.3467E+00  0.3454E+00
     -5.235  0.2967E+01  0.2969E+01  0.6988E+00  0.6975E+00
     -5.120  0.1037E+01  0.1042E+01  0.9515E+00  0.9510E+00
     -5.006  0.3947E+01  0.3936E+01  0.1154E+01  0.1152E+01
     -4.891  0.3414E+01  0.3424E+01  0.1711E+01  0.1710E+01
     -4.776  0.3115E+01  0.3115E+01  0.2102E+01  0.2100E+01
     -4.661  0.2196E+01  0.2187E+01  0.2461E+01  0.2460E+01
     -4.546  0.9608E+01  0.9809E+01  0.2924E+01  0.2920E+01
     -4.431  0.4540E+01  0.4547E+01  0.3688E+01  0.3686E+01
     -4.316  0.2536E+01  0.2521E+01  0.4157E+01  0.4156E+01
     -4.202  0.4977E+01  0.4972E+01  0.4590E+01  0.4588E+01
     -4.087  0.3900E+01  0.3907E+01  0.5200E+01  0.5198E+01
     -3.972  0.5773E+01  0.5831E+01  0.6099E+01  0.6097E+01
     -3.857  0.1142E+02  0.1132E+02  0.6669E+01  0.6664E+01
     -3.742  0.2686E+01  0.2650E+01  0.7242E+01  0.7241E+01
     -3.627  0.0000E+00  0.0000E+00  0.8000E+01  0.8000E+01
     -3.512  0.4044E+01  0.4068E+01  0.8846E+01  0.8844E+01
     -3.398  0.9496E+01  0.9577E+01  0.9606E+01  0.9602E+01
     -3.283  0.4440E+01  0.8543E+01  0.1036E+02  0.1036E+02
     -3.168  0.9667E+01  0.9671E+01  0.1106E+02  0.1106E+02
     -3.053  0.9743E+01  0.1037E+02  0.1234E+02  0.1233E+02
     -2.938  0.8495E+01  0.8502E+01  0.1357E+02  0.1357E+02
     -2.823  0.7934E+01  0.7895E+01  0.1451E+02  0.1451E+02
     -2.708  0.8135E+01  0.8424E+01  0.1582E+02  0.1582E+02
     -2.594  0.3796E+01  0.3803E+01  0.1642E+02  0.1642E+02
     -2.479  0.7103E+01  0.7079E+01  0.1699E+02  0.1699E+02
     -2.364  0.1947E+02  0.1939E+02  0.1887E+02  0.1886E+02
     -2.249  0.7974E+01  0.7973E+01  0.2071E+02  0.2070E+02
     -2.134  0.8851E+01  0.8845E+01  0.2195E+02  0.2194E+02
     -2.019  0.1511E+02  0.1570E+02  0.2298E+02  0.2297E+02
     -1.904  0.2010E+02  0.2017E+02  0.2464E+02  0.2464E+02
     -1.790  0.1345E+02  0.1363E+02  0.2644E+02  0.2643E+02
     -1.675  0.2509E+02  0.2514E+02  0.2903E+02  0.2903E+02
     -1.560  0.4785E+01  0.4785E+01  0.3101E+02  0.3101E+02
     -1.445  0.2817E+02  0.2702E+02  0.3272E+02  0.3271E+02
     -1.330  0.4806E+02  0.4877E+02  0.3688E+02  0.3687E+02
     -1.215  0.3501E+02  0.3494E+02  0.4156E+02  0.4156E+02
     -1.100  0.6095E+02  0.6069E+02  0.4704E+02  0.4703E+02
     -0.986  0.3196E+02  0.3247E+02  0.5455E+02  0.5455E+02
     -0.871  0.4201E+02  0.4209E+02  0.6152E+02  0.6152E+02
     -0.756  0.6147E+02  0.6122E+02  0.6928E+02  0.6928E+02
     -0.641  0.9235E+02  0.9229E+02  0.7861E+02  0.7861E+02
     -0.526  0.8293E+02  0.8299E+02  0.8987E+02  0.8987E+02
     -0.411  0.1158E+03  0.1160E+03  0.1034E+03  0.1034E+03
     -0.296  0.1411E+03  0.1408E+03  0.1186E+03  0.1186E+03
     -0.182  0.1343E+03  0.1336E+03  0.1326E+03  0.1326E+03
     -0.067  0.1427E+03  0.1429E+03  0.1459E+03  0.1459E+03
      0.048  0.1238E+03  0.1234E+03  0.1595E+03  0.1595E+03
      0.163  0.1371E+03  0.1364E+03  0.1734E+03  0.1734E+03
      0.278  0.1709E+03  0.1722E+03  0.1898E+03  0.1898E+03
      0.393  0.1584E+03  0.1583E+03  0.2097E+03  0.2097E+03
      0.508  0.1783E+03  0.1777E+03  0.2281E+03  0.2282E+03
      0.622  0.2145E+03  0.2126E+03  0.2518E+03  0.2518E+03
      0.737  0.2454E+03  0.2477E+03  0.2759E+03  0.2759E+03
      0.852  0.1889E+03  0.1879E+03  0.3028E+03  0.3028E+03
      0.967  0.1626E+03  0.1597E+03  0.3249E+03  0.3249E+03
      1.082  0.1489E+03  0.1484E+03  0.3425E+03  0.3425E+03
      1.197  0.1619E+03  0.1594E+03  0.3596E+03  0.3596E+03
      1.312  0.1799E+03  0.1778E+03  0.3791E+03  0.3791E+03
      1.427  0.1857E+03  0.1833E+03  0.4029E+03  0.4029E+03
      1.541  0.2253E+03  0.2231E+03  0.4256E+03  0.4256E+03
      1.656  0.1529E+03  0.1535E+03  0.4460E+03  0.4460E+03
      1.771  0.2007E+03  0.2025E+03  0.4672E+03  0.4673E+03
      1.886  0.2528E+03  0.2546E+03  0.4910E+03  0.4910E+03
      2.001  0.3094E+03  0.3168E+03  0.5232E+03  0.5232E+03
      2.116  0.1327E+03  0.1330E+03  0.5496E+03  0.5497E+03
      2.231  0.3011E+02  0.3002E+02  0.5570E+03  0.5570E+03
      2.345  0.1798E+02  0.1799E+02  0.5594E+03  0.5594E+03
      2.460  0.2098E+02  0.2099E+02  0.5628E+03  0.5628E+03
      2.575  0.1728E+02  0.1727E+02  0.5645E+03  0.5645E+03
      2.690  0.5855E+01  0.5856E+01  0.5663E+03  0.5663E+03
      2.805  0.2473E+02  0.2474E+02  0.5691E+03  0.5691E+03
      2.920  0.1742E+02  0.1743E+02  0.5718E+03  0.5718E+03
      3.035  0.5988E+01  0.5940E+01  0.5730E+03  0.5730E+03
      3.149  0.2241E+02  0.2240E+02  0.5753E+03  0.5753E+03
      3.264  0.1408E+02  0.1413E+02  0.5780E+03  0.5780E+03
      3.379  0.1831E+02  0.1825E+02  0.5803E+03  0.5803E+03
      3.494  0.1365E+02  0.1365E+02  0.5820E+03  0.5820E+03
      3.609  0.1233E+02  0.1137E+02  0.5836E+03  0.5836E+03
      3.724  0.1519E+02  0.1521E+02  0.5850E+03  0.5850E+03
      3.839  0.1705E+02  0.1704E+02  0.5870E+03  0.5870E+03
      3.953  0.2680E+02  0.2682E+02  0.5887E+03  0.5887E+03
      4.068  0.3165E+02  0.3154E+02  0.5917E+03  0.5917E+03
      4.183  0.1035E+02  0.1032E+02  0.5934E+03  0.5934E+03
      4.298  0.8989E+01  0.8919E+01  0.5943E+03  0.5943E+03
      4.413  0.1584E+02  0.1585E+02  0.5954E+03  0.5954E+03
      4.528  0.1509E+02  0.1508E+02  0.5971E+03  0.5971E+03
      4.643  0.1148E+02  0.1149E+02  0.5989E+03  0.5989E+03
      4.757  0.2279E+02  0.2301E+02  0.6009E+03  0.6009E+03
      4.872  0.1624E+02  0.1625E+02  0.6031E+03  0.6031E+03
      4.987  0.1825E+02  0.1769E+02  0.6047E+03  0.6047E+03
      5.102  0.1382E+02  0.1391E+02  0.6065E+03  0.6065E+03
      5.217  0.1446E+02  0.1485E+02  0.6079E+03  0.6079E+03
      5.332  0.1263E+02  0.1263E+02  0.6091E+03  0.6091E+03
      5.447  0.8195E+01  0.8199E+01  0.6104E+03  0.6104E+03
      5.561  0.1671E+02  0.1634E+02  0.6118E+03  0.6118E+03
      5.676  0.6123E+01  0.6133E+01  0.6131E+03  0.6131E+03
      5.791  0.1203E+02  0.1192E+02  0.6146E+03  0.6146E+03
      5.906  0.2463E+02  0.2420E+02  0.6168E+03  0.6168E+03
      6.021  0.7843E+01  0.7842E+01  0.6181E+03  0.6181E+03
      6.136  0.1251E+02  0.1256E+02  0.6192E+03  0.6192E+03
      6.251  0.1230E+02  0.1228E+02  0.6207E+03  0.6207E+03
      6.365  0.4582E+01  0.4593E+01  0.6221E+03  0.6221E+03
      6.480  0.7245E+01  0.7230E+01  0.6228E+03  0.6228E+03
      6.595  0.1007E+02  0.1008E+02  0.6240E+03  0.6240E+03
      6.710  0.1123E+02  0.1137E+02  0.6253E+03  0.6253E+03
      6.825  0.6795E+01  0.6795E+01  0.6263E+03  0.6263E+03
      6.940  0.1496E+02  0.1507E+02  0.6274E+03  0.6274E+03
      7.055  0.1343E+02  0.1335E+02  0.6285E+03  0.6285E+03
      7.169  0.1420E+02  0.1428E+02  0.6301E+03  0.6301E+03
      7.284  0.1265E+02  0.1272E+02  0.6316E+03  0.6316E+03
      7.399  0.8334E+01  0.8339E+01  0.6330E+03  0.6330E+03
      7.514  0.5685E+01  0.5688E+01  0.6338E+03  0.6338E+03
      7.629  0.1330E+02  0.1312E+02  0.6350E+03  0.6350E+03
      7.744  0.1604E+02  0.1598E+02  0.6367E+03  0.6367E+03
      7.859  0.1846E+02  0.1846E+02  0.6393E+03  0.6393E+03
      7.973  0.2108E+02  0.2122E+02  0.6413E+03  0.6413E+03
      8.088  0.1368E+02  0.1366E+02  0.6424E+03  0.6424E+03
      8.203  0.1565E+02  0.1564E+02  0.6440E+03  0.6440E+03
      8.318  0.2028E+02  0.2035E+02  0.6462E+03  0.6462E+03
      8.433  0.1227E+02  0.1227E+02  0.6481E+03  0.6481E+03
      8.548  0.2165E+02  0.2190E+02  0.6498E+03  0.6498E+03
      8.663  0.1039E+02  0.1039E+02  0.6517E+03  0.6517E+03
      8.777  0.2777E+01  0.2730E+01  0.6532E+03  0.6532E+03
      8.892  0.1492E+02  0.1492E+02  0.6549E+03  0.6549E+03
      9.007  0.5936E+01  0.5839E+01  0.6572E+03  0.6572E+03
      9.122  0.9073E+01  0.9034E+01  0.6580E+03  0.6580E+03
      9.237  0.1231E+02  0.1230E+02  0.6593E+03  0.6593E+03
      9.352  0.1599E+02  0.1625E+02  0.6611E+03  0.6611E+03
      9.467  0.1195E+02  0.1194E+02  0.6627E+03  0.6627E+03
      9.581  0.2225E+02  0.2219E+02  0.6649E+03  0.6649E+03
      9.696  0.1064E+02  0.1073E+02  0.6669E+03  0.6669E+03
      9.811  0.9050E+01  0.9042E+01  0.6678E+03  0.6678E+03
      9.926  0.1331E+02  0.1327E+02  0.6691E+03  0.6691E+03
     10.041  0.2549E+02  0.2441E+02  0.6710E+03  0.6710E+03
     10.156  0.9980E+01  0.9984E+01  0.6727E+03  0.6727E+03
     10.271  0.5323E+01  0.5309E+01  0.6737E+03  0.6737E+03
     10.385  0.1158E+02  0.1161E+02  0.6752E+03  0.6752E+03
     10.500  0.1307E+02  0.1303E+02  0.6769E+03  0.6768E+03
     10.615  0.1156E+02  0.1159E+02  0.6786E+03  0.6786E+03
     10.730  0.1390E+02  0.1396E+02  0.6802E+03  0.6802E+03
     10.845  0.1389E+02  0.1385E+02  0.6819E+03  0.6819E+03
     10.960  0.1961E+02  0.1973E+02  0.6839E+03  0.6839E+03
     11.075  0.1441E+02  0.1448E+02  0.6860E+03  0.6860E+03
     11.189  0.1919E+02  0.1919E+02  0.6882E+03  0.6882E+03
     11.304  0.6457E+01  0.6398E+01  0.6899E+03  0.6899E+03
     11.419  0.2053E+02  0.2048E+02  0.6916E+03  0.6916E+03
     11.534  0.1438E+02  0.1460E+02  0.6936E+03  0.6936E+03
     11.649  0.1442E+02  0.1438E+02  0.6953E+03  0.6953E+03
     11.764  0.1976E+02  0.1964E+02  0.6972E+03  0.6972E+03
     11.879  0.1585E+02  0.1586E+02  0.6993E+03  0.6993E+03
     11.993  0.1985E+02  0.2001E+02  0.7014E+03  0.7014E+03
     12.108  0.2669E+02  0.2670E+02  0.7039E+03  0.7039E+03
     12.223  0.2512E+02  0.2487E+02  0.7069E+03  0.7069E+03
     12.338  0.1820E+02  0.1804E+02  0.7096E+03  0.7095E+03
     12.453  0.1502E+02  0.1495E+02  0.7114E+03  0.7114E+03
     12.568  0.1763E+02  0.1766E+02  0.7132E+03  0.7132E+03
     12.683  0.1466E+02  0.1463E+02  0.7150E+03  0.7150E+03
     12.798  0.2168E+02  0.2167E+02  0.7177E+03  0.7177E+03
     12.912  0.2334E+02  0.2357E+02  0.7205E+03  0.7205E+03
     13.027  0.1533E+02  0.1543E+02  0.7228E+03  0.7228E+03
     13.142  0.1896E+02  0.1837E+02  0.7247E+03  0.7247E+03
     13.257  0.1792E+02  0.1803E+02  0.7266E+03  0.7266E+03
     13.372  0.2085E+02  0.2084E+02  0.7281E+03  0.7281E+03
     13.487  0.1272E+02  0.1272E+02  0.7300E+03  0.7300E+03
     13.602  0.3174E+02  0.3088E+02  0.7323E+03  0.7323E+03
     13.716  0.1492E+02  0.1477E+02  0.7349E+03  0.7348E+03
     13.831  0.1467E+02  0.1471E+02  0.7377E+03  0.7377E+03
     13.946  0.1613E+02  0.1611E+02  0.7400E+03  0.7399E+03
     14.061  0.1110E+02  0.1110E+02  0.7426E+03  0.7426E+03
     14.176  0.1934E+02  0.1962E+02  0.7451E+03  0.7450E+03
     14.291  0.1070E+02  0.1071E+02  0.7472E+03  0.7472E+03
     14.406  0.8896E+01  0.8876E+01  0.7492E+03  0.7492E+03
     14.520  0.1783E+02  0.1782E+02  0.7514E+03  0.7514E+03
     14.635  0.2832E+02  0.2806E+02  0.7540E+03  0.7540E+03
     14.750  0.2472E+02  0.2433E+02  0.7565E+03  0.7565E+03
     14.865  0.1708E+02  0.1710E+02  0.7589E+03  0.7589E+03
     14.980  0.2190E+02  0.2204E+02  0.7611E+03  0.7610E+03
     15.095  0.1567E+02  0.1580E+02  0.7635E+03  0.7635E+03
     15.210  0.2451E+02  0.2488E+02  0.7665E+03  0.7665E+03
     15.324  0.2080E+02  0.2082E+02  0.7689E+03  0.7689E+03
     15.439  0.2006E+02  0.1992E+02  0.7708E+03  0.7708E+03
     15.554  0.1689E+02  0.1633E+02  0.7729E+03  0.7729E+03
     15.669  0.1610E+02  0.1529E+02  0.7759E+03  0.7759E+03
     15.784  0.1541E+02  0.1539E+02  0.7773E+03  0.7773E+03
     15.899  0.2508E+02  0.2531E+02  0.7799E+03  0.7799E+03
     16.014  0.2833E+02  0.2738E+02  0.7830E+03  0.7830E+03
     16.128  0.1936E+02  0.1927E+02  0.7856E+03  0.7856E+03
     16.243  0.2493E+02  0.2459E+02  0.7880E+03  0.7880E+03
     16.358  0.1830E+02  0.1847E+02  0.7903E+03  0.7903E+03
     16.473  0.2479E+02  0.2457E+02  0.7931E+03  0.7931E+03
     16.588  0.1597E+02  0.1612E+02  0.7957E+03  0.7957E+03
     16.703  0.4207E+02  0.3216E+02  0.7981E+03  0.7981E+03
     16.818  0.2913E+02  0.2920E+02  0.8014E+03  0.8014E+03
     16.932  0.2692E+02  0.2698E+02  0.8047E+03  0.8047E+03
     17.047  0.2646E+02  0.2635E+02  0.8077E+03  0.8077E+03
     17.162  0.1531E+02  0.1525E+02  0.8104E+03  0.8104E+03
     17.277  0.1927E+02  0.1938E+02  0.8131E+03  0.8130E+03
     17.392  0.2532E+02  0.2547E+02  0.8156E+03  0.8156E+03
     17.507  0.1958E+02  0.1964E+02  0.8186E+03  0.8185E+03
     17.622  0.1415E+02  0.1420E+02  0.8209E+03  0.8209E+03
     17.736  0.1494E+02  0.1494E+02  0.8227E+03  0.8227E+03
     17.851  0.2264E+02  0.2270E+02  0.8255E+03  0.8254E+03
     17.966  0.1587E+02  0.1561E+02  0.8276E+03  0.8276E+03
     18.081  0.2948E+02  0.2944E+02  0.8307E+03  0.8307E+03
     18.196  0.2809E+02  0.2606E+02  0.8339E+03  0.8339E+03
     18.311  0.2375E+02  0.2335E+02  0.8364E+03  0.8363E+03
     18.426  0.1875E+02  0.1867E+02  0.8391E+03  0.8391E+03
     18.540  0.1590E+02  0.1597E+02  0.8412E+03  0.8411E+03
     18.655  0.1679E+02  0.1681E+02  0.8431E+03  0.8431E+03
     18.770  0.2046E+02  0.2046E+02  0.8456E+03  0.8455E+03
     18.885  0.2310E+02  0.2279E+02  0.8486E+03  0.8486E+03
     19.000  0.2506E+02  0.2512E+02  0.8512E+03  0.8512E+03
     19.115  0.1447E+02  0.1432E+02  0.8532E+03  0.8532E+03
     19.230  0.1813E+02  0.1807E+02  0.8552E+03  0.8552E+03
     19.344  0.1904E+02  0.1910E+02  0.8579E+03  0.8578E+03
     19.459  0.2021E+02  0.2021E+02  0.8603E+03  0.8603E+03
     19.574  0.2058E+02  0.2059E+02  0.8631E+03  0.8631E+03
     19.689  0.2052E+02  0.2053E+02  0.8656E+03  0.8656E+03
     19.804  0.1330E+02  0.1331E+02  0.8678E+03  0.8678E+03
     19.919  0.1993E+02  0.1989E+02  0.8700E+03  0.8700E+03
     20.034  0.1282E+02  0.1282E+02  0.8721E+03  0.8721E+03
     20.148  0.1134E+02  0.1122E+02  0.8736E+03  0.8736E+03
     20.263  0.1717E+02  0.1720E+02  0.8752E+03  0.8752E+03
     20.378  0.1719E+02  0.1708E+02  0.8772E+03  0.8772E+03
     20.493  0.1689E+02  0.1733E+02  0.8797E+03  0.8797E+03
     20.608  0.1787E+02  0.1805E+02  0.8817E+03  0.8817E+03
     20.723  0.1640E+02  0.1613E+02  0.8836E+03  0.8836E+03
     20.838  0.1576E+02  0.1597E+02  0.8855E+03  0.8855E+03
     20.952  0.1739E+02  0.1738E+02  0.8874E+03  0.8874E+03
     21.067  0.1760E+02  0.1708E+02  0.8896E+03  0.8896E+03
     21.182  0.1772E+02  0.1761E+02  0.8917E+03  0.8917E+03
     21.297  0.1958E+02  0.1960E+02  0.8940E+03  0.8940E+03
     21.412  0.1784E+02  0.1747E+02  0.8961E+03  0.8961E+03
     21.527  0.1620E+02  0.1626E+02  0.8981E+03  0.8981E+03
     21.642  0.2167E+02  0.2132E+02  0.9002E+03  0.9002E+03
     21.756  0.2242E+02  0.2263E+02  0.9028E+03  0.9028E+03
     21.871  0.1851E+02  0.1841E+02  0.9051E+03  0.9051E+03
     21.986  0.1576E+02  0.1575E+02  0.9071E+03  0.9071E+03
     22.101  0.1659E+02  0.1647E+02  0.9090E+03  0.9090E+03
     22.216  0.2141E+02  0.2547E+02  0.9111E+03  0.9110E+03
     22.331  0.2025E+02  0.2063E+02  0.9132E+03  0.9132E+03
     22.446  0.1907E+02  0.1912E+02  0.9157E+03  0.9156E+03
     22.560  0.1649E+02  0.1649E+02  0.9177E+03  0.9177E+03
     22.675  0.2057E+02  0.2084E+02  0.9198E+03  0.9198E+03
     22.790  0.2153E+02  0.2149E+02  0.9221E+03  0.9221E+03
     22.905  0.2457E+02  0.2486E+02  0.9249E+03  0.9249E+03
     23.020  0.2836E+02  0.2832E+02  0.9280E+03  0.9280E+03
     23.135  0.2176E+02  0.2217E+02  0.9312E+03  0.9312E+03
     23.250  0.1712E+02  0.1745E+02  0.9330E+03  0.9330E+03
     23.364  0.2637E+02  0.2629E+02  0.9356E+03  0.9355E+03
     23.479  0.2938E+02  0.2802E+02  0.9387E+03  0.9387E+03
     23.594  0.2333E+02  0.2343E+02  0.9417E+03  0.9417E+03
     23.709  0.2057E+02  0.2004E+02  0.9442E+03  0.9442E+03
     23.824  0.2813E+02  0.2798E+02  0.9467E+03  0.9466E+03
     23.939  0.2691E+02  0.2698E+02  0.9499E+03  0.9499E+03
     24.054  0.2998E+02  0.3057E+02  0.9533E+03  0.9533E+03
     24.169  0.2538E+02  0.2540E+02  0.9565E+03  0.9565E+03
     24.283  0.2405E+02  0.2408E+02  0.9590E+03  0.9590E+03
     24.398  0.3689E+02  0.3655E+02  0.9625E+03  0.9625E+03
     24.513  0.2222E+02  0.2248E+02  0.9663E+03  0.9663E+03
     24.628  0.1706E+02  0.1473E+02  0.9682E+03  0.9681E+03
     24.743  0.1880E+02  0.1740E+02  0.9706E+03  0.9705E+03
     24.858  0.4644E+01  0.4771E+01  0.9719E+03  0.9718E+03
     24.973  0.0000E+00  0.0000E+00  0.9720E+03  0.9720E+03
     25.087  0.0000E+00  0.0000E+00  0.9720E+03  0.9720E+03
     25.202  0.0000E+00  0.0000E+00  0.9720E+03  0.9720E+03
     25.317  0.0000E+00  0.0000E+00  0.9720E+03  0.9720E+03
     25.432  0.0000E+00  0.0000E+00  0.9720E+03  0.9720E+03
     25.547  0.0000E+00  0.0000E+00  0.9720E+03  0.9720E+03
     25.662  0.0000E+00  0.0000E+00  0.9720E+03  0.9720E+03
     25.777  0.0000E+00  0.0000E+00  0.9720E+03  0.9720E+03
     25.891  0.0000E+00  0.0000E+00  0.9720E+03  0.9720E+03
     26.006  0.0000E+00  0.0000E+00  0.9720E+03  0.9720E+03
     26.121  0.0000E+00  0.0000E+00  0.9720E+03  0.9720E+03
     26.236  0.0000E+00  0.0000E+00  0.9720E+03  0.9720E+03
     26.351  0.0000E+00  0.0000E+00  0.9720E+03  0.9720E+03
     26.466  0.0000E+00  0.0000E+00  0.9720E+03  0.9720E+03
     26.581  0.0000E+00  0.0000E+00  0.9720E+03  0.9720E+03
     26.695  0.0000E+00  0.0000E+00  0.9720E+03  0.9720E+03
     26.810  0.0000E+00  0.0000E+00  0.9720E+03  0.9720E+03
     26.925  0.0000E+00  0.0000E+00  0.9720E+03  0.9720E+03
