   31   31  191    1
  0.1706118E+02  0.8087052E-09  0.8087052E-09  0.8087052E-09  0.5000000E-15
  1.000000000000000E-004
  CAR 
 unknown system                          
   93    2   72
 
  0.2500000E+00  0.2500000E+00  0.2500000E+00  0.5000000E+00
   1       -2.936819
   2       -1.905335
   3       -1.820579
   4       -1.662840
   5       -0.774694
   6       -0.714606
   7       -0.468846
   8        0.315012
   9        0.366534
  10        0.416952
  11        0.628331
  12        1.406204
  13        1.427708
  14        1.463826
  15        1.526584
  16        1.731816
  17        1.855100
  18        2.588314
  19        2.658099
  20        2.745725
  21        3.547254
  22        3.596020
  23        3.647773
  24        3.695391
  25        3.731194
  26        4.072546
  27        4.594202
  28        4.614209
  29        4.663674
  30        4.744975
  31        4.750934
  32        4.774447
  33        4.904031
  34        5.071438
  35        5.097202
  36        5.754643
  37        5.845502
  38        6.162389
  39        6.755260
  40        6.823368
  41        6.839740
  42        6.913106
  43        6.978381
  44        7.000319
  45        7.139495
  46        7.791559
  47        7.914486
  48        7.917907
  49        7.948943
  50        8.027029
  51        8.119708
  52        8.208837
  53        8.245727
  54        8.431440
  55        9.096427
  56        9.192338
  57        9.240261
  58        9.340454
  59        9.347930
  60        9.459384
  61        9.940275
  62        9.986973
  63        9.990596
  64       10.092438
  65       10.106035
  66       10.190476
  67       10.369206
  68       10.509119
  69       10.580784
  70       10.970980
  71       11.127882
  72       11.280315
 
 -0.2500000E+00  0.2500000E+00  0.2500000E+00  0.5000000E+00
   1       -2.937171
   2       -1.914878
   3       -1.740549
   4       -1.739811
   5       -0.791887
   6       -0.627880
   7       -0.553269
   8        0.305567
   9        0.427096
  10        0.477306
  11        0.563868
  12        1.413010
  13        1.453203
  14        1.456005
  15        1.550517
  16        1.563083
  17        1.899096
  18        2.543913
  19        2.698922
  20        2.838659
  21        3.569904
  22        3.603308
  23        3.689125
  24        3.695383
  25        3.776213
  26        3.873707
  27        4.566422
  28        4.649718
  29        4.660119
  30        4.707881
  31        4.771171
  32        4.788632
  33        4.968272
  34        5.011319
  35        5.144413
  36        5.722308
  37        5.906973
  38        6.152691
  39        6.732447
  40        6.804263
  41        6.836943
  42        6.909675
  43        6.974807
  44        6.996344
  45        7.085096
  46        7.811114
  47        7.866197
  48        7.963575
  49        8.023612
  50        8.123959
  51        8.152579
  52        8.227958
  53        8.233490
  54        8.302556
  55        9.131296
  56        9.176310
  57        9.187206
  58        9.323581
  59        9.356660
  60        9.539384
  61        9.897695
  62        9.947539
  63       10.014089
  64       10.028688
  65       10.149557
  66       10.172644
  67       10.370323
  68       10.512405
  69       10.647067
  70       10.927326
  71       11.213502
  72       11.293082
