       N       E                     dE             d eps       ncg     rms          rms(c)
DAV:   1     0.346357962508E+01    0.34636E+01   -0.41088E+03    28   0.690E+02
DAV:   2    -0.138241552372E+02   -0.17288E+02   -0.17007E+02    30   0.811E+01
DAV:   3    -0.141058560671E+02   -0.28170E+00   -0.26819E+00    22   0.892E+00
DAV:   4    -0.141074189382E+02   -0.15629E-02   -0.15626E-02    36   0.946E-01
DAV:   5    -0.141074190011E+02   -0.62898E-07   -0.62580E-07    30   0.601E-03    0.174E+00
DAV:   6    -0.140638796418E+02    0.43539E-01   -0.59482E-03    36   0.561E-01    0.108E+00
DAV:   7    -0.140338773451E+02    0.30002E-01   -0.16882E-02    20   0.100E+00    0.499E-02
DAV:   8    -0.140339177574E+02   -0.40412E-04   -0.16904E-04    36   0.121E-01
   1 F= -.14033918E+02 E0= -.13984137E+02  d E =-.140339E+02
       N       E                     dE             d eps       ncg     rms          rms(c)
DAV:   1    -0.140349536211E+02   -0.10763E-02   -0.13854E-02    20   0.760E-01    0.572E-02
DAV:   2    -0.140348945122E+02    0.59109E-04   -0.10596E-04    12   0.834E-02
   2 F= -.14034895E+02 E0= -.13985113E+02  d E =-.976755E-03
       N       E                     dE             d eps       ncg     rms          rms(c)
DAV:   1    -0.140348532763E+02    0.10034E-03   -0.51199E-05    10   0.504E-02    0.190E-03
DAV:   2    -0.140348538736E+02   -0.59721E-06   -0.57917E-06    10   0.244E-02
   3 F= -.14034854E+02 E0= -.13985073E+02  d E =-.936116E-03
