Processors received = 12
script running on host compute-1-32.local
PBS_NODEFILE
compute-1-32
compute-1-32
compute-1-32
compute-1-32
compute-1-32
compute-1-32
compute-1-32
compute-1-32
compute-1-32
compute-1-32
compute-1-32
compute-1-32
 running on   12 nodes
 distr:  one band on    1 nodes,   12 groups
 vasp.5.2.2 15Apr09 complex 
 POSCAR found type information on POSCAR  Al Mg
 POSCAR found :  2 types and   31 ions

 ----------------------------------------------------------------------------- 
|                                                                             |
|  ADVICE TO THIS USER RUNNING 'VASP/VAMP'   (HEAR YOUR MASTER'S VOICE ...):  |
|                                                                             |
|      You have a (more or less) 'large supercell' and for larger cells       |
|      it might be more efficient to use real space projection operators      |
|      So try LREAL= Auto  in the INCAR   file.                               |
|      Mind: If you want to do a very accurate calculations keep the          |
|      reciprocal projection scheme          (i.e. LREAL=.FALSE.)             |
|                                                                             |
 ----------------------------------------------------------------------------- 

 LDA part: xc-table for Pade appr. of Perdew
 POSCAR, INCAR and KPOINTS ok, starting setup
 FFT: planning ...(           1 )
 reading WAVECAR
 entering main loop
       N       E                     dE             d eps       ncg     rms          rms(c)
RMM:   1     0.228632588400E+03    0.22863E+03   -0.15519E+04   144   0.532E+02
RMM:   2    -0.380320440351E+02   -0.26666E+03   -0.25793E+03   144   0.110E+02
RMM:   3    -0.932925007200E+02   -0.55260E+02   -0.53993E+02   144   0.364E+01
RMM:   4    -0.106486035382E+03   -0.13194E+02   -0.11326E+02   144   0.206E+01
RMM:   5    -0.111018804154E+03   -0.45328E+01   -0.34383E+01   144   0.105E+01
RMM:   6    -0.112626756439E+03   -0.16080E+01   -0.11890E+01   144   0.622E+00
RMM:   7    -0.113178804614E+03   -0.55205E+00   -0.44383E+00   144   0.359E+00
RMM:   8    -0.113390836707E+03   -0.21203E+00   -0.17572E+00   144   0.220E+00
RMM:   9    -0.113512183676E+03   -0.12135E+00   -0.10983E+00   330   0.132E+00
RMM:  10    -0.113528869906E+03   -0.16686E-01   -0.11055E-01   305   0.356E-01
RMM:  11    -0.113529818941E+03   -0.94903E-03   -0.63828E-03   252   0.919E-02
RMM:  12    -0.113529870877E+03   -0.51936E-04   -0.48052E-04   202   0.315E-02    0.588E+00
RMM:  13    -0.112069846593E+03    0.14600E+01   -0.33600E+00   288   0.211E+00    0.339E+00
RMM:  14    -0.111820113172E+03    0.24973E+00   -0.23564E-01   288   0.813E-01    0.209E+00
RMM:  15    -0.111705374885E+03    0.11474E+00   -0.10192E-01   288   0.627E-01    0.442E-01
RMM:  16    -0.111697964811E+03    0.74101E-02   -0.10504E-02   291   0.194E-01    0.892E-02
RMM:  17    -0.111697592986E+03    0.37183E-03   -0.12761E-03   289   0.681E-02    0.303E-02
RMM:  18    -0.111697613840E+03   -0.20854E-04   -0.10391E-04   189   0.273E-02
   1 F= -.11169761E+03 E0= -.11167957E+03  d E =-.111698E+03
 curvature:   0.00 expect dE= 0.000E+00 dE for cont linesearch  0.000E+00
 trial: gam= 0.00000 g(F)=  0.449E+00 g(S)=  0.000E+00 ort = 0.000E+00 (trialstep = 0.100E+01)
 search vector abs. value=  0.449E+00
 bond charge predicted
       N       E                     dE             d eps       ncg     rms          rms(c)
RMM:   1    -0.112107125603E+03   -0.40953E+00   -0.26717E+00   288   0.425E+00    0.399E-01
RMM:   2    -0.112087293241E+03    0.19832E-01   -0.51262E-02   292   0.552E-01    0.137E-01
RMM:   3    -0.112086620265E+03    0.67298E-03   -0.34175E-03   291   0.150E-01    0.713E-02
RMM:   4    -0.112086611981E+03    0.82843E-05   -0.41619E-04   246   0.505E-02
   2 F= -.11208661E+03 E0= -.11207109E+03  d E =-.388998E+00
 trial-energy change:   -0.388998  1 .order   -0.388795   -0.448904   -0.328686
 step:   3.7341(harm=  3.7341)  dis= 0.14537  next Energy=  -112.535736 (dE=-0.838E+00)
 bond charge predicted
       N       E                     dE             d eps       ncg     rms          rms(c)
RMM:   1    -0.112648994864E+03   -0.56237E+00   -0.20165E+01   288   0.116E+01    0.983E-01
RMM:   2    -0.112528939651E+03    0.12006E+00   -0.30609E-01   288   0.146E+00    0.376E-01
RMM:   3    -0.112524531571E+03    0.44081E-02   -0.27803E-02   297   0.410E-01    0.183E-01
RMM:   4    -0.112524655182E+03   -0.12361E-03   -0.23138E-03   301   0.123E-01    0.850E-02
RMM:   5    -0.112524759142E+03   -0.10396E-03   -0.23856E-04   189   0.468E-02    0.257E-02
RMM:   6    -0.112524767654E+03   -0.85119E-05   -0.46443E-05   181   0.225E-02
   3 F= -.11252477E+03 E0= -.11251281E+03  d E =-.827154E+00
 curvature:  -1.87 expect dE=-0.638E-01 dE for cont linesearch -0.532E-03
 trial: gam= 0.10125 g(F)=  0.341E-01 g(S)=  0.000E+00 ort =-0.113E-01 (trialstep = 0.155E+01)
 search vector abs. value=  0.365E-01
 bond charge predicted
       N       E                     dE             d eps       ncg     rms          rms(c)
RMM:   1    -0.112566388487E+03   -0.41629E-01   -0.52344E-01   288   0.190E+00    0.174E-01
RMM:   2    -0.112562751267E+03    0.36372E-02   -0.87503E-03   291   0.239E-01    0.595E-02
RMM:   3    -0.112562651026E+03    0.10024E-03   -0.61762E-04   270   0.623E-02    0.297E-02
RMM:   4    -0.112562653010E+03   -0.19840E-05   -0.52848E-05   180   0.216E-02
   4 F= -.11256265E+03 E0= -.11255067E+03  d E =-.378854E-01
 trial-energy change:   -0.037885  1 .order   -0.037867   -0.051045   -0.024688
 step:   2.9957(harm=  2.9957)  dis= 0.02839  next Energy=  -112.574197 (dE=-0.494E-01)
 bond charge predicted
       N       E                     dE             d eps       ncg     rms          rms(c)
RMM:   1    -0.112577351718E+03   -0.14701E-01   -0.45724E-01   288   0.177E+00    0.160E-01
RMM:   2    -0.112574347445E+03    0.30043E-02   -0.74966E-03   291   0.224E-01    0.566E-02
RMM:   3    -0.112574264340E+03    0.83105E-04   -0.51018E-04   262   0.579E-02
   5 F= -.11257426E+03 E0= -.11256134E+03  d E =-.494967E-01
 curvature:  -1.65 expect dE=-0.396E-02 dE for cont linesearch -0.304E-06
 trial: gam= 0.00347 g(F)=  0.239E-02 g(S)=  0.000E+00 ort = 0.818E-04 (trialstep = 0.184E+01)
 search vector abs. value=  0.239E-02
 reached required accuracy - stopping structural energy minimisation
