  31  31   0   0
  0.1706118E+02  0.8087052E-09  0.8087052E-09  0.8087052E-09  0.5000000E-15
  1.000000000000000E-004
  CAR 
 unknown system                          
     13.31334501     -4.95673798  301      7.85334537      1.00000000
     -4.957  0.0000E+00  0.0000E+00
     -4.896  0.0000E+00  0.0000E+00
     -4.835  0.0000E+00  0.0000E+00
     -4.774  0.0000E+00  0.0000E+00
     -4.713  0.0000E+00  0.0000E+00
     -4.652  0.0000E+00  0.0000E+00
     -4.591 -0.3471E-29 -0.2114E-30
     -4.530 -0.4402E-27 -0.2702E-28
     -4.470 -0.4660E-25 -0.2865E-26
     -4.409 -0.4090E-23 -0.2519E-24
     -4.348 -0.2975E-21 -0.1837E-22
     -4.287 -0.1794E-19 -0.1111E-20
     -4.226 -0.8962E-18 -0.5569E-19
     -4.165 -0.3708E-16 -0.2314E-17
     -4.104 -0.1232E-14 -0.7734E-16
     -4.043 -0.3480E-13 -0.2197E-14
     -3.982 -0.8124E-12 -0.5167E-13
     -3.921 -0.1566E-10 -0.1005E-11
     -3.861 -0.2490E-09 -0.1617E-10
     -3.800 -0.3261E-08 -0.2148E-09
     -3.739 -0.3512E-07 -0.2354E-08
     -3.678 -0.3102E-06 -0.2124E-07
     -3.617 -0.2240E-05 -0.1576E-06
     -3.556 -0.1316E-04 -0.9589E-06
     -3.495 -0.6243E-04 -0.4761E-05
     -3.434 -0.2366E-03 -0.1917E-04
     -3.373 -0.7017E-03 -0.6190E-04
     -3.312 -0.1561E-02 -0.1570E-03
     -3.252 -0.2320E-02 -0.2982E-03
     -3.191 -0.1132E-02 -0.3672E-03
     -3.130  0.4955E-02 -0.6547E-04
     -3.069  0.1742E-01  0.9954E-03
     -3.008  0.3277E-01  0.2991E-02
     -2.947  0.4287E-01  0.5602E-02
     -2.886  0.4113E-01  0.8106E-02
     -2.825  0.2874E-01  0.9857E-02
     -2.764  0.1349E-01  0.1068E-01
     -2.703  0.2666E-02  0.1084E-01
     -2.643 -0.1812E-02  0.1073E-01
     -2.582 -0.2202E-02  0.1060E-01
     -2.521 -0.1313E-02  0.1052E-01
     -2.460 -0.6105E-03  0.1048E-01
     -2.399 -0.4611E-03  0.1045E-01
     -2.338 -0.9523E-03  0.1039E-01
     -2.277 -0.2191E-02  0.1026E-01
     -2.216 -0.3745E-02  0.1003E-01
     -2.155 -0.3460E-02  0.9821E-02
     -2.094  0.2984E-02  0.1000E-01
     -2.034  0.1962E-01  0.1120E-01
     -1.973  0.4524E-01  0.1395E-01
     -1.912  0.7121E-01  0.1829E-01
     -1.851  0.8670E-01  0.2357E-01
     -1.790  0.8718E-01  0.2888E-01
     -1.729  0.7643E-01  0.3353E-01
     -1.668  0.6068E-01  0.3723E-01
     -1.607  0.4338E-01  0.3987E-01
     -1.546  0.2618E-01  0.4146E-01
     -1.485  0.1154E-01  0.4217E-01
     -1.425  0.2036E-02  0.4229E-01
     -1.364 -0.1980E-02  0.4217E-01
     -1.303 -0.2505E-02  0.4202E-01
     -1.242 -0.2046E-02  0.4189E-01
     -1.181 -0.2198E-02  0.4176E-01
     -1.120 -0.3226E-02  0.4156E-01
     -1.059 -0.3681E-02  0.4134E-01
     -0.998  0.3034E-04  0.4134E-01
     -0.937  0.1225E-01  0.4209E-01
     -0.876  0.3380E-01  0.4414E-01
     -0.816  0.5828E-01  0.4769E-01
     -0.755  0.7464E-01  0.5224E-01
     -0.694  0.7581E-01  0.5686E-01
     -0.633  0.6468E-01  0.6080E-01
     -0.572  0.5069E-01  0.6388E-01
     -0.511  0.4115E-01  0.6639E-01
     -0.450  0.3642E-01  0.6861E-01
     -0.389  0.3229E-01  0.7057E-01
     -0.328  0.2531E-01  0.7211E-01
     -0.267  0.1576E-01  0.7307E-01
     -0.207  0.6611E-02  0.7348E-01
     -0.146  0.3179E-03  0.7350E-01
     -0.085 -0.3044E-02  0.7331E-01
     -0.024 -0.4873E-02  0.7301E-01
      0.037 -0.5391E-02  0.7269E-01
      0.098 -0.1669E-02  0.7258E-01
      0.159  0.1132E-01  0.7327E-01
      0.220  0.3599E-01  0.7547E-01
      0.281  0.6721E-01  0.7956E-01
      0.342  0.9329E-01  0.8524E-01
      0.402  0.1041E+00  0.9158E-01
      0.463  0.9846E-01  0.9757E-01
      0.524  0.8391E-01  0.1027E+00
      0.585  0.6871E-01  0.1069E+00
      0.646  0.5559E-01  0.1103E+00
      0.707  0.4248E-01  0.1128E+00
      0.768  0.2779E-01  0.1145E+00
      0.829  0.1352E-01  0.1154E+00
      0.890  0.3009E-02  0.1155E+00
      0.951 -0.2693E-02  0.1154E+00
      1.011 -0.5399E-02  0.1150E+00
      1.072 -0.7088E-02  0.1146E+00
      1.133 -0.6548E-02  0.1142E+00
      1.194  0.1932E-02  0.1143E+00
      1.255  0.2551E-01  0.1159E+00
      1.316  0.6537E-01  0.1199E+00
      1.377  0.1105E+00  0.1266E+00
      1.438  0.1414E+00  0.1352E+00
      1.499  0.1438E+00  0.1440E+00
      1.560  0.1203E+00  0.1513E+00
      1.620  0.8831E-01  0.1567E+00
      1.681  0.6490E-01  0.1606E+00
      1.742  0.5520E-01  0.1640E+00
      1.803  0.5359E-01  0.1673E+00
      1.864  0.5254E-01  0.1705E+00
      1.925  0.4787E-01  0.1734E+00
      1.986  0.3859E-01  0.1757E+00
      2.047  0.2595E-01  0.1773E+00
      2.108  0.1311E-01  0.1781E+00
      2.169  0.3433E-02  0.1783E+00
      2.229 -0.1947E-02  0.1782E+00
      2.290 -0.4429E-02  0.1779E+00
      2.351 -0.5664E-02  0.1776E+00
      2.412 -0.4739E-02  0.1773E+00
      2.473  0.2724E-02  0.1775E+00
      2.534  0.2170E-01  0.1788E+00
      2.595  0.5192E-01  0.1819E+00
      2.656  0.8419E-01  0.1871E+00
      2.717  0.1045E+00  0.1934E+00
      2.778  0.1035E+00  0.1997E+00
      2.838  0.8288E-01  0.2048E+00
      2.899  0.5309E-01  0.2080E+00
      2.960  0.2558E-01  0.2096E+00
      3.021  0.7082E-02  0.2100E+00
      3.082 -0.1862E-02  0.2099E+00
      3.143 -0.4725E-02  0.2096E+00
      3.204 -0.5703E-02  0.2092E+00
      3.265 -0.6974E-02  0.2088E+00
      3.326 -0.6922E-02  0.2084E+00
      3.387  0.3814E-03  0.2084E+00
      3.448  0.2283E-01  0.2098E+00
      3.508  0.6406E-01  0.2137E+00
      3.569  0.1166E+00  0.2208E+00
      3.630  0.1613E+00  0.2306E+00
      3.691  0.1776E+00  0.2415E+00
      3.752  0.1574E+00  0.2510E+00
      3.813  0.1129E+00  0.2579E+00
      3.874  0.6835E-01  0.2621E+00
      3.935  0.4250E-01  0.2647E+00
      3.996  0.3606E-01  0.2669E+00
      4.057  0.3604E-01  0.2691E+00
      4.117  0.3036E-01  0.2709E+00
      4.178  0.1735E-01  0.2720E+00
      4.239  0.3020E-02  0.2721E+00
      4.300 -0.6229E-02  0.2718E+00
      4.361 -0.5962E-02  0.2714E+00
      4.422  0.8040E-02  0.2719E+00
      4.483  0.3870E-01  0.2743E+00
      4.544  0.8258E-01  0.2793E+00
      4.605  0.1276E+00  0.2871E+00
      4.666  0.1590E+00  0.2967E+00
      4.726  0.1693E+00  0.3070E+00
      4.787  0.1629E+00  0.3170E+00
      4.848  0.1498E+00  0.3261E+00
      4.909  0.1364E+00  0.3344E+00
      4.970  0.1227E+00  0.3419E+00
      5.031  0.1068E+00  0.3484E+00
      5.092  0.8965E-01  0.3538E+00
      5.153  0.7357E-01  0.3583E+00
      5.214  0.5854E-01  0.3619E+00
      5.275  0.4252E-01  0.3645E+00
      5.335  0.2515E-01  0.3660E+00
      5.396  0.9256E-02  0.3666E+00
      5.457 -0.1015E-02  0.3665E+00
      5.518 -0.2570E-02  0.3663E+00
      5.579  0.5919E-02  0.3667E+00
      5.640  0.2306E-01  0.3681E+00
      5.701  0.4336E-01  0.3708E+00
      5.762  0.5866E-01  0.3743E+00
      5.823  0.6312E-01  0.3782E+00
      5.884  0.5667E-01  0.3816E+00
      5.944  0.4343E-01  0.3843E+00
      6.005  0.2845E-01  0.3860E+00
      6.066  0.1671E-01  0.3870E+00
      6.127  0.1297E-01  0.3878E+00
      6.188  0.1899E-01  0.3890E+00
      6.249  0.3043E-01  0.3908E+00
      6.310  0.3827E-01  0.3931E+00
      6.371  0.3532E-01  0.3953E+00
      6.432  0.2219E-01  0.3966E+00
      6.493  0.7530E-02  0.3971E+00
      6.553  0.3305E-02  0.3973E+00
      6.614  0.1822E-01  0.3984E+00
      6.675  0.5127E-01  0.4015E+00
      6.736  0.8977E-01  0.4070E+00
      6.797  0.1179E+00  0.4142E+00
      6.858  0.1311E+00  0.4222E+00
      6.919  0.1394E+00  0.4307E+00
      6.980  0.1516E+00  0.4399E+00
      7.041  0.1614E+00  0.4497E+00
      7.102  0.1523E+00  0.4590E+00
      7.162  0.1180E+00  0.4662E+00
      7.223  0.6993E-01  0.4704E+00
      7.284  0.2752E-01  0.4721E+00
      7.345  0.2208E-02  0.4723E+00
      7.406 -0.7199E-02  0.4718E+00
      7.467 -0.8466E-02  0.4713E+00
      7.528 -0.7911E-02  0.4708E+00
      7.589 -0.6360E-02  0.4704E+00
      7.650  0.5670E-03  0.4705E+00
      7.711  0.1854E-01  0.4716E+00
      7.771  0.4829E-01  0.4745E+00
      7.832  0.8212E-01  0.4795E+00
      7.893  0.1089E+00  0.4862E+00
      7.954  0.1246E+00  0.4938E+00
      8.015  0.1363E+00  0.5021E+00
      8.076  0.1536E+00  0.5114E+00
      8.137  0.1756E+00  0.5221E+00
      8.198  0.1896E+00  0.5337E+00
      8.259  0.1818E+00  0.5447E+00
      8.320  0.1501E+00  0.5539E+00
      8.380  0.1050E+00  0.5603E+00
      8.441  0.6101E-01  0.5640E+00
      8.502  0.2772E-01  0.5657E+00
      8.563  0.7606E-02  0.5661E+00
      8.624 -0.1822E-02  0.5660E+00
      8.685 -0.4888E-02  0.5657E+00
      8.746 -0.5700E-02  0.5654E+00
      8.807 -0.6486E-02  0.5650E+00
      8.868 -0.5973E-02  0.5646E+00
      8.929  0.1106E-02  0.5647E+00
      8.989  0.2084E-01  0.5660E+00
      9.050  0.5306E-01  0.5692E+00
      9.111  0.8709E-01  0.5745E+00
      9.172  0.1090E+00  0.5811E+00
      9.233  0.1158E+00  0.5882E+00
      9.294  0.1184E+00  0.5954E+00
      9.355  0.1267E+00  0.6031E+00
      9.416  0.1345E+00  0.6113E+00
      9.477  0.1259E+00  0.6190E+00
      9.538  0.9447E-01  0.6247E+00
      9.598  0.5085E-01  0.6278E+00
      9.659  0.1255E-01  0.6286E+00
      9.720 -0.9041E-02  0.6280E+00
      9.781 -0.9729E-02  0.6274E+00
      9.842  0.1299E-01  0.6282E+00
      9.903  0.5927E-01  0.6318E+00
      9.964  0.1197E+00  0.6391E+00
     10.025  0.1739E+00  0.6497E+00
     10.086  0.2005E+00  0.6619E+00
     10.147  0.1899E+00  0.6735E+00
     10.207  0.1483E+00  0.6825E+00
     10.268  0.9249E-01  0.6882E+00
     10.329  0.4284E-01  0.6908E+00
     10.390  0.1596E-01  0.6917E+00
     10.451  0.1883E-01  0.6929E+00
     10.512  0.4605E-01  0.6957E+00
     10.573  0.8167E-01  0.7007E+00
     10.634  0.1060E+00  0.7071E+00
     10.695  0.1063E+00  0.7136E+00
     10.756  0.8579E-01  0.7188E+00
     10.816  0.6097E-01  0.7225E+00
     10.877  0.4788E-01  0.7254E+00
     10.938  0.4871E-01  0.7284E+00
     10.999  0.5341E-01  0.7317E+00
     11.060  0.5345E-01  0.7349E+00
     11.121  0.5087E-01  0.7380E+00
     11.182  0.5255E-01  0.7412E+00
     11.243  0.5855E-01  0.7448E+00
     11.304  0.6038E-01  0.7485E+00
     11.365  0.5079E-01  0.7516E+00
     11.425  0.3209E-01  0.7535E+00
     11.486  0.1331E-01  0.7543E+00
     11.547  0.1458E-02  0.7544E+00
     11.608 -0.2790E-02  0.7542E+00
     11.669 -0.2717E-02  0.7541E+00
     11.730 -0.1511E-02  0.7540E+00
     11.791 -0.6089E-03  0.7539E+00
     11.852 -0.1901E-03  0.7539E+00
     11.913 -0.4725E-04  0.7539E+00
     11.974 -0.9491E-05  0.7539E+00
     12.034 -0.1553E-05  0.7539E+00
     12.095 -0.2082E-06  0.7539E+00
     12.156 -0.2294E-07  0.7539E+00
     12.217 -0.2082E-08  0.7539E+00
     12.278 -0.1559E-09  0.7539E+00
     12.339 -0.9649E-11  0.7539E+00
     12.400 -0.4938E-12  0.7539E+00
     12.461 -0.2090E-13  0.7539E+00
     12.522 -0.7445E-15  0.7539E+00
     12.583 -0.1909E-16  0.7539E+00
     12.643  0.0000E+00  0.7539E+00
     12.704  0.0000E+00  0.7539E+00
     12.765  0.0000E+00  0.7539E+00
     12.826  0.0000E+00  0.7539E+00
     12.887  0.0000E+00  0.7539E+00
     12.948  0.0000E+00  0.7539E+00
     13.009  0.0000E+00  0.7539E+00
     13.070  0.0000E+00  0.7539E+00
     13.131  0.0000E+00  0.7539E+00
     13.192  0.0000E+00  0.7539E+00
     13.252  0.0000E+00  0.7539E+00
     13.313  0.0000E+00  0.7539E+00
