   31   31  191    1
  0.1706118E+02  0.8087052E-09  0.8087052E-09  0.8087052E-09  0.5000000E-15
  1.000000000000000E-004
  CAR 
 unknown system                          
   92    2   72
 
  0.2500000E+00  0.2500000E+00  0.2500000E+00  0.5000000E+00
   1       -2.953862
   2       -1.923577
   3       -1.873073
   4       -1.639283
   5       -0.802324
   6       -0.749017
   7       -0.383765
   8        0.293733
   9        0.332621
  10        0.504411
  11        0.613505
  12        1.347502
  13        1.401822
  14        1.419687
  15        1.553659
  16        1.730210
  17        1.967138
  18        2.662879
  19        2.678494
  20        2.850150
  21        3.542373
  22        3.613130
  23        3.659971
  24        3.713794
  25        3.751798
  26        4.038392
  27        4.541286
  28        4.595647
  29        4.635012
  30        4.756561
  31        4.813637
  32        4.884437
  33        4.934757
  34        5.058019
  35        5.241469
  36        5.719171
  37        5.833506
  38        6.334920
  39        6.737287
  40        6.763011
  41        6.796859
  42        6.971058
  43        7.013723
  44        7.072949
  45        7.115114
  46        7.814738
  47        7.846380
  48        7.940730
  49        8.079997
  50        8.165356
  51        8.229427
  52        8.257500
  53        8.330539
  54        8.417421
  55        9.091633
  56        9.154658
  57        9.164882
  58        9.395048
  59        9.417060
  60        9.479347
  61        9.980499
  62        9.986070
  63       10.069334
  64       10.117908
  65       10.188024
  66       10.212642
  67       10.531162
  68       10.674846
  69       10.703162
  70       10.930523
  71       11.032779
  72       11.272437
 
 -0.2500000E+00  0.2500000E+00  0.2500000E+00  0.5000000E+00
   1       -2.956738
   2       -1.916909
   3       -1.816015
   4       -1.706795
   5       -0.801032
   6       -0.665989
   7       -0.519995
   8        0.298949
   9        0.399870
  10        0.434247
  11        0.685471
  12        1.376303
  13        1.460789
  14        1.472757
  15        1.506359
  16        1.726936
  17        1.872013
  18        2.631122
  19        2.736218
  20        2.773661
  21        3.552666
  22        3.625674
  23        3.654120
  24        3.688592
  25        3.765173
  26        4.006740
  27        4.571522
  28        4.654221
  29        4.676363
  30        4.724280
  31        4.743264
  32        4.915914
  33        4.934657
  34        5.055886
  35        5.180616
  36        5.732087
  37        5.952817
  38        6.262451
  39        6.755833
  40        6.776187
  41        6.881575
  42        7.005384
  43        7.023059
  44        7.059180
  45        7.135344
  46        7.846442
  47        7.912666
  48        7.979115
  49        8.069052
  50        8.129094
  51        8.138201
  52        8.181533
  53        8.227021
  54        8.276567
  55        9.135020
  56        9.158592
  57        9.303253
  58        9.397387
  59        9.402436
  60        9.481813
  61        9.986067
  62        9.994668
  63       10.011799
  64       10.074082
  65       10.119831
  66       10.179060
  67       10.572579
  68       10.621676
  69       10.664519
  70       10.970901
  71       11.226515
  72       11.313345
