 vasp.5.2.2 15Apr09 complex 
 executed on             LinuxIFC date 2017.03.17  11:26:43
 running on   12 nodes
 distr:  one band on    1 nodes,   12 groups


--------------------------------------------------------------------------------------------------------


 INCAR:
 POTCAR:   PAW_PBE Al 04Jan2001                   
 POTCAR:   PAW_PBE Mg 05Jan2001                   
 POTCAR:   PAW_PBE Al 04Jan2001                   
   VRHFIN =Al: s2p1                                                             
   LEXCH  = PE                                                                  
   EATOM  =    53.5387 eV,    3.9350 Ry                                         
                                                                                
   TITEL  = PAW_PBE Al 04Jan2001                                                
   LULTRA =        F    use ultrasoft PP ?                                      
   IUNSCR =        1    unscreen: 0-lin 1-nonlin 2-no                           
   RPACOR =    1.500    partial core radius                                     
   POMASS =   26.982; ZVAL   =    3.000    mass and valenz                      
   RCORE  =    1.900    outmost cutoff radius                                   
   RWIGS  =    2.650; RWIGS  =    1.402    wigner-seitz radius (au A)           
   ENMAX  =  240.300; ENMIN  =  180.225 eV                                      
   ICORE  =        2    local potential                                         
   LCOR   =        T    correct aug charges                                     
   LPAW   =        T    paw PP                                                  
   EAUG   =  291.052                                                            
   DEXC   =    -.041                                                            
   RMAX   =    2.974    core radius for proj-oper                               
   RAUG   =    1.300    factor for augmentation sphere                          
   RDEP   =    1.966    radius for radial grids                                 
   QCUT   =   -4.203; QGAM   =    8.405    optimization parameters              
                                                                                
   Description                                                                  
     l     E      TYP  RCUT    TYP  RCUT                                        
     0   .000     23  1.900                                                     
     0   .000     23  1.900                                                     
     1   .000     23  1.900                                                     
     1  1.000     23  1.900                                                     
     2   .000      7  1.900                                                     
  local pseudopotential read in
  partial core-charges read in
  atomic valenz-charges read in
  non local Contribution for L=           0  read in
    real space projection operators read in
  non local Contribution for L=           0  read in
    real space projection operators read in
  non local Contribution for L=           1  read in
    real space projection operators read in
  non local Contribution for L=           1  read in
    real space projection operators read in
    PAW grid and wavefunctions read in
 
   number of l-projection  operators is LMAX  =           4
   number of lm-projection operators is LMMAX =           8
 
 POTCAR:   PAW_PBE Mg 05Jan2001                   
   VRHFIN =Mg: s2p0                                                             
   LEXCH  = PE                                                                  
   EATOM  =    23.0029 eV,    1.6907 Ry                                         
                                                                                
   TITEL  = PAW_PBE Mg 05Jan2001                                                
   LULTRA =        F    use ultrasoft PP ?                                      
   IUNSCR =        1    unscreen: 0-lin 1-nonlin 2-no                           
   RPACOR =    2.000    partial core radius                                     
   POMASS =   24.305; ZVAL   =    2.000    mass and valenz                      
   RCORE  =    2.000    outmost cutoff radius                                   
   RWIGS  =    2.880; RWIGS  =    1.524    wigner-seitz radius (au A)           
   ENMAX  =  210.012; ENMIN  =  157.509 eV                                      
   ICORE  =        2    local potential                                         
   LCOR   =        T    correct aug charges                                     
   LPAW   =        T    paw PP                                                  
   EAUG   =  274.554                                                            
   DEXC   =    -.136                                                            
   RMAX   =    3.182    core radius for proj-oper                               
   RAUG   =    1.300    factor for augmentation sphere                          
   RDEP   =    2.025    radius for radial grids                                 
   QCUT   =   -3.929; QGAM   =    7.858    optimization parameters              
                                                                                
   Description                                                                  
     l     E      TYP  RCUT    TYP  RCUT                                        
     0   .000     23  2.000                                                     
     0  2.000     23  2.000                                                     
     1   .000     23  2.000                                                     
     1  2.000     23  2.000                                                     
     2   .000     23  2.000                                                     
  local pseudopotential read in
  partial core-charges read in
  atomic valenz-charges read in
  non local Contribution for L=           0  read in
    real space projection operators read in
  non local Contribution for L=           0  read in
    real space projection operators read in
  non local Contribution for L=           1  read in
    real space projection operators read in
  non local Contribution for L=           1  read in
    real space projection operators read in
    PAW grid and wavefunctions read in
 
   number of l-projection  operators is LMAX  =           4
   number of lm-projection operators is LMMAX =           8
 

 ----------------------------------------------------------------------------- 
|                                                                             |
|  ADVICE TO THIS USER RUNNING 'VASP/VAMP'   (HEAR YOUR MASTER'S VOICE ...):  |
|                                                                             |
|      You have a (more or less) 'large supercell' and for larger cells       |
|      it might be more efficient to use real space projection operators      |
|      So try LREAL= Auto  in the INCAR   file.                               |
|      Mind: If you want to do a very accurate calculations keep the          |
|      reciprocal projection scheme          (i.e. LREAL=.FALSE.)             |
|                                                                             |
 ----------------------------------------------------------------------------- 

 PAW_PBE Al 04Jan2001                   :
 energy of atom  1       EATOM=  -53.5387
 kinetic energy error for atom=    0.0011 (will be added to EATOM!!)
 PAW_PBE Mg 05Jan2001                   :
 energy of atom  2       EATOM=  -23.0029
 kinetic energy error for atom=    0.0002 (will be added to EATOM!!)
 
 
 POSCAR: Mg1 Al30                                
  positions in direct lattice
  velocities in cartesian coordinates
 exchange correlation table for  LEXCH =        8
   RHO(1)=    0.500       N(1)  =     2000
   RHO(2)=  100.500       N(2)  =     4000

 VTST: version 2.03d, (02/18/09)

 CHAIN: initializing optimizer
 
 OPT: Using VASP Conjugate-Gradient optimizer
 CHAIN: Read ICHAIN            0
 


--------------------------------------------------------------------------------------------------------


 ion  position               nearest neighbor table
   1  0.994  0.000  0.994-  21 2.77  14 2.78  19 2.78   7 2.78  27 2.78  17 2.82   6 2.82   4 2.82
                            10 2.82  11 2.82   3 2.82   2 2.93
   2  0.250  0.000  0.250-   8 2.81  15 2.81  18 2.81  26 2.81  11 2.86   4 2.86   3 2.86  10 2.86
                            20 2.88  16 2.91   5 2.91   1 2.93
   3  0.248  0.240  0.991-  17 2.72  19 2.81  23 2.82   1 2.82  25 2.83   5 2.83   2 2.86   8 2.94
                             4 2.94   9 2.96  31 3.00  12 3.01
   4  0.991  0.240  0.248-   6 2.72   7 2.81  22 2.82   1 2.82  13 2.83  16 2.83   2 2.86  18 2.94
                             3 2.94   9 2.96  31 3.00  24 3.01
   5  0.504  0.000  0.995-   8 2.72  15 2.72  23 2.76  30 2.76  21 2.81   7 2.82  14 2.82  10 2.83
                             3 2.83  17 2.85   6 2.87   2 2.91
   6  0.754  0.000  0.247-   8 2.70  15 2.70  11 2.72   4 2.72   1 2.82  14 2.83   7 2.83  16 2.85
                            22 2.87  29 2.87   5 2.87  20 2.90
   7  0.753  0.244  0.995-  19 2.77   1 2.78  21 2.78  23 2.79   8 2.79   4 2.81   5 2.82   9 2.83
                             6 2.83  12 2.83  28 2.84  13 2.86
   8  0.511  0.229  0.242-   6 2.70   5 2.72   7 2.79  20 2.80   2 2.81  22 2.91   3 2.94  13 2.96
                            12 3.00  31 3.02  18 3.08
   9  0.990  0.500  0.990-  28 2.67  25 2.76  13 2.76  19 2.83   7 2.83  27 2.83  14 2.83   3 2.96
                            10 2.96   4 2.96  11 2.96  31 3.04
  10  0.248  0.760  0.991-  17 2.72  27 2.81  30 2.82   1 2.82  25 2.83   5 2.83   2 2.86  15 2.94
                            11 2.94   9 2.96  31 3.00  12 3.01
  11  0.991  0.760  0.248-   6 2.72  14 2.81  29 2.82   1 2.82  13 2.83  16 2.83   2 2.86  26 2.94
                            10 2.94   9 2.96  31 3.00  24 3.01
  12  0.514  0.500  0.989-  28 2.71  23 2.81  30 2.81  13 2.82  14 2.83   7 2.83  25 2.91   8 3.00
                            15 3.00  31 3.00   3 3.01  10 3.01
  13  0.756  0.500  0.239-   9 2.76  12 2.82  11 2.83   4 2.83   7 2.86  14 2.86  24 2.91  15 2.96
                             8 2.96  22 2.99  29 2.99
  14  0.753  0.756  0.995-  27 2.77   1 2.78  21 2.78  30 2.79  15 2.79  11 2.81   5 2.82   9 2.83
                             6 2.83  12 2.83  28 2.84  13 2.86
  15  0.511  0.771  0.242-   6 2.70   5 2.72  14 2.79  20 2.80   2 2.81  29 2.91  10 2.94  13 2.96
                            12 3.00  31 3.02  26 3.08
  16  0.995  0.000  0.504-  18 2.72  26 2.72  22 2.76  29 2.76  21 2.81  27 2.82  19 2.82  11 2.83
                             4 2.83   6 2.85  17 2.87   2 2.91
  17  0.247  0.000  0.754-  18 2.70  26 2.70   3 2.72  10 2.72   1 2.82  19 2.83  27 2.83   5 2.85
                            23 2.87  30 2.87  16 2.87  20 2.90
  18  0.242  0.229  0.511-  17 2.70  16 2.72  19 2.79  20 2.80   2 2.81  23 2.91   4 2.94  25 2.96
                            24 3.00  31 3.02   8 3.08
  19  0.995  0.244  0.753-   7 2.77   1 2.78  21 2.78  22 2.79  18 2.79   3 2.81  16 2.82   9 2.83
                            17 2.83  24 2.83  28 2.84  25 2.86
  20  0.502  0.000  0.502-   8 2.80  15 2.80  18 2.80  26 2.80  23 2.84  22 2.84  29 2.84  30 2.84
                            21 2.86   2 2.88  17 2.90   6 2.90
  21  0.752  0.000  0.752-   1 2.77   7 2.78  14 2.78  19 2.78  27 2.78  23 2.80  30 2.80  29 2.80
                            22 2.80   5 2.81  16 2.81  20 2.86
  22  0.755  0.242  0.505-  16 2.76  19 2.79  21 2.80  24 2.81   4 2.82  20 2.84  23 2.86   6 2.87
                             8 2.91  28 2.91  13 2.99
  23  0.505  0.242  0.755-   5 2.76   7 2.79  21 2.80  12 2.81   3 2.82  20 2.84  22 2.86  17 2.87
                            18 2.91  28 2.91  25 2.99
  24  0.989  0.500  0.514-  28 2.71  22 2.81  29 2.81  25 2.82  19 2.83  27 2.83  13 2.91  26 3.00
                            18 3.00  31 3.00   4 3.01  11 3.01
  25  0.239  0.500  0.756-   9 2.76  24 2.82  10 2.83   3 2.83  19 2.86  27 2.86  12 2.91  26 2.96
                            18 2.96  23 2.99  30 2.99
  26  0.242  0.771  0.511-  17 2.70  16 2.72  27 2.79  20 2.80   2 2.81  30 2.91  11 2.94  25 2.96
                            24 3.00  31 3.02  15 3.08
  27  0.995  0.756  0.753-  14 2.77   1 2.78  21 2.78  29 2.79  26 2.79  10 2.81  16 2.82   9 2.83
                            17 2.83  24 2.83  28 2.84  25 2.86
  28  0.756  0.500  0.756-   9 2.67  12 2.71  24 2.71  14 2.84  19 2.84   7 2.84  27 2.84  22 2.91
                            23 2.91  29 2.91  30 2.91
  29  0.755  0.758  0.505-  16 2.76  27 2.79  21 2.80  24 2.81  11 2.82  20 2.84  30 2.86   6 2.87
                            15 2.91  28 2.91  13 2.99
  30  0.505  0.758  0.755-   5 2.76  14 2.79  21 2.80  12 2.81  10 2.82  20 2.84  29 2.86  17 2.87
                            26 2.91  28 2.91  25 2.99
  31  0.256  0.500  0.256-   3 3.00   4 3.00  10 3.00  11 3.00  12 3.00  24 3.00  15 3.02  18 3.02
                             8 3.02  26 3.02   9 3.04
 
  LATTYP: Found a simple cubic cell.
 ALAT       =     8.0870520000
  
  Lattice vectors:
  
 A1 = (   8.0870520000,   0.0000000000,   0.0000000000)
 A2 = (   0.0000000000,   8.0870520000,   0.0000000000)
 A3 = (   0.0000000000,   0.0000000000,   8.0870520000)
 Subroutine PRICEL returns:
 Original cell was already a primitive cell.
 

Analysis of symmetry for initial positions (statically):

 Routine SETGRP: Setting up the symmetry group for a 
 simple cubic supercell.


 Subroutine GETGRP returns: Found  4 space group operations
 (whereof  4 operations were pure point group operations)
 out of a pool of 48 trial point group operations.


The static configuration has the point symmetry C_2v.

Analysis of symmetry for dynamics (positions and initial velocities):

 Subroutine DYNSYM returns: Found  4 space group operations
 (whereof  4 operations were pure point group operations)
 out of a pool of  4 trial space group operations
 (whereof  4 operations were pure point group operations)
 and found also     1 'primitive' translations


The dynamic configuration has the point symmetry C_2v.
 
 
 KPOINTS: Automatic kpoint scheme                 

Automatic generation of k-mesh.
 
 Subroutine IBZKPT returns following result:
 ===========================================
 
 Found      2 irreducible k-points:
 
 Following reciprocal coordinates:
            Coordinates               Weight
  0.250000  0.250000  0.250000      4.000000
 -0.250000  0.250000  0.250000      4.000000
 
 Following cartesian coordinates:
            Coordinates               Weight
  0.030914  0.030914  0.030914      4.000000
 -0.030914  0.030914  0.030914      4.000000
 


--------------------------------------------------------------------------------------------------------




 Dimension of arrays:
   k-points           NKPTS =      2   k-points in BZ     NKDIM =      2   number of bands    NBANDS=     72
   number of dos      NEDOS =    301   number of ions     NIONS =     31
   non local maximal  LDIM  =      4   non local SUM 2l+1 LMDIM =      8
   total plane-waves  NPLWV = 110592
   max r-space proj   IRMAX =      1   max aug-charges    IRDMAX=   9081
   dimension x,y,z NGX =    48 NGY =   48 NGZ =   48
   dimension x,y,z NGXF=    96 NGYF=   96 NGZF=   96
   support grid    NGXF=    96 NGYF=   96 NGZF=   96
   ions per type =              30   1
 NGX,Y,Z   is equivalent  to a cutoff of   9.87,  9.87,  9.87 a.u.
 NGXF,Y,Z  is equivalent  to a cutoff of  19.73, 19.73, 19.73 a.u.


 I would recommend the setting:
   dimension x,y,z NGX =    46 NGY =   46 NGZ =   46
 SYSTEM =  unknown system                          
 POSCAR =  Mg1 Al30                                

 Startparameter for this run:
   NWRITE =      2    write-flag & timer
   PREC   = accura    medium, high low
   ISTART =      0    job   : 0-new  1-cont  2-samecut
   ICHARG =      2    charge: 1-file 2-atom 10-const
   ISPIN  =      1    spin polarized calculation?
   LNONCOLLINEAR =      F non collinear calculations
   LSORBIT =      F    spin-orbit coupling
   INIWAV =      1    electr: 0-lowe 1-rand  2-diag
   LASPH  =      F    aspherical Exc in radial PAW
   METAGGA=      F    non-selfconsistent MetaGGA calc.

 Electronic Relaxation 1
   ENCUT  =  300.0 eV  22.05 Ry    4.70 a.u.  11.42 11.42 11.42*2*pi/ulx,y,z
   ENINI  =  300.0     initial cutoff
   ENAUG  =  291.1 eV  augmentation charge cutoff
   NELM   =     60;   NELMIN=  2; NELMDL=-12     # of ELM steps 
   EDIFF  = 0.1E-03   stopping-criterion for ELM
   LREAL  =      F    real-space projection
   LCOMPAT=      F    compatible to vasp.4.4
   LREAL_COMPAT= F    compatible to vasp.4.5.1-3
   GGA_COMPAT  = T    GGA compatible to vasp.4.4-vasp.4.6
   LMAXPAW     = -100 max onsite density
   LMAXMIX     =    2 max onsite mixed and CHGCAR
   VOSKOWN=      0    Vosko Wilk Nusair interpolation
   ROPT   =    0.00000   0.00000
 Ionic relaxation
   EDIFFG = 0.5E-01   stopping-criterion for IOM
   NSW    =    191    number of steps for IOM
   NBLOCK =      1;   KBLOCK =    191    inner block; outer block 
   IBRION =      2    ionic relax: 0-MD 1-quasi-New 2-CG
   NFREE  =      1    steps in history (QN), initial steepest desc. (CG)
   ISIF   =      2    stress and relaxation
   IWAVPR =     11    prediction:  0-non 1-charg 2-wave 3-comb
   ISYM   =      2    0-nonsym 1-usesym 2-fastsym
   LCORR  =      T    Harris-Foulkes like correction to forces

   POTIM  = 0.5000    time-step for ionic-motion
   TEIN   =    0.0    initial temperature
   TEBEG  =    0.0;   TEEND  =   0.0 temperature during run
   SMASS  =  -3.00    Nose mass-parameter (am)
   estimated Nose-frequenzy (Omega)   =  0.10E-29 period in steps =****** mass=  -0.149E-26a.u.
   NPACO  =    256;   APACO  = 16.0  distance and # of slots for P.C.
   PSTRESS=    0.0 pullay stress

  Mass of Ions in am
   POMASS =  26.98 24.30
  Ionic Valenz
   ZVAL   =   3.00  2.00
  Atomic Wigner-Seitz radii
   RWIGS  =  -1.00 -1.00
   NELECT =      92.0000    total number of electrons
   NUPDOWN=      -1.0000    fix difference up-down

 DOS related values:
   EMIN   =  10.00;   EMAX   =-10.00  energy-range for DOS
   EFERMI =   0.00
   ISMEAR =     1;   SIGMA  =   0.20  broadening in eV -4-tet -1-fermi 0-gaus

 Electronic relaxation 2 (details)
   IALGO  =     48    algorithm
   LDIAG  =      T    sub-space diagonalisation
   IMIX   =      4    mixing-type and parameters
     AMIX     =   0.40;   BMIX     =  1.00
     AMIX_MAG =   1.60;   BMIX_MAG =  1.00
     AMIN     =   0.10
     WC   =   100.;   INIMIX=   1;  MIXPRE=   1

 Intra band minimization:
   WEIMIN = 0.0010     energy-eigenvalue tresh-hold
   EBREAK =  0.40E-06  absolut break condition
   DEPER  =   0.30     relativ break condition  

   TIME   =   0.40     timestep for ELM

  volume/ion in A,a.u.               =      17.06       115.13
  Fermi-wavevector in a.u.,A,eV,Ry     =   0.913862  1.726948 11.362816  0.835143
  Thomas-Fermi vector in A             =   2.038422
 
 Write flags
   LWAVE  =      F    write WAVECAR
   LCHARG =      F    write CHGCAR
   LVTOT  =      F    write LOCPOT, local potential
   LELF   =      F    write electronic localiz. function (ELF)
   LORBIT =      0    0 simple, 1 ext, 2 COOP (PROOUT)


 Dipole corrections
   LMONO  =      F    monopole corrections only (constant potential shift)
   LDIPOL =      F    correct potential (dipole corrections)
   IDIPOL =      0    1-x, 2-y, 3-z, 4-all directions 
   EPSILON=  1.0000000 bulk dielectric constant

 Exchange correlation treatment:
   GGA     =    --    GGA type
   LEXCH   =     8    internal setting for exchange type
   VOSKOWN=      0    Vosko Wilk Nusair interpolation
   LHFCALC =     F    Hartree Fock is set to
   LHFONE  =     F    Hartree Fock one center treatment
   AEXX    =    0.0000 exact exchange contribution

 Linear response parameters
   LEPSILON=     F    determine dielectric tensor
   LRPA    =     F    only Hartree local field effects (RPA)
   LNABLA  =     F    use nabla operator in PAW spheres
   LVEL    =     F    velocity operator in full k-point grid
   LINTERFAST=   F  fast interpolation
   KINTER  =     0    interpolate to denser k-point grid
   CSHIFT  =0.1000    complex shift for real part using Kramers Kronig
   OMEGAMAX=  -1.0    maximum frequency

 Orbital magnetization related:
   ORBITALMAG=     F  switch on orbital magnetization
   LCHIMAG   =     F  perturbation theory with respect to B field



--------------------------------------------------------------------------------------------------------


 conjugate gradient relaxation of ions
 charge density and potential will be updated during run
 non-spin polarized calculation
 RMM-DIIS sequential band-by-band
 perform sub-space diagonalisation
    before iterative eigenvector-optimisation
 modified Broyden-mixing scheme, WC =      100.0
 initial mixing is a Kerker type mixing with AMIX =  0.4000 and BMIX =      1.0000
 Hartree-type preconditioning will be used
 using additional bands           26
 reciprocal scheme for non local part
 use partial core corrections
 calculate Harris-corrections to forces 
   (improved forces if not selfconsistent)
 use gradient corrections 
 use of overlap-Matrix (Vanderbilt PP)
 Methfessel and Paxton  Order N= 1 SIGMA  =   0.20


--------------------------------------------------------------------------------------------------------


  energy-cutoff  :      300.00
  volume of cell :      528.90
      direct lattice vectors                 reciprocal lattice vectors
     8.087052000  0.000000000  0.000000000     0.123654454  0.000000000  0.000000000
     0.000000000  8.087052000  0.000000000     0.000000000  0.123654454  0.000000000
     0.000000000  0.000000000  8.087052000     0.000000000  0.000000000  0.123654454

  length of vectors
     8.087052000  8.087052000  8.087052000     0.123654454  0.123654454  0.123654454


 
 k-points in units of 2pi/SCALE and weight: Automatic kpoint scheme                 
   0.03091361  0.03091361  0.03091361       0.500
  -0.03091361  0.03091361  0.03091361       0.500
 
 k-points in reciprocal lattice and weights: Automatic kpoint scheme                 
   0.25000000  0.25000000  0.25000000       0.500
  -0.25000000  0.25000000  0.25000000       0.500
 
 position of ions in fractional coordinates (direct lattice) 
   0.99449500  0.00000000  0.99449500
   0.25036700  0.00000000  0.25036700
   0.24822600  0.23980900  0.99093300
   0.99093300  0.23980900  0.24822600
   0.50384600  0.00000000  0.99480200
   0.75436500  0.00000000  0.24670200
   0.75272200  0.24350700  0.99533500
   0.51116600  0.22867500  0.24182100
   0.98999700  0.50000000  0.98999700
   0.24822600  0.76019100  0.99093300
   0.99093300  0.76019100  0.24822600
   0.51394300  0.50000000  0.98859500
   0.75624700  0.50000000  0.23921100
   0.75272200  0.75649300  0.99533500
   0.51116600  0.77132500  0.24182100
   0.99480200  0.00000000  0.50384600
   0.24670200  0.00000000  0.75436500
   0.24182100  0.22867500  0.51116600
   0.99533500  0.24350700  0.75272200
   0.50183400  0.00000000  0.50183400
   0.75216400  0.00000000  0.75216400
   0.75525000  0.24246300  0.50524500
   0.50524500  0.24246300  0.75525000
   0.98859500  0.50000000  0.51394300
   0.23921100  0.50000000  0.75624700
   0.24182100  0.77132500  0.51116600
   0.99533500  0.75649300  0.75272200
   0.75618600  0.50000000  0.75618600
   0.75525000  0.75753700  0.50524500
   0.50524500  0.75753700  0.75525000
   0.25585100  0.50000000  0.25585100
 
 position of ions in cartesian coordinates  (Angst):
   8.04253278  0.00000000  8.04253278
   2.02473095  0.00000000  2.02473095
   2.00741657  1.93934785  8.01372670
   8.01372670  1.93934785  2.00741657
   4.07462880  0.00000000  8.04501550
   6.10058898  0.00000000  1.99509190
   6.08730196  1.96925377  8.04932590
   4.13382602  1.84930662  1.95561900
   8.00615722  4.04352600  8.00615722
   2.00741657  6.14770415  8.01372670
   8.01372670  6.14770415  2.00741657
   4.15628377  4.04352600  7.99481917
   6.11580881  4.04352600  1.93451180
   6.08730196  6.11779823  8.04932590
   4.13382602  6.23774538  1.95561900
   8.04501550  0.00000000  4.07462880
   1.99509190  0.00000000  6.10058898
   1.95561900  1.84930662  4.13382602
   8.04932590  1.96925377  6.08730196
   4.05835765  0.00000000  4.05835765
   6.08278938  0.00000000  6.08278938
   6.10774602  1.96081089  4.08594259
   4.08594259  1.96081089  6.10774602
   7.99481917  4.04352600  4.15628377
   1.93451180  4.04352600  6.11580881
   1.95561900  6.23774538  4.13382602
   8.04932590  6.11779823  6.08730196
   6.11531550  4.04352600  6.11531550
   6.10774602  6.12624111  4.08594259
   4.08594259  6.12624111  6.10774602
   2.06908034  4.04352600  2.06908034
 


--------------------------------------------------------------------------------------------------------


 k-point  1 :  0.25000.25000.2500  plane waves:    6238
 k-point  2 :  -.25000.25000.2500  plane waves:    6238

 maximum and minimum number of plane-waves per node :    6238   6238

 maximum number of plane-waves:    6238
 maximal index in each direction: 
   IXMAX= 11   IYMAX= 11   IZMAX= 11
   IXMIN=-11   IYMIN=-11   IZMIN=-11

 NGX is ok and might be reduce to  46
 NGY is ok and might be reduce to  46
 NGZ is ok and might be reduce to  46

 serial   3D FFT for wavefunctions
 parallel 3D FFT for charge:
    minimum data exchange during FFTs selected (reduces bandwidth)


 total amount of memory used by VASP on root node  60642. kBytes
========================================================================

   base      :    30000. kBytes
   nonl-proj :     4692. kBytes
   fftplans  :     2983. kBytes
   grid      :    21626. kBytes
   one-center:       95. kBytes
   wavefun   :     1246. kBytes
 
 Broyden mixing: mesh for mixing (old mesh)
   NGX = 23   NGY = 23   NGZ = 23
  (NGX  = 96   NGY  = 96   NGZ  = 96)
  gives a total of  12167 points

 initial charge density was supplied:
 charge density of overlapping atoms calculated
 number of electron   92.0000000 magnetization 
 keeping initial charge density in first step


--------------------------------------------------------------------------------------------------------


 Maximum index for augmentation-charges          617 (set IRDMAX)


--------------------------------------------------------------------------------------------------------


 First call to EWALD:  gamma=   0.219
 Maximum number of real-space cells 3x 3x 3
 Maximum number of reciprocal cells 3x 3x 3

    FEWALD:  cpu time    0.01: real time    0.01
   RESPFUN:  cpu time    0.00: real time    0.00


----------------------------------------- Iteration    1(   1)  ---------------------------------------


    POTLOK:  cpu time    0.15: real time    0.15
    SETDIJ:  cpu time    0.01: real time    0.01
    EDDIAG:  cpu time    0.30: real time    0.30
  RMM-DIIS:  cpu time    0.68: real time    0.69
    ORTHCH:  cpu time    0.02: real time    0.02
       DOS:  cpu time    0.00: real time    0.00
    --------------------------------------------
      LOOP:  cpu time    1.17: real time    1.17

 eigenvalue-minimisations  :   144
 total energy-change (2. order) : 0.2286326E+03  (-0.1551861E+04)
 number of electron   92.0000000 magnetization 
 augmentation part    92.0000000 magnetization 

 Free energy of the ion-electron system (eV)
  ---------------------------------------------------
  alpha Z        PSCENC =        -7.38313139
  Ewald energy   TEWEN  =     -2142.03777123
  -1/2 Hartree   DENC   =       -54.22048387
  -exchange  EXHF       =         0.00000000
  -V(xc)+E(xc)   XCENC  =      -795.81486689
  PAW double counting   =      1078.21717227     -108.50372521
  entropy T*S    EENTRO =         0.03992452
  eigenvalues    EBANDS =       629.20402912
  atomic energy  EATOM  =      1629.13144109
  ---------------------------------------------------
  free energy    TOTEN  =       228.63258840 eV

  energy without entropy =      228.59266388  energy(sigma->0) =      228.61928023


--------------------------------------------------------------------------------------------------------




----------------------------------------- Iteration    1(   2)  ---------------------------------------


    EDDIAG:  cpu time    0.30: real time    0.30
  RMM-DIIS:  cpu time    0.68: real time    0.68
    ORTHCH:  cpu time    0.02: real time    0.02
       DOS:  cpu time    0.00: real time    0.00
    --------------------------------------------
      LOOP:  cpu time    1.00: real time    1.00

 eigenvalue-minimisations  :   144
 total energy-change (2. order) :-0.2666646E+03  (-0.2579312E+03)
 number of electron   92.0000000 magnetization 
 augmentation part    92.0000000 magnetization 

 Free energy of the ion-electron system (eV)
  ---------------------------------------------------
  alpha Z        PSCENC =        -7.38313139
  Ewald energy   TEWEN  =     -2142.03777123
  -1/2 Hartree   DENC   =       -54.22048387
  -exchange  EXHF       =         0.00000000
  -V(xc)+E(xc)   XCENC  =      -795.81486689
  PAW double counting   =      1078.21717227     -108.50372521
  entropy T*S    EENTRO =         0.00929798
  eigenvalues    EBANDS =       362.57002322
  atomic energy  EATOM  =      1629.13144109
  ---------------------------------------------------
  free energy    TOTEN  =       -38.03204404 eV

  energy without entropy =      -38.04134201  energy(sigma->0) =      -38.03514336


--------------------------------------------------------------------------------------------------------




----------------------------------------- Iteration    1(   3)  ---------------------------------------


    EDDIAG:  cpu time    0.30: real time    0.30
  RMM-DIIS:  cpu time    0.68: real time    0.68
    ORTHCH:  cpu time    0.02: real time    0.02
       DOS:  cpu time    0.00: real time    0.00
    --------------------------------------------
      LOOP:  cpu time    1.00: real time    1.00

 eigenvalue-minimisations  :   144
 total energy-change (2. order) :-0.5526046E+02  (-0.5399326E+02)
 number of electron   92.0000000 magnetization 
 augmentation part    92.0000000 magnetization 

 Free energy of the ion-electron system (eV)
  ---------------------------------------------------
  alpha Z        PSCENC =        -7.38313139
  Ewald energy   TEWEN  =     -2142.03777123
  -1/2 Hartree   DENC   =       -54.22048387
  -exchange  EXHF       =         0.00000000
  -V(xc)+E(xc)   XCENC  =      -795.81486689
  PAW double counting   =      1078.21717227     -108.50372521
  entropy T*S    EENTRO =        -0.07103608
  eigenvalues    EBANDS =       307.38990059
  atomic energy  EATOM  =      1629.13144109
  ---------------------------------------------------
  free energy    TOTEN  =       -93.29250072 eV

  energy without entropy =      -93.22146464  energy(sigma->0) =      -93.26882203


--------------------------------------------------------------------------------------------------------




----------------------------------------- Iteration    1(   4)  ---------------------------------------


    EDDIAG:  cpu time    0.30: real time    0.30
  RMM-DIIS:  cpu time    0.68: real time    0.68
    ORTHCH:  cpu time    0.02: real time    0.02
       DOS:  cpu time    0.00: real time    0.00
    --------------------------------------------
      LOOP:  cpu time    1.00: real time    1.00

 eigenvalue-minimisations  :   144
 total energy-change (2. order) :-0.1319353E+02  (-0.1132566E+02)
 number of electron   92.0000000 magnetization 
 augmentation part    92.0000000 magnetization 

 Free energy of the ion-electron system (eV)
  ---------------------------------------------------
  alpha Z        PSCENC =        -7.38313139
  Ewald energy   TEWEN  =     -2142.03777123
  -1/2 Hartree   DENC   =       -54.22048387
  -exchange  EXHF       =         0.00000000
  -V(xc)+E(xc)   XCENC  =      -795.81486689
  PAW double counting   =      1078.21717227     -108.50372521
  entropy T*S    EENTRO =        -0.01255128
  eigenvalues    EBANDS =       294.13788113
  atomic energy  EATOM  =      1629.13144109
  ---------------------------------------------------
  free energy    TOTEN  =      -106.48603538 eV

  energy without entropy =     -106.47348411  energy(sigma->0) =     -106.48185162


--------------------------------------------------------------------------------------------------------




----------------------------------------- Iteration    1(   5)  ---------------------------------------


    EDDIAG:  cpu time    0.30: real time    0.30
  RMM-DIIS:  cpu time    0.68: real time    0.68
    ORTHCH:  cpu time    0.02: real time    0.02
       DOS:  cpu time    0.00: real time    0.00
    --------------------------------------------
      LOOP:  cpu time    1.00: real time    1.00

 eigenvalue-minimisations  :   144
 total energy-change (2. order) :-0.4532769E+01  (-0.3438303E+01)
 number of electron   92.0000000 magnetization 
 augmentation part    92.0000000 magnetization 

 Free energy of the ion-electron system (eV)
  ---------------------------------------------------
  alpha Z        PSCENC =        -7.38313139
  Ewald energy   TEWEN  =     -2142.03777123
  -1/2 Hartree   DENC   =       -54.22048387
  -exchange  EXHF       =         0.00000000
  -V(xc)+E(xc)   XCENC  =      -795.81486689
  PAW double counting   =      1078.21717227     -108.50372521
  entropy T*S    EENTRO =        -0.03866457
  eigenvalues    EBANDS =       289.63122564
  atomic energy  EATOM  =      1629.13144109
  ---------------------------------------------------
  free energy    TOTEN  =      -111.01880415 eV

  energy without entropy =     -110.98013959  energy(sigma->0) =     -111.00591597


--------------------------------------------------------------------------------------------------------




----------------------------------------- Iteration    1(   6)  ---------------------------------------


    EDDIAG:  cpu time    0.30: real time    0.30
  RMM-DIIS:  cpu time    0.68: real time    0.68
    ORTHCH:  cpu time    0.02: real time    0.02
       DOS:  cpu time    0.00: real time    0.00
    --------------------------------------------
      LOOP:  cpu time    1.00: real time    1.00

 eigenvalue-minimisations  :   144
 total energy-change (2. order) :-0.1607952E+01  (-0.1189037E+01)
 number of electron   92.0000000 magnetization 
 augmentation part    92.0000000 magnetization 

 Free energy of the ion-electron system (eV)
  ---------------------------------------------------
  alpha Z        PSCENC =        -7.38313139
  Ewald energy   TEWEN  =     -2142.03777123
  -1/2 Hartree   DENC   =       -54.22048387
  -exchange  EXHF       =         0.00000000
  -V(xc)+E(xc)   XCENC  =      -795.81486689
  PAW double counting   =      1078.21717227     -108.50372521
  entropy T*S    EENTRO =        -0.06131929
  eigenvalues    EBANDS =       288.04592808
  atomic energy  EATOM  =      1629.13144109
  ---------------------------------------------------
  free energy    TOTEN  =      -112.62675644 eV

  energy without entropy =     -112.56543715  energy(sigma->0) =     -112.60631668


--------------------------------------------------------------------------------------------------------




----------------------------------------- Iteration    1(   7)  ---------------------------------------


    EDDIAG:  cpu time    0.30: real time    0.30
  RMM-DIIS:  cpu time    0.68: real time    0.68
    ORTHCH:  cpu time    0.02: real time    0.02
       DOS:  cpu time    0.00: real time    0.00
    --------------------------------------------
      LOOP:  cpu time    0.99: real time    0.99

 eigenvalue-minimisations  :   144
 total energy-change (2. order) :-0.5520482E+00  (-0.4438274E+00)
 number of electron   92.0000000 magnetization 
 augmentation part    92.0000000 magnetization 

 Free energy of the ion-electron system (eV)
  ---------------------------------------------------
  alpha Z        PSCENC =        -7.38313139
  Ewald energy   TEWEN  =     -2142.03777123
  -1/2 Hartree   DENC   =       -54.22048387
  -exchange  EXHF       =         0.00000000
  -V(xc)+E(xc)   XCENC  =      -795.81486689
  PAW double counting   =      1078.21717227     -108.50372521
  entropy T*S    EENTRO =        -0.04765811
  eigenvalues    EBANDS =       287.48021873
  atomic energy  EATOM  =      1629.13144109
  ---------------------------------------------------
  free energy    TOTEN  =      -113.17880461 eV

  energy without entropy =     -113.13114650  energy(sigma->0) =     -113.16291858


--------------------------------------------------------------------------------------------------------




----------------------------------------- Iteration    1(   8)  ---------------------------------------


    EDDIAG:  cpu time    0.30: real time    0.30
  RMM-DIIS:  cpu time    0.68: real time    0.68
    ORTHCH:  cpu time    0.02: real time    0.02
       DOS:  cpu time    0.00: real time    0.00
    --------------------------------------------
      LOOP:  cpu time    1.00: real time    1.00

 eigenvalue-minimisations  :   144
 total energy-change (2. order) :-0.2120321E+00  (-0.1757194E+00)
 number of electron   92.0000000 magnetization 
 augmentation part    92.0000000 magnetization 

 Free energy of the ion-electron system (eV)
  ---------------------------------------------------
  alpha Z        PSCENC =        -7.38313139
  Ewald energy   TEWEN  =     -2142.03777123
  -1/2 Hartree   DENC   =       -54.22048387
  -exchange  EXHF       =         0.00000000
  -V(xc)+E(xc)   XCENC  =      -795.81486689
  PAW double counting   =      1078.21717227     -108.50372521
  entropy T*S    EENTRO =        -0.04004683
  eigenvalues    EBANDS =       287.26057535
  atomic energy  EATOM  =      1629.13144109
  ---------------------------------------------------
  free energy    TOTEN  =      -113.39083671 eV

  energy without entropy =     -113.35078988  energy(sigma->0) =     -113.37748776


--------------------------------------------------------------------------------------------------------




----------------------------------------- Iteration    1(   9)  ---------------------------------------


    EDDIAG:  cpu time    0.30: real time    0.30
  RMM-DIIS:  cpu time    1.35: real time    1.35
    ORTHCH:  cpu time    0.02: real time    0.02
       DOS:  cpu time    0.00: real time    0.00
    --------------------------------------------
      LOOP:  cpu time    1.67: real time    1.67

 eigenvalue-minimisations  :   330
 total energy-change (2. order) :-0.1213470E+00  (-0.1098268E+00)
 number of electron   92.0000000 magnetization 
 augmentation part    92.0000000 magnetization 

 Free energy of the ion-electron system (eV)
  ---------------------------------------------------
  alpha Z        PSCENC =        -7.38313139
  Ewald energy   TEWEN  =     -2142.03777123
  -1/2 Hartree   DENC   =       -54.22048387
  -exchange  EXHF       =         0.00000000
  -V(xc)+E(xc)   XCENC  =      -795.81486689
  PAW double counting   =      1078.21717227     -108.50372521
  entropy T*S    EENTRO =        -0.03798503
  eigenvalues    EBANDS =       287.13716658
  atomic energy  EATOM  =      1629.13144109
  ---------------------------------------------------
  free energy    TOTEN  =      -113.51218368 eV

  energy without entropy =     -113.47419865  energy(sigma->0) =     -113.49952200


--------------------------------------------------------------------------------------------------------




----------------------------------------- Iteration    1(  10)  ---------------------------------------


    EDDIAG:  cpu time    0.30: real time    0.30
  RMM-DIIS:  cpu time    1.26: real time    1.26
    ORTHCH:  cpu time    0.02: real time    0.02
       DOS:  cpu time    0.00: real time    0.00
    --------------------------------------------
      LOOP:  cpu time    1.57: real time    1.58

 eigenvalue-minimisations  :   305
 total energy-change (2. order) :-0.1668623E-01  (-0.1105512E-01)
 number of electron   92.0000000 magnetization 
 augmentation part    92.0000000 magnetization 

 Free energy of the ion-electron system (eV)
  ---------------------------------------------------
  alpha Z        PSCENC =        -7.38313139
  Ewald energy   TEWEN  =     -2142.03777123
  -1/2 Hartree   DENC   =       -54.22048387
  -exchange  EXHF       =         0.00000000
  -V(xc)+E(xc)   XCENC  =      -795.81486689
  PAW double counting   =      1078.21717227     -108.50372521
  entropy T*S    EENTRO =        -0.03786213
  eigenvalues    EBANDS =       287.12035745
  atomic energy  EATOM  =      1629.13144109
  ---------------------------------------------------
  free energy    TOTEN  =      -113.52886991 eV

  energy without entropy =     -113.49100778  energy(sigma->0) =     -113.51624920


--------------------------------------------------------------------------------------------------------




----------------------------------------- Iteration    1(  11)  ---------------------------------------


    EDDIAG:  cpu time    0.30: real time    0.30
  RMM-DIIS:  cpu time    1.06: real time    1.06
    ORTHCH:  cpu time    0.02: real time    0.02
       DOS:  cpu time    0.00: real time    0.00
    --------------------------------------------
      LOOP:  cpu time    1.38: real time    1.38

 eigenvalue-minimisations  :   252
 total energy-change (2. order) :-0.9490347E-03  (-0.6382827E-03)
 number of electron   92.0000000 magnetization 
 augmentation part    92.0000000 magnetization 

 Free energy of the ion-electron system (eV)
  ---------------------------------------------------
  alpha Z        PSCENC =        -7.38313139
  Ewald energy   TEWEN  =     -2142.03777123
  -1/2 Hartree   DENC   =       -54.22048387
  -exchange  EXHF       =         0.00000000
  -V(xc)+E(xc)   XCENC  =      -795.81486689
  PAW double counting   =      1078.21717227     -108.50372521
  entropy T*S    EENTRO =        -0.03785443
  eigenvalues    EBANDS =       287.11940072
  atomic energy  EATOM  =      1629.13144109
  ---------------------------------------------------
  free energy    TOTEN  =      -113.52981894 eV

  energy without entropy =     -113.49196451  energy(sigma->0) =     -113.51720080


--------------------------------------------------------------------------------------------------------




----------------------------------------- Iteration    1(  12)  ---------------------------------------


    EDDIAG:  cpu time    0.30: real time    0.30
  RMM-DIIS:  cpu time    0.91: real time    0.91
    ORTHCH:  cpu time    0.02: real time    0.02
       DOS:  cpu time    0.00: real time    0.00
    CHARGE:  cpu time    0.19: real time    0.19
    MIXING:  cpu time    0.00: real time    0.00
    --------------------------------------------
      LOOP:  cpu time    1.42: real time    1.42

 eigenvalue-minimisations  :   202
 total energy-change (2. order) :-0.5193593E-04  (-0.4805226E-04)
 number of electron   91.9999999 magnetization 
 augmentation part    -1.1009019 magnetization 

 Broyden mixing:
  rms(total) = 0.58757E+00    rms(broyden)= 0.58755E+00
  rms(prec ) = 0.13087E+01
  weight for this iteration     100.00

 Free energy of the ion-electron system (eV)
  ---------------------------------------------------
  alpha Z        PSCENC =        -7.38313139
  Ewald energy   TEWEN  =     -2142.03777123
  -1/2 Hartree   DENC   =       -54.22048387
  -exchange  EXHF       =         0.00000000
  -V(xc)+E(xc)   XCENC  =      -795.81486689
  PAW double counting   =      1078.21717227     -108.50372521
  entropy T*S    EENTRO =        -0.03785873
  eigenvalues    EBANDS =       287.11935308
  atomic energy  EATOM  =      1629.13144109
  ---------------------------------------------------
  free energy    TOTEN  =      -113.52987088 eV

  energy without entropy =     -113.49201215  energy(sigma->0) =     -113.51725130


--------------------------------------------------------------------------------------------------------




----------------------------------------- Iteration    1(  13)  ---------------------------------------


    POTLOK:  cpu time    0.15: real time    0.15
    SETDIJ:  cpu time    0.01: real time    0.01
    EDDIAG:  cpu time    0.30: real time    0.30
  RMM-DIIS:  cpu time    1.19: real time    1.19
    ORTHCH:  cpu time    0.02: real time    0.02
       DOS:  cpu time    0.00: real time    0.00
    CHARGE:  cpu time    0.18: real time    0.19
    MIXING:  cpu time    0.00: real time    0.00
    --------------------------------------------
      LOOP:  cpu time    1.85: real time    1.86

 eigenvalue-minimisations  :   288
 total energy-change (2. order) : 0.1460024E+01  (-0.3359995E+00)
 number of electron   91.9999999 magnetization 
 augmentation part    -1.1030123 magnetization 

 Broyden mixing:
  rms(total) = 0.33871E+00    rms(broyden)= 0.33870E+00
  rms(prec ) = 0.54473E+00
  weight for this iteration     100.00

 eigenvalues of (default mixing * dielectric matrix)
  average eigenvalue GAMMA=   1.7340
  1.7340

 Free energy of the ion-electron system (eV)
  ---------------------------------------------------
  alpha Z        PSCENC =        -7.38313139
  Ewald energy   TEWEN  =     -2142.03777123
  -1/2 Hartree   DENC   =       -60.02549290
  -exchange  EXHF       =         0.00000000
  -V(xc)+E(xc)   XCENC  =      -794.60003659
  PAW double counting   =      1081.37289033     -111.82677319
  entropy T*S    EENTRO =        -0.03065781
  eigenvalues    EBANDS =       293.32968509
  atomic energy  EATOM  =      1629.13144109
  ---------------------------------------------------
  free energy    TOTEN  =      -112.06984659 eV

  energy without entropy =     -112.03918878  energy(sigma->0) =     -112.05962732


--------------------------------------------------------------------------------------------------------




----------------------------------------- Iteration    1(  14)  ---------------------------------------


    POTLOK:  cpu time    0.15: real time    0.15
    SETDIJ:  cpu time    0.01: real time    0.01
    EDDIAG:  cpu time    0.30: real time    0.30
  RMM-DIIS:  cpu time    1.19: real time    1.19
    ORTHCH:  cpu time    0.02: real time    0.02
       DOS:  cpu time    0.00: real time    0.00
    CHARGE:  cpu time    0.19: real time    0.20
    MIXING:  cpu time    0.00: real time    0.00
    --------------------------------------------
      LOOP:  cpu time    1.88: real time    1.89

 eigenvalue-minimisations  :   288
 total energy-change (2. order) : 0.2497334E+00  (-0.2356438E-01)
 number of electron   91.9999999 magnetization 
 augmentation part    -1.1133683 magnetization 

 Broyden mixing:
  rms(total) = 0.20871E+00    rms(broyden)= 0.20871E+00
  rms(prec ) = 0.30779E+00
  weight for this iteration     100.00

 eigenvalues of (default mixing * dielectric matrix)
  average eigenvalue GAMMA=   1.6872
  2.5128  0.8615

 Free energy of the ion-electron system (eV)
  ---------------------------------------------------
  alpha Z        PSCENC =        -7.38313139
  Ewald energy   TEWEN  =     -2142.03777123
  -1/2 Hartree   DENC   =       -60.30071004
  -exchange  EXHF       =         0.00000000
  -V(xc)+E(xc)   XCENC  =      -793.80470135
  PAW double counting   =      1082.80486286     -113.36943000
  entropy T*S    EENTRO =        -0.05142372
  eigenvalues    EBANDS =       293.19075062
  atomic energy  EATOM  =      1629.13144109
  ---------------------------------------------------
  free energy    TOTEN  =      -111.82011317 eV

  energy without entropy =     -111.76868945  energy(sigma->0) =     -111.80297193


--------------------------------------------------------------------------------------------------------




----------------------------------------- Iteration    1(  15)  ---------------------------------------


    POTLOK:  cpu time    0.15: real time    0.15
    SETDIJ:  cpu time    0.01: real time    0.01
    EDDIAG:  cpu time    0.29: real time    0.30
  RMM-DIIS:  cpu time    1.18: real time    1.18
    ORTHCH:  cpu time    0.02: real time    0.02
       DOS:  cpu time    0.00: real time    0.00
    CHARGE:  cpu time    0.18: real time    0.18
    MIXING:  cpu time    0.00: real time    0.00
    --------------------------------------------
      LOOP:  cpu time    1.83: real time    1.86

 eigenvalue-minimisations  :   288
 total energy-change (2. order) : 0.1147383E+00  (-0.1019227E-01)
 number of electron   91.9999999 magnetization 
 augmentation part    -1.1276294 magnetization 

 Broyden mixing:
  rms(total) = 0.44155E-01    rms(broyden)= 0.44155E-01
  rms(prec ) = 0.74764E-01
  weight for this iteration     100.00

 eigenvalues of (default mixing * dielectric matrix)
  average eigenvalue GAMMA=   1.5922
  2.6032  0.9051  1.2683

 Free energy of the ion-electron system (eV)
  ---------------------------------------------------
  alpha Z        PSCENC =        -7.38313139
  Ewald energy   TEWEN  =     -2142.03777123
  -1/2 Hartree   DENC   =       -61.54766998
  -exchange  EXHF       =         0.00000000
  -V(xc)+E(xc)   XCENC  =      -792.57887727
  PAW double counting   =      1084.64235209     -115.37744517
  entropy T*S    EENTRO =        -0.05667738
  eigenvalues    EBANDS =       293.50240435
  atomic energy  EATOM  =      1629.13144109
  ---------------------------------------------------
  free energy    TOTEN  =      -111.70537489 eV

  energy without entropy =     -111.64869750  energy(sigma->0) =     -111.68648242


--------------------------------------------------------------------------------------------------------




----------------------------------------- Iteration    1(  16)  ---------------------------------------


    POTLOK:  cpu time    0.15: real time    0.15
    SETDIJ:  cpu time    0.01: real time    0.01
    EDDIAG:  cpu time    0.30: real time    0.30
  RMM-DIIS:  cpu time    1.22: real time    1.22
    ORTHCH:  cpu time    0.02: real time    0.02
       DOS:  cpu time    0.00: real time    0.00
    CHARGE:  cpu time    0.18: real time    0.18
    MIXING:  cpu time    0.00: real time    0.00
    --------------------------------------------
      LOOP:  cpu time    1.89: real time    1.89

 eigenvalue-minimisations  :   291
 total energy-change (2. order) : 0.7410074E-02  (-0.1050445E-02)
 number of electron   91.9999999 magnetization 
 augmentation part    -1.1325599 magnetization 

 Broyden mixing:
  rms(total) = 0.89177E-02    rms(broyden)= 0.89177E-02
  rms(prec ) = 0.19968E-01
  weight for this iteration     100.00

 eigenvalues of (default mixing * dielectric matrix)
  average eigenvalue GAMMA=   1.6258
  2.6330  1.8944  0.9878  0.9878

 Free energy of the ion-electron system (eV)
  ---------------------------------------------------
  alpha Z        PSCENC =        -7.38313139
  Ewald energy   TEWEN  =     -2142.03777123
  -1/2 Hartree   DENC   =       -61.83802442
  -exchange  EXHF       =         0.00000000
  -V(xc)+E(xc)   XCENC  =      -792.25725207
  PAW double counting   =      1085.18135808     -115.97201579
  entropy T*S    EENTRO =        -0.05341521
  eigenvalues    EBANDS =       293.53084612
  atomic energy  EATOM  =      1629.13144109
  ---------------------------------------------------
  free energy    TOTEN  =      -111.69796481 eV

  energy without entropy =     -111.64454961  energy(sigma->0) =     -111.68015974


--------------------------------------------------------------------------------------------------------




----------------------------------------- Iteration    1(  17)  ---------------------------------------


    POTLOK:  cpu time    0.15: real time    0.15
    SETDIJ:  cpu time    0.01: real time    0.01
    EDDIAG:  cpu time    0.30: real time    0.30
  RMM-DIIS:  cpu time    1.22: real time    1.22
    ORTHCH:  cpu time    0.02: real time    0.02
       DOS:  cpu time    0.00: real time    0.00
    CHARGE:  cpu time    0.19: real time    0.19
    MIXING:  cpu time    0.00: real time    0.00
    --------------------------------------------
      LOOP:  cpu time    1.89: real time    1.89

 eigenvalue-minimisations  :   289
 total energy-change (2. order) : 0.3718252E-03  (-0.1276098E-03)
 number of electron   91.9999999 magnetization 
 augmentation part    -1.1343363 magnetization 

 Broyden mixing:
  rms(total) = 0.30288E-02    rms(broyden)= 0.30288E-02
  rms(prec ) = 0.48244E-02
  weight for this iteration     100.00

 eigenvalues of (default mixing * dielectric matrix)
  average eigenvalue GAMMA=   1.6211
  2.6331  2.0866  0.9416  0.9416  1.5023

 Free energy of the ion-electron system (eV)
  ---------------------------------------------------
  alpha Z        PSCENC =        -7.38313139
  Ewald energy   TEWEN  =     -2142.03777123
  -1/2 Hartree   DENC   =       -61.74862974
  -exchange  EXHF       =         0.00000000
  -V(xc)+E(xc)   XCENC  =      -792.21721757
  PAW double counting   =      1085.28756241     -116.09220188
  entropy T*S    EENTRO =        -0.05421282
  eigenvalues    EBANDS =       293.41656815
  atomic energy  EATOM  =      1629.13144109
  ---------------------------------------------------
  free energy    TOTEN  =      -111.69759299 eV

  energy without entropy =     -111.64338016  energy(sigma->0) =     -111.67952204


--------------------------------------------------------------------------------------------------------




----------------------------------------- Iteration    1(  18)  ---------------------------------------


    POTLOK:  cpu time    0.15: real time    0.15
    SETDIJ:  cpu time    0.01: real time    0.01
    EDDIAG:  cpu time    0.30: real time    0.30
  RMM-DIIS:  cpu time    0.88: real time    0.89
    ORTHCH:  cpu time    0.02: real time    0.02
       DOS:  cpu time    0.00: real time    0.00
    --------------------------------------------
      LOOP:  cpu time    1.37: real time    1.37

 eigenvalue-minimisations  :   189
 total energy-change (2. order) :-0.2085422E-04  (-0.1039060E-04)
 number of electron   91.9999999 magnetization 
 augmentation part    -1.1343363 magnetization 

 Free energy of the ion-electron system (eV)
  ---------------------------------------------------
  alpha Z        PSCENC =        -7.38313139
  Ewald energy   TEWEN  =     -2142.03777123
  -1/2 Hartree   DENC   =       -61.76750478
  -exchange  EXHF       =         0.00000000
  -V(xc)+E(xc)   XCENC  =      -792.20516861
  PAW double counting   =      1085.31392679     -116.12449013
  entropy T*S    EENTRO =        -0.05413424
  eigenvalues    EBANDS =       293.42921865
  atomic energy  EATOM  =      1629.13144109
  ---------------------------------------------------
  free energy    TOTEN  =      -111.69761384 eV

  energy without entropy =     -111.64347960  energy(sigma->0) =     -111.67956909


--------------------------------------------------------------------------------------------------------




 average (electrostatic) potential at core
  the test charge radii are     1.0406  1.0714
  (the norm of the test charge is              1.0000)
       1 -72.9058       2 -73.1549       3 -73.0129       4 -73.0129       5 -73.0727
       6 -73.0539       7 -73.0501       8 -73.0032       9 -72.9971      10 -73.0129
      11 -73.0129      12 -73.1130      13 -73.1122      14 -73.0501      15 -73.0032
      16 -73.0727      17 -73.0539      18 -73.0032      19 -73.0501      20 -73.1550
      21 -73.0211      22 -73.0229      23 -73.0229      24 -73.1130      25 -73.1122
      26 -73.0032      27 -73.0501      28 -73.0239      29 -73.0229      30 -73.0229
      31 -50.6401
 
 
 
 E-fermi :   7.8347     XC(G=0):  -9.9891     alpha+bet :-14.3074
   add alpha+bet to get absolut eigen values

 k-point   1 :       0.2500    0.2500    0.2500
  band No.  band energies     occupation 
      1      -3.1594      2.00000
      2      -2.1250      2.00000
      3      -2.0432      2.00000
      4      -1.7335      2.00000
      5      -0.8980      2.00000
      6      -0.8843      2.00000
      7      -0.3807      2.00000
      8       0.0820      2.00000
      9       0.1759      2.00000
     10       0.4946      2.00000
     11       0.6996      2.00000
     12       1.1145      2.00000
     13       1.3070      2.00000
     14       1.3102      2.00000
     15       1.4745      2.00000
     16       1.7696      2.00000
     17       1.9277      2.00000
     18       2.7622      2.00000
     19       2.7647      2.00000
     20       3.0284      2.00000
     21       3.4066      2.00000
     22       3.4418      2.00000
     23       3.4898      2.00000
     24       3.5784      2.00000
     25       3.6248      2.00000
     26       4.0160      2.00000
     27       4.3208      2.00000
     28       4.4750      2.00000
     29       4.5948      2.00000
     30       4.7824      2.00000
     31       4.8402      2.00000
     32       4.8802      2.00000
     33       4.9446      2.00000
     34       5.0644      2.00000
     35       5.4379      2.00000
     36       5.7847      2.00000
     37       5.9126      2.00000
     38       6.4996      2.00000
     39       6.5646      2.00000
     40       6.6036      2.00000
     41       6.6918      2.00000
     42       6.8930      2.00000
     43       7.0239      2.00000
     44       7.0779      2.00000
     45       7.1940      2.00006
     46       7.7822      1.42774
     47       7.8558      0.82285
     48       7.9132      0.38912
     49       8.0207     -0.03254
     50       8.0423     -0.05726
     51       8.1306     -0.05713
     52       8.3031     -0.00456
     53       8.5039     -0.00002
     54       8.6218      0.00000
     55       8.9570      0.00000
     56       9.0404      0.00000
     57       9.0745      0.00000
     58       9.3029      0.00000
     59       9.3393      0.00000
     60       9.4613      0.00000
     61       9.9048      0.00000
     62       9.9060      0.00000
     63      10.0828      0.00000
     64      10.1427      0.00000
     65      10.2266      0.00000
     66      10.2382      0.00000
     67      10.5777      0.00000
     68      10.8625      0.00000
     69      10.8987      0.00000
     70      11.0202      0.00000
     71      11.1218      0.00000
     72      11.1549      0.00000

 k-point   2 :      -0.2500    0.2500    0.2500
  band No.  band energies     occupation 
      1      -3.1615      2.00000
      2      -2.1511      2.00000
      3      -1.9240      2.00000
      4      -1.8398      2.00000
      5      -0.9689      2.00000
      6      -0.6747      2.00000
      7      -0.5572      2.00000
      8       0.0520      2.00000
      9       0.2796      2.00000
     10       0.4096      2.00000
     11       0.7258      2.00000
     12       1.2675      2.00000
     13       1.2836      2.00000
     14       1.3570      2.00000
     15       1.5301      2.00000
     16       1.6666      2.00000
     17       1.8290      2.00000
     18       2.7072      2.00000
     19       2.8538      2.00000
     20       2.9350      2.00000
     21       3.3729      2.00000
     22       3.4842      2.00000
     23       3.5127      2.00000
     24       3.5500      2.00000
     25       3.6927      2.00000
     26       3.9390      2.00000
     27       4.4781      2.00000
     28       4.4924      2.00000
     29       4.5749      2.00000
     30       4.7378      2.00000
     31       4.7603      2.00000
     32       4.9350      2.00000
     33       4.9423      2.00000
     34       5.0441      2.00000
     35       5.3330      2.00000
     36       5.7387      2.00000
     37       6.1078      2.00000
     38       6.4069      2.00000
     39       6.5984      2.00000
     40       6.6071      2.00000
     41       6.8224      2.00000
     42       6.9624      2.00000
     43       7.0026      2.00000
     44       7.0684      2.00000
     45       7.1748      2.00003
     46       7.8302      1.03835
     47       7.8997      0.48107
     48       7.9616      0.13028
     49       8.0045     -0.00305
     50       8.0399     -0.05525
     51       8.1281     -0.05821
     52       8.2390     -0.01492
     53       8.2852     -0.00651
     54       8.4807     -0.00005
     55       9.0202      0.00000
     56       9.0470      0.00000
     57       9.1504      0.00000
     58       9.3296      0.00000
     59       9.3549      0.00000
     60       9.4258      0.00000
     61       9.8695      0.00000
     62       9.9753      0.00000
     63      10.0188      0.00000
     64      10.1141      0.00000
     65      10.1380      0.00000
     66      10.1900      0.00000
     67      10.6310      0.00000
     68      10.7506      0.00000
     69      10.8194      0.00000
     70      11.0725      0.00000
     71      11.2448      0.00000
     72      11.4127      0.00000


--------------------------------------------------------------------------------------------------------


 soft charge-density along one line, spin component           1
         0         1         2         3         4         5         6         7         8         9
 total charge-density along one line
 
 pseudopotential strength for first ion, spin component:           1
  8.459  -0.006   0.000   0.000   0.000   0.000   0.000   0.000
 -0.006   0.000   0.000   0.000   0.000   0.000   0.000   0.000
  0.000   0.000   1.990   0.000   0.000  -0.026   0.000   0.000
  0.000   0.000   0.000   1.990   0.000   0.000  -0.026   0.000
  0.000   0.000   0.000   0.000   1.990   0.000   0.000  -0.026
  0.000   0.000  -0.026   0.000   0.000  -0.012   0.000   0.000
  0.000   0.000   0.000  -0.026   0.000   0.000  -0.012   0.000
  0.000   0.000   0.000   0.000  -0.026   0.000   0.000  -0.012
 total augmentation occupancy for first ion, spin component:           1
  1.295  -0.571   0.000  -0.011  -0.011   0.000   0.010   0.010
 -0.571   0.562   0.000   0.016   0.016   0.000  -0.009  -0.009
  0.000   0.000   0.790   0.000   0.000  -0.205   0.000   0.000
 -0.011   0.016   0.000   0.781  -0.004   0.000  -0.202   0.002
 -0.011   0.016   0.000  -0.004   0.781   0.000   0.002  -0.202
  0.000   0.000  -0.205   0.000   0.000   0.059   0.000   0.000
  0.010  -0.009   0.000  -0.202   0.002   0.000   0.058  -0.001
  0.010  -0.009   0.000   0.002  -0.202   0.000  -0.001   0.058


------------------------ aborting loop because EDIFF is reached ----------------------------------------




--------------------------------------------------------------------------------------------------------



  FREE ENERGIE OF THE ION-ELECTRON SYSTEM (eV)
  ---------------------------------------------------
  free  energy   TOTEN  =      -111.697614 eV

  energy  without entropy=     -111.643480  energy(sigma->0) =     -111.679569
 
    CHARGE:  cpu time    0.18: real time    0.18
    FORLOC:  cpu time    0.04: real time    0.04
    FORNL :  cpu time    0.46: real time    0.46
    STRESS:  cpu time    1.00: real time    1.00
    FORCOR:  cpu time    0.17: real time    0.17
    FORHAR:  cpu time    0.07: real time    0.07
    MIXING:  cpu time    0.00: real time    0.00

  FORCE on cell =-STRESS in cart. coord.  units (eV):
  Direction    XX          YY          ZZ          XY          YZ          ZX
  --------------------------------------------------------------------------------------
  Alpha Z    -7.38313    -7.38313    -7.38313
  Ewald    -703.59755  -734.85108  -703.59755     0.00000     0.00000     5.00767
  Hartree    27.89394     6.01040    27.89394     0.00000     0.00000     3.82052
  E(xc)    -261.88165  -261.96342  -261.88165     0.00000     0.00000     0.09351
  Local     -57.78152    -5.32713   -57.78152     0.00000     0.00000    -8.87902
  n-local   579.33105   580.02461   579.33102     0.27281    -1.14343    -0.83031
  augment   -30.29661   -30.36692   -30.29661     0.00000     0.00001     0.01966
  Kinetic   457.00980   458.58223   457.01004    -2.42026     1.81068     0.41876
  Fock        0.00000     0.00000     0.00000     0.00000     0.00000     0.00000
  -------------------------------------------------------------------------------------
  Total       3.29443     4.72556     3.29443     0.00000     0.00000    -0.34922
  in kB       9.97977    14.31505     9.97977     0.00000     0.00000    -1.05790
  external pressure =       11.42 kB  Pullay stress =        0.00 kB


 VOLUME and BASIS-vectors are now :
 -----------------------------------------------------------------------------
  energy-cutoff  :      300.00
  volume of cell :      528.90
      direct lattice vectors                 reciprocal lattice vectors
     8.087052000  0.000000000  0.000000000     0.123654454  0.000000000  0.000000000
     0.000000000  8.087052000  0.000000000     0.000000000  0.123654454  0.000000000
     0.000000000  0.000000000  8.087052000     0.000000000  0.000000000  0.123654454

  length of vectors
     8.087052000  8.087052000  8.087052000     0.123654454  0.123654454  0.123654454


 FORCES acting on ions
    electron-ion (+dipol)            ewald-force                    non-local-force                 convergence-correction
 -----------------------------------------------------------------------------------------------
   -.513E+01 0.621E-13 -.513E+01   0.473E+01 0.994E-15 0.473E+01   0.644E+00 0.000E+00 0.644E+00   0.136E-02 0.462E-13 0.136E-02
   -.219E+01 0.137E-15 -.219E+01   0.218E+01 -.666E-14 0.218E+01   -.241E+00 0.000E+00 -.241E+00   0.175E-02 0.261E-13 0.175E-02
   -.396E+01 -.136E+02 -.931E+01   0.369E+01 0.130E+02 0.897E+01   0.269E+00 0.917E+00 0.790E+00   0.169E-02 0.229E-02 0.358E-03
   -.931E+01 -.136E+02 -.396E+01   0.897E+01 0.130E+02 0.369E+01   0.790E+00 0.917E+00 0.269E+00   0.357E-03 0.229E-02 0.169E-02
   0.423E+01 0.170E-13 -.255E+01   -.434E+01 -.960E-12 0.240E+01   -.116E+00 0.217E-18 0.857E-01   -.146E-02 0.288E-13 0.189E-02
   0.302E+01 0.217E-12 -.479E+01   -.275E+01 0.105E-11 0.469E+01   -.140E+00 0.347E-17 0.236E+00   -.176E-02 0.297E-13 0.135E-02
   0.379E+01 -.770E+01 -.382E+01   -.357E+01 0.740E+01 0.374E+01   -.154E+00 0.428E+00 0.193E+00   -.167E-02 0.376E-02 0.173E-02
   0.908E+01 -.223E+02 -.121E+02   -.879E+01 0.214E+02 0.119E+02   -.583E+00 0.167E+01 0.513E+00   -.388E-03 0.252E-02 0.131E-02
   -.106E+02 0.301E-13 -.106E+02   0.997E+01 0.914E-12 0.997E+01   0.109E+01 0.000E+00 0.109E+01   -.169E-04 -.449E-13 -.158E-04
   -.396E+01 0.136E+02 -.931E+01   0.369E+01 -.130E+02 0.897E+01   0.269E+00 -.917E+00 0.790E+00   0.169E-02 -.229E-02 0.358E-03
   -.931E+01 0.136E+02 -.396E+01   0.897E+01 -.130E+02 0.369E+01   0.790E+00 -.917E+00 0.269E+00   0.357E-03 -.229E-02 0.169E-02
   0.115E+02 0.190E-12 -.808E+01   -.110E+02 -.168E-11 0.763E+01   -.111E+01 0.173E-17 0.768E+00   -.879E-04 -.270E-13 0.934E-03
   0.119E+02 0.169E-13 -.148E+02   -.115E+02 -.194E-14 0.142E+02   -.709E+00 -.139E-16 0.109E+01   -.218E-02 -.289E-13 0.114E-02
   0.379E+01 0.770E+01 -.382E+01   -.357E+01 -.740E+01 0.374E+01   -.154E+00 -.428E+00 0.193E+00   -.167E-02 -.376E-02 0.173E-02
   0.908E+01 0.223E+02 -.121E+02   -.879E+01 -.214E+02 0.119E+02   -.583E+00 -.167E+01 0.513E+00   -.388E-03 -.252E-02 0.131E-02
   -.255E+01 -.473E-13 0.423E+01   0.240E+01 0.345E-14 -.434E+01   0.857E-01 0.000E+00 -.116E+00   0.189E-02 0.243E-13 -.146E-02
   -.479E+01 -.136E-13 0.302E+01   0.469E+01 0.307E-14 -.275E+01   0.236E+00 -.347E-17 -.140E+00   0.135E-02 0.267E-13 -.176E-02
   -.121E+02 -.223E+02 0.908E+01   0.119E+02 0.214E+02 -.879E+01   0.513E+00 0.167E+01 -.583E+00   0.131E-02 0.252E-02 -.389E-03
   -.382E+01 -.770E+01 0.379E+01   0.374E+01 0.740E+01 -.357E+01   0.193E+00 0.428E+00 -.154E+00   0.173E-02 0.376E-02 -.167E-02
   0.238E+01 -.454E-13 0.238E+01   -.236E+01 0.864E-14 -.236E+01   0.705E-01 0.000E+00 0.705E-01   -.194E-02 0.125E-13 -.194E-02
   0.485E+01 0.588E-13 0.485E+01   -.459E+01 -.995E-12 -.459E+01   -.318E+00 0.000E+00 -.318E+00   -.125E-02 0.308E-13 -.125E-02
   0.132E+02 -.168E+02 0.489E+01   -.128E+02 0.163E+02 -.455E+01   -.861E+00 0.911E+00 -.564E+00   -.158E-02 0.363E-02 -.175E-02
   0.489E+01 -.168E+02 0.132E+02   -.455E+01 0.163E+02 -.128E+02   -.564E+00 0.911E+00 -.861E+00   -.175E-02 0.363E-02 -.158E-02
   -.808E+01 -.399E-12 0.115E+02   0.763E+01 -.160E-11 -.110E+02   0.768E+00 0.000E+00 -.111E+01   0.933E-03 -.239E-13 -.892E-04
   -.148E+02 -.791E-13 0.119E+02   0.142E+02 -.171E-13 -.115E+02   0.109E+01 0.694E-17 -.709E+00   0.114E-02 -.259E-13 -.218E-02
   -.121E+02 0.223E+02 0.908E+01   0.119E+02 -.214E+02 -.879E+01   0.513E+00 -.167E+01 -.583E+00   0.131E-02 -.252E-02 -.389E-03
   -.382E+01 0.770E+01 0.379E+01   0.374E+01 -.740E+01 -.357E+01   0.193E+00 -.428E+00 -.154E+00   0.173E-02 -.376E-02 -.167E-02
   0.142E+02 -.670E-13 0.142E+02   -.135E+02 -.694E-14 -.135E+02   -.111E+01 0.000E+00 -.111E+01   -.118E-02 -.287E-13 -.119E-02
   0.132E+02 0.168E+02 0.489E+01   -.128E+02 -.163E+02 -.455E+01   -.861E+00 -.911E+00 -.564E+00   -.158E-02 -.363E-02 -.175E-02
   0.489E+01 0.168E+02 0.132E+02   -.455E+01 -.163E+02 -.128E+02   -.564E+00 -.911E+00 -.861E+00   -.175E-02 -.363E-02 -.158E-02
   -.731E+01 -.833E-13 -.731E+01   0.709E+01 0.924E-14 0.709E+01   0.404E+00 0.000E+00 0.404E+00   0.115E-02 -.158E-13 0.115E-02
 -----------------------------------------------------------------------------------------------
   0.149E+00 -.454E-12 0.149E+00   -.533E-14 0.924E-14 0.122E-12   -.148E+00 0.000E+00 -.148E+00   -.878E-03 0.480E-13 -.878E-03
 
 
 POSITION                                       TOTAL-FORCE (eV/Angst)
 -----------------------------------------------------------------------------------
      8.04253      0.00000      8.04253         0.245942      0.000000      0.245942
      2.02473      0.00000      2.02473        -0.252629      0.000000     -0.252629
      2.00742      1.93935      8.01373         0.000392      0.331283      0.449296
      8.01373      1.93935      2.00742         0.449296      0.331283      0.000392
      4.07463      0.00000      8.04502        -0.222323      0.000000     -0.063707
      6.10059      0.00000      1.99509         0.125684      0.000000      0.140794
      6.08730      1.96925      8.04933         0.062872      0.132851      0.119312
      4.13383      1.84931      1.95562        -0.287649      0.806964      0.297179
      8.00616      4.04353      8.00616         0.420413      0.000000      0.420413
      2.00742      6.14770      8.01373         0.000392     -0.331283      0.449296
      8.01373      6.14770      2.00742         0.449296     -0.331283      0.000392
      4.15628      4.04353      7.99482        -0.525686      0.000000      0.322708
      6.11581      4.04353      1.93451        -0.298594      0.000000      0.505218
      6.08730      6.11780      8.04933         0.062872     -0.132851      0.119312
      4.13383      6.23775      1.95562        -0.287649     -0.806964      0.297179
      8.04502      0.00000      4.07463        -0.063707      0.000000     -0.222323
      1.99509      0.00000      6.10059         0.140794      0.000000      0.125684
      1.95562      1.84931      4.13383         0.297179      0.806964     -0.287649
      8.04933      1.96925      6.08730         0.119312      0.132851      0.062872
      4.05836      0.00000      4.05836         0.090006      0.000000      0.090006
      6.08279      0.00000      6.08279        -0.055785      0.000000     -0.055785
      6.10775      1.96081      4.08594        -0.478638      0.427721     -0.232700
      4.08594      1.96081      6.10775        -0.232700      0.427721     -0.478638
      7.99482      4.04353      4.15628         0.322708      0.000000     -0.525686
      1.93451      4.04353      6.11581         0.505218      0.000000     -0.298594
      1.95562      6.23775      4.13383         0.297179     -0.806964     -0.287649
      8.04933      6.11780      6.08730         0.119312     -0.132851      0.062872
      6.11532      4.04353      6.11532        -0.471533      0.000000     -0.471533
      6.10775      6.12624      4.08594        -0.478638     -0.427721     -0.232700
      4.08594      6.12624      6.10775        -0.232700     -0.427721     -0.478638
      2.06908      4.04353      2.06908         0.179366      0.000000      0.179366
 -----------------------------------------------------------------------------------
    total drift:                                0.000323      0.000000      0.000322


--------------------------------------------------------------------------------------------------------


    POTLOK:  cpu time    0.16: real time    0.16


--------------------------------------------------------------------------------------------------------


  FORCES: max atom, RMS     0.906779    0.547873
  FORCE total and by dimension    3.050430    0.806964


--------------------------------------------------------------------------------------------------------


    WAVPRE:  cpu time    0.05: real time    0.05
    FEWALD:  cpu time    0.01: real time    0.01
    ORTHCH:  cpu time    0.11: real time    0.11
     LOOP+:  cpu time   27.19: real time   27.26
   RESPFUN:  cpu time    0.00: real time    0.00


----------------------------------------- Iteration    2(   1)  ---------------------------------------


    POTLOK:  cpu time    0.15: real time    0.15
    SETDIJ:  cpu time    0.01: real time    0.01
    EDDIAG:  cpu time    0.30: real time    0.30
  RMM-DIIS:  cpu time    1.25: real time    1.25
    ORTHCH:  cpu time    0.02: real time    0.02
       DOS:  cpu time    0.00: real time    0.00
    CHARGE:  cpu time    0.19: real time    0.19
    MIXING:  cpu time    0.00: real time    0.00
    --------------------------------------------
      LOOP:  cpu time    1.92: real time    1.92

 eigenvalue-minimisations  :   288
 total energy-change (2. order) :-0.4095326E+00  (-0.2671675E+00)
 number of electron   92.0000000 magnetization 
 augmentation part    -1.1352387 magnetization 

 Broyden mixing:
  rms(total) = 0.39929E-01    rms(broyden)= 0.39922E-01
  rms(prec ) = 0.13541E+00
  weight for this iteration     100.00

 Free energy of the ion-electron system (eV)
  ---------------------------------------------------
  alpha Z        PSCENC =        -7.38313139
  Ewald energy   TEWEN  =     -2153.54571220
  -1/2 Hartree   DENC   =       -52.58312000
  -exchange  EXHF       =         0.00000000
  -V(xc)+E(xc)   XCENC  =      -792.36934796
  PAW double counting   =      1085.31562260     -116.12900936
  entropy T*S    EENTRO =        -0.03826465
  eigenvalues    EBANDS =       295.49439626
  atomic energy  EATOM  =      1629.13144109
  ---------------------------------------------------
  free energy    TOTEN  =      -112.10712560 eV

  energy without entropy =     -112.06886096  energy(sigma->0) =     -112.09437072


--------------------------------------------------------------------------------------------------------




----------------------------------------- Iteration    2(   2)  ---------------------------------------


    POTLOK:  cpu time    0.15: real time    0.15
    SETDIJ:  cpu time    0.01: real time    0.01
    EDDIAG:  cpu time    0.30: real time    0.30
  RMM-DIIS:  cpu time    1.22: real time    1.22
    ORTHCH:  cpu time    0.02: real time    0.02
       DOS:  cpu time    0.00: real time    0.00
    CHARGE:  cpu time    0.19: real time    0.19
    MIXING:  cpu time    0.00: real time    0.00
    --------------------------------------------
      LOOP:  cpu time    1.90: real time    1.91

 eigenvalue-minimisations  :   292
 total energy-change (2. order) : 0.1983236E-01  (-0.5126210E-02)
 number of electron   92.0000000 magnetization 
 augmentation part    -1.1360522 magnetization 

 Broyden mixing:
  rms(total) = 0.13705E-01    rms(broyden)= 0.13704E-01
  rms(prec ) = 0.27464E-01
  weight for this iteration     100.00

 eigenvalues of (default mixing * dielectric matrix)
  average eigenvalue GAMMA=   1.2040
  1.2040

 Free energy of the ion-electron system (eV)
  ---------------------------------------------------
  alpha Z        PSCENC =        -7.38313139
  Ewald energy   TEWEN  =     -2153.54571220
  -1/2 Hartree   DENC   =       -51.97509500
  -exchange  EXHF       =         0.00000000
  -V(xc)+E(xc)   XCENC  =      -792.38726294
  PAW double counting   =      1084.98780345     -115.78882106
  entropy T*S    EENTRO =        -0.04707833
  eigenvalues    EBANDS =       294.92056314
  atomic energy  EATOM  =      1629.13144109
  ---------------------------------------------------
  free energy    TOTEN  =      -112.08729324 eV

  energy without entropy =     -112.04021491  energy(sigma->0) =     -112.07160046


--------------------------------------------------------------------------------------------------------




----------------------------------------- Iteration    2(   3)  ---------------------------------------


    POTLOK:  cpu time    0.15: real time    0.15
    SETDIJ:  cpu time    0.01: real time    0.01
    EDDIAG:  cpu time    0.30: real time    0.30
  RMM-DIIS:  cpu time    1.25: real time    1.25
    ORTHCH:  cpu time    0.02: real time    0.02
       DOS:  cpu time    0.00: real time    0.00
    CHARGE:  cpu time    0.19: real time    0.19
    MIXING:  cpu time    0.00: real time    0.00
    --------------------------------------------
      LOOP:  cpu time    1.93: real time    1.93

 eigenvalue-minimisations  :   291
 total energy-change (2. order) : 0.6729764E-03  (-0.3417512E-03)
 number of electron   92.0000000 magnetization 
 augmentation part    -1.1359900 magnetization 

 Broyden mixing:
  rms(total) = 0.71277E-02    rms(broyden)= 0.71276E-02
  rms(prec ) = 0.10886E-01
  weight for this iteration     100.00

 eigenvalues of (default mixing * dielectric matrix)
  average eigenvalue GAMMA=   1.4237
  1.8489  0.9986

 Free energy of the ion-electron system (eV)
  ---------------------------------------------------
  alpha Z        PSCENC =        -7.38313139
  Ewald energy   TEWEN  =     -2153.54571220
  -1/2 Hartree   DENC   =       -51.92327607
  -exchange  EXHF       =         0.00000000
  -V(xc)+E(xc)   XCENC  =      -792.39360955
  PAW double counting   =      1084.82592863     -115.61974593
  entropy T*S    EENTRO =        -0.04654049
  eigenvalues    EBANDS =       294.86802565
  atomic energy  EATOM  =      1629.13144109
  ---------------------------------------------------
  free energy    TOTEN  =      -112.08662027 eV

  energy without entropy =     -112.04007978  energy(sigma->0) =     -112.07110677


--------------------------------------------------------------------------------------------------------




----------------------------------------- Iteration    2(   4)  ---------------------------------------


    POTLOK:  cpu time    0.15: real time    0.15
    SETDIJ:  cpu time    0.01: real time    0.01
    EDDIAG:  cpu time    0.30: real time    0.30
  RMM-DIIS:  cpu time    1.05: real time    1.06
    ORTHCH:  cpu time    0.02: real time    0.02
       DOS:  cpu time    0.00: real time    0.00
    --------------------------------------------
      LOOP:  cpu time    1.54: real time    1.54

 eigenvalue-minimisations  :   246
 total energy-change (2. order) : 0.8284284E-05  (-0.4161891E-04)
 number of electron   92.0000000 magnetization 
 augmentation part    -1.1359900 magnetization 

 Free energy of the ion-electron system (eV)
  ---------------------------------------------------
  alpha Z        PSCENC =        -7.38313139
  Ewald energy   TEWEN  =     -2153.54571220
  -1/2 Hartree   DENC   =       -51.90182686
  -exchange  EXHF       =         0.00000000
  -V(xc)+E(xc)   XCENC  =      -792.39784175
  PAW double counting   =      1084.70358594     -115.49176609
  entropy T*S    EENTRO =        -0.04655830
  eigenvalues    EBANDS =       294.84519758
  atomic energy  EATOM  =      1629.13144109
  ---------------------------------------------------
  free energy    TOTEN  =      -112.08661198 eV

  energy without entropy =     -112.04005368  energy(sigma->0) =     -112.07109255


[...]
  alpha Z        PSCENC =        -7.38313139
  Ewald energy   TEWEN  =     -2181.67825420
  -1/2 Hartree   DENC   =       -27.12829007
  -exchange  EXHF       =         0.00000000
  -V(xc)+E(xc)   XCENC  =      -792.88053161
  PAW double counting   =      1083.51576491     -114.25634859
  entropy T*S    EENTRO =        -0.03877132
  eigenvalues    EBANDS =       298.14385684
  atomic energy  EATOM  =      1629.13144109
  ---------------------------------------------------
  free energy    TOTEN  =      -112.57426434 eV

  energy without entropy =     -112.53549302  energy(sigma->0) =     -112.56134057


--------------------------------------------------------------------------------------------------------




 average (electrostatic) potential at core
  the test charge radii are     1.0406  1.0714
  (the norm of the test charge is              1.0000)
       1 -72.9191       2 -73.1101       3 -73.0318       4 -73.0318       5 -73.1080
       6 -73.0802       7 -73.0595       8 -72.9694       9 -73.0469      10 -73.0318
      11 -73.0318      12 -73.0692      13 -73.0463      14 -73.0595      15 -72.9694
      16 -73.1080      17 -73.0803      18 -72.9694      19 -73.0595      20 -73.1361
      21 -73.0296      22 -73.0373      23 -73.0373      24 -73.0692      25 -73.0463
      26 -72.9694      27 -73.0595      28 -73.0408      29 -73.0373      30 -73.0373
      31 -50.4222
 
 
 
 E-fermi :   7.8533     XC(G=0): -10.0131     alpha+bet :-14.3074
   add alpha+bet to get absolut eigen values

 k-point   1 :       0.2500    0.2500    0.2500
  band No.  band energies     occupation 
      1      -2.9539      2.00000
      2      -1.9236      2.00000
      3      -1.8731      2.00000
      4      -1.6393      2.00000
      5      -0.8023      2.00000
      6      -0.7490      2.00000
      7      -0.3838      2.00000
      8       0.2937      2.00000
      9       0.3326      2.00000
     10       0.5044      2.00000
     11       0.6135      2.00000
     12       1.3475      2.00000
     13       1.4018      2.00000
     14       1.4197      2.00000
     15       1.5537      2.00000
     16       1.7302      2.00000
     17       1.9671      2.00000
     18       2.6629      2.00000
     19       2.6785      2.00000
     20       2.8501      2.00000
     21       3.5424      2.00000
     22       3.6131      2.00000
     23       3.6600      2.00000
     24       3.7138      2.00000
     25       3.7518      2.00000
     26       4.0384      2.00000
     27       4.5413      2.00000
     28       4.5956      2.00000
     29       4.6350      2.00000
     30       4.7566      2.00000
     31       4.8136      2.00000
     32       4.8844      2.00000
     33       4.9348      2.00000
     34       5.0580      2.00000
     35       5.2415      2.00000
     36       5.7192      2.00000
     37       5.8335      2.00000
     38       6.3349      2.00000
     39       6.7373      2.00000
     40       6.7630      2.00000
     41       6.7969      2.00000
     42       6.9711      2.00000
     43       7.0137      2.00000
     44       7.0729      2.00000
     45       7.1151      2.00000
     46       7.8147      1.32007
     47       7.8464      1.05891
     48       7.9407      0.33297
     49       8.0800     -0.06800
     50       8.1654     -0.04983
     51       8.2294     -0.02308
     52       8.2575     -0.01494
     53       8.3305     -0.00380
     54       8.4174     -0.00049
     55       9.0916      0.00000
     56       9.1547      0.00000
     57       9.1649      0.00000
     58       9.3950      0.00000
     59       9.4171      0.00000
     60       9.4793      0.00000
     61       9.9805      0.00000
     62       9.9861      0.00000
     63      10.0693      0.00000
     64      10.1179      0.00000
     65      10.1880      0.00000
     66      10.2126      0.00000
     67      10.5312      0.00000
     68      10.6748      0.00000
     69      10.7032      0.00000
     70      10.9305      0.00000
     71      11.0328      0.00000
     72      11.2724      0.00000

 k-point   2 :      -0.2500    0.2500    0.2500
  band No.  band energies     occupation 
      1      -2.9567      2.00000
      2      -1.9169      2.00000
      3      -1.8160      2.00000
      4      -1.7068      2.00000
      5      -0.8010      2.00000
      6      -0.6660      2.00000
      7      -0.5200      2.00000
      8       0.2989      2.00000
      9       0.3999      2.00000
     10       0.4342      2.00000
     11       0.6855      2.00000
     12       1.3763      2.00000
     13       1.4608      2.00000
     14       1.4728      2.00000
     15       1.5064      2.00000
     16       1.7269      2.00000
     17       1.8720      2.00000
     18       2.6311      2.00000
     19       2.7362      2.00000
     20       2.7737      2.00000
     21       3.5527      2.00000
     22       3.6257      2.00000
     23       3.6541      2.00000
     24       3.6886      2.00000
     25       3.7652      2.00000
     26       4.0067      2.00000
     27       4.5715      2.00000
     28       4.6542      2.00000
     29       4.6764      2.00000
     30       4.7243      2.00000
     31       4.7433      2.00000
     32       4.9159      2.00000
     33       4.9347      2.00000
     34       5.0559      2.00000
     35       5.1806      2.00000
     36       5.7321      2.00000
     37       5.9528      2.00000
     38       6.2625      2.00000
     39       6.7558      2.00000
     40       6.7762      2.00000
     41       6.8816      2.00000
     42       7.0054      2.00000
     43       7.0231      2.00000
     44       7.0592      2.00000
     45       7.1353      2.00000
     46       7.8464      1.05838
     47       7.9127      0.52163
     48       7.9791      0.13492
     49       8.0691     -0.06295
     50       8.1291     -0.06504
     51       8.1382     -0.06170
     52       8.1815     -0.04237
     53       8.2270     -0.02389
     54       8.2766     -0.01079
     55       9.1350      0.00000
     56       9.1586      0.00000
     57       9.3033      0.00000
     58       9.3974      0.00000
     59       9.4024      0.00000
     60       9.4818      0.00000
     61       9.9861      0.00000
     62       9.9947      0.00000
     63      10.0118      0.00000
     64      10.0741      0.00000
     65      10.1198      0.00000
     66      10.1791      0.00000
     67      10.5726      0.00000
     68      10.6217      0.00000
     69      10.6645      0.00000
     70      10.9709      0.00000
     71      11.2265      0.00000
     72      11.3133      0.00000


--------------------------------------------------------------------------------------------------------


 soft charge-density along one line, spin component           1
         0         1         2         3         4         5         6         7         8         9
 total charge-density along one line
 
 pseudopotential strength for first ion, spin component:           1
  8.457  -0.006   0.000   0.000   0.000   0.000   0.000   0.000
 -0.006   0.000   0.000   0.000   0.000   0.000   0.000   0.000
  0.000   0.000   1.989   0.000   0.000  -0.026   0.000   0.000
  0.000   0.000   0.000   1.989   0.000   0.000  -0.026   0.000
  0.000   0.000   0.000   0.000   1.989   0.000   0.000  -0.026
  0.000   0.000  -0.026   0.000   0.000  -0.012   0.000   0.000
  0.000   0.000   0.000  -0.026   0.000   0.000  -0.012   0.000
  0.000   0.000   0.000   0.000  -0.026   0.000   0.000  -0.012
 total augmentation occupancy for first ion, spin component:           1
  1.318  -0.520   0.000  -0.004  -0.004   0.000   0.002   0.002
 -0.520   0.504   0.000   0.000   0.000   0.000  -0.001  -0.001
  0.000   0.000   0.750   0.000   0.000  -0.188   0.000   0.000
 -0.004   0.000   0.000   0.758   0.002   0.000  -0.189   0.000
 -0.004   0.000   0.000   0.002   0.758   0.000   0.000  -0.189
  0.000   0.000  -0.188   0.000   0.000   0.053   0.000   0.000
  0.002  -0.001   0.000  -0.189   0.000   0.000   0.053   0.000
  0.002  -0.001   0.000   0.000  -0.189   0.000   0.000   0.053


------------------------ aborting loop because EDIFF is reached ----------------------------------------




--------------------------------------------------------------------------------------------------------



  FREE ENERGIE OF THE ION-ELECTRON SYSTEM (eV)
  ---------------------------------------------------
  free  energy   TOTEN  =      -112.574264 eV

  energy  without entropy=     -112.535493  energy(sigma->0) =     -112.561341
 
    CHARGE:  cpu time    0.18: real time    0.18
    FORLOC:  cpu time    0.04: real time    0.04
    FORNL :  cpu time    0.46: real time    0.46
    STRESS:  cpu time    1.00: real time    1.00
    FORCOR:  cpu time    0.17: real time    0.17
    FORHAR:  cpu time    0.07: real time    0.07
    MIXING:  cpu time    0.00: real time    0.00

  FORCE on cell =-STRESS in cart. coord.  units (eV):
  Direction    XX          YY          ZZ          XY          YZ          ZX
  --------------------------------------------------------------------------------------
  Alpha Z    -7.38313    -7.38313    -7.38313
  Ewald    -724.24826  -733.19061  -724.24826     0.00000     0.00000     5.53003
  Hartree    11.09499     4.93933    11.09499     0.00000     0.00000     3.04878
  E(xc)    -260.83773  -260.90039  -260.83773     0.00000     0.00000     0.06564
  Local     -18.77740    -3.66926   -18.77740     0.00000     0.00000    -8.39670
  n-local   576.96911   577.31974   576.96907     0.29738    -1.10329    -0.53203
  augment   -30.46731   -30.57177   -30.46729     0.00000     0.00000    -0.03185
  Kinetic   452.00271   456.11875   452.00262    -3.68340     0.91096     2.17959
  Fock        0.00000     0.00000     0.00000     0.00000     0.00000     0.00000
  -------------------------------------------------------------------------------------
  Total      -1.64709     2.66267    -1.64709     0.00000     0.00000     1.86346
  in kB      -4.98949     8.06597    -4.98949     0.00000     0.00000     5.64493
  external pressure =       -0.64 kB  Pullay stress =        0.00 kB


 VOLUME and BASIS-vectors are now :
 -----------------------------------------------------------------------------
  energy-cutoff  :      300.00
  volume of cell :      528.90
      direct lattice vectors                 reciprocal lattice vectors
     8.087052000  0.000000000  0.000000000     0.123654454  0.000000000  0.000000000
     0.000000000  8.087052000  0.000000000     0.000000000  0.123654454  0.000000000
     0.000000000  0.000000000  8.087052000     0.000000000  0.000000000  0.123654454

  length of vectors
     8.087052000  8.087052000  8.087052000     0.123654454  0.123654454  0.123654454


 FORCES acting on ions
    electron-ion (+dipol)            ewald-force                    non-local-force                 convergence-correction
 -----------------------------------------------------------------------------------------------
   -.132E+01 -.127E-12 -.132E+01   0.115E+01 -.297E-14 0.115E+01   0.164E+00 0.000E+00 0.164E+00   0.216E-02 -.142E-12 0.216E-02
   -.291E+01 -.628E-13 -.291E+01   0.270E+01 0.839E-15 0.270E+01   0.238E+00 0.000E+00 0.238E+00   -.333E-02 -.146E-12 -.332E-02
   -.258E+01 -.655E+01 -.403E+01   0.243E+01 0.657E+01 0.417E+01   0.138E+00 -.550E-01 -.199E+00   0.752E-03 0.855E-03 0.155E-02
   -.403E+01 -.655E+01 -.258E+01   0.417E+01 0.657E+01 0.243E+01   -.199E+00 -.550E-01 0.138E+00   0.155E-02 0.856E-03 0.753E-03
   0.449E+00 0.160E-13 -.122E+01   -.641E+00 -.239E-14 0.106E+01   0.219E+00 -.867E-18 0.178E+00   -.259E-02 -.290E-13 -.229E-02
   0.271E+01 -.684E-14 -.202E+01   -.247E+01 -.281E-14 0.208E+01   -.263E+00 0.000E+00 -.811E-01   0.237E-02 -.124E-12 0.257E-02
   0.280E+01 -.326E+01 -.733E+00   -.264E+01 0.329E+01 0.814E+00   -.169E+00 -.437E-01 -.931E-01   -.551E-03 0.146E-02 0.525E-03
   0.502E+01 -.116E+02 -.779E+01   -.497E+01 0.118E+02 0.788E+01   -.485E-01 -.211E+00 -.670E-01   -.154E-02 0.537E-02 0.752E-03
   -.411E+01 0.183E-12 -.411E+01   0.416E+01 0.103E-13 0.416E+01   -.804E-01 0.000E+00 -.804E-01   0.141E-02 0.156E-12 0.141E-02
   -.258E+01 0.655E+01 -.403E+01   0.243E+01 -.657E+01 0.417E+01   0.138E+00 0.550E-01 -.199E+00   0.752E-03 -.855E-03 0.155E-02
   -.403E+01 0.655E+01 -.258E+01   0.417E+01 -.657E+01 0.243E+01   -.199E+00 0.550E-01 0.138E+00   0.155E-02 -.856E-03 0.753E-03
   0.419E+01 -.874E-13 -.399E+01   -.425E+01 -.294E-14 0.416E+01   0.970E-01 -.173E-17 -.162E+00   -.215E-02 0.266E-13 0.393E-03
   0.781E+01 0.131E-12 -.777E+01   -.797E+01 -.400E-14 0.785E+01   0.115E+00 -.139E-16 -.932E-01   -.460E-04 0.973E-13 0.168E-02
   0.280E+01 0.326E+01 -.733E+00   -.264E+01 -.329E+01 0.814E+00   -.169E+00 0.437E-01 -.931E-01   -.551E-03 -.146E-02 0.525E-03
   0.502E+01 0.116E+02 -.779E+01   -.497E+01 -.118E+02 0.788E+01   -.485E-01 0.211E+00 -.670E-01   -.154E-02 -.537E-02 0.752E-03
   -.122E+01 -.300E-13 0.449E+00   0.106E+01 0.135E-14 -.641E+00   0.178E+00 0.434E-18 0.219E+00   -.229E-02 -.125E-12 -.259E-02
   -.202E+01 0.343E-13 0.271E+01   0.208E+01 -.736E-14 -.247E+01   -.811E-01 0.867E-18 -.263E+00   0.257E-02 -.500E-13 0.237E-02
   -.779E+01 -.116E+02 0.502E+01   0.788E+01 0.118E+02 -.497E+01   -.670E-01 -.211E+00 -.485E-01   0.751E-03 0.537E-02 -.154E-02
   -.733E+00 -.326E+01 0.280E+01   0.814E+00 0.329E+01 -.264E+01   -.931E-01 -.437E-01 -.169E+00   0.525E-03 0.146E-02 -.552E-03
   0.120E+01 0.175E-13 0.120E+01   -.115E+01 -.100E-13 -.115E+01   -.667E-01 0.000E+00 -.667E-01   0.493E-02 -.108E-12 0.493E-02
   0.301E+01 0.528E-13 0.301E+01   -.268E+01 -.346E-14 -.268E+01   -.330E+00 0.000E+00 -.330E+00   -.370E-02 -.897E-13 -.370E-02
   0.754E+01 -.861E+01 0.528E+00   -.775E+01 0.880E+01 -.613E+00   0.241E+00 -.210E+00 0.127E+00   -.258E-02 0.571E-03 0.108E-02
   0.528E+00 -.861E+01 0.754E+01   -.613E+00 0.880E+01 -.775E+01   0.127E+00 -.210E+00 0.241E+00   0.108E-02 0.570E-03 -.258E-02
   -.399E+01 -.401E-13 0.419E+01   0.416E+01 0.428E-14 -.425E+01   -.162E+00 0.000E+00 0.970E-01   0.393E-03 0.144E-12 -.215E-02
   -.777E+01 0.202E-13 0.781E+01   0.785E+01 -.262E-15 -.797E+01   -.932E-01 0.139E-16 0.115E+00   0.168E-02 0.769E-13 -.474E-04
   -.779E+01 0.116E+02 0.502E+01   0.788E+01 -.118E+02 -.497E+01   -.670E-01 0.211E+00 -.485E-01   0.751E-03 -.537E-02 -.154E-02
   -.733E+00 0.326E+01 0.280E+01   0.814E+00 -.329E+01 -.264E+01   -.931E-01 0.437E-01 -.169E+00   0.525E-03 -.146E-02 -.552E-03
   0.759E+01 0.177E-12 0.759E+01   -.777E+01 0.128E-14 -.777E+01   0.209E+00 0.000E+00 0.209E+00   -.273E-02 0.107E-12 -.273E-02
   0.754E+01 0.861E+01 0.528E+00   -.775E+01 -.880E+01 -.613E+00   0.241E+00 0.210E+00 0.127E+00   -.258E-02 -.571E-03 0.108E-02
   0.528E+00 0.861E+01 0.754E+01   -.613E+00 -.880E+01 -.775E+01   0.127E+00 0.210E+00 0.241E+00   0.108E-02 -.570E-03 -.258E-02
   -.518E+01 0.372E-13 -.518E+01   0.512E+01 0.658E-14 0.512E+01   0.544E-01 0.000E+00 0.544E-01   0.168E-02 0.858E-13 0.168E-02
 -----------------------------------------------------------------------------------------------
   -.559E-01 0.219E-12 -.559E-01   -.187E-13 -.218E-13 -.648E-13   0.554E-01 -.555E-16 0.554E-01   0.337E-03 -.170E-12 0.337E-03
 
 
 POSITION                                       TOTAL-FORCE (eV/Angst)
 -----------------------------------------------------------------------------------
      8.08351      0.00000      8.08351        -0.008035      0.000000     -0.008035
      2.00761      0.00000      2.00761         0.020750      0.000000      0.020750
      2.02195      2.01860      0.00267        -0.010469     -0.033737     -0.050181
      0.00267      2.01860      2.02195        -0.050181     -0.033737     -0.010469
      4.04062      0.00000      8.05602         0.024537      0.000000      0.020896
      6.09249      0.00000      2.02082        -0.017268      0.000000     -0.023292
      6.08199      2.01411      8.07919        -0.011052     -0.013312     -0.011694
      4.08041      2.00140      2.01998         0.002305     -0.036406      0.019792
      8.07950      4.04353      8.07950        -0.023252      0.000000     -0.023252
      2.02195      6.06845      0.00267        -0.010469      0.033737     -0.050181
      0.00267      6.06845      2.02195        -0.050181      0.033737     -0.010469
      4.06367      4.04353      8.06614         0.031333      0.000000      0.007343
      6.04001      4.04353      2.03179        -0.052015      0.000000     -0.004844
      6.08199      6.07294      8.07919        -0.011052      0.013312     -0.011694
      4.08041      6.08565      2.01998         0.002305      0.036406      0.019792
      8.05602      0.00000      4.04062         0.020896      0.000000      0.024537
      2.02082      0.00000      6.09249        -0.023292      0.000000     -0.017268
      2.01998      2.00140      4.08041         0.019792     -0.036406      0.002305
      8.07919      2.01411      6.08199        -0.011694     -0.013312     -0.011052
      4.04989      0.00000      4.04989        -0.013070      0.000000     -0.013070
      6.07376      0.00000      6.07376        -0.000406      0.000000     -0.000406
      6.02157      2.05734      4.03138         0.023308     -0.015663      0.042973
      4.03138      2.05734      6.02157         0.042973     -0.015663      0.023308
      8.06614      4.04353      4.06367         0.007343      0.000000      0.031333
      2.03179      4.04353      6.04001        -0.004844      0.000000     -0.052015
      2.01998      6.08565      4.08041         0.019792      0.036406      0.002305
      8.07919      6.07294      6.08199        -0.011694      0.013312     -0.011052
      6.03032      4.04353      6.03032         0.028717      0.000000      0.028717
      6.02157      6.02971      4.03138         0.023308      0.015663      0.042973
      4.03138      6.02971      6.02157         0.042973      0.015663      0.023308
      2.10901      4.04353      2.10901        -0.001355      0.000000     -0.001355
 -----------------------------------------------------------------------------------
    total drift:                               -0.000184      0.000000     -0.000184
 d Force = 0.1162179E-01[ 0.119E-03, 0.231E-01]  d Energy = 0.1161133E-01 0.105E-04
 d Force = 0.1803517E+01[ 0.167E+01, 0.194E+01]  d Ewald  = 0.1803444E+01 0.730E-04


--------------------------------------------------------------------------------------------------------


    POTLOK:  cpu time    0.16: real time    0.16


--------------------------------------------------------------------------------------------------------


  FORCES: max atom, RMS     0.061367    0.039997
  FORCE total and by dimension    0.222695    0.052015


--------------------------------------------------------------------------------------------------------


  
 reached required accuracy - stopping structural energy minimisation
     LOOP+:  cpu time    7.43: real time    7.45
    4ORBIT:  cpu time    0.00: real time    0.00

 total amount of memory used by VASP on root node  60642. kBytes
========================================================================

   base      :    30000. kBytes
   nonl-proj :     4692. kBytes
   fftplans  :     2983. kBytes
   grid      :    21626. kBytes
   one-center:       95. kBytes
   wavefun   :     1246. kBytes
 
  
  
 General timing and accounting informations for this job:
 ========================================================
  
                  Total CPU time used (sec):       66.905
                            User time (sec):       66.769
                          System time (sec):        0.136
                         Elapsed time (sec):       67.148
  
                   Maximum memory used (kb):           0.
                   Average memory used (kb):           0.
  
                          Minor page faults:        23229
                          Major page faults:            0
                 Voluntary context switches:         2459
