       N       E                     dE             d eps       ncg     rms          rms(c)
DAV:   1     0.101430446941E+03    0.10143E+03   -0.26034E+04   124   0.891E+02
DAV:   2    -0.854240291635E+02   -0.18685E+03   -0.17307E+03   144   0.125E+02
DAV:   3    -0.101619771435E+03   -0.16196E+02   -0.15029E+02   168   0.262E+01
DAV:   4    -0.102207862911E+03   -0.58809E+00   -0.58335E+00   168   0.533E+00
DAV:   5    -0.102221396464E+03   -0.13534E-01   -0.13491E-01   168   0.925E-01    0.697E+00
DAV:   6    -0.100349486160E+03    0.18719E+01   -0.10309E+01   160   0.620E+00    0.402E+00
DAV:   7    -0.100043337035E+03    0.30615E+00   -0.12944E+00   152   0.294E+00    0.260E+00
DAV:   8    -0.998793489919E+02    0.16399E+00   -0.28926E-01   168   0.134E+00    0.681E-01
DAV:   9    -0.998673167263E+02    0.12032E-01   -0.22795E-02   152   0.425E-01    0.124E-01
DAV:  10    -0.998668137446E+02    0.50298E-03   -0.28247E-03   152   0.128E-01    0.439E-02
DAV:  11    -0.998668604507E+02   -0.46706E-04   -0.43789E-04   152   0.526E-02
   1 F= -.99866860E+02 E0= -.998654321E+02  d E =-.219187E-01
