    3    3    1    1
  0.1535906E+02  0.3585051E-09  0.3585051E-09  0.3585051E-09  0.5000000E-15
  1.000000000000000E-004
  CAR 
 unknown system                          
   24    1   16
 
  0.0000000E+00  0.0000000E+00  0.0000000E+00  0.1000000E+01
   1       -3.453008
   2        0.010703
   3        0.300479
   4        0.982324
   5        1.436728
   6        2.294405
   7        2.343448
   8        2.514616
   9        2.686188
  10        3.003543
  11        3.213679
  12        3.997566
  13        4.060613
  14        4.511342
  15        4.568805
  16        5.168317
