  31  31   0   0
  0.1706119E+02  0.8087054E-09  0.8087054E-09  0.8087054E-09  0.5000000E-15
  1.000000000000000E-004
  CAR 
 unknown system                          
     12.04432611     -4.95579232  301      7.85313788      1.00000000
     -4.956  0.0000E+00  0.0000E+00
     -4.899  0.0000E+00  0.0000E+00
     -4.842  0.0000E+00  0.0000E+00
     -4.786  0.0000E+00  0.0000E+00
     -4.729  0.0000E+00  0.0000E+00
     -4.672  0.0000E+00  0.0000E+00
     -4.616  0.0000E+00  0.0000E+00
     -4.559 -0.4606E-28 -0.2610E-29
     -4.502 -0.3820E-26 -0.2191E-27
     -4.446 -0.2722E-24 -0.1564E-25
     -4.389 -0.1649E-22 -0.9499E-24
     -4.332 -0.8488E-21 -0.4905E-22
     -4.276 -0.3714E-19 -0.2154E-20
     -4.219 -0.1380E-17 -0.8038E-19
     -4.162 -0.4358E-16 -0.2550E-17
     -4.106 -0.1132E-14 -0.6671E-16
     -4.049 -0.2570E-13 -0.1523E-14
     -3.992 -0.4940E-12 -0.2952E-13
     -3.936 -0.8046E-11 -0.4855E-12
     -3.879 -0.1109E-09 -0.6772E-11
     -3.822 -0.1294E-08 -0.8007E-10
     -3.766 -0.1274E-07 -0.8018E-09
     -3.709 -0.1057E-06 -0.6792E-08
     -3.652 -0.7379E-06 -0.4861E-07
     -3.596 -0.4318E-05 -0.2933E-06
     -3.539 -0.2109E-04 -0.1489E-05
     -3.482 -0.8544E-04 -0.6330E-05
     -3.426 -0.2839E-03 -0.2242E-04
     -3.369 -0.7600E-03 -0.6548E-04
     -3.312 -0.1579E-02 -0.1550E-03
     -3.256 -0.2315E-02 -0.2862E-03
     -3.199 -0.1500E-02 -0.3712E-03
     -3.142  0.3265E-02 -0.1862E-03
     -3.086  0.1364E-01  0.5865E-03
     -3.029  0.2787E-01  0.2166E-02
     -2.972  0.4009E-01  0.4437E-02
     -2.916  0.4363E-01  0.6910E-02
     -2.859  0.3637E-01  0.8971E-02
     -2.802  0.2258E-01  0.1025E-01
     -2.746  0.9254E-02  0.1077E-01
     -2.689  0.9367E-03  0.1083E-01
     -2.632 -0.2116E-02  0.1071E-01
     -2.576 -0.2128E-02  0.1059E-01
     -2.519 -0.1270E-02  0.1052E-01
     -2.462 -0.6187E-03  0.1048E-01
     -2.406 -0.4482E-03  0.1046E-01
     -2.349 -0.8234E-03  0.1041E-01
     -2.292 -0.1845E-02  0.1030E-01
     -2.236 -0.3338E-02  0.1011E-01
     -2.179 -0.4037E-02  0.9886E-02
     -2.122 -0.9441E-03  0.9832E-02
     -2.066  0.9786E-02  0.1039E-01
     -2.009  0.2974E-01  0.1207E-01
     -1.952  0.5508E-01  0.1519E-01
     -1.896  0.7717E-01  0.1957E-01
     -1.839  0.8813E-01  0.2456E-01
     -1.782  0.8618E-01  0.2944E-01
     -1.726  0.7532E-01  0.3371E-01
     -1.669  0.6053E-01  0.3714E-01
     -1.612  0.4445E-01  0.3966E-01
     -1.556  0.2833E-01  0.4127E-01
     -1.499  0.1410E-01  0.4207E-01
     -1.442  0.3997E-02  0.4229E-01
     -1.386 -0.1158E-02  0.4223E-01
     -1.329 -0.2549E-02  0.4208E-01
     -1.272 -0.2259E-02  0.4195E-01
     -1.216 -0.1990E-02  0.4184E-01
     -1.159 -0.2526E-02  0.4170E-01
     -1.102 -0.3572E-02  0.4150E-01
     -1.046 -0.3360E-02  0.4131E-01
     -0.989  0.1435E-02  0.4139E-01
     -0.932  0.1415E-01  0.4219E-01
     -0.876  0.3479E-01  0.4416E-01
     -0.819  0.5771E-01  0.4743E-01
     -0.762  0.7381E-01  0.5161E-01
     -0.706  0.7682E-01  0.5597E-01
     -0.649  0.6804E-01  0.5982E-01
     -0.592  0.5473E-01  0.6292E-01
     -0.536  0.4401E-01  0.6542E-01
     -0.479  0.3814E-01  0.6758E-01
     -0.422  0.3462E-01  0.6954E-01
     -0.366  0.2981E-01  0.7123E-01
     -0.309  0.2215E-01  0.7248E-01
     -0.252  0.1301E-01  0.7322E-01
     -0.196  0.4984E-02  0.7350E-01
     -0.139 -0.3210E-03  0.7348E-01
     -0.082 -0.3206E-02  0.7330E-01
     -0.026 -0.4868E-02  0.7303E-01
      0.031 -0.5465E-02  0.7272E-01
      0.088 -0.2729E-02  0.7256E-01
      0.144  0.7447E-02  0.7298E-01
      0.201  0.2786E-01  0.7456E-01
      0.258  0.5612E-01  0.7774E-01
      0.314  0.8387E-01  0.8250E-01
      0.371  0.1013E+00  0.8824E-01
      0.428  0.1036E+00  0.9411E-01
      0.484  0.9379E-01  0.9942E-01
      0.541  0.7920E-01  0.1039E+00
      0.598  0.6547E-01  0.1076E+00
      0.654  0.5346E-01  0.1106E+00
      0.711  0.4108E-01  0.1130E+00
      0.768  0.2735E-01  0.1145E+00
      0.824  0.1403E-01  0.1153E+00
      0.881  0.3901E-02  0.1155E+00
      0.938 -0.1975E-02  0.1154E+00
      0.994 -0.4860E-02  0.1152E+00
      1.051 -0.6636E-02  0.1148E+00
      1.108 -0.7332E-02  0.1144E+00
      1.164 -0.3553E-02  0.1142E+00
      1.221  0.1066E-01  0.1148E+00
      1.278  0.3967E-01  0.1170E+00
      1.334  0.8052E-01  0.1216E+00
      1.391  0.1208E+00  0.1284E+00
      1.448  0.1445E+00  0.1366E+00
      1.504  0.1423E+00  0.1447E+00
      1.561  0.1188E+00  0.1514E+00
      1.618  0.8888E-01  0.1564E+00
      1.674  0.6637E-01  0.1602E+00
      1.731  0.5594E-01  0.1634E+00
      1.788  0.5361E-01  0.1664E+00
      1.844  0.5303E-01  0.1694E+00
      1.901  0.5003E-01  0.1723E+00
      1.958  0.4313E-01  0.1747E+00
      2.014  0.3258E-01  0.1765E+00
      2.071  0.2030E-01  0.1777E+00
      2.128  0.9182E-02  0.1782E+00
      2.184  0.1468E-02  0.1783E+00
      2.241 -0.2679E-02  0.1781E+00
      2.298 -0.4704E-02  0.1779E+00
      2.354 -0.5742E-02  0.1776E+00
      2.411 -0.4716E-02  0.1773E+00
      2.468  0.2075E-02  0.1774E+00
      2.524  0.1878E-01  0.1785E+00
      2.581  0.4579E-01  0.1811E+00
      2.638  0.7670E-01  0.1854E+00
      2.694  0.1002E+00  0.1911E+00
      2.751  0.1068E+00  0.1971E+00
      2.808  0.9445E-01  0.2025E+00
      2.864  0.6933E-01  0.2064E+00
      2.921  0.4120E-01  0.2088E+00
      2.978  0.1818E-01  0.2098E+00
      3.034  0.3793E-02  0.2100E+00
      3.091 -0.2805E-02  0.2098E+00
      3.148 -0.4867E-02  0.2096E+00
      3.204 -0.5702E-02  0.2092E+00
      3.261 -0.6894E-02  0.2089E+00
      3.318 -0.7135E-02  0.2085E+00
      3.374 -0.1837E-02  0.2083E+00
      3.431  0.1547E-01  0.2092E+00
      3.488  0.4908E-01  0.2120E+00
      3.544  0.9593E-01  0.2174E+00
      3.601  0.1434E+00  0.2256E+00
      3.658  0.1736E+00  0.2354E+00
      3.714  0.1737E+00  0.2453E+00
      3.771  0.1441E+00  0.2534E+00
      3.828  0.1000E+00  0.2591E+00
      3.884  0.6145E-01  0.2626E+00
      3.941  0.4076E-01  0.2649E+00
      3.998  0.3604E-01  0.2669E+00
      4.054  0.3609E-01  0.2690E+00
      4.111  0.3115E-01  0.2707E+00
      4.168  0.1954E-01  0.2718E+00
      4.224  0.5856E-02  0.2722E+00
      4.281 -0.4435E-02  0.2719E+00
      4.338 -0.7486E-02  0.2715E+00
      4.394  0.4946E-04  0.2715E+00
      4.451  0.2142E-01  0.2727E+00
      4.508  0.5682E-01  0.2759E+00
      4.564  0.1000E+00  0.2816E+00
      4.621  0.1393E+00  0.2895E+00
      4.678  0.1636E+00  0.2988E+00
      4.734  0.1695E+00  0.3084E+00
      4.791  0.1620E+00  0.3175E+00
      4.848  0.1495E+00  0.3260E+00
      4.904  0.1369E+00  0.3338E+00
      4.961  0.1243E+00  0.3408E+00
      5.018  0.1099E+00  0.3470E+00
      5.074  0.9407E-01  0.3524E+00
      5.131  0.7875E-01  0.3568E+00
      5.188  0.6458E-01  0.3605E+00
      5.244  0.5019E-01  0.3633E+00
      5.301  0.3435E-01  0.3653E+00
      5.358  0.1821E-01  0.3663E+00
      5.414  0.4877E-02  0.3666E+00
      5.471 -0.2481E-02  0.3665E+00
      5.528 -0.1797E-02  0.3664E+00
      5.584  0.7607E-02  0.3668E+00
      5.641  0.2417E-01  0.3682E+00
      5.698  0.4316E-01  0.3706E+00
      5.754  0.5788E-01  0.3739E+00
      5.811  0.6336E-01  0.3775E+00
      5.868  0.5899E-01  0.3808E+00
      5.924  0.4774E-01  0.3835E+00
      5.981  0.3372E-01  0.3854E+00
      6.038  0.2095E-01  0.3866E+00
      6.094  0.1355E-01  0.3874E+00
      6.151  0.1449E-01  0.3882E+00
      6.208  0.2305E-01  0.3895E+00
      6.264  0.3368E-01  0.3914E+00
      6.321  0.3878E-01  0.3936E+00
      6.378  0.3382E-01  0.3955E+00
      6.434  0.2073E-01  0.3967E+00
      6.491  0.7135E-02  0.3971E+00
      6.548  0.2726E-02  0.3973E+00
      6.604  0.1472E-01  0.3981E+00
      6.661  0.4333E-01  0.4006E+00
      6.718  0.7964E-01  0.4051E+00
      6.774  0.1102E+00  0.4113E+00
      6.831  0.1273E+00  0.4185E+00
      6.888  0.1355E+00  0.4262E+00
      6.944  0.1446E+00  0.4344E+00
      7.001  0.1567E+00  0.4433E+00
      7.058  0.1614E+00  0.4524E+00
      7.114  0.1463E+00  0.4607E+00
      7.171  0.1101E+00  0.4669E+00
      7.228  0.6493E-01  0.4706E+00
      7.284  0.2626E-01  0.4721E+00
      7.341  0.2708E-02  0.4723E+00
      7.398 -0.6790E-02  0.4719E+00
      7.454 -0.8513E-02  0.4714E+00
      7.511 -0.8080E-02  0.4709E+00
      7.568 -0.7169E-02  0.4705E+00
      7.624 -0.3159E-02  0.4704E+00
      7.681  0.8801E-02  0.4709E+00
      7.738  0.3167E-01  0.4727E+00
      7.794  0.6249E-01  0.4762E+00
      7.851  0.9270E-01  0.4814E+00
      7.908  0.1143E+00  0.4879E+00
      7.964  0.1270E+00  0.4951E+00
      8.021  0.1381E+00  0.5029E+00
      8.078  0.1548E+00  0.5117E+00
      8.134  0.1753E+00  0.5217E+00
      8.191  0.1890E+00  0.5324E+00
      8.248  0.1845E+00  0.5428E+00
      8.304  0.1587E+00  0.5518E+00
      8.361  0.1185E+00  0.5585E+00
      8.418  0.7583E-01  0.5628E+00
      8.474  0.4018E-01  0.5651E+00
      8.531  0.1582E-01  0.5660E+00
      8.588  0.2243E-02  0.5661E+00
      8.644 -0.3561E-02  0.5659E+00
      8.701 -0.5254E-02  0.5656E+00
      8.758 -0.5856E-02  0.5653E+00
      8.814 -0.6576E-02  0.5649E+00
      8.871 -0.5743E-02  0.5646E+00
      8.928  0.1257E-02  0.5647E+00
      8.984  0.1937E-01  0.5658E+00
      9.041  0.4869E-01  0.5685E+00
      9.098  0.8117E-01  0.5731E+00
      9.154  0.1049E+00  0.5791E+00
      9.211  0.1146E+00  0.5856E+00
      9.268  0.1167E+00  0.5922E+00
      9.324  0.1217E+00  0.5991E+00
      9.381  0.1311E+00  0.6065E+00
      9.438  0.1340E+00  0.6141E+00
      9.494  0.1186E+00  0.6208E+00
      9.551  0.8499E-01  0.6256E+00
      9.608  0.4499E-01  0.6282E+00
      9.664  0.1243E-01  0.6289E+00
      9.721 -0.5523E-02  0.6286E+00
      9.778 -0.8211E-02  0.6281E+00
      9.834  0.3172E-02  0.6283E+00
      9.891  0.2673E-01  0.6298E+00
      9.948  0.5632E-01  0.6330E+00
     10.004  0.7991E-01  0.6375E+00
     10.061  0.8550E-01  0.6424E+00
     10.118  0.7027E-01  0.6464E+00
     10.174  0.4315E-01  0.6488E+00
     10.231  0.1753E-01  0.6498E+00
     10.288  0.1719E-02  0.6499E+00
     10.344 -0.4050E-02  0.6497E+00
     10.401 -0.4064E-02  0.6494E+00
     10.458 -0.2410E-02  0.6493E+00
     10.514 -0.1061E-02  0.6492E+00
     10.571 -0.3699E-03  0.6492E+00
     10.628 -0.1050E-03  0.6492E+00
     10.684 -0.2463E-04  0.6492E+00
     10.741 -0.4817E-05  0.6492E+00
     10.798 -0.7894E-06  0.6492E+00
     10.854 -0.1089E-06  0.6492E+00
     10.911 -0.1266E-07  0.6492E+00
     10.968 -0.1245E-08  0.6492E+00
     11.024 -0.1037E-09  0.6492E+00
     11.081 -0.7316E-11  0.6492E+00
     11.138 -0.4379E-12  0.6492E+00
     11.194 -0.2226E-13  0.6492E+00
     11.251 -0.9847E-15  0.6492E+00
     11.308 -0.2052E-16  0.6492E+00
     11.364  0.0000E+00  0.6492E+00
     11.421  0.0000E+00  0.6492E+00
     11.478  0.0000E+00  0.6492E+00
     11.534  0.0000E+00  0.6492E+00
     11.591  0.0000E+00  0.6492E+00
     11.648  0.0000E+00  0.6492E+00
     11.704  0.0000E+00  0.6492E+00
     11.761  0.0000E+00  0.6492E+00
     11.818  0.0000E+00  0.6492E+00
     11.874  0.0000E+00  0.6492E+00
     11.931  0.0000E+00  0.6492E+00
     11.988  0.0000E+00  0.6492E+00
     12.044  0.0000E+00  0.6492E+00
