   31   31  191    1
  0.1706119E+02  0.8087054E-09  0.8087054E-09  0.8087054E-09  0.5000000E-15
  1.000000000000000E-004
  CAR 
 unknown system                          
   92    2   62
 
  0.2500000E+00  0.2500000E+00  0.2500000E+00  0.5000000E+00
   1       -2.952903
   2       -1.923090
   3       -1.872453
   4       -1.638527
   5       -0.802199
   6       -0.748555
   7       -0.383785
   8        0.294277
   9        0.333072
  10        0.504179
  11        0.613714
  12        1.348093
  13        1.401901
  14        1.420216
  15        1.554078
  16        1.730015
  17        1.967667
  18        2.662307
  19        2.677934
  20        2.848873
  21        3.542600
  22        3.613820
  23        3.660848
  24        3.714452
  25        3.752508
  26        4.038865
  27        4.541795
  28        4.595869
  29        4.635148
  30        4.756421
  31        4.813288
  32        4.884227
  33        4.934967
  34        5.058109
  35        5.240600
  36        5.718879
  37        5.833057
  38        6.333838
  39        6.737641
  40        6.763528
  41        6.797372
  42        6.970646
  43        7.014342
  44        7.072857
  45        7.115542
  46        7.814741
  47        7.846212
  48        7.940232
  49        8.080488
  50        8.165377
  51        8.229206
  52        8.258021
  53        8.330126
  54        8.416485
  55        9.091722
  56        9.154865
  57        9.165293
  58        9.395687
  59        9.417618
  60        9.480011
  61        9.997631
  62       10.044326
 
 -0.2500000E+00  0.2500000E+00  0.2500000E+00  0.5000000E+00
   1       -2.955792
   2       -1.916243
   3       -1.815361
   4       -1.706253
   5       -0.800527
   6       -0.666184
   7       -0.519848
   8        0.299727
   9        0.400576
  10        0.434059
  11        0.685540
  12        1.376614
  13        1.460847
  14        1.473520
  15        1.506324
  16        1.727103
  17        1.872327
  18        2.630554
  19        2.735510
  20        2.772675
  21        3.553098
  22        3.626346
  23        3.654713
  24        3.689351
  25        3.765757
  26        4.007180
  27        4.571754
  28        4.654192
  29        4.676511
  30        4.723989
  31        4.743658
  32        4.915881
  33        4.934738
  34        5.055942
  35        5.180179
  36        5.731960
  37        5.951956
  38        6.261457
  39        6.756426
  40        6.776781
  41        6.881830
  42        7.005197
  43        7.023309
  44        7.059393
  45        7.135303
  46        7.846361
  47        7.912308
  48        7.978867
  49        8.068972
  50        8.128163
  51        8.137215
  52        8.181645
  53        8.227724
  54        8.277257
  55        9.135324
  56        9.158813
  57        9.303799
  58        9.397804
  59        9.402965
  60        9.482793
  61       10.002702
  62       10.028555
