       N       E                     dE             d eps       ncg     rms          rms(c)
RMM:   1     0.299850113456E+03    0.29985E+03   -0.16965E+04   124   0.643E+02
RMM:   2    -0.132570098757E+02   -0.31311E+03   -0.30887E+03   124   0.137E+02
RMM:   3    -0.850776733781E+02   -0.71821E+02   -0.75432E+02   124   0.469E+01
RMM:   4    -0.102062910893E+03   -0.16985E+02   -0.17202E+02   124   0.275E+01
RMM:   5    -0.108773341619E+03   -0.67104E+01   -0.56681E+01   124   0.150E+01
RMM:   6    -0.111333125377E+03   -0.25598E+01   -0.21496E+01   124   0.897E+00
RMM:   7    -0.112406111266E+03   -0.10730E+01   -0.90435E+00   124   0.551E+00
RMM:   8    -0.112914780674E+03   -0.50867E+00   -0.43455E+00   124   0.358E+00
RMM:   9    -0.113384483774E+03   -0.46970E+00   -0.43580E+00   298   0.236E+00
RMM:  10    -0.113511331038E+03   -0.12685E+00   -0.59788E-01   270   0.600E-01
RMM:  11    -0.113528626992E+03   -0.17296E-01   -0.49704E-02   232   0.159E-01
RMM:  12    -0.113529123520E+03   -0.49653E-03   -0.19330E-03   190   0.432E-02    0.588E+00
RMM:  13    -0.112049513736E+03    0.14796E+01   -0.49694E+00   248   0.281E+00    0.339E+00
RMM:  14    -0.111807875744E+03    0.24164E+00   -0.35780E-01   255   0.108E+00    0.205E+00
RMM:  15    -0.111701001953E+03    0.10687E+00   -0.13254E-01   252   0.754E-01    0.466E-01
RMM:  16    -0.111692975669E+03    0.80263E-02   -0.24330E-02   265   0.268E-01    0.976E-02
RMM:  17    -0.111692311219E+03    0.66445E-03   -0.34238E-03   250   0.105E-01    0.277E-02
RMM:  18    -0.111692305189E+03    0.60302E-05   -0.23781E-04   181   0.352E-02
   1 F= -.11169231E+03 E0= -.11167422E+03  d E =-.111692E+03
       N       E                     dE             d eps       ncg     rms          rms(c)
RMM:   1    -0.112099429122E+03   -0.40712E+00   -0.30609E+00   248   0.500E+00    0.357E-01
RMM:   2    -0.112084605678E+03    0.14823E-01   -0.59210E-02   252   0.658E-01    0.148E-01
RMM:   3    -0.112083420255E+03    0.11854E-02   -0.82009E-03   257   0.209E-01    0.622E-02
RMM:   4    -0.112083444658E+03   -0.24403E-04   -0.60277E-04   208   0.593E-02
   2 F= -.11208344E+03 E0= -.11206792E+03  d E =-.391139E+00
       N       E                     dE             d eps       ncg     rms          rms(c)
RMM:   1    -0.112612630640E+03   -0.52921E+00   -0.23299E+01   248   0.137E+01    0.869E-01
RMM:   2    -0.112535824603E+03    0.76806E-01   -0.40675E-01   258   0.175E+00    0.428E-01
RMM:   3    -0.112525055042E+03    0.10770E-01   -0.10473E-01   252   0.640E-01    0.159E-01
RMM:   4    -0.112524025213E+03    0.10298E-02   -0.74427E-03   266   0.173E-01    0.109E-01
RMM:   5    -0.112524120950E+03   -0.95737E-04   -0.72352E-04   257   0.693E-02
   3 F= -.11252412E+03 E0= -.11251212E+03  d E =-.831816E+00
       N       E                     dE             d eps       ncg     rms          rms(c)
RMM:   1    -0.112565323682E+03   -0.41298E-01   -0.60083E-01   248   0.224E+00    0.159E-01
RMM:   2    -0.112562630558E+03    0.26931E-02   -0.10511E-02   259   0.288E-01    0.670E-02
RMM:   3    -0.112562419466E+03    0.21109E-03   -0.19883E-03   245   0.939E-02    0.260E-02
RMM:   4    -0.112562427984E+03   -0.85179E-05   -0.26977E-04   179   0.313E-02
   4 F= -.11256243E+03 E0= -.11255039E+03  d E =-.383070E-01
       N       E                     dE             d eps       ncg     rms          rms(c)
RMM:   1    -0.112576272561E+03   -0.13853E-01   -0.51926E-01   248   0.209E+00    0.147E-01
RMM:   2    -0.112574054640E+03    0.22179E-02   -0.91106E-03   258   0.269E-01    0.632E-02
RMM:   3    -0.112573881405E+03    0.17323E-03   -0.16284E-03   243   0.852E-02    0.253E-02
RMM:   4    -0.112573886801E+03   -0.53955E-05   -0.19018E-04   170   0.276E-02
   5 F= -.11257389E+03 E0= -.11256089E+03  d E =-.497659E-01
