 vasp.5.2.2 15Apr09 complex 
 executed on             LinuxIFC date 2014.04.24  09:54:30
 running on    1 nodes
 distr:  one band on    1 nodes,    1 groups


--------------------------------------------------------------------------------------------------------


 INCAR:
 POTCAR:   PAW_PBE Mg 05Jan2001                   
 POTCAR:   PAW_PBE Al 04Jan2001                   
 POTCAR:   PAW_PBE Mg 05Jan2001                   
   VRHFIN =Mg: s2p0                                                             
   LEXCH  = PE                                                                  
   EATOM  =    23.0029 eV,    1.6907 Ry                                         
                                                                                
   TITEL  = PAW_PBE Mg 05Jan2001                                                
   LULTRA =        F    use ultrasoft PP ?                                      
   IUNSCR =        1    unscreen: 0-lin 1-nonlin 2-no                           
   RPACOR =    2.000    partial core radius                                     
   POMASS =   24.305; ZVAL   =    2.000    mass and valenz                      
   RCORE  =    2.000    outmost cutoff radius                                   
   RWIGS  =    2.880; RWIGS  =    1.524    wigner-seitz radius (au A)           
   ENMAX  =  210.012; ENMIN  =  157.509 eV                                      
   ICORE  =        2    local potential                                         
   LCOR   =        T    correct aug charges                                     
   LPAW   =        T    paw PP                                                  
   EAUG   =  274.554                                                            
   DEXC   =    -.136                                                            
   RMAX   =    3.182    core radius for proj-oper                               
   RAUG   =    1.300    factor for augmentation sphere                          
   RDEP   =    2.025    radius for radial grids                                 
   QCUT   =   -3.929; QGAM   =    7.858    optimization parameters              
                                                                                
   Description                                                                  
     l     E      TYP  RCUT    TYP  RCUT                                        
     0   .000     23  2.000                                                     
     0  2.000     23  2.000                                                     
     1   .000     23  2.000                                                     
     1  2.000     23  2.000                                                     
     2   .000     23  2.000                                                     
  local pseudopotential read in
  partial core-charges read in
  atomic valenz-charges read in
  non local Contribution for L=           0  read in
    real space projection operators read in
  non local Contribution for L=           0  read in
    real space projection operators read in
  non local Contribution for L=           1  read in
    real space projection operators read in
  non local Contribution for L=           1  read in
    real space projection operators read in
    PAW grid and wavefunctions read in
 
   number of l-projection  operators is LMAX  =           4
   number of lm-projection operators is LMMAX =           8
 
 POTCAR:   PAW_PBE Al 04Jan2001                   
   VRHFIN =Al: s2p1                                                             
   LEXCH  = PE                                                                  
   EATOM  =    53.5387 eV,    3.9350 Ry                                         
                                                                                
   TITEL  = PAW_PBE Al 04Jan2001                                                
   LULTRA =        F    use ultrasoft PP ?                                      
   IUNSCR =        1    unscreen: 0-lin 1-nonlin 2-no                           
   RPACOR =    1.500    partial core radius                                     
   POMASS =   26.982; ZVAL   =    3.000    mass and valenz                      
   RCORE  =    1.900    outmost cutoff radius                                   
   RWIGS  =    2.650; RWIGS  =    1.402    wigner-seitz radius (au A)           
   ENMAX  =  240.300; ENMIN  =  180.225 eV                                      
   ICORE  =        2    local potential                                         
   LCOR   =        T    correct aug charges                                     
   LPAW   =        T    paw PP                                                  
   EAUG   =  291.052                                                            
   DEXC   =    -.041                                                            
   RMAX   =    2.974    core radius for proj-oper                               
   RAUG   =    1.300    factor for augmentation sphere                          
   RDEP   =    1.966    radius for radial grids                                 
   QCUT   =   -4.203; QGAM   =    8.405    optimization parameters              
                                                                                
   Description                                                                  
     l     E      TYP  RCUT    TYP  RCUT                                        
     0   .000     23  1.900                                                     
     0   .000     23  1.900                                                     
     1   .000     23  1.900                                                     
     1  1.000     23  1.900                                                     
     2   .000      7  1.900                                                     
  local pseudopotential read in
  partial core-charges read in
  atomic valenz-charges read in
  non local Contribution for L=           0  read in
    real space projection operators read in
  non local Contribution for L=           0  read in
    real space projection operators read in
  non local Contribution for L=           1  read in
    real space projection operators read in
  non local Contribution for L=           1  read in
    real space projection operators read in
    PAW grid and wavefunctions read in
 
   number of l-projection  operators is LMAX  =           4
   number of lm-projection operators is LMMAX =           8
 

 ----------------------------------------------------------------------------- 
|                                                                             |
|  ADVICE TO THIS USER RUNNING 'VASP/VAMP'   (HEAR YOUR MASTER'S VOICE ...):  |
|                                                                             |
|      You have a (more or less) 'large supercell' and for larger cells       |
|      it might be more efficient to use real space projection operators      |
|      So try LREAL= Auto  in the INCAR   file.                               |
|      Mind: If you want to do a very accurate calculations keep the          |
|      reciprocal projection scheme          (i.e. LREAL=.FALSE.)             |
|                                                                             |
 ----------------------------------------------------------------------------- 

 PAW_PBE Mg 05Jan2001                   :
 energy of atom  1       EATOM=  -23.0029
 kinetic energy error for atom=    0.0002 (will be added to EATOM!!)
 PAW_PBE Al 04Jan2001                   :
 energy of atom  2       EATOM=  -53.5387
 kinetic energy error for atom=    0.0011 (will be added to EATOM!!)
 
 
 POSCAR: Mg1 Al30                                
  positions in direct lattice
  velocities in cartesian coordinates
 exchange correlation table for  LEXCH =        8
   RHO(1)=    0.500       N(1)  =     2000
   RHO(2)=  100.500       N(2)  =     4000

 VTST: version 2.03d, (02/18/09)

 CHAIN: initializing optimizer
 
 OPT: Using VASP Conjugate-Gradient optimizer
 CHAIN: Read ICHAIN            0
 


--------------------------------------------------------------------------------------------------------


 ion  position               nearest neighbor table
   1  0.256  0.500  0.256-   4 3.00   5 3.00  11 3.00  12 3.00  13 3.00  25 3.00  16 3.02  19 3.02
                             9 3.02  27 3.02  10 3.04
   2  0.994  0.000  0.994-  22 2.77  20 2.77  28 2.77  15 2.77   8 2.77  18 2.82   7 2.82   5 2.82
                            11 2.82  12 2.82   4 2.82   3 2.93
   3  0.250  0.000  0.250-   9 2.81  16 2.81  19 2.81  27 2.81  12 2.86   5 2.86   4 2.86  11 2.86
                            21 2.88  17 2.91   6 2.91   2 2.93
   4  0.248  0.240  0.991-  18 2.72  20 2.81  24 2.82   2 2.82  26 2.83   6 2.83   3 2.86   9 2.94
                             5 2.94  10 2.96   1 3.00  13 3.01
   5  0.991  0.240  0.248-   7 2.72   8 2.81  23 2.82   2 2.82  14 2.83  17 2.83   3 2.86  19 2.94
                             4 2.94  10 2.96   1 3.00  25 3.01
   6  0.504  0.000  0.995-   9 2.72  16 2.72  24 2.76  31 2.76  22 2.81   8 2.82  15 2.82  11 2.83
                             4 2.83  18 2.85   7 2.87   3 2.91
   7  0.754  0.000  0.247-   9 2.70  16 2.70  12 2.72   5 2.72   2 2.82  15 2.83   8 2.83  17 2.85
                            23 2.87  30 2.87   6 2.87  21 2.90
   8  0.753  0.243  0.995-  20 2.77   2 2.77  22 2.78  24 2.79   9 2.79   5 2.81   6 2.82  10 2.83
                             7 2.83  13 2.83  29 2.84  14 2.86
   9  0.511  0.229  0.242-   7 2.70   6 2.72   8 2.79  21 2.80   3 2.81  23 2.91   4 2.94  14 2.96
                            13 3.00   1 3.02  19 3.08
  10  0.990  0.500  0.990-  29 2.67  26 2.76  14 2.76  20 2.83   8 2.83  28 2.83  15 2.83  11 2.96
                            12 2.96   5 2.96   4 2.96   1 3.04
  11  0.248  0.760  0.991-  18 2.72  28 2.81  31 2.82   2 2.82  26 2.83   6 2.83   3 2.86  16 2.94
                            12 2.94  10 2.96   1 3.00  13 3.01
  12  0.991  0.760  0.248-   7 2.72  15 2.81  30 2.82   2 2.82  14 2.83  17 2.83   3 2.86  27 2.94
                            11 2.94  10 2.96   1 3.00  25 3.01
  13  0.514  0.500  0.989-  29 2.71  24 2.81  31 2.81  14 2.82  15 2.83   8 2.83  26 2.91   9 3.00
                            16 3.00   1 3.00  11 3.01   4 3.01
  14  0.756  0.500  0.239-  10 2.76  13 2.82  12 2.83   5 2.83   8 2.86  15 2.86  25 2.91  16 2.96
                             9 2.96  23 3.00  30 3.00
  15  0.753  0.757  0.995-  28 2.77   2 2.77  22 2.78  31 2.79  16 2.79  12 2.81   6 2.82  10 2.83
                             7 2.83  13 2.83  29 2.84  14 2.86
  16  0.511  0.771  0.242-   7 2.70   6 2.72  15 2.79  21 2.80   3 2.81  30 2.91  11 2.94  14 2.96
                            13 3.00   1 3.02  27 3.08
  17  0.995  0.000  0.504-  19 2.72  27 2.72  23 2.76  30 2.76  22 2.81  28 2.82  20 2.82  12 2.83
                             5 2.83   7 2.85  18 2.87   3 2.91
  18  0.247  0.000  0.754-  19 2.70  27 2.70   4 2.72  11 2.72   2 2.82  20 2.83  28 2.83   6 2.85
                            24 2.87  31 2.87  17 2.87  21 2.90
  19  0.242  0.229  0.511-  18 2.70  17 2.72  20 2.79  21 2.80   3 2.81  24 2.91   5 2.94  26 2.96
                            25 3.00   1 3.02   9 3.08
  20  0.995  0.243  0.753-   8 2.77   2 2.77  22 2.78  23 2.79  19 2.79   4 2.81  17 2.82  10 2.83
                            18 2.83  25 2.83  29 2.84  26 2.86
  21  0.502  0.000  0.502-   9 2.80  16 2.80  19 2.80  27 2.80  24 2.84  23 2.84  30 2.84  31 2.84
                            22 2.86   3 2.88  18 2.90   7 2.90
  22  0.752  0.000  0.752-   2 2.77   8 2.78  15 2.78  20 2.78  28 2.78  24 2.80  23 2.80  30 2.80
                            31 2.80   6 2.81  17 2.81  21 2.86
  23  0.755  0.242  0.505-  17 2.76  20 2.79  22 2.80  25 2.81   5 2.82  21 2.84  24 2.86   7 2.87
                             9 2.91  29 2.91  14 3.00
  24  0.505  0.242  0.755-   6 2.76   8 2.79  22 2.80  13 2.81   4 2.82  21 2.84  23 2.86  18 2.87
                            19 2.91  29 2.91  26 3.00
  25  0.989  0.500  0.514-  29 2.71  23 2.81  30 2.81  26 2.82  20 2.83  28 2.83  14 2.91  27 3.00
                            19 3.00   1 3.00  12 3.01   5 3.01
  26  0.239  0.500  0.756-  10 2.76  25 2.82  11 2.83   4 2.83  20 2.86  28 2.86  13 2.91  27 2.96
                            19 2.96  24 3.00  31 3.00
  27  0.242  0.771  0.511-  18 2.70  17 2.72  28 2.79  21 2.80   3 2.81  31 2.91  12 2.94  26 2.96
                            25 3.00   1 3.02  16 3.08
  28  0.995  0.757  0.753-  15 2.77   2 2.77  22 2.78  30 2.79  27 2.79  11 2.81  17 2.82  10 2.83
                            18 2.83  25 2.83  29 2.84  26 2.86
  29  0.756  0.500  0.756-  10 2.67  13 2.71  25 2.71  15 2.84  20 2.84   8 2.84  28 2.84  23 2.91
                            24 2.91  30 2.91  31 2.91
  30  0.755  0.758  0.505-  17 2.76  28 2.79  22 2.80  25 2.81  12 2.82  21 2.84  31 2.86   7 2.87
                            16 2.91  29 2.91  14 3.00
  31  0.505  0.758  0.755-   6 2.76  15 2.79  22 2.80  13 2.81  11 2.82  21 2.84  30 2.86  18 2.87
                            27 2.91  29 2.91  26 3.00
 
  LATTYP: Found a simple cubic cell.
 ALAT       =     8.0870540000
  
  Lattice vectors:
  
 A1 = (   8.0870540000,   0.0000000000,   0.0000000000)
 A2 = (   0.0000000000,   8.0870540000,   0.0000000000)
 A3 = (   0.0000000000,   0.0000000000,   8.0870540000)
 Subroutine PRICEL returns:
 Original cell was already a primitive cell.
 

Analysis of symmetry for initial positions (statically):

 Routine SETGRP: Setting up the symmetry group for a 
 simple cubic supercell.


 Subroutine GETGRP returns: Found  4 space group operations
 (whereof  4 operations were pure point group operations)
 out of a pool of 48 trial point group operations.


The static configuration has the point symmetry C_2v.

Analysis of symmetry for dynamics (positions and initial velocities):

 Subroutine DYNSYM returns: Found  4 space group operations
 (whereof  4 operations were pure point group operations)
 out of a pool of  4 trial space group operations
 (whereof  4 operations were pure point group operations)
 and found also     1 'primitive' translations


The dynamic configuration has the point symmetry C_2v.
 
 
 KPOINTS: Automatic kpoint scheme                 

Automatic generation of k-mesh.
 
 Subroutine IBZKPT returns following result:
 ===========================================
 
 Found      2 irreducible k-points:
 
 Following reciprocal coordinates:
            Coordinates               Weight
  0.250000  0.250000  0.250000      4.000000
 -0.250000  0.250000  0.250000      4.000000
 
 Following cartesian coordinates:
            Coordinates               Weight
  0.030914  0.030914  0.030914      4.000000
 -0.030914  0.030914  0.030914      4.000000
 


--------------------------------------------------------------------------------------------------------




 Dimension of arrays:
   k-points           NKPTS =      2   k-points in BZ     NKDIM =      2   number of bands    NBANDS=     62
   number of dos      NEDOS =    301   number of ions     NIONS =     31
   non local maximal  LDIM  =      4   non local SUM 2l+1 LMDIM =      8
   total plane-waves  NPLWV = 110592
   max r-space proj   IRMAX =      1   max aug-charges    IRDMAX=   9081
   dimension x,y,z NGX =    48 NGY =   48 NGZ =   48
   dimension x,y,z NGXF=    96 NGYF=   96 NGZF=   96
   support grid    NGXF=    96 NGYF=   96 NGZF=   96
   ions per type =               1  30
 NGX,Y,Z   is equivalent  to a cutoff of   9.87,  9.87,  9.87 a.u.
 NGXF,Y,Z  is equivalent  to a cutoff of  19.73, 19.73, 19.73 a.u.


 I would recommend the setting:
   dimension x,y,z NGX =    46 NGY =   46 NGZ =   46
 SYSTEM =  unknown system                          
 POSCAR =  Mg1 Al30                                

 Startparameter for this run:
   NWRITE =      2    write-flag & timer
   PREC   = accura    medium, high low
   ISTART =      0    job   : 0-new  1-cont  2-samecut
   ICHARG =      2    charge: 1-file 2-atom 10-const
   ISPIN  =      1    spin polarized calculation?
   LNONCOLLINEAR =      F non collinear calculations
   LSORBIT =      F    spin-orbit coupling
   INIWAV =      1    electr: 0-lowe 1-rand  2-diag
   LASPH  =      F    aspherical Exc in radial PAW
   METAGGA=      F    non-selfconsistent MetaGGA calc.

 Electronic Relaxation 1
   ENCUT  =  300.0 eV  22.05 Ry    4.70 a.u.  11.42 11.42 11.42*2*pi/ulx,y,z
   ENINI  =  300.0     initial cutoff
   ENAUG  =  291.1 eV  augmentation charge cutoff
   NELM   =     60;   NELMIN=  2; NELMDL=-12     # of ELM steps 
   EDIFF  = 0.1E-03   stopping-criterion for ELM
   LREAL  =      F    real-space projection
   LCOMPAT=      F    compatible to vasp.4.4
   LREAL_COMPAT= F    compatible to vasp.4.5.1-3
   GGA_COMPAT  = T    GGA compatible to vasp.4.4-vasp.4.6
   LMAXPAW     = -100 max onsite density
   LMAXMIX     =    2 max onsite mixed and CHGCAR
   VOSKOWN=      0    Vosko Wilk Nusair interpolation
   ROPT   =    0.00000   0.00000
 Ionic relaxation
   EDIFFG = 0.5E-01   stopping-criterion for IOM
   NSW    =    191    number of steps for IOM
   NBLOCK =      1;   KBLOCK =    191    inner block; outer block 
   IBRION =      2    ionic relax: 0-MD 1-quasi-New 2-CG
   NFREE  =      1    steps in history (QN), initial steepest desc. (CG)
   ISIF   =      2    stress and relaxation
   IWAVPR =     11    prediction:  0-non 1-charg 2-wave 3-comb
   ISYM   =      2    0-nonsym 1-usesym 2-fastsym
   LCORR  =      T    Harris-Foulkes like correction to forces

   POTIM  = 0.5000    time-step for ionic-motion
   TEIN   =    0.0    initial temperature
   TEBEG  =    0.0;   TEEND  =   0.0 temperature during run
   SMASS  =  -3.00    Nose mass-parameter (am)
   estimated Nose-frequenzy (Omega)   =  0.10E-29 period in steps =****** mass=  -0.149E-26a.u.
   NPACO  =    256;   APACO  = 16.0  distance and # of slots for P.C.
   PSTRESS=    0.0 pullay stress

  Mass of Ions in am
   POMASS =  24.30 26.98
  Ionic Valenz
   ZVAL   =   2.00  3.00
  Atomic Wigner-Seitz radii
   RWIGS  =  -1.00 -1.00
   NELECT =      92.0000    total number of electrons
   NUPDOWN=      -1.0000    fix difference up-down

 DOS related values:
   EMIN   =  10.00;   EMAX   =-10.00  energy-range for DOS
   EFERMI =   0.00
   ISMEAR =     1;   SIGMA  =   0.20  broadening in eV -4-tet -1-fermi 0-gaus

 Electronic relaxation 2 (details)
   IALGO  =     48    algorithm
   LDIAG  =      T    sub-space diagonalisation
   IMIX   =      4    mixing-type and parameters
     AMIX     =   0.40;   BMIX     =  1.00
     AMIX_MAG =   1.60;   BMIX_MAG =  1.00
     AMIN     =   0.10
     WC   =   100.;   INIMIX=   1;  MIXPRE=   1

 Intra band minimization:
   WEIMIN = 0.0010     energy-eigenvalue tresh-hold
   EBREAK =  0.40E-06  absolut break condition
   DEPER  =   0.30     relativ break condition  

   TIME   =   0.40     timestep for ELM

  volume/ion in A,a.u.               =      17.06       115.13
  Fermi-wavevector in a.u.,A,eV,Ry     =   0.913862  1.726948 11.362811  0.835143
  Thomas-Fermi vector in A             =   2.038422
 
 Write flags
   LWAVE  =      F    write WAVECAR
   LCHARG =      F    write CHGCAR
   LVTOT  =      F    write LOCPOT, local potential
   LELF   =      F    write electronic localiz. function (ELF)
   LORBIT =      0    0 simple, 1 ext, 2 COOP (PROOUT)


 Dipole corrections
   LMONO  =      F    monopole corrections only (constant potential shift)
   LDIPOL =      F    correct potential (dipole corrections)
   IDIPOL =      0    1-x, 2-y, 3-z, 4-all directions 
   EPSILON=  1.0000000 bulk dielectric constant

 Exchange correlation treatment:
   GGA     =    --    GGA type
   LEXCH   =     8    internal setting for exchange type
   VOSKOWN=      0    Vosko Wilk Nusair interpolation
   LHFCALC =     F    Hartree Fock is set to
   LHFONE  =     F    Hartree Fock one center treatment
   AEXX    =    0.0000 exact exchange contribution

 Linear response parameters
   LEPSILON=     F    determine dielectric tensor
   LRPA    =     F    only Hartree local field effects (RPA)
   LNABLA  =     F    use nabla operator in PAW spheres
   LVEL    =     F    velocity operator in full k-point grid
   LINTERFAST=   F  fast interpolation
   KINTER  =     0    interpolate to denser k-point grid
   CSHIFT  =0.1000    complex shift for real part using Kramers Kronig
   OMEGAMAX=  -1.0    maximum frequency

 Orbital magnetization related:
   ORBITALMAG=     F  switch on orbital magnetization
   LCHIMAG   =     F  perturbation theory with respect to B field



--------------------------------------------------------------------------------------------------------


 conjugate gradient relaxation of ions
 charge density and potential will be updated during run
 non-spin polarized calculation
 RMM-DIIS sequential band-by-band
 perform sub-space diagonalisation
    before iterative eigenvector-optimisation
 modified Broyden-mixing scheme, WC =      100.0
 initial mixing is a Kerker type mixing with AMIX =  0.4000 and BMIX =      1.0000
 Hartree-type preconditioning will be used
 using additional bands           16
 reciprocal scheme for non local part
 use partial core corrections
 calculate Harris-corrections to forces 
   (improved forces if not selfconsistent)
 use gradient corrections 
 use of overlap-Matrix (Vanderbilt PP)
 Methfessel and Paxton  Order N= 1 SIGMA  =   0.20


--------------------------------------------------------------------------------------------------------


  energy-cutoff  :      300.00
  volume of cell :      528.90
      direct lattice vectors                 reciprocal lattice vectors
     8.087054000  0.000000000  0.000000000     0.123654423  0.000000000  0.000000000
     0.000000000  8.087054000  0.000000000     0.000000000  0.123654423  0.000000000
     0.000000000  0.000000000  8.087054000     0.000000000  0.000000000  0.123654423

  length of vectors
     8.087054000  8.087054000  8.087054000     0.123654423  0.123654423  0.123654423


 
 k-points in units of 2pi/SCALE and weight: Automatic kpoint scheme                 
   0.03091361  0.03091361  0.03091361       0.500
  -0.03091361  0.03091361  0.03091361       0.500
 
 k-points in reciprocal lattice and weights: Automatic kpoint scheme                 
   0.25000000  0.25000000  0.25000000       0.500
  -0.25000000  0.25000000  0.25000000       0.500
 
 position of ions in fractional coordinates (direct lattice) 
   0.25582600  0.50000000  0.25582600
   0.99445400  0.00000000  0.99445400
   0.25037600  0.00000000  0.25037600
   0.24825500  0.23979600  0.99090900
   0.99090900  0.23979600  0.24825500
   0.50386100  0.00000000  0.99478200
   0.75436500  0.00000000  0.24670000
   0.75271400  0.24348300  0.99530600
   0.51118800  0.22861400  0.24179100
   0.98997300  0.50000000  0.98997300
   0.24825500  0.76020400  0.99090900
   0.99090900  0.76020400  0.24825500
   0.51394800  0.50000000  0.98858200
   0.75628400  0.50000000  0.23917100
   0.75271400  0.75651700  0.99530600
   0.51118800  0.77138600  0.24179100
   0.99478200  0.00000000  0.50386100
   0.24670000  0.00000000  0.75436500
   0.24179100  0.22861400  0.51118800
   0.99530600  0.24348300  0.75271400
   0.50187200  0.00000000  0.50187200
   0.75216600  0.00000000  0.75216600
   0.75527300  0.24240900  0.50529100
   0.50529100  0.24240900  0.75527300
   0.98858200  0.50000000  0.51394800
   0.23917100  0.50000000  0.75628400
   0.24179100  0.77138600  0.51118800
   0.99530600  0.75651700  0.75271400
   0.75618700  0.50000000  0.75618700
   0.75527300  0.75759100  0.50529100
   0.50529100  0.75759100  0.75527300
 
 position of ions in cartesian coordinates  (Angst):
   2.06887868  4.04352700  2.06887868
   8.04220320  0.00000000  8.04220320
   2.02480423  0.00000000  2.02480423
   2.00765159  1.93924320  8.01353459
   8.01353459  1.93924320  2.00765159
   4.07475112  0.00000000  8.04485575
   6.10059049  0.00000000  1.99507622
   6.08723876  1.96906017  8.04909337
   4.13400496  1.84881376  1.95537687
   8.00596511  4.04352700  8.00596511
   2.00765159  6.14781080  8.01353459
   8.01353459  6.14781080  2.00765159
   4.15632523  4.04352700  7.99471602
   6.11610955  4.04352700  1.93418879
   6.08723876  6.11799383  8.04909337
   4.13400496  6.23824024  1.95537687
   8.04485575  0.00000000  4.07475112
   1.99507622  0.00000000  6.10059049
   1.95537687  1.84881376  4.13400496
   8.04909337  1.96906017  6.08723876
   4.05866597  0.00000000  4.05866597
   6.08280706  0.00000000  6.08280706
   6.10793354  1.96037467  4.08631560
   4.08631560  1.96037467  6.10793354
   7.99471602  4.04352700  4.15632523
   1.93418879  4.04352700  6.11610955
   1.95537687  6.23824024  4.13400496
   8.04909337  6.11799383  6.08723876
   6.11532510  4.04352700  6.11532510
   6.10793354  6.12667933  4.08631560
   4.08631560  6.12667933  6.10793354
 


--------------------------------------------------------------------------------------------------------


 k-point  1 :  0.25000.25000.2500  plane waves:    6238
 k-point  2 :  -.25000.25000.2500  plane waves:    6238

 maximum and minimum number of plane-waves per node :    6238   6238

 maximum number of plane-waves:    6238
 maximal index in each direction: 
   IXMAX= 11   IYMAX= 11   IZMAX= 11
   IXMIN=-11   IYMIN=-11   IZMIN=-11

 NGX is ok and might be reduce to  46
 NGY is ok and might be reduce to  46
 NGZ is ok and might be reduce to  46

 serial   3D FFT for wavefunctions
 parallel 3D FFT for charge:
    minimum data exchange during FFTs selected (reduces bandwidth)


 total amount of memory used by VASP on root node 133132. kBytes
========================================================================

   base      :    30000. kBytes
   nonl-proj :     4690. kBytes
   fftplans  :    30736. kBytes
   grid      :    54743. kBytes
   one-center:       95. kBytes
   wavefun   :    12868. kBytes
 
 Broyden mixing: mesh for mixing (old mesh)
   NGX = 23   NGY = 23   NGZ = 23
  (NGX  = 96   NGY  = 96   NGZ  = 96)
  gives a total of  12167 points

 initial charge density was supplied:
 charge density of overlapping atoms calculated
 number of electron   92.0000000 magnetization 
 keeping initial charge density in first step


--------------------------------------------------------------------------------------------------------


 Maximum index for augmentation-charges         8604 (set IRDMAX)


--------------------------------------------------------------------------------------------------------


 First call to EWALD:  gamma=   0.219
 Maximum number of real-space cells 3x 3x 3
 Maximum number of reciprocal cells 3x 3x 3

    FEWALD:  cpu time    0.07: real time    0.02
   RESPFUN:  cpu time    0.00: real time    0.00


----------------------------------------- Iteration    1(   1)  ---------------------------------------


    POTLOK:  cpu time    2.04: real time    2.00
    SETDIJ:  cpu time    0.16: real time    0.16
    EDDIAG:  cpu time    4.97: real time    3.28
  RMM-DIIS:  cpu time   21.96: real time    7.18
    ORTHCH:  cpu time    0.33: real time    0.08
       DOS:  cpu time    0.00: real time    0.00
    --------------------------------------------
      LOOP:  cpu time   29.46: real time   12.69

 eigenvalue-minimisations  :   124
 total energy-change (2. order) : 0.2998501E+03  (-0.1696472E+04)
 number of electron   92.0000000 magnetization 
 augmentation part    92.0000000 magnetization 

 Free energy of the ion-electron system (eV)
  ---------------------------------------------------
  alpha Z        PSCENC =        -7.38312591
  Ewald energy   TEWEN  =     -2141.88290947
  -1/2 Hartree   DENC   =       -54.33618865
  -exchange  EXHF       =         0.00000000
  -V(xc)+E(xc)   XCENC  =      -795.81289023
  PAW double counting   =      1078.21717227     -108.50372521
  entropy T*S    EENTRO =         0.05336767
  eigenvalues    EBANDS =       700.36697191
  atomic energy  EATOM  =      1629.13144109
  ---------------------------------------------------
  free energy    TOTEN  =       299.85011346 eV

  energy without entropy =      299.79674579  energy(sigma->0) =      299.83232423


--------------------------------------------------------------------------------------------------------




----------------------------------------- Iteration    1(   2)  ---------------------------------------


    EDDIAG:  cpu time    4.75: real time    3.18
  RMM-DIIS:  cpu time   21.37: real time    7.09
    ORTHCH:  cpu time    0.34: real time    0.08
       DOS:  cpu time    0.01: real time    0.00
    --------------------------------------------
      LOOP:  cpu time   26.47: real time   10.36

 eigenvalue-minimisations  :   124
 total energy-change (2. order) :-0.3131071E+03  (-0.3088739E+03)
 number of electron   92.0000000 magnetization 
 augmentation part    92.0000000 magnetization 

 Free energy of the ion-electron system (eV)
  ---------------------------------------------------
  alpha Z        PSCENC =        -7.38312591
  Ewald energy   TEWEN  =     -2141.88290947
  -1/2 Hartree   DENC   =       -54.33618865
  -exchange  EXHF       =         0.00000000
  -V(xc)+E(xc)   XCENC  =      -795.81289023
  PAW double counting   =      1078.21717227     -108.50372521
  entropy T*S    EENTRO =        -0.02706824
  eigenvalues    EBANDS =       387.34028448
  atomic energy  EATOM  =      1629.13144109
  ---------------------------------------------------
  free energy    TOTEN  =       -13.25700988 eV

  energy without entropy =      -13.22994164  energy(sigma->0) =      -13.24798713


--------------------------------------------------------------------------------------------------------




----------------------------------------- Iteration    1(   3)  ---------------------------------------


    EDDIAG:  cpu time    4.93: real time    3.23
  RMM-DIIS:  cpu time   21.46: real time    7.10
    ORTHCH:  cpu time    0.34: real time    0.08
       DOS:  cpu time    0.01: real time    0.00
    --------------------------------------------
      LOOP:  cpu time   26.74: real time   10.42

 eigenvalue-minimisations  :   124
 total energy-change (2. order) :-0.7182066E+02  (-0.7543154E+02)
 number of electron   92.0000000 magnetization 
 augmentation part    92.0000000 magnetization 

 Free energy of the ion-electron system (eV)
  ---------------------------------------------------
  alpha Z        PSCENC =        -7.38312591
  Ewald energy   TEWEN  =     -2141.88290947
  -1/2 Hartree   DENC   =       -54.33618865
  -exchange  EXHF       =         0.00000000
  -V(xc)+E(xc)   XCENC  =      -795.81289023
  PAW double counting   =      1078.21717227     -108.50372521
  entropy T*S    EENTRO =        -0.04246101
  eigenvalues    EBANDS =       315.53501375
  atomic energy  EATOM  =      1629.13144109
  ---------------------------------------------------
  free energy    TOTEN  =       -85.07767338 eV

  energy without entropy =      -85.03521237  energy(sigma->0) =      -85.06351971


--------------------------------------------------------------------------------------------------------




----------------------------------------- Iteration    1(   4)  ---------------------------------------


    EDDIAG:  cpu time    4.88: real time    3.22
  RMM-DIIS:  cpu time   21.61: real time    7.12
    ORTHCH:  cpu time    0.34: real time    0.08
       DOS:  cpu time    0.01: real time    0.00
    --------------------------------------------
      LOOP:  cpu time   26.89: real time   10.44

 eigenvalue-minimisations  :   124
 total energy-change (2. order) :-0.1698524E+02  (-0.1720194E+02)
 number of electron   92.0000000 magnetization 
 augmentation part    92.0000000 magnetization 

 Free energy of the ion-electron system (eV)
  ---------------------------------------------------
  alpha Z        PSCENC =        -7.38312591
  Ewald energy   TEWEN  =     -2141.88290947
  -1/2 Hartree   DENC   =       -54.33618865
  -exchange  EXHF       =         0.00000000
  -V(xc)+E(xc)   XCENC  =      -795.81289023
  PAW double counting   =      1078.21717227     -108.50372521
  entropy T*S    EENTRO =        -0.04016205
  eigenvalues    EBANDS =       298.54747728
  atomic energy  EATOM  =      1629.13144109
  ---------------------------------------------------
  free energy    TOTEN  =      -102.06291089 eV

  energy without entropy =     -102.02274884  energy(sigma->0) =     -102.04952354


--------------------------------------------------------------------------------------------------------




----------------------------------------- Iteration    1(   5)  ---------------------------------------


    EDDIAG:  cpu time    4.60: real time    3.22
  RMM-DIIS:  cpu time   21.63: real time    7.13
    ORTHCH:  cpu time    0.34: real time    0.08
       DOS:  cpu time    0.01: real time    0.00
    --------------------------------------------
      LOOP:  cpu time   26.67: real time   10.51

 eigenvalue-minimisations  :   124
 total energy-change (2. order) :-0.6710431E+01  (-0.5668140E+01)
 number of electron   92.0000000 magnetization 
 augmentation part    92.0000000 magnetization 

 Free energy of the ion-electron system (eV)
  ---------------------------------------------------
  alpha Z        PSCENC =        -7.38312591
  Ewald energy   TEWEN  =     -2141.88290947
  -1/2 Hartree   DENC   =       -54.33618865
  -exchange  EXHF       =         0.00000000
  -V(xc)+E(xc)   XCENC  =      -795.81289023
  PAW double counting   =      1078.21717227     -108.50372521
  entropy T*S    EENTRO =        -0.02883259
  eigenvalues    EBANDS =       291.82571709
  atomic energy  EATOM  =      1629.13144109
  ---------------------------------------------------
  free energy    TOTEN  =      -108.77334162 eV

  energy without entropy =     -108.74450903  energy(sigma->0) =     -108.76373076


--------------------------------------------------------------------------------------------------------




----------------------------------------- Iteration    1(   6)  ---------------------------------------


    EDDIAG:  cpu time    4.78: real time    3.20
  RMM-DIIS:  cpu time   21.72: real time    7.14
    ORTHCH:  cpu time    0.34: real time    0.08
       DOS:  cpu time    0.01: real time    0.00
    --------------------------------------------
      LOOP:  cpu time   26.91: real time   10.45

 eigenvalue-minimisations  :   124
 total energy-change (2. order) :-0.2559784E+01  (-0.2149571E+01)
 number of electron   92.0000000 magnetization 
 augmentation part    92.0000000 magnetization 

 Free energy of the ion-electron system (eV)
  ---------------------------------------------------
  alpha Z        PSCENC =        -7.38312591
  Ewald energy   TEWEN  =     -2141.88290947
  -1/2 Hartree   DENC   =       -54.33618865
  -exchange  EXHF       =         0.00000000
  -V(xc)+E(xc)   XCENC  =      -795.81289023
  PAW double counting   =      1078.21717227     -108.50372521
  entropy T*S    EENTRO =        -0.03826753
  eigenvalues    EBANDS =       289.27536827
  atomic energy  EATOM  =      1629.13144109
  ---------------------------------------------------
  free energy    TOTEN  =      -111.33312538 eV

  energy without entropy =     -111.29485785  energy(sigma->0) =     -111.32036954


--------------------------------------------------------------------------------------------------------




----------------------------------------- Iteration    1(   7)  ---------------------------------------


    EDDIAG:  cpu time    4.82: real time    3.19
  RMM-DIIS:  cpu time   21.82: real time    7.15
    ORTHCH:  cpu time    0.34: real time    0.08
       DOS:  cpu time    0.01: real time    0.00
    --------------------------------------------
      LOOP:  cpu time   27.00: real time   10.44

 eigenvalue-minimisations  :   124
 total energy-change (2. order) :-0.1072986E+01  (-0.9043530E+00)
 number of electron   92.0000000 magnetization 
 augmentation part    92.0000000 magnetization 

 Free energy of the ion-electron system (eV)
  ---------------------------------------------------
  alpha Z        PSCENC =        -7.38312591
  Ewald energy   TEWEN  =     -2141.88290947
  -1/2 Hartree   DENC   =       -54.33618865
  -exchange  EXHF       =         0.00000000
  -V(xc)+E(xc)   XCENC  =      -795.81289023
  PAW double counting   =      1078.21717227     -108.50372521
  entropy T*S    EENTRO =        -0.06983725
  eigenvalues    EBANDS =       288.23395210
  atomic energy  EATOM  =      1629.13144109
  ---------------------------------------------------
  free energy    TOTEN  =      -112.40611127 eV

  energy without entropy =     -112.33627402  energy(sigma->0) =     -112.38283218


--------------------------------------------------------------------------------------------------------




----------------------------------------- Iteration    1(   8)  ---------------------------------------


    EDDIAG:  cpu time    4.82: real time    3.19
  RMM-DIIS:  cpu time   21.93: real time    7.17
    ORTHCH:  cpu time    0.33: real time    0.08
       DOS:  cpu time    0.01: real time    0.00
    --------------------------------------------
      LOOP:  cpu time   27.10: real time   10.45

 eigenvalue-minimisations  :   124
 total energy-change (2. order) :-0.5086694E+00  (-0.4345457E+00)
 number of electron   92.0000000 magnetization 
 augmentation part    92.0000000 magnetization 

 Free energy of the ion-electron system (eV)
  ---------------------------------------------------
  alpha Z        PSCENC =        -7.38312591
  Ewald energy   TEWEN  =     -2141.88290947
  -1/2 Hartree   DENC   =       -54.33618865
  -exchange  EXHF       =         0.00000000
  -V(xc)+E(xc)   XCENC  =      -795.81289023
  PAW double counting   =      1078.21717227     -108.50372521
  entropy T*S    EENTRO =        -0.07797798
  eigenvalues    EBANDS =       287.73342342
  atomic energy  EATOM  =      1629.13144109
  ---------------------------------------------------
  free energy    TOTEN  =      -112.91478067 eV

  energy without entropy =     -112.83680270  energy(sigma->0) =     -112.88878801


--------------------------------------------------------------------------------------------------------




----------------------------------------- Iteration    1(   9)  ---------------------------------------


    EDDIAG:  cpu time    4.83: real time    3.26
  RMM-DIIS:  cpu time   52.14: real time   15.03
    ORTHCH:  cpu time    0.34: real time    0.08
       DOS:  cpu time    0.01: real time    0.00
    --------------------------------------------
      LOOP:  cpu time   57.40: real time   18.47

 eigenvalue-minimisations  :   298
 total energy-change (2. order) :-0.4697031E+00  (-0.4358002E+00)
 number of electron   92.0000000 magnetization 
 augmentation part    92.0000000 magnetization 

 Free energy of the ion-electron system (eV)
  ---------------------------------------------------
  alpha Z        PSCENC =        -7.38312591
  Ewald energy   TEWEN  =     -2141.88290947
  -1/2 Hartree   DENC   =       -54.33618865
  -exchange  EXHF       =         0.00000000
  -V(xc)+E(xc)   XCENC  =      -795.81289023
  PAW double counting   =      1078.21717227     -108.50372521
  entropy T*S    EENTRO =        -0.06716319
  eigenvalues    EBANDS =       287.25290554
  atomic energy  EATOM  =      1629.13144109
  ---------------------------------------------------
  free energy    TOTEN  =      -113.38448377 eV

  energy without entropy =     -113.31732058  energy(sigma->0) =     -113.36209604


--------------------------------------------------------------------------------------------------------




----------------------------------------- Iteration    1(  10)  ---------------------------------------


    EDDIAG:  cpu time    4.76: real time    3.18
  RMM-DIIS:  cpu time   46.48: real time   13.58
    ORTHCH:  cpu time    0.34: real time    0.08
       DOS:  cpu time    0.01: real time    0.00
    --------------------------------------------
      LOOP:  cpu time   51.59: real time   16.85

 eigenvalue-minimisations  :   270
 total energy-change (2. order) :-0.1268473E+00  (-0.5978834E-01)
 number of electron   92.0000000 magnetization 
 augmentation part    92.0000000 magnetization 

 Free energy of the ion-electron system (eV)
  ---------------------------------------------------
  alpha Z        PSCENC =        -7.38312591
  Ewald energy   TEWEN  =     -2141.88290947
  -1/2 Hartree   DENC   =       -54.33618865
  -exchange  EXHF       =         0.00000000
  -V(xc)+E(xc)   XCENC  =      -795.81289023
  PAW double counting   =      1078.21717227     -108.50372521
  entropy T*S    EENTRO =        -0.03750538
  eigenvalues    EBANDS =       287.09640046
  atomic energy  EATOM  =      1629.13144109
  ---------------------------------------------------
  free energy    TOTEN  =      -113.51133104 eV

  energy without entropy =     -113.47382566  energy(sigma->0) =     -113.49882924


--------------------------------------------------------------------------------------------------------




----------------------------------------- Iteration    1(  11)  ---------------------------------------


    EDDIAG:  cpu time    4.77: real time    3.20
  RMM-DIIS:  cpu time   40.54: real time   11.95
    ORTHCH:  cpu time    0.34: real time    0.08
       DOS:  cpu time    0.01: real time    0.00
    --------------------------------------------
      LOOP:  cpu time   45.73: real time   15.27

 eigenvalue-minimisations  :   232
 total energy-change (2. order) :-0.1729595E-01  (-0.4970372E-02)
 number of electron   92.0000000 magnetization 
 augmentation part    92.0000000 magnetization 

 Free energy of the ion-electron system (eV)
  ---------------------------------------------------
  alpha Z        PSCENC =        -7.38312591
  Ewald energy   TEWEN  =     -2141.88290947
  -1/2 Hartree   DENC   =       -54.33618865
  -exchange  EXHF       =         0.00000000
  -V(xc)+E(xc)   XCENC  =      -795.81289023
  PAW double counting   =      1078.21717227     -108.50372521
  entropy T*S    EENTRO =        -0.03741326
  eigenvalues    EBANDS =       287.07901239
  atomic energy  EATOM  =      1629.13144109
  ---------------------------------------------------
  free energy    TOTEN  =      -113.52862699 eV

  energy without entropy =     -113.49121373  energy(sigma->0) =     -113.51615591


--------------------------------------------------------------------------------------------------------




----------------------------------------- Iteration    1(  12)  ---------------------------------------


    EDDIAG:  cpu time    4.84: real time    3.21
  RMM-DIIS:  cpu time   32.86: real time    9.97
    ORTHCH:  cpu time    0.34: real time    0.08
       DOS:  cpu time    0.01: real time    0.00
    CHARGE:  cpu time    2.08: real time    1.98
    MIXING:  cpu time    0.06: real time    0.06
    --------------------------------------------
      LOOP:  cpu time   40.19: real time   15.31

 eigenvalue-minimisations  :   190
 total energy-change (2. order) :-0.4965281E-03  (-0.1933033E-03)
 number of electron   91.9999999 magnetization 
 augmentation part    -1.1009623 magnetization 

 Broyden mixing:
  rms(total) = 0.58781E+00    rms(broyden)= 0.58779E+00
  rms(prec ) = 0.13105E+01
  weight for this iteration     100.00

 Free energy of the ion-electron system (eV)
  ---------------------------------------------------
  alpha Z        PSCENC =        -7.38312591
  Ewald energy   TEWEN  =     -2141.88290947
  -1/2 Hartree   DENC   =       -54.33618865
  -exchange  EXHF       =         0.00000000
  -V(xc)+E(xc)   XCENC  =      -795.81289023
  PAW double counting   =      1078.21717227     -108.50372521
  entropy T*S    EENTRO =        -0.03736872
  eigenvalues    EBANDS =       287.07847132
  atomic energy  EATOM  =      1629.13144109
  ---------------------------------------------------
  free energy    TOTEN  =      -113.52912352 eV

  energy without entropy =     -113.49175480  energy(sigma->0) =     -113.51666728


--------------------------------------------------------------------------------------------------------




----------------------------------------- Iteration    1(  13)  ---------------------------------------


    POTLOK:  cpu time    2.41: real time    2.41
    SETDIJ:  cpu time    0.15: real time    0.15
    EDDIAG:  cpu time    5.31: real time    3.67
  RMM-DIIS:  cpu time   42.03: real time   12.63
    ORTHCH:  cpu time    0.34: real time    0.08
       DOS:  cpu time    0.01: real time    0.00
    CHARGE:  cpu time    2.06: real time    1.96
    MIXING:  cpu time    0.06: real time    0.06
    --------------------------------------------
      LOOP:  cpu time   52.36: real time   20.97

 eigenvalue-minimisations  :   248
 total energy-change (2. order) : 0.1479610E+01  (-0.4969435E+00)
 number of electron   91.9999999 magnetization 
 augmentation part    -1.1031023 magnetization 

 Broyden mixing:
  rms(total) = 0.33868E+00    rms(broyden)= 0.33868E+00
  rms(prec ) = 0.53717E+00
  weight for this iteration     100.00

 eigenvalues of (default mixing * dielectric matrix)
  average eigenvalue GAMMA=   1.7721
  1.7721

 Free energy of the ion-electron system (eV)
  ---------------------------------------------------
  alpha Z        PSCENC =        -7.38312591
  Ewald energy   TEWEN  =     -2141.88290947
  -1/2 Hartree   DENC   =       -60.15952428
  -exchange  EXHF       =         0.00000000
  -V(xc)+E(xc)   XCENC  =      -794.59766486
  PAW double counting   =      1081.37679528     -111.83086033
  entropy T*S    EENTRO =        -0.02995031
  eigenvalues    EBANDS =       293.32628506
  atomic energy  EATOM  =      1629.13144109
  ---------------------------------------------------
  free energy    TOTEN  =      -112.04951374 eV

  energy without entropy =     -112.01956342  energy(sigma->0) =     -112.03953030


--------------------------------------------------------------------------------------------------------




----------------------------------------- Iteration    1(  14)  ---------------------------------------


    POTLOK:  cpu time    2.48: real time    2.48
    SETDIJ:  cpu time    0.15: real time    0.15
    EDDIAG:  cpu time    5.38: real time    3.71
  RMM-DIIS:  cpu time   43.36: real time   12.97
    ORTHCH:  cpu time    0.34: real time    0.08
       DOS:  cpu time    0.01: real time    0.00
    CHARGE:  cpu time    2.01: real time    1.91
    MIXING:  cpu time    0.07: real time    0.06
    --------------------------------------------
      LOOP:  cpu time   53.79: real time   21.37

 eigenvalue-minimisations  :   255
 total energy-change (2. order) : 0.2416380E+00  (-0.3577992E-01)
 number of electron   91.9999999 magnetization 
 augmentation part    -1.1133535 magnetization 

 Broyden mixing:
  rms(total) = 0.20483E+00    rms(broyden)= 0.20483E+00
  rms(prec ) = 0.30222E+00
  weight for this iteration     100.00

 eigenvalues of (default mixing * dielectric matrix)
  average eigenvalue GAMMA=   1.6996
  2.4934  0.9057

 Free energy of the ion-electron system (eV)
  ---------------------------------------------------
  alpha Z        PSCENC =        -7.38312591
  Ewald energy   TEWEN  =     -2141.88290947
  -1/2 Hartree   DENC   =       -60.65066062
  -exchange  EXHF       =         0.00000000
  -V(xc)+E(xc)   XCENC  =      -793.77080838
  PAW double counting   =      1082.86471034     -113.43337759
  entropy T*S    EENTRO =        -0.04959732
  eigenvalues    EBANDS =       293.36645211
  atomic energy  EATOM  =      1629.13144109
  ---------------------------------------------------
  free energy    TOTEN  =      -111.80787574 eV

  energy without entropy =     -111.75827842  energy(sigma->0) =     -111.79134330


--------------------------------------------------------------------------------------------------------




----------------------------------------- Iteration    1(  15)  ---------------------------------------


    POTLOK:  cpu time    2.39: real time    2.37
    SETDIJ:  cpu time    0.15: real time    0.15
    EDDIAG:  cpu time    5.28: real time    3.64
  RMM-DIIS:  cpu time   42.73: real time   12.83
    ORTHCH:  cpu time    0.34: real time    0.08
       DOS:  cpu time    0.01: real time    0.00
    CHARGE:  cpu time    2.08: real time    1.99
    MIXING:  cpu time    0.08: real time    0.06
    --------------------------------------------
      LOOP:  cpu time   53.06: real time   21.13

 eigenvalue-minimisations  :   252
 total energy-change (2. order) : 0.1068738E+00  (-0.1325420E-01)
 number of electron   91.9999999 magnetization 
 augmentation part    -1.1276304 magnetization 

 Broyden mixing:
  rms(total) = 0.46592E-01    rms(broyden)= 0.46592E-01
  rms(prec ) = 0.82666E-01
  weight for this iteration     100.00

 eigenvalues of (default mixing * dielectric matrix)
  average eigenvalue GAMMA=   1.6032
  2.6104  1.0370  1.1621

 Free energy of the ion-electron system (eV)
  ---------------------------------------------------
  alpha Z        PSCENC =        -7.38312591
  Ewald energy   TEWEN  =     -2141.88290947
  -1/2 Hartree   DENC   =       -61.64730701
  -exchange  EXHF       =         0.00000000
  -V(xc)+E(xc)   XCENC  =      -792.59130554
  PAW double counting   =      1084.61728072     -115.35064135
  entropy T*S    EENTRO =        -0.05748726
  eigenvalues    EBANDS =       293.46305278
  atomic energy  EATOM  =      1629.13144109
  ---------------------------------------------------
  free energy    TOTEN  =      -111.70100195 eV

  energy without entropy =     -111.64351469  energy(sigma->0) =     -111.68183953


--------------------------------------------------------------------------------------------------------




----------------------------------------- Iteration    1(  16)  ---------------------------------------


    POTLOK:  cpu time    2.13: real time    2.05
    SETDIJ:  cpu time    0.16: real time    0.16
    EDDIAG:  cpu time    4.95: real time    3.25
  RMM-DIIS:  cpu time   44.81: real time   13.40
    ORTHCH:  cpu time    0.34: real time    0.08
       DOS:  cpu time    0.01: real time    0.00
    CHARGE:  cpu time    2.07: real time    1.97
    MIXING:  cpu time    0.09: real time    0.06
    --------------------------------------------
      LOOP:  cpu time   54.55: real time   20.98

 eigenvalue-minimisations  :   265
 total energy-change (2. order) : 0.8026284E-02  (-0.2433016E-02)
 number of electron   91.9999999 magnetization 
 augmentation part    -1.1326279 magnetization 

 Broyden mixing:
  rms(total) = 0.97616E-02    rms(broyden)= 0.97615E-02
  rms(prec ) = 0.25899E-01
  weight for this iteration     100.00

 eigenvalues of (default mixing * dielectric matrix)
  average eigenvalue GAMMA=   1.6655
  2.6040  2.0508  1.0035  1.0035

 Free energy of the ion-electron system (eV)
  ---------------------------------------------------
  alpha Z        PSCENC =        -7.38312591
  Ewald energy   TEWEN  =     -2141.88290947
  -1/2 Hartree   DENC   =       -62.03997313
  -exchange  EXHF       =         0.00000000
  -V(xc)+E(xc)   XCENC  =      -792.24646457
  PAW double counting   =      1085.18915117     -115.98089140
  entropy T*S    EENTRO =        -0.05301659
  eigenvalues    EBANDS =       293.57281314
  atomic energy  EATOM  =      1629.13144109
  ---------------------------------------------------
  free energy    TOTEN  =      -111.69297567 eV

  energy without entropy =     -111.63995908  energy(sigma->0) =     -111.67530347


--------------------------------------------------------------------------------------------------------




----------------------------------------- Iteration    1(  17)  ---------------------------------------


    POTLOK:  cpu time    2.06: real time    2.05
    SETDIJ:  cpu time    0.16: real time    0.16
    EDDIAG:  cpu time    4.94: real time    3.25
  RMM-DIIS:  cpu time   42.29: real time   12.71
    ORTHCH:  cpu time    0.34: real time    0.08
       DOS:  cpu time    0.01: real time    0.00
    CHARGE:  cpu time    2.08: real time    1.99
    MIXING:  cpu time    0.10: real time    0.06
    --------------------------------------------
      LOOP:  cpu time   52.11: real time   20.37

 eigenvalue-minimisations  :   250
 total energy-change (2. order) : 0.6644499E-03  (-0.3423789E-03)
 number of electron   91.9999999 magnetization 
 augmentation part    -1.1344450 magnetization 

 Broyden mixing:
  rms(total) = 0.27707E-02    rms(broyden)= 0.27707E-02
  rms(prec ) = 0.57269E-02
  weight for this iteration     100.00

 eigenvalues of (default mixing * dielectric matrix)
  average eigenvalue GAMMA=   1.6038
  2.6394  0.9535  0.9535  1.8982  1.5741

 Free energy of the ion-electron system (eV)
  ---------------------------------------------------
  alpha Z        PSCENC =        -7.38312591
  Ewald energy   TEWEN  =     -2141.88290947
  -1/2 Hartree   DENC   =       -61.86705139
  -exchange  EXHF       =         0.00000000
  -V(xc)+E(xc)   XCENC  =      -792.21396709
  PAW double counting   =      1085.29110021     -116.09704431
  entropy T*S    EENTRO =        -0.05441020
  eigenvalues    EBANDS =       293.38365586
  atomic energy  EATOM  =      1629.13144109
  ---------------------------------------------------
  free energy    TOTEN  =      -111.69231122 eV

  energy without entropy =     -111.63790102  energy(sigma->0) =     -111.67417448


--------------------------------------------------------------------------------------------------------




----------------------------------------- Iteration    1(  18)  ---------------------------------------


    POTLOK:  cpu time    2.19: real time    2.06
    SETDIJ:  cpu time    0.16: real time    0.16
    EDDIAG:  cpu time    4.94: real time    3.25
  RMM-DIIS:  cpu time   31.33: real time    9.56
    ORTHCH:  cpu time    0.34: real time    0.08
       DOS:  cpu time    0.01: real time    0.00
    --------------------------------------------
      LOOP:  cpu time   38.97: real time   15.13

 eigenvalue-minimisations  :   181
 total energy-change (2. order) : 0.6030199E-05  (-0.2378076E-04)
 number of electron   91.9999999 magnetization 
 augmentation part    -1.1344450 magnetization 

 Free energy of the ion-electron system (eV)
  ---------------------------------------------------
  alpha Z        PSCENC =        -7.38312591
  Ewald energy   TEWEN  =     -2141.88290947
  -1/2 Hartree   DENC   =       -61.90850374
  -exchange  EXHF       =         0.00000000
  -V(xc)+E(xc)   XCENC  =      -792.20243122
  PAW double counting   =      1085.31491142     -116.12552185
  entropy T*S    EENTRO =        -0.05424648
  eigenvalues    EBANDS =       293.41808098
  atomic energy  EATOM  =      1629.13144109
  ---------------------------------------------------
  free energy    TOTEN  =      -111.69230519 eV

  energy without entropy =     -111.63805871  energy(sigma->0) =     -111.67422303


--------------------------------------------------------------------------------------------------------




 average (electrostatic) potential at core
  the test charge radii are     1.0714  1.0406
  (the norm of the test charge is              1.0000)
       1 -50.6425       2 -72.9055       3 -73.1551       4 -73.0128       5 -73.0128
       6 -73.0726       7 -73.0537       8 -73.0500       9 -73.0032      10 -72.9969
      11 -73.0128      12 -73.0128      13 -73.1131      14 -73.1122      15 -73.0500
      16 -73.0032      17 -73.0726      18 -73.0537      19 -73.0032      20 -73.0500
      21 -73.1550      22 -73.0208      23 -73.0225      24 -73.0225      25 -73.1131
      26 -73.1122      27 -73.0032      28 -73.0500      29 -73.0236      30 -73.0225
      31 -73.0225
 
 
 
 E-fermi :   7.8346     XC(G=0):  -9.9890     alpha+bet :-14.3073
   add alpha+bet to get absolut eigen values

 k-point   1 :       0.2500    0.2500    0.2500
  band No.  band energies     occupation 
      1      -3.1600      2.00000
      2      -2.1256      2.00000
      3      -2.0434      2.00000
      4      -1.7339      2.00000
      5      -0.8981      2.00000
      6      -0.8846      2.00000
      7      -0.3807      2.00000
      8       0.0814      2.00000
      9       0.1755      2.00000
     10       0.4943      2.00000
     11       0.7000      2.00000
     12       1.1141      2.00000
     13       1.3068      2.00000
     14       1.3101      2.00000
     15       1.4742      2.00000
     16       1.7696      2.00000
     17       1.9277      2.00000
     18       2.7625      2.00000
     19       2.7651      2.00000
     20       3.0287      2.00000
     21       3.4062      2.00000
     22       3.4413      2.00000
     23       3.4894      2.00000
     24       3.5780      2.00000
     25       3.6244      2.00000
     26       4.0159      2.00000
     27       4.3204      2.00000
     28       4.4746      2.00000
     29       4.5948      2.00000
     30       4.7826      2.00000
     31       4.8402      2.00000
     32       4.8801      2.00000
     33       4.9447      2.00000
     34       5.0645      2.00000
     35       5.4385      2.00000
     36       5.7850      2.00000
     37       5.9129      2.00000
     38       6.4999      2.00000
     39       6.5641      2.00000
     40       6.6033      2.00000
     41       6.6915      2.00000
     42       6.8927      2.00000
     43       7.0241      2.00000
     44       7.0778      2.00000
     45       7.1944      2.00006
     46       7.7822      1.42730
     47       7.8560      0.82040
     48       7.9126      0.39220
     49       8.0210     -0.03311
     50       8.0420     -0.05712
     51       8.1301     -0.05730
     52       8.3032     -0.00454
     53       8.5046     -0.00002
     54       8.6227      0.00000
     55       8.9572      0.00000
     56       9.0416      0.00000
     57       9.0763      0.00000
     58       9.3141      0.00000
     59       9.3449      0.00000
     60       9.4815      0.00000
     61       9.9387      0.00000
     62      10.1912      0.00000

 k-point   2 :      -0.2500    0.2500    0.2500
  band No.  band energies     occupation 
      1      -3.1621      2.00000
      2      -2.1515      2.00000
      3      -1.9247      2.00000
      4      -1.8399      2.00000
      5      -0.9690      2.00000
      6      -0.6753      2.00000
      7      -0.5569      2.00000
      8       0.0515      2.00000
      9       0.2789      2.00000
     10       0.4095      2.00000
     11       0.7261      2.00000
     12       1.2668      2.00000
     13       1.2835      2.00000
     14       1.3566      2.00000
     15       1.5304      2.00000
     16       1.6662      2.00000
     17       1.8292      2.00000
     18       2.7076      2.00000
     19       2.8540      2.00000
     20       2.9355      2.00000
     21       3.3725      2.00000
     22       3.4837      2.00000
     23       3.5123      2.00000
     24       3.5498      2.00000
     25       3.6923      2.00000
     26       3.9388      2.00000
     27       4.4775      2.00000
     28       4.4923      2.00000
     29       4.5744      2.00000
     30       4.7379      2.00000
     31       4.7604      2.00000
     32       4.9351      2.00000
     33       4.9425      2.00000
     34       5.0441      2.00000
     35       5.3336      2.00000
     36       5.7391      2.00000
     37       6.1076      2.00000
     38       6.4074      2.00000
     39       6.5979      2.00000
     40       6.6068      2.00000
     41       6.8221      2.00000
     42       6.9620      2.00000
     43       7.0024      2.00000
     44       7.0688      2.00000
     45       7.1751      2.00003
     46       7.8303      1.03661
     47       7.8992      0.48412
     48       7.9618      0.12923
     49       8.0045     -0.00330
     50       8.0395     -0.05494
     51       8.1277     -0.05831
     52       8.2393     -0.01481
     53       8.2855     -0.00647
     54       8.4819     -0.00005
     55       9.0206      0.00000
     56       9.0487      0.00000
     57       9.1503      0.00000
     58       9.3529      0.00000
     59       9.3701      0.00000
     60       9.4961      0.00000
     61       9.9306      0.00000
     62      10.0219      0.00000


--------------------------------------------------------------------------------------------------------


 soft charge-density along one line, spin component           1
         0         1         2         3         4         5         6         7         8         9
 total charge-density along one line
 
 pseudopotential strength for first ion, spin component:           1
  3.565  -0.042   0.000   0.000   0.000   0.000   0.000   0.000
 -0.042  -0.002   0.000   0.000   0.000   0.000   0.000   0.000
  0.000   0.000   0.741   0.000   0.000  -0.042   0.000   0.000
  0.000   0.000   0.000   0.741   0.000   0.000  -0.042   0.000
  0.000   0.000   0.000   0.000   0.741   0.000   0.000  -0.042
  0.000   0.000  -0.042   0.000   0.000  -0.031   0.000   0.000
  0.000   0.000   0.000  -0.042   0.000   0.000  -0.031   0.000
  0.000   0.000   0.000   0.000  -0.042   0.000   0.000  -0.031
 total augmentation occupancy for first ion, spin component:           1
  1.072  -0.053   0.000  -0.009  -0.009   0.000  -0.001  -0.001
 -0.053   0.004   0.000   0.004   0.004   0.000   0.000   0.000
  0.000   0.000   0.813   0.000   0.000   0.031   0.000   0.000
 -0.009   0.004   0.000   0.723  -0.066   0.000   0.027  -0.003
 -0.009   0.004   0.000  -0.066   0.723   0.000  -0.003   0.027
  0.000   0.000   0.031   0.000   0.000   0.001   0.000   0.000
 -0.001   0.000   0.000   0.027  -0.003   0.000   0.001   0.000
 -0.001   0.000   0.000  -0.003   0.027   0.000   0.000   0.001


------------------------ aborting loop because EDIFF is reached ----------------------------------------




--------------------------------------------------------------------------------------------------------



  FREE ENERGIE OF THE ION-ELECTRON SYSTEM (eV)
  ---------------------------------------------------
  free  energy   TOTEN  =      -111.692305 eV

  energy  without entropy=     -111.638059  energy(sigma->0) =     -111.674223
 
    CHARGE:  cpu time    1.95: real time    1.95
    FORLOC:  cpu time    0.77: real time    0.77
    FORNL :  cpu time    5.89: real time    5.89
    STRESS:  cpu time   34.83: real time    9.42
    FORCOR:  cpu time    2.69: real time    2.69
    FORHAR:  cpu time    1.24: real time    1.24
    MIXING:  cpu time    0.10: real time    0.06

  FORCE on cell =-STRESS in cart. coord.  units (eV):
  Direction    XX          YY          ZZ          XY          YZ          ZX
  --------------------------------------------------------------------------------------
  Alpha Z    -7.38313    -7.38313    -7.38313
  Ewald    -703.51096  -734.86940  -703.51096     0.00000     0.00000     4.99875
  Hartree    27.96051     5.99684    27.96051     0.00000     0.00000     3.81905
  E(xc)    -261.88656  -261.96846  -261.88656     0.00000     0.00000     0.09370
  Local     -57.94006    -5.30361   -57.94006     0.00000     0.00000    -8.86788
  n-local   579.34445   580.04056   579.34455     0.27227    -1.14366    -0.83241
  augment   -30.29801   -30.36781   -30.29803     0.00000     0.00000     0.01995
  Kinetic   457.03384   458.57492   457.03401    -2.41502     1.82184     0.41130
  Fock        0.00000     0.00000     0.00000     0.00000     0.00000     0.00000
  -------------------------------------------------------------------------------------
  Total       3.32021     4.71992     3.32021     0.00000     0.00000    -0.35754
  in kB      10.05784    14.29796    10.05784     0.00000     0.00000    -1.08309
  external pressure =       11.47 kB  Pullay stress =        0.00 kB


 VOLUME and BASIS-vectors are now :
 -----------------------------------------------------------------------------
  energy-cutoff  :      300.00
  volume of cell :      528.90
      direct lattice vectors                 reciprocal lattice vectors
     8.087054000  0.000000000  0.000000000     0.123654423  0.000000000  0.000000000
     0.000000000  8.087054000  0.000000000     0.000000000  0.123654423  0.000000000
     0.000000000  0.000000000  8.087054000     0.000000000  0.000000000  0.123654423

  length of vectors
     8.087054000  8.087054000  8.087054000     0.123654423  0.123654423  0.123654423


 FORCES acting on ions
    electron-ion (+dipol)            ewald-force                    non-local-force                 convergence-correction
 -----------------------------------------------------------------------------------------------
   -.732E+01 -.388E-13 -.732E+01   0.709E+01 0.580E-14 0.709E+01   0.406E+00 0.000E+00 0.406E+00   -.963E-04 -.894E-14 -.953E-04
   -.516E+01 0.357E-13 -.516E+01   0.475E+01 0.144E-14 0.475E+01   0.650E+00 0.000E+00 0.650E+00   0.634E-03 0.259E-13 0.634E-03
   -.218E+01 -.135E-13 -.218E+01   0.217E+01 -.422E-14 0.217E+01   -.243E+00 0.000E+00 -.243E+00   0.159E-02 0.139E-13 0.159E-02
   -.395E+01 -.136E+02 -.932E+01   0.368E+01 0.131E+02 0.898E+01   0.266E+00 0.917E+00 0.792E+00   0.147E-02 0.217E-02 -.150E-02
   -.932E+01 -.136E+02 -.395E+01   0.898E+01 0.131E+02 0.368E+01   0.792E+00 0.917E+00 0.266E+00   -.150E-02 0.217E-02 0.147E-02
   0.425E+01 -.151E-13 -.256E+01   -.436E+01 -.705E-14 0.241E+01   -.117E+00 -.434E-18 0.863E-01   -.121E-02 0.160E-13 0.117E-02
   0.301E+01 0.171E-13 -.479E+01   -.275E+01 0.971E-12 0.469E+01   -.137E+00 -.173E-17 0.236E+00   -.116E-02 0.152E-13 0.123E-02
   0.378E+01 -.772E+01 -.384E+01   -.357E+01 0.742E+01 0.376E+01   -.153E+00 0.432E+00 0.196E+00   -.116E-02 0.508E-02 0.948E-03
   0.909E+01 -.223E+02 -.121E+02   -.880E+01 0.215E+02 0.119E+02   -.585E+00 0.167E+01 0.516E+00   0.124E-02 0.683E-03 -.598E-03
   -.107E+02 -.141E-12 -.107E+02   0.999E+01 0.120E-13 0.999E+01   0.109E+01 0.000E+00 0.109E+01   -.195E-02 -.276E-13 -.195E-02
   -.395E+01 0.136E+02 -.932E+01   0.368E+01 -.131E+02 0.898E+01   0.266E+00 -.917E+00 0.792E+00   0.147E-02 -.217E-02 -.150E-02
   -.932E+01 0.136E+02 -.395E+01   0.898E+01 -.131E+02 0.368E+01   0.792E+00 -.917E+00 0.266E+00   -.150E-02 -.217E-02 0.147E-02
   0.115E+02 0.734E-13 -.809E+01   -.110E+02 0.527E-14 0.764E+01   -.111E+01 0.000E+00 0.768E+00   0.179E-02 -.169E-13 -.904E-03
   0.119E+02 0.137E-12 -.148E+02   -.115E+02 0.339E-14 0.142E+02   -.713E+00 -.139E-16 0.109E+01   0.481E-05 -.159E-13 -.102E-02
   0.378E+01 0.772E+01 -.384E+01   -.357E+01 -.742E+01 0.376E+01   -.153E+00 -.432E+00 0.196E+00   -.116E-02 -.508E-02 0.948E-03
   0.909E+01 0.223E+02 -.121E+02   -.880E+01 -.215E+02 0.119E+02   -.585E+00 -.167E+01 0.516E+00   0.124E-02 -.683E-03 -.598E-03
   -.256E+01 0.133E-12 0.425E+01   0.241E+01 0.239E-14 -.436E+01   0.863E-01 0.000E+00 -.117E+00   0.117E-02 0.216E-13 -.121E-02
   -.479E+01 0.977E-14 0.301E+01   0.469E+01 -.966E-14 -.275E+01   0.236E+00 0.347E-17 -.137E+00   0.123E-02 0.171E-13 -.116E-02
   -.121E+02 -.223E+02 0.909E+01   0.119E+02 0.215E+02 -.880E+01   0.516E+00 0.167E+01 -.585E+00   -.599E-03 0.683E-03 0.124E-02
   -.384E+01 -.772E+01 0.378E+01   0.376E+01 0.742E+01 -.357E+01   0.196E+00 0.432E+00 -.153E+00   0.947E-03 0.508E-02 -.116E-02
   0.240E+01 0.224E-13 0.240E+01   -.238E+01 -.427E-14 -.238E+01   0.670E-01 0.000E+00 0.670E-01   -.151E-02 0.729E-14 -.151E-02
   0.485E+01 0.211E-13 0.485E+01   -.458E+01 -.618E-13 -.458E+01   -.316E+00 0.000E+00 -.316E+00   -.731E-03 0.238E-13 -.731E-03
   0.132E+02 -.169E+02 0.491E+01   -.128E+02 0.164E+02 -.458E+01   -.863E+00 0.917E+00 -.569E+00   0.603E-03 0.312E-02 -.112E-02
   0.491E+01 -.169E+02 0.132E+02   -.458E+01 0.164E+02 -.128E+02   -.569E+00 0.917E+00 -.863E+00   -.112E-02 0.312E-02 0.602E-03
   -.809E+01 -.214E-12 0.115E+02   0.764E+01 0.924E-12 -.110E+02   0.768E+00 0.000E+00 -.111E+01   -.905E-03 -.235E-13 0.179E-02
   -.148E+02 0.628E-13 0.119E+02   0.142E+02 0.111E-14 -.115E+02   0.109E+01 0.139E-16 -.713E+00   -.102E-02 -.186E-13 0.320E-05
   -.121E+02 0.223E+02 0.909E+01   0.119E+02 -.215E+02 -.880E+01   0.516E+00 -.167E+01 -.585E+00   -.599E-03 -.683E-03 0.124E-02
   -.384E+01 0.772E+01 0.378E+01   0.376E+01 -.742E+01 -.357E+01   0.196E+00 -.432E+00 -.153E+00   0.947E-03 -.508E-02 -.116E-02
   0.142E+02 -.852E-13 0.142E+02   -.135E+02 -.722E-15 -.135E+02   -.111E+01 0.000E+00 -.111E+01   0.935E-03 -.258E-13 0.933E-03
   0.132E+02 0.169E+02 0.491E+01   -.128E+02 -.164E+02 -.458E+01   -.863E+00 -.917E+00 -.569E+00   0.603E-03 -.312E-02 -.112E-02
   0.491E+01 0.169E+02 0.132E+02   -.458E+01 -.164E+02 -.128E+02   -.569E+00 -.917E+00 -.863E+00   -.112E-02 -.312E-02 0.602E-03
 -----------------------------------------------------------------------------------------------
   0.150E+00 -.340E-14 0.150E+00   0.444E-14 0.355E-13 -.249E-13   -.148E+00 0.111E-15 -.148E+00   -.146E-02 0.296E-13 -.146E-02
 
 
 POSITION                                       TOTAL-FORCE (eV/Angst)
 -----------------------------------------------------------------------------------
      2.06888      4.04353      2.06888         0.180071      0.000000      0.180071
      8.04220      0.00000      8.04220         0.248205      0.000000      0.248205
      2.02480      0.00000      2.02480        -0.253918      0.000000     -0.253918
      2.00765      1.93924      8.01353        -0.001382      0.330911      0.450317
      8.01353      1.93924      2.00765         0.450317      0.330911     -0.001382
      4.07475      0.00000      8.04486        -0.223097      0.000000     -0.063121
      6.10059      0.00000      1.99508         0.126870      0.000000      0.140378
      6.08724      1.96906      8.04909         0.064122      0.133690      0.121113
      4.13400      1.84881      1.95538        -0.288457      0.808893      0.298682
      8.00597      4.04353      8.00597         0.420974      0.000000      0.420974
      2.00765      6.14781      8.01353        -0.001382     -0.330911      0.450317
      8.01353      6.14781      2.00765         0.450317     -0.330911     -0.001382
      4.15633      4.04353      7.99472        -0.525985      0.000000      0.322650
      6.11611      4.04353      1.93419        -0.299396      0.000000      0.506237
      6.08724      6.11799      8.04909         0.064122     -0.133690      0.121113
      4.13400      6.23824      1.95538        -0.288457     -0.808893      0.298682
      8.04486      0.00000      4.07475        -0.063121      0.000000     -0.223097
      1.99508      0.00000      6.10059         0.140378      0.000000      0.126870
      1.95538      1.84881      4.13400         0.298682      0.808893     -0.288457
      8.04909      1.96906      6.08724         0.121113      0.133690      0.064122
      4.05867      0.00000      4.05867         0.088675      0.000000      0.088675
      6.08281      0.00000      6.08281        -0.055272      0.000000     -0.055272
      6.10793      1.96037      4.08632        -0.480086      0.429743     -0.234796
      4.08632      1.96037      6.10793        -0.234796      0.429743     -0.480086
      7.99472      4.04353      4.15633         0.322650      0.000000     -0.525985
      1.93419      4.04353      6.11611         0.506237      0.000000     -0.299396
      1.95538      6.23824      4.13400         0.298682     -0.808893     -0.288457
      8.04909      6.11799      6.08724         0.121113     -0.133690      0.064122
      6.11533      4.04353      6.11533        -0.472299      0.000000     -0.472299
      6.10793      6.12668      4.08632        -0.480086     -0.429743     -0.234796
      4.08632      6.12668      6.10793        -0.234796     -0.429743     -0.480086
 -----------------------------------------------------------------------------------
    total drift:                                0.000462      0.000000      0.000461


--------------------------------------------------------------------------------------------------------


    POTLOK:  cpu time    2.33: real time    2.21


--------------------------------------------------------------------------------------------------------


  FORCES: max atom, RMS     0.909245    0.549361
  FORCE total and by dimension    3.058713    0.808893


--------------------------------------------------------------------------------------------------------


    WAVPRE:  cpu time    1.46: real time    1.46
    FEWALD:  cpu time    0.01: real time    0.01
    ORTHCH:  cpu time    6.37: real time    1.63
     LOOP+:  cpu time  775.01: real time  299.19
   RESPFUN:  cpu time    0.01: real time    0.00


----------------------------------------- Iteration    2(   1)  ---------------------------------------


    POTLOK:  cpu time    2.06: real time    1.97
    SETDIJ:  cpu time    0.16: real time    0.16
    EDDIAG:  cpu time    4.96: real time    3.25
  RMM-DIIS:  cpu time   41.76: real time   12.42
    ORTHCH:  cpu time    0.33: real time    0.08
       DOS:  cpu time    0.01: real time    0.00
    CHARGE:  cpu time    2.02: real time    1.92
    MIXING:  cpu time    0.05: real time    0.05
    --------------------------------------------
      LOOP:  cpu time   51.35: real time   19.86

 eigenvalue-minimisations  :   248
 total energy-change (2. order) :-0.4071179E+00  (-0.3060882E+00)
 number of electron   92.0000000 magnetization 
 augmentation part    -1.1353731 magnetization 

 Broyden mixing:
  rms(total) = 0.35738E-01    rms(broyden)= 0.35731E-01
  rms(prec ) = 0.11614E+00
  weight for this iteration     100.00

 Free energy of the ion-electron system (eV)
  ---------------------------------------------------
  alpha Z        PSCENC =        -7.38312591
  Ewald energy   TEWEN  =     -2153.43545773
  -1/2 Hartree   DENC   =       -52.68221243
  -exchange  EXHF       =         0.00000000
  -V(xc)+E(xc)   XCENC  =      -792.36806231
  PAW double counting   =      1085.31958241     -116.13299322
  entropy T*S    EENTRO =        -0.03830884
  eigenvalues    EBANDS =       295.48970781
  atomic energy  EATOM  =      1629.13144109
  ---------------------------------------------------
  free energy    TOTEN  =      -112.09942912 eV

  energy without entropy =     -112.06112029  energy(sigma->0) =     -112.08665951


--------------------------------------------------------------------------------------------------------




----------------------------------------- Iteration    2(   2)  ---------------------------------------


    POTLOK:  cpu time    2.28: real time    2.28
    SETDIJ:  cpu time    0.15: real time    0.15
    EDDIAG:  cpu time    5.33: real time    3.64
  RMM-DIIS:  cpu time   42.65: real time   12.66
    ORTHCH:  cpu time    0.33: real time    0.08
       DOS:  cpu time    0.01: real time    0.00
    CHARGE:  cpu time    2.07: real time    1.97
    MIXING:  cpu time    0.06: real time    0.06
    --------------------------------------------
      LOOP:  cpu time   52.87: real time   20.84

 eigenvalue-minimisations  :   252
 total energy-change (2. order) : 0.1482344E-01  (-0.5921026E-02)
 number of electron   92.0000000 magnetization 
 augmentation part    -1.1358590 magnetization 

 Broyden mixing:
  rms(total) = 0.14814E-01    rms(broyden)= 0.14813E-01
  rms(prec ) = 0.33810E-01
  weight for this iteration     100.00

 eigenvalues of (default mixing * dielectric matrix)
  average eigenvalue GAMMA=   1.4630
  1.4630

 Free energy of the ion-electron system (eV)
  ---------------------------------------------------
  alpha Z        PSCENC =        -7.38312591
  Ewald energy   TEWEN  =     -2153.43545773
  -1/2 Hartree   DENC   =       -52.17364259
  -exchange  EXHF       =         0.00000000
  -V(xc)+E(xc)   XCENC  =      -792.38386494
  PAW double counting   =      1085.00112438     -115.80252839
  entropy T*S    EENTRO =        -0.04576115
  eigenvalues    EBANDS =       295.00720955
  atomic energy  EATOM  =      1629.13144109
  ---------------------------------------------------
  free energy    TOTEN  =      -112.08460568 eV

  energy without entropy =     -112.03884453  energy(sigma->0) =     -112.06935196


--------------------------------------------------------------------------------------------------------




----------------------------------------- Iteration    2(   3)  ---------------------------------------


    POTLOK:  cpu time    2.40: real time    2.40
    SETDIJ:  cpu time    0.15: real time    0.15
    EDDIAG:  cpu time    5.35: real time    3.68
  RMM-DIIS:  cpu time   43.83: real time   12.90
    ORTHCH:  cpu time    0.33: real time    0.08
       DOS:  cpu time    0.01: real time    0.00
    CHARGE:  cpu time    2.09: real time    1.99
    MIXING:  cpu time    0.07: real time    0.06
    --------------------------------------------
      LOOP:  cpu time   54.23: real time   21.30

 eigenvalue-minimisations  :   257
 total energy-change (2. order) : 0.1185423E-02  (-0.8200920E-03)
 number of electron   92.0000000 magnetization 
 augmentation part    -1.1360312 magnetization 

 Broyden mixing:
  rms(total) = 0.62178E-02    rms(broyden)= 0.62177E-02
  rms(prec ) = 0.97311E-02
  weight for this iteration     100.00

 eigenvalues of (default mixing * dielectric matrix)
  average eigenvalue GAMMA=   1.5010
  1.7101  1.2919

 Free energy of the ion-electron system (eV)
  ---------------------------------------------------
  alpha Z        PSCENC =        -7.38312591
  Ewald energy   TEWEN  =     -2153.43545773
  -1/2 Hartree   DENC   =       -52.00370905
  -exchange  EXHF       =         0.00000000
  -V(xc)+E(xc)   XCENC  =      -792.39300434
  PAW double counting   =      1084.79408937     -115.58657114
  entropy T*S    EENTRO =        -0.04698565
  eigenvalues    EBANDS =       294.83990311
  atomic energy  EATOM  =      1629.13144109
  ---------------------------------------------------
  free energy    TOTEN  =      -112.08342025 eV

  energy without entropy =     -112.03643461  energy(sigma->0) =     -112.06775837


--------------------------------------------------------------------------------------------------------




----------------------------------------- Iteration    2(   4)  ---------------------------------------


    POTLOK:  cpu time    2.10: real time    2.05
    SETDIJ:  cpu time    0.16: real time    0.16
    EDDIAG:  cpu time    4.96: real time    3.26
  RMM-DIIS:  cpu time   35.80: real time   10.75
    ORTHCH:  cpu time    0.33: real time    0.08
       DOS:  cpu time    0.01: real time    0.00
    --------------------------------------------
      LOOP:  cpu time   43.36: real time   16.31

 eigenvalue-minimisations  :   208
 total energy-change (2. order) :-0.2440333E-04  (-0.6027679E-04)
 number of electron   92.0000000 magnetization 
 augmentation part    -1.1360312 magnetization 

 Free energy of the ion-electron system (eV)
  ---------------------------------------------------
  alpha Z        PSCENC =        -7.38312591
  Ewald energy   TEWEN  =     -2153.43545773
  -1/2 Hartree   DENC   =       -52.00998572
  -exchange  EXHF       =         0.00000000
  -V(xc)+E(xc)   XCENC  =      -792.39611285
  PAW double counting   =      1084.70325846     -115.49140845
  entropy T*S    EENTRO =        -0.04657190
  eigenvalues    EBANDS =       294.84451835
  atomic energy  EATOM  =      1629.13144109
  ---------------------------------------------------
  free energy    TOTEN  =      -112.08344466 eV

  energy without entropy =     -112.03687276  energy(sigma->0) =     -112.06792069


--------------------------------------------------------------------------------------------------------




 average (electrostatic) potential at core
  the test charge radii are     1.0714  1.0406
  (the norm of the test charge is              1.0000)
       1 -50.5845       2 -72.9093       3 -73.1431       4 -73.0166       5 -73.0166
       6 -73.0827       7 -73.0645       8 -73.0542       9 -72.9934      10 -73.0108
      11 -73.0166      12 -73.0166      13 -73.0958      14 -73.0910      15 -73.0542
      16 -72.9934      17 -73.0827      18 -73.0645      19 -72.9934      20 -73.0542
      21 -73.1446      22 -73.0277      23 -73.0275      24 -73.0275      25 -73.0958
[...]


    POTLOK:  cpu time    2.10: real time    2.04
    SETDIJ:  cpu time    0.16: real time    0.16
    EDDIAG:  cpu time    4.96: real time    3.26
  RMM-DIIS:  cpu time   29.19: real time    9.01
    ORTHCH:  cpu time    0.33: real time    0.08
       DOS:  cpu time    0.01: real time    0.00
    --------------------------------------------
      LOOP:  cpu time   36.75: real time   14.56

 eigenvalue-minimisations  :   170
 total energy-change (2. order) :-0.5395493E-05  (-0.1901785E-04)
 number of electron   91.9999996 magnetization 
 augmentation part    -1.1401816 magnetization 

 Free energy of the ion-electron system (eV)
  ---------------------------------------------------
  alpha Z        PSCENC =        -7.38312591
  Ewald energy   TEWEN  =     -2181.78611553
  -1/2 Hartree   DENC   =       -27.03210689
  -exchange  EXHF       =         0.00000000
  -V(xc)+E(xc)   XCENC  =      -792.88324895
  PAW double counting   =      1083.50336850     -114.24337525
  entropy T*S    EENTRO =        -0.03898139
  eigenvalues    EBANDS =       298.15825753
  atomic energy  EATOM  =      1629.13144109
  ---------------------------------------------------
  free energy    TOTEN  =      -112.57388680 eV

  energy without entropy =     -112.53490541  energy(sigma->0) =     -112.56089300


--------------------------------------------------------------------------------------------------------




 average (electrostatic) potential at core
  the test charge radii are     1.0714  1.0406
  (the norm of the test charge is              1.0000)
       1 -50.4217       2 -72.9151       3 -73.1088       4 -73.0301       5 -73.0301
       6 -73.1069       7 -73.0794       8 -73.0596       9 -72.9726      10 -73.0460
      11 -73.0301      12 -73.0301      13 -73.0712      14 -73.0486      15 -73.0596
      16 -72.9726      17 -73.1069      18 -73.0794      19 -72.9726      20 -73.0596
      21 -73.1363      22 -73.0258      23 -73.0370      24 -73.0370      25 -73.0712
      26 -73.0486      27 -72.9726      28 -73.0596      29 -73.0413      30 -73.0370
      31 -73.0370
 
 
 
 E-fermi :   7.8531     XC(G=0): -10.0132     alpha+bet :-14.3073
   add alpha+bet to get absolut eigen values

 k-point   1 :       0.2500    0.2500    0.2500
  band No.  band energies     occupation 
      1      -2.9529      2.00000
      2      -1.9231      2.00000
      3      -1.8725      2.00000
      4      -1.6385      2.00000
      5      -0.8022      2.00000
      6      -0.7486      2.00000
      7      -0.3838      2.00000
      8       0.2943      2.00000
      9       0.3331      2.00000
     10       0.5042      2.00000
     11       0.6137      2.00000
     12       1.3481      2.00000
     13       1.4019      2.00000
     14       1.4202      2.00000
     15       1.5541      2.00000
     16       1.7300      2.00000
     17       1.9677      2.00000
     18       2.6623      2.00000
     19       2.6779      2.00000
     20       2.8489      2.00000
     21       3.5426      2.00000
     22       3.6138      2.00000
     23       3.6608      2.00000
     24       3.7145      2.00000
     25       3.7525      2.00000
     26       4.0389      2.00000
     27       4.5418      2.00000
     28       4.5959      2.00000
     29       4.6351      2.00000
     30       4.7564      2.00000
     31       4.8133      2.00000
     32       4.8842      2.00000
     33       4.9350      2.00000
     34       5.0581      2.00000
     35       5.2406      2.00000
     36       5.7189      2.00000
     37       5.8331      2.00000
     38       6.3338      2.00000
     39       6.7376      2.00000
     40       6.7635      2.00000
     41       6.7974      2.00000
     42       6.9706      2.00000
     43       7.0143      2.00000
     44       7.0729      2.00000
     45       7.1155      2.00000
     46       7.8147      1.31839
     47       7.8462      1.05857
     48       7.9402      0.33475
     49       8.0805     -0.06823
     50       8.1654     -0.04972
     51       8.2292     -0.02308
     52       8.2580     -0.01476
     53       8.3301     -0.00381
     54       8.4165     -0.00050
     55       9.0917      0.00000
     56       9.1549      0.00000
     57       9.1653      0.00000
     58       9.3957      0.00000
     59       9.4176      0.00000
     60       9.4800      0.00000
     61       9.9976      0.00000
     62      10.0443      0.00000

 k-point   2 :      -0.2500    0.2500    0.2500
  band No.  band energies     occupation 
      1      -2.9558      2.00000
      2      -1.9162      2.00000
      3      -1.8154      2.00000
      4      -1.7063      2.00000
      5      -0.8005      2.00000
      6      -0.6662      2.00000
      7      -0.5198      2.00000
      8       0.2997      2.00000
      9       0.4006      2.00000
     10       0.4341      2.00000
     11       0.6855      2.00000
     12       1.3766      2.00000
     13       1.4608      2.00000
     14       1.4735      2.00000
     15       1.5063      2.00000
     16       1.7271      2.00000
     17       1.8723      2.00000
     18       2.6306      2.00000
     19       2.7355      2.00000
     20       2.7727      2.00000
     21       3.5531      2.00000
     22       3.6263      2.00000
     23       3.6547      2.00000
     24       3.6894      2.00000
     25       3.7658      2.00000
     26       4.0072      2.00000
     27       4.5718      2.00000
     28       4.6542      2.00000
     29       4.6765      2.00000
     30       4.7240      2.00000
     31       4.7437      2.00000
     32       4.9159      2.00000
     33       4.9347      2.00000
     34       5.0559      2.00000
     35       5.1802      2.00000
     36       5.7320      2.00000
     37       5.9520      2.00000
     38       6.2615      2.00000
     39       6.7564      2.00000
     40       6.7768      2.00000
     41       6.8818      2.00000
     42       7.0052      2.00000
     43       7.0233      2.00000
     44       7.0594      2.00000
     45       7.1353      2.00000
     46       7.8464      1.05732
     47       7.9123      0.52273
     48       7.9789      0.13509
     49       8.0690     -0.06303
     50       8.1282     -0.06528
     51       8.1372     -0.06201
     52       8.1816     -0.04222
     53       8.2277     -0.02358
     54       8.2773     -0.01062
     55       9.1353      0.00000
     56       9.1588      0.00000
     57       9.3038      0.00000
     58       9.3978      0.00000
     59       9.4030      0.00000
     60       9.4828      0.00000
     61      10.0027      0.00000
     62      10.0286      0.00000


--------------------------------------------------------------------------------------------------------


 soft charge-density along one line, spin component           1
         0         1         2         3         4         5         6         7         8         9
 total charge-density along one line
 
 pseudopotential strength for first ion, spin component:           1
  3.575  -0.046   0.000   0.000   0.000   0.000   0.000   0.000
 -0.046  -0.001   0.000   0.000   0.000   0.000   0.000   0.000
  0.000   0.000   0.746   0.000   0.000  -0.044   0.000   0.000
  0.000   0.000   0.000   0.746   0.000   0.000  -0.044   0.000
  0.000   0.000   0.000   0.000   0.746   0.000   0.000  -0.044
  0.000   0.000  -0.044   0.000   0.000  -0.031   0.000   0.000
  0.000   0.000   0.000  -0.044   0.000   0.000  -0.031   0.000
  0.000   0.000   0.000   0.000  -0.044   0.000   0.000  -0.031
 total augmentation occupancy for first ion, spin component:           1
  1.099  -0.054   0.000   0.020   0.020   0.000   0.001   0.001
 -0.054   0.004   0.000   0.003   0.003   0.000   0.000   0.000
  0.000   0.000   0.989   0.000   0.000   0.051   0.000   0.000
  0.020   0.003   0.000   0.888  -0.061   0.000   0.047  -0.004
  0.020   0.003   0.000  -0.061   0.888   0.000  -0.004   0.047
  0.000   0.000   0.051   0.000   0.000   0.003   0.000   0.000
  0.001   0.000   0.000   0.047  -0.004   0.000   0.003   0.000
  0.001   0.000   0.000  -0.004   0.047   0.000   0.000   0.003


------------------------ aborting loop because EDIFF is reached ----------------------------------------




--------------------------------------------------------------------------------------------------------



  FREE ENERGIE OF THE ION-ELECTRON SYSTEM (eV)
  ---------------------------------------------------
  free  energy   TOTEN  =      -112.573887 eV

  energy  without entropy=     -112.534905  energy(sigma->0) =     -112.560893
 
    CHARGE:  cpu time    1.94: real time    1.94
    FORLOC:  cpu time    0.77: real time    0.77
    FORNL :  cpu time    5.90: real time    5.90
    STRESS:  cpu time   35.12: real time    9.51
    FORCOR:  cpu time    2.68: real time    2.68
    FORHAR:  cpu time    1.23: real time    1.24
    MIXING:  cpu time    0.08: real time    0.06

  FORCE on cell =-STRESS in cart. coord.  units (eV):
  Direction    XX          YY          ZZ          XY          YZ          ZX
  --------------------------------------------------------------------------------------
  Alpha Z    -7.38313    -7.38313    -7.38313
  Ewald    -724.30381  -733.18736  -724.30381     0.00000     0.00000     5.52626
  Hartree    11.02870     4.93631    11.02870     0.00000     0.00000     3.04607
  E(xc)    -260.83534  -260.89825  -260.83534     0.00000     0.00000     0.06582
  Local     -18.65184    -3.66774   -18.65184     0.00000     0.00000    -8.38721
  n-local   576.97238   577.32219   576.97236     0.29743    -1.10316    -0.53205
  augment   -30.46831   -30.57229   -30.46830     0.00001     0.00001    -0.03181
  Kinetic   451.99600   456.09620   451.99589    -3.68285     0.91920     2.17881
  Fock        0.00000     0.00000     0.00000     0.00000     0.00000     0.00000
  -------------------------------------------------------------------------------------
  Total      -1.64540     2.64593    -1.64540     0.00000     0.00000     1.86589
  in kB      -4.98439     8.01527    -4.98439     0.00000     0.00000     5.65232
  external pressure =       -0.65 kB  Pullay stress =        0.00 kB


 VOLUME and BASIS-vectors are now :
 -----------------------------------------------------------------------------
  energy-cutoff  :      300.00
  volume of cell :      528.90
      direct lattice vectors                 reciprocal lattice vectors
     8.087054000  0.000000000  0.000000000     0.123654423  0.000000000  0.000000000
     0.000000000  8.087054000  0.000000000     0.000000000  0.123654423  0.000000000
     0.000000000  0.000000000  8.087054000     0.000000000  0.000000000  0.123654423

  length of vectors
     8.087054000  8.087054000  8.087054000     0.123654423  0.123654423  0.123654423


 FORCES acting on ions
    electron-ion (+dipol)            ewald-force                    non-local-force                 convergence-correction
 -----------------------------------------------------------------------------------------------
   -.517E+01 0.298E-13 -.517E+01   0.512E+01 0.386E-14 0.512E+01   0.529E-01 0.000E+00 0.529E-01   -.478E-02 0.179E-13 -.478E-02
   -.130E+01 -.551E-13 -.130E+01   0.113E+01 -.105E-14 0.113E+01   0.161E+00 0.000E+00 0.161E+00   0.163E-03 -.213E-13 0.164E-03
   -.291E+01 -.906E-13 -.291E+01   0.270E+01 -.461E-14 0.270E+01   0.243E+00 0.000E+00 0.243E+00   -.117E-01 -.323E-13 -.117E-01
   -.257E+01 -.651E+01 -.400E+01   0.243E+01 0.654E+01 0.415E+01   0.138E+00 -.594E-01 -.205E+00   -.831E-02 -.110E-01 -.145E-02
   -.400E+01 -.651E+01 -.257E+01   0.415E+01 0.654E+01 0.243E+01   -.205E+00 -.594E-01 0.138E+00   -.145E-02 -.110E-01 -.831E-02
   0.431E+00 0.373E-13 -.121E+01   -.627E+00 -.655E-14 0.106E+01   0.221E+00 0.000E+00 0.181E+00   -.461E-03 0.167E-13 -.753E-02
   0.271E+01 -.358E-13 -.200E+01   -.247E+01 -.144E-14 0.207E+01   -.266E+00 0.000E+00 -.830E-01   0.114E-01 -.479E-14 -.327E-02
   0.278E+01 -.323E+01 -.712E+00   -.263E+01 0.327E+01 0.800E+00   -.169E+00 -.441E-01 -.951E-01   0.846E-02 -.944E-02 -.476E-02
   0.499E+01 -.115E+02 -.777E+01   -.495E+01 0.117E+02 0.786E+01   -.436E-01 -.222E+00 -.693E-01   0.179E-02 -.764E-02 -.595E-02
   -.407E+01 0.306E-12 -.407E+01   0.413E+01 0.139E-14 0.413E+01   -.859E-01 0.000E+00 -.859E-01   -.131E-02 0.303E-13 -.131E-02
   -.257E+01 0.651E+01 -.400E+01   0.243E+01 -.654E+01 0.415E+01   0.138E+00 0.594E-01 -.205E+00   -.831E-02 0.110E-01 -.145E-02
   -.400E+01 0.651E+01 -.257E+01   0.415E+01 -.654E+01 0.243E+01   -.205E+00 0.594E-01 0.138E+00   -.145E-02 0.110E-01 -.831E-02
   0.415E+01 -.240E-12 -.397E+01   -.422E+01 0.611E-15 0.414E+01   0.106E+00 -.173E-17 -.162E+00   0.131E-02 -.912E-14 -.418E-02
   0.779E+01 0.778E-13 -.773E+01   -.796E+01 0.810E-14 0.783E+01   0.114E+00 -.139E-16 -.995E-01   0.858E-02 0.690E-14 -.541E-02
   0.278E+01 0.323E+01 -.712E+00   -.263E+01 -.327E+01 0.800E+00   -.169E+00 0.441E-01 -.951E-01   0.846E-02 0.944E-02 -.476E-02
   0.499E+01 0.115E+02 -.777E+01   -.495E+01 -.117E+02 0.786E+01   -.436E-01 0.222E+00 -.693E-01   0.179E-02 0.764E-02 -.595E-02
   -.121E+01 0.694E-13 0.431E+00   0.106E+01 -.611E-14 -.627E+00   0.181E+00 -.217E-18 0.221E+00   -.753E-02 0.265E-13 -.461E-03
   -.200E+01 0.208E-14 0.271E+01   0.207E+01 0.616E-14 -.247E+01   -.830E-01 0.000E+00 -.266E+00   -.328E-02 0.282E-13 0.114E-01
   -.777E+01 -.115E+02 0.499E+01   0.786E+01 0.117E+02 -.495E+01   -.693E-01 -.222E+00 -.436E-01   -.596E-02 -.764E-02 0.179E-02
   -.712E+00 -.323E+01 0.278E+01   0.800E+00 0.327E+01 -.263E+01   -.951E-01 -.441E-01 -.169E+00   -.476E-02 -.944E-02 0.846E-02
   0.120E+01 -.300E-13 0.120E+01   -.115E+01 0.405E-14 -.115E+01   -.709E-01 0.000E+00 -.709E-01   0.832E-02 -.476E-13 0.832E-02
   0.300E+01 0.123E-13 0.300E+01   -.267E+01 -.305E-14 -.267E+01   -.329E+00 0.000E+00 -.329E+00   0.323E-02 -.202E-13 0.323E-02
   0.750E+01 -.856E+01 0.508E+00   -.773E+01 0.877E+01 -.597E+00   0.247E+00 -.214E+00 0.128E+00   0.568E-02 -.115E-01 0.510E-02
   0.508E+00 -.856E+01 0.750E+01   -.597E+00 0.877E+01 -.773E+01   0.128E+00 -.214E+00 0.247E+00   0.510E-02 -.115E-01 0.568E-02
   -.397E+01 -.422E-12 0.415E+01   0.414E+01 0.500E-14 -.422E+01   -.162E+00 0.000E+00 0.106E+00   -.418E-02 -.219E-13 0.131E-02
   -.773E+01 -.583E-13 0.779E+01   0.783E+01 0.126E-13 -.796E+01   -.995E-01 0.139E-16 0.114E+00   -.541E-02 -.167E-13 0.858E-02
   -.777E+01 0.115E+02 0.499E+01   0.786E+01 -.117E+02 -.495E+01   -.693E-01 0.222E+00 -.436E-01   -.596E-02 0.764E-02 0.179E-02
   -.712E+00 0.323E+01 0.278E+01   0.800E+00 -.327E+01 -.263E+01   -.951E-01 0.441E-01 -.169E+00   -.476E-02 0.944E-02 0.846E-02
   0.755E+01 0.620E-13 0.755E+01   -.774E+01 0.444E-15 -.774E+01   0.217E+00 0.000E+00 0.217E+00   0.529E-02 0.264E-13 0.529E-02
   0.750E+01 0.856E+01 0.508E+00   -.773E+01 -.877E+01 -.597E+00   0.247E+00 0.214E+00 0.128E+00   0.568E-02 0.115E-01 0.510E-02
   0.508E+00 0.856E+01 0.750E+01   -.597E+00 -.877E+01 -.773E+01   0.128E+00 0.214E+00 0.247E+00   0.510E-02 0.115E-01 0.568E-02
 -----------------------------------------------------------------------------------------------
   -.587E-01 0.167E-12 -.587E-01   0.200E-14 0.355E-14 0.178E-14   0.581E-01 0.278E-16 0.581E-01   0.772E-03 -.529E-13 0.772E-03
 
 
 POSITION                                       TOTAL-FORCE (eV/Angst)
 -----------------------------------------------------------------------------------
      2.10907      4.04353      2.10907        -0.000965      0.000000     -0.000965
     -0.00336      0.00000     -0.00336        -0.008906      0.000000     -0.008906
      2.00758      0.00000      2.00758         0.021556      0.000000      0.021556
      2.02206      2.01897      0.00305        -0.010338     -0.035661     -0.052160
      0.00305      2.01897      2.02206        -0.052160     -0.035661     -0.010338
      4.04056      0.00000      8.05605         0.025159      0.000000      0.021425
      6.09250      0.00000      2.02090        -0.017891      0.000000     -0.023792
      6.08198      2.01435      8.07936        -0.011453     -0.013940     -0.012275
      4.08015      2.00196      2.02021         0.003204     -0.039016      0.019090
      8.07980      4.04353      8.07980        -0.024878      0.000000     -0.024878
      2.02206      6.06808      0.00305        -0.010338      0.035661     -0.052160
      0.00305      6.06808      2.02206        -0.052160      0.035661     -0.010338
      4.06327      4.04353      8.06632         0.033564      0.000000      0.006382
      6.03983      4.04353      2.03208        -0.051568      0.000000     -0.006681
      6.08198      6.07271      8.07936        -0.011453      0.013940     -0.012275
      4.08015      6.08509      2.02021         0.003204      0.039016      0.019090
      8.05605      0.00000      4.04056         0.021425      0.000000      0.025159
      2.02090      0.00000      6.09250        -0.023792      0.000000     -0.017891
      2.02021      2.00196      4.08015         0.019090     -0.039016      0.003204
      8.07936      2.01435      6.08198        -0.012275     -0.013940     -0.011453
      4.04987      0.00000      4.04987        -0.012974      0.000000     -0.012974
      6.07377      0.00000      6.07377        -0.000630      0.000000     -0.000630
      6.02122      2.05773      4.03112         0.024628     -0.017425      0.044231
      4.03112      2.05773      6.02122         0.044231     -0.017425      0.024628
      8.06632      4.04353      4.06327         0.006382      0.000000      0.033564
      2.03208      4.04353      6.03983        -0.006681      0.000000     -0.051568
      2.02021      6.08509      4.08015         0.019090      0.039016      0.003204
      8.07936      6.07271      6.08198        -0.012275      0.013940     -0.011453
      6.02986      4.04353      6.02986         0.030344      0.000000      0.030344
      6.02122      6.02932      4.03112         0.024628      0.017425      0.044231
      4.03112      6.02932      6.02122         0.044231      0.017425      0.024628
 -----------------------------------------------------------------------------------
    total drift:                                0.000098      0.000000      0.000098
 d Force = 0.1162331E-01[-0.113E-03, 0.234E-01]  d Energy = 0.1145882E-01 0.164E-03
 d Force = 0.1818233E+01[ 0.168E+01, 0.196E+01]  d Ewald  = 0.1818157E+01 0.759E-04


--------------------------------------------------------------------------------------------------------


    POTLOK:  cpu time    2.27: real time    2.20


--------------------------------------------------------------------------------------------------------


  FORCES: max atom, RMS     0.064025    0.041566
  FORCE total and by dimension    0.231432    0.052160


--------------------------------------------------------------------------------------------------------


  
 reached required accuracy - stopping structural energy minimisation
     LOOP+:  cpu time  244.16: real time  100.33
    4ORBIT:  cpu time    0.00: real time    0.00

 total amount of memory used by VASP on root node 133132. kBytes
========================================================================

   base      :    30000. kBytes
   nonl-proj :     4690. kBytes
   fftplans  :    30736. kBytes
   grid      :    54743. kBytes
   one-center:       95. kBytes
   wavefun   :    12868. kBytes
 
  
  
 General timing and accounting informations for this job:
 ========================================================
  
                  Total CPU time used (sec):     1865.883
                            User time (sec):     1853.388
                          System time (sec):       12.495
                         Elapsed time (sec):      744.186
  
                   Maximum memory used (kb):           0.
                   Average memory used (kb):           0.
  
                          Minor page faults:       388056
                          Major page faults:            0
                 Voluntary context switches:        11367
