<?xml version="1.0" encoding="ISO-8859-1"?>
<modeling>
 <generator>
  <i name="program" type="string">vasp </i>
  <i name="version" type="string">5.2.2  </i>
  <i name="subversion" type="string">15Apr09 complex  parallel </i>
  <i name="platform" type="string">LinuxIFC </i>
  <i name="date" type="string">2013 08 21 </i>
  <i name="time" type="string">16:10:44 </i>
 </generator>
 <incar>
  <i type="string" name="PREC">accurate</i>
  <i type="int" name="IBRION">     2</i>
  <i type="int" name="NSW">   191</i>
  <i type="int" name="ISIF">     2</i>
  <i name="ENCUT">    360.65550000</i>
  <i type="int" name="ISMEAR">     1</i>
  <i name="SIGMA">      0.20000000</i>
  <i type="logical" name="LWAVE"> F  </i>
  <i type="logical" name="LCHARG"> F  </i>
  <i type="logical" name="LPEAD"> F  </i>
  <i type="logical" name="LCALCPOL"> F  </i>
  <i type="logical" name="LCALCEPS"> F  </i>
  <v name="EFIELD_PEAD">      0.00000000      0.00000000      0.00000000</v>
  <i type="logical" name="LEFG"> F  </i>
 </incar>
 <kpoints>
  <generation param="Monkhorst-Pack">
   <v type="int" name="divisions">       2        2        2 </v>
   <v name="usershift">      0.00000000       0.00000000       0.00000000 </v>
   <v name="genvec1">      0.50000000       0.00000000       0.00000000 </v>
   <v name="genvec2">      0.00000000       0.50000000       0.00000000 </v>
   <v name="genvec3">      0.00000000       0.00000000       0.50000000 </v>
   <v name="shift">      0.50000000       0.50000000       0.50000000 </v>
  </generation>
  <varray name="kpointlist" >
   <v>       0.25000000       0.25000000       0.25000000 </v>
  </varray>
  <varray name="weights" >
   <v>       1.00000000 </v>
  </varray>
 </kpoints>
 <parameters>
  <separator name="general" >
   <i type="string" name="SYSTEM">unknown system</i>
   <i type="logical" name="LCOMPAT"> F  </i>
  </separator>
  <separator name="electronic" >
   <i type="string" name="PREC">accura</i>
   <i name="ENMAX">    360.65550000</i>
   <i name="ENAUG">    291.05200000</i>
   <i name="EDIFF">      0.00010000</i>
   <i type="int" name="IALGO">    38</i>
   <i type="int" name="IWAVPR">    11</i>
   <i type="int" name="NBANDS">     8</i>
   <i name="NELECT">      9.00000000</i>
   <separator name="electronic smearing" >
    <i type="int" name="ISMEAR">     1</i>
    <i name="SIGMA">      0.20000000</i>
   </separator>
   <separator name="electronic projectors" >
    <i type="logical" name="LREAL"> F  </i>
    <v name="ROPT">      0.00000000</v>
    <i type="int" name="LMAXPAW">  -100</i>
    <i type="int" name="LMAXMIX">     2</i>
   </separator>
   <separator name="electronic startup" >
    <i type="int" name="ISTART">     0</i>
    <i type="int" name="ICHARG">     2</i>
    <i type="int" name="INIWAV">     1</i>
   </separator>
   <separator name="electronic spin" >
    <i type="int" name="ISPIN">     1</i>
    <i type="logical" name="LNONCOLLINEAR"> F  </i>
    <v name="MAGMOM">      1.00000000      1.00000000      1.00000000</v>
    <i name="NUPDOWN">     -1.00000000</i>
    <i type="logical" name="LSORBIT"> F  </i>
    <v name="SAXIS">      0.00000000      0.00000000      1.00000000</v>
    <i type="logical" name="LSPIRAL"> F  </i>
    <v name="QSPIRAL">      0.00000000      0.00000000      0.00000000</v>
    <i type="logical" name="LZEROZ"> F  </i>
   </separator>
   <separator name="electronic exchange-correlation" >
    <i type="logical" name="LASPH"> F  </i>
    <i type="logical" name="LMETAGGA"> F  </i>
   </separator>
   <separator name="electronic convergence" >
    <i type="int" name="NELM">    60</i>
    <i type="int" name="NELMDL">    -5</i>
    <i type="int" name="NELMIN">     2</i>
    <i name="ENINI">    360.65550000</i>
    <separator name="electronic convergence detail" >
     <i type="logical" name="LDIAG"> T  </i>
     <i name="WEIMIN">      0.00100000</i>
     <i name="EBREAK">      0.00000313</i>
     <i name="DEPER">      0.30000000</i>
     <i type="int" name="NRMM">     4</i>
     <i name="TIME">      0.40000000</i>
    </separator>
   </separator>
   <separator name="electronic mixer" >
    <i name="AMIX">      0.40000000</i>
    <i name="BMIX">      1.00000000</i>
    <i name="AMIN">      0.10000000</i>
    <i name="AMIX_MAG">      1.60000000</i>
    <i name="BMIX_MAG">      1.00000000</i>
    <separator name="electronic mixer details" >
     <i type="int" name="IMIX">     4</i>
     <i type="int" name="MAXMIX">   -45</i>
     <i name="WC">    100.00000000</i>
     <i type="int" name="INIMIX">     1</i>
     <i type="int" name="MIXPRE">     1</i>
     <i type="int" name="MREMOVE">     5</i>
    </separator>
   </separator>
   <separator name="electronic dipolcorrection" >
    <i type="logical" name="LDIPOL"> F  </i>
    <i type="logical" name="LMONO"> F  </i>
    <i type="int" name="IDIPOL">     0</i>
    <i name="EPSILON">      1.00000000</i>
    <v name="DIPOL">   -100.00000000   -100.00000000   -100.00000000</v>
    <i name="EFIELD">      0.00000000</i>
   </separator>
  </separator>
  <separator name="grids" >
   <i type="int" name="NGX">    24</i>
   <i type="int" name="NGY">    24</i>
   <i type="int" name="NGZ">    24</i>
   <i type="int" name="NGXF">    48</i>
   <i type="int" name="NGYF">    48</i>
   <i type="int" name="NGZF">    48</i>
   <i type="logical" name="ADDGRID"> F  </i>
  </separator>
  <separator name="ionic" >
   <i type="int" name="NSW">   191</i>
   <i type="int" name="IBRION">     2</i>
   <i type="int" name="ISIF">     2</i>
   <i name="PSTRESS">      0.00000000</i>
   <i name="EDIFFG">      0.00100000</i>
   <i type="int" name="NFREE">     1</i>
   <i name="POTIM">      0.50000000</i>
   <i name="SMASS">     -3.00000000</i>
  </separator>
  <separator name="ionic md" >
   <i name="TEBEG">      0.00010000</i>
   <i name="TEEND">      0.00010000</i>
   <i type="int" name="NBLOCK">     1</i>
   <i type="int" name="KBLOCK">   191</i>
   <i type="int" name="NPACO">   256</i>
   <i name="APACO">     16.00000000</i>
  </separator>
  <separator name="symmetry" >
   <i type="int" name="ISYM">     2</i>
   <i name="SYMPREC">      0.00001000</i>
  </separator>
  <separator name="dos" >
   <i type="logical" name="LORBIT"> F  </i>
   <v name="RWIGS">     -1.00000000</v>
   <i type="int" name="NEDOS">   301</i>
   <i name="EMIN">     10.00000000</i>
   <i name="EMAX">    -10.00000000</i>
   <i name="EFERMI">      0.00000000</i>
  </separator>
  <separator name="writing" >
   <i type="int" name="NWRITE">     2</i>
   <i type="logical" name="LWAVE"> F  </i>
   <i type="logical" name="LCHARG"> F  </i>
   <i type="logical" name="LPARD"> F  </i>
   <i type="logical" name="LVTOT"> F  </i>
   <i type="logical" name="LELF"> F  </i>
   <i type="logical" name="LOPTICS"> F  </i>
   <v name="STM">      0.00000000      0.00000000      0.00000000      0.00000000      0.00000000</v>
  </separator>
  <separator name="performance" >
   <i type="int" name="NPAR">     1</i>
   <i type="int" name="NSIM">     4</i>
   <i type="int" name="NBLK">    32</i>
   <i type="logical" name="LPLANE"> T  </i>
   <i type="logical" name="LSCALAPACK"> F  </i>
   <i type="logical" name="LSCAAWARE"> F  </i>
   <i type="logical" name="LSCALU"> F  </i>
   <i type="logical" name="LASYNC"> F  </i>
  </separator>
  <separator name="miscellaneous" >
   <i type="int" name="IDIOT">     3</i>
   <i type="logical" name="LMUSIC"> F  </i>
   <v name="POMASS">     26.98200000</v>
   <i type="logical" name="LCORR"> T  </i>
  </separator>
  <i type="logical" name="LREAL_COMPAT"> F  </i>
  <i type="logical" name="GGA_COMPAT"> T  </i>
  <i type="logical" name="LBERRY"> F  </i>
  <i type="int" name="ICORELEVEL">     0</i>
  <i type="logical" name="LDAU"> F  </i>
  <i type="int" name="I_CONSTRAINED_M">     0</i>
  <separator name="electronic exchange-correlation" >
   <i type="string" name="GGA">--</i>
   <i type="int" name="VOSKOWN">     0</i>
   <i type="logical" name="LHFCALC"> F  </i>
   <i type="logical" name="LHFONE"> F  </i>
   <i type="logical" name="LRHFCALC"> F  </i>
   <i type="logical" name="LTHOMAS"> F  </i>
   <i type="logical" name="LMODELHF"> F  </i>
   <i name="ENCUTFOCK">      0.00000000</i>
   <i name="ENCUT4O">     -1.00000000</i>
   <i type="int" name="EXXOEP">     0</i>
   <i type="int" name="FOURORBIT">     0</i>
   <i name="AEXX">      0.00000000</i>
   <i name="HFALPHA">      0.00000000</i>
   <i name="ALDAX">      1.00000000</i>
   <i name="AGGAX">      1.00000000</i>
   <i name="ALDAC">      1.00000000</i>
   <i name="AGGAC">      1.00000000</i>
   <i type="int" name="NKREDX">     1</i>
   <i type="int" name="NKREDY">     1</i>
   <i type="int" name="NKREDZ">     1</i>
   <i type="logical" name="SHIFTRED"> F  </i>
   <i type="logical" name="ODDONLY"> F  </i>
   <i type="logical" name="EVENONLY"> F  </i>
   <i type="int" name="LMAXFOCK">     0</i>
   <i type="int" name="NMAXFOCKAE">     0</i>
   <i name="HFSCREEN">      0.00000000</i>
   <i name="HFSCREENC">      0.00000000</i>
  </separator>
  <separator name="model GW" >
   <i type="int" name="MODEL_GW">     0</i>
   <i name="MODEL_EPS0">      8.57500000</i>
   <i name="MODEL_ALPHA">      1.00000000</i>
  </separator>
  <separator name="linear response parameters" >
   <i type="logical" name="LEPSILON"> F  </i>
   <i type="logical" name="LRPA"> F  </i>
   <i type="logical" name="LNABLA"> F  </i>
   <i type="logical" name="LVEL"> F  </i>
   <i type="int" name="KINTER">     0</i>
   <i name="CSHIFT">      0.10000000</i>
   <i name="OMEGAMAX">     -1.00000000</i>
  </separator>
  <separator name="orbital magnetization" >
   <i type="logical" name="ORBITALMAG"> F  </i>
   <i type="logical" name="LMAGBLOCH"> F  </i>
   <i type="logical" name="LCHIMAG"> F  </i>
   <i type="logical" name="LGAUGE"> T  </i>
   <i type="int" name="MAGATOM">     0</i>
   <v name="MAGDIPOL">      0.00000000      0.00000000      0.00000000</v>
   <v name="AVECCONST">      0.00000000      0.00000000      0.00000000</v>
  </separator>
  <separator name="response functions" >
   <i type="logical" name="LRPA"> T  </i>
   <i type="logical" name="LTCTE"> F  </i>
   <i type="logical" name="LTETE"> F  </i>
   <i type="logical" name="L2ORDER"> F  </i>
   <i type="logical" name="LGWLF"> F  </i>
   <i name="ENCUTGW">    240.43700000</i>
   <i name="ENCUTGWSOFT">     -2.00000000</i>
   <i name="ENCUTLF">     -1.00000000</i>
   <i type="int" name="LMAXMP2">    -1</i>
   <i name="SCISSOR">      0.00000000</i>
   <i type="int" name="NOMEGA">     0</i>
   <i type="int" name="NOMEGAR">     0</i>
   <i type="int" name="NBANDSGW">    -1</i>
   <i type="int" name="NBANDSLF">    -1</i>
   <i type="int" name="NELM">     1</i>
   <i type="int" name="DIM">     3</i>
   <i type="int" name="ANTIRES">     0</i>
   <i type="logical" name="LUSEW"> F  </i>
   <i name="OMEGAMAX">    -30.00000000</i>
   <i name="OMEGATL">   -200.00000000</i>
   <i type="int" name="OMEGAGRID">     0</i>
   <i name="CSHIFT">     -0.10000000</i>
   <i type="logical" name="SELFENERGY"> F  </i>
   <i type="logical" name="LSPECTRAL"> F  </i>
   <i type="logical" name="ODDONLYGW"> F  </i>
   <i type="logical" name="EVENONLYGW"> F  </i>
   <i type="int" name="NKREDLFX">     1</i>
   <i type="int" name="NKREDLFY">     1</i>
   <i type="int" name="NKREDLFZ">     1</i>
   <i type="int" name="MAXMEM">  1024</i>
   <i type="int" name="TELESCOPE">     0</i>
  </separator>
 </parameters>
 <atominfo>
  <atoms>       3 </atoms>
  <types>       1 </types>
  <array name="atoms" >
   <dimension dim="1">ion</dimension>
   <field type="string">element</field>
   <field type="int">atomtype</field>
   <set>
    <rc><c>Al</c><c>   1</c></rc>
    <rc><c>Al</c><c>   1</c></rc>
    <rc><c>Al</c><c>   1</c></rc>
   </set>
  </array>
  <array name="atomtypes" >
   <dimension dim="1">type</dimension>
   <field type="int">atomspertype</field>
   <field type="string">element</field>
   <field>mass</field>
   <field>valence</field>
   <field type="string">pseudopotential</field>
   <set>
    <rc><c>   3</c><c>Al</c><c>     26.98200000</c><c>      3.00000000</c><c> PAW_GGA Al 05Jan2001                   </c></rc>
   </set>
  </array>
 </atominfo>
 <structure name="initialpos" >
  <crystal>
   <varray name="basis" >
    <v>       3.50000000       0.00000000       0.00000000 </v>
    <v>       0.00000000       3.50000000       0.00000000 </v>
    <v>       0.00000000       0.00000000       3.50000000 </v>
   </varray>
   <i name="volume">     42.87500000 </i>
   <varray name="rec_basis" >
    <v>       0.28571429       0.00000000       0.00000000 </v>
    <v>       0.00000000       0.28571429       0.00000000 </v>
    <v>       0.00000000       0.00000000       0.28571429 </v>
   </varray>
  </crystal>
  <varray name="positions" >
   <v>       0.00000000       0.00000000       0.00000000 </v>
   <v>       0.00000000       0.50000000       0.50000000 </v>
   <v>       0.50000000       0.00000000       0.50000000 </v>
  </varray>
 </structure>
 <calculation>
  <scstep>
   <time name="dav">    0.19    0.06</time>
   <time name="total">    0.54    0.32</time>
   <energy>
    <i name="alphaZ">     -0.53451638 </i>
    <i name="ewald">   -222.29814539 </i>
    <i name="hartreedc">     -2.67604008 </i>
    <i name="XCdc">    -78.29240780 </i>
    <i name="pawpsdc">    106.97730018 </i>
    <i name="pawaedc">    -10.81747568 </i>
    <i name="eentropy">     -0.05641896 </i>
    <i name="bandstr">     50.36579289 </i>
    <i name="atom">    161.07115403 </i>
    <i name="e_fr_energy">      3.73924282 </i>
    <i name="e_wo_entrp">      3.79566178 </i>
    <i name="e_0_energy">      3.75804914 </i>
   </energy>
  </scstep>
  <scstep>
   <time name="dav">    0.21    0.05</time>
   <time name="total">    0.22    0.06</time>
   <energy>
    <i name="e_fr_energy">     -8.77415287 </i>
    <i name="e_wo_entrp">     -8.74317399 </i>
    <i name="e_0_energy">     -8.76382658 </i>
   </energy>
  </scstep>
  <scstep>
   <time name="dav">    0.36    0.09</time>
   <time name="total">    0.37    0.09</time>
   <energy>
    <i name="e_fr_energy">     -8.92646959 </i>
    <i name="e_wo_entrp">     -8.84394678 </i>
    <i name="e_0_energy">     -8.89896199 </i>
   </energy>
  </scstep>
  <scstep>
   <time name="dav">    0.23    0.06</time>
   <time name="total">    0.24    0.06</time>
   <energy>
    <i name="e_fr_energy">     -8.92656518 </i>
    <i name="e_wo_entrp">     -8.84404232 </i>
    <i name="e_0_energy">     -8.89905756 </i>
   </energy>
  </scstep>
  <scstep>
   <time name="dav">    0.36    0.09</time>
   <time name="total">    0.50    0.13</time>
   <energy>
    <i name="e_fr_energy">     -8.92656575 </i>
    <i name="e_wo_entrp">     -8.84404289 </i>
    <i name="e_0_energy">     -8.89905813 </i>
   </energy>
  </scstep>
  <scstep>
   <time name="dav">    0.18    0.05</time>
   <time name="total">    0.58    0.36</time>
   <energy>
    <i name="e_fr_energy">     -8.75558776 </i>
    <i name="e_wo_entrp">     -8.67306489 </i>
    <i name="e_0_energy">     -8.72808013 </i>
   </energy>
  </scstep>
  <scstep>
   <time name="dav">    0.18    0.05</time>
   <time name="total">    0.58    0.36</time>
   <energy>
    <i name="e_fr_energy">     -8.70562871 </i>
    <i name="e_wo_entrp">     -8.62310585 </i>
    <i name="e_0_energy">     -8.67812109 </i>
   </energy>
  </scstep>
  <scstep>
   <time name="dav">    0.18    0.05</time>
   <time name="total">    0.62    0.36</time>
   <energy>
    <i name="e_fr_energy">     -8.70559472 </i>
    <i name="e_wo_entrp">     -8.62307185 </i>
    <i name="e_0_energy">     -8.67808710 </i>
   </energy>
  </scstep>
  <scstep>
   <time name="dav">    0.38    0.10</time>
   <time name="total">    0.71    0.37</time>
   <energy>
    <i name="alphaZ">     -0.53451638 </i>
    <i name="ewald">   -222.29814539 </i>
    <i name="hartreedc">     -4.23553439 </i>
    <i name="XCdc">    -77.71338625 </i>
    <i name="pawpsdc">    113.62089847 </i>
    <i name="pawaedc">    -17.80465085 </i>
    <i name="eentropy">     -0.08252286 </i>
    <i name="bandstr">     39.27111207 </i>
    <i name="atom">    161.07115403 </i>
    <i name="e_fr_energy">     -8.70559156 </i>
    <i name="e_wo_entrp">     -8.62306870 </i>
    <i name="e_0_energy">     -8.67808394 </i>
   </energy>
  </scstep>
  <structure>
   <crystal>
    <varray name="basis" >
     <v>       3.50000000       0.00000000       0.00000000 </v>
     <v>       0.00000000       3.50000000       0.00000000 </v>
     <v>       0.00000000       0.00000000       3.50000000 </v>
    </varray>
    <i name="volume">     42.87500000 </i>
    <varray name="rec_basis" >
     <v>       0.28571429       0.00000000       0.00000000 </v>
     <v>       0.00000000       0.28571429       0.00000000 </v>
     <v>       0.00000000       0.00000000       0.28571429 </v>
    </varray>
   </crystal>
   <varray name="positions" >
    <v>       0.00000000       0.00000000       0.00000000 </v>
    <v>       0.00000000       0.50000000       0.50000000 </v>
    <v>       0.50000000       0.00000000       0.50000000 </v>
   </varray>
  </structure>
  <varray name="forces" >
   <v>       0.00000000       0.00000000       0.00000000 </v>
   <v>       0.00000000       0.00000000       0.00000000 </v>
   <v>       0.00000000       0.00000000       0.00000000 </v>
  </varray>
  <varray name="stress" >
   <v>     445.95259952       0.00000000       0.00000000 </v>
   <v>       0.00000000     445.95259952       0.00000000 </v>
   <v>       0.00000000       0.00000000     445.95259952 </v>
  </varray>
  <energy>
   <i name="e_fr_energy">     -8.70559156 </i>
   <i name="e_wo_entrp">     -8.67808394 </i>
   <i name="e_0_energy">     -0.08252286 </i>
  </energy>
  <time name="totalsc">    5.57    2.98</time>
  <eigenvalues>
   <array>
    <dimension dim="1">band</dimension>
    <dimension dim="2">kpoint</dimension>
    <dimension dim="3">spin</dimension>
    <field>eigene</field>
    <field>occ</field>
    <set>
     <set comment="spin 1">
      <set comment="kpoint 1">
       <r>   -0.8423    1.0000 </r>
       <r>    4.9146    1.0000 </r>
       <r>    5.1511    1.0000 </r>
       <r>    5.1511    1.0000 </r>
       <r>   10.5222    0.2500 </r>
       <r>   10.5222    0.2500 </r>
       <r>   11.4214    0.0000 </r>
       <r>   16.2850    0.0000 </r>
      </set>
     </set>
    </set>
   </array>
  </eigenvalues>
  <separator name="orbital magnetization" >
   <v name="MAGDIPOLOUT">      0.00000000      0.00000000      0.00000000</v>
  </separator>
  <dos>
   <i name="efermi">     10.45984995 </i>
   <total>
    <array>
     <dimension dim="1">gridpoints</dimension>
     <dimension dim="2">spin</dimension>
     <field>energy</field>
     <field>total</field>
     <field>integrated</field>
     <set>
      <set comment="spin 1">
       <r>  -2.8423   0.0000   0.0000 </r>
       <r>  -2.7719   0.0000   0.0000 </r>
       <r>  -2.7015   0.0000   0.0000 </r>
       <r>  -2.6310   0.0000   0.0000 </r>
       <r>  -2.5606   0.0000   0.0000 </r>
       <r>  -2.4902   0.0000   0.0000 </r>
       <r>  -2.4198   0.0000   0.0000 </r>
       <r>  -2.3493   0.0000   0.0000 </r>
       <r>  -2.2789   0.0000   0.0000 </r>
       <r>  -2.2085   0.0000   0.0000 </r>
       <r>  -2.1381   0.0000   0.0000 </r>
       <r>  -2.0676   0.0000   0.0000 </r>
       <r>  -1.9972   0.0000   0.0000 </r>
       <r>  -1.9268   0.0000   0.0000 </r>
       <r>  -1.8564   0.0000   0.0000 </r>
       <r>  -1.7859   0.0000   0.0000 </r>
       <r>  -1.7155   0.0000   0.0000 </r>
       <r>  -1.6451   0.0000   0.0000 </r>
       <r>  -1.5747   0.0000   0.0000 </r>
       <r>  -1.5042  -0.0004   0.0000 </r>
       <r>  -1.4338  -0.0029  -0.0002 </r>
       <r>  -1.3634  -0.0169  -0.0014 </r>
       <r>  -1.2930  -0.0719  -0.0065 </r>
       <r>  -1.2225  -0.2162  -0.0217 </r>
       <r>  -1.1521  -0.4136  -0.0508 </r>
       <r>  -1.0817  -0.2815  -0.0707 </r>
       <r>  -1.0113   0.9852  -0.0013 </r>
       <r>  -0.9408   3.8220   0.2679 </r>
       <r>  -0.8704   7.0541   0.7647 </r>
       <r>  -0.8000   8.3020   1.3493 </r>
       <r>  -0.7296   6.4859   1.8061 </r>
       <r>  -0.6591   3.1521   2.0281 </r>
       <r>  -0.5887   0.6006   2.0704 </r>
       <r>  -0.5183  -0.3705   2.0443 </r>
       <r>  -0.4479  -0.3807   2.0175 </r>
       <r>  -0.3774  -0.1786   2.0049 </r>
       <r>  -0.3070  -0.0551   2.0010 </r>
       <r>  -0.2366  -0.0122   2.0002 </r>
       <r>  -0.1662  -0.0020   2.0000 </r>
       <r>  -0.0957  -0.0002   2.0000 </r>
       <r>  -0.0253   0.0000   2.0000 </r>
       <r>   0.0451   0.0000   2.0000 </r>
       <r>   0.1155   0.0000   2.0000 </r>
       <r>   0.1860   0.0000   2.0000 </r>
       <r>   0.2564   0.0000   2.0000 </r>
       <r>   0.3268   0.0000   2.0000 </r>
       <r>   0.3972   0.0000   2.0000 </r>
       <r>   0.4676   0.0000   2.0000 </r>
       <r>   0.5381   0.0000   2.0000 </r>
       <r>   0.6085   0.0000   2.0000 </r>
       <r>   0.6789   0.0000   2.0000 </r>
       <r>   0.7493   0.0000   2.0000 </r>
       <r>   0.8198   0.0000   2.0000 </r>
       <r>   0.8902   0.0000   2.0000 </r>
       <r>   0.9606   0.0000   2.0000 </r>
       <r>   1.0310   0.0000   2.0000 </r>
       <r>   1.1015   0.0000   2.0000 </r>
       <r>   1.1719   0.0000   2.0000 </r>
       <r>   1.2423   0.0000   2.0000 </r>
       <r>   1.3127   0.0000   2.0000 </r>
       <r>   1.3832   0.0000   2.0000 </r>
       <r>   1.4536   0.0000   2.0000 </r>
       <r>   1.5240   0.0000   2.0000 </r>
       <r>   1.5944   0.0000   2.0000 </r>
       <r>   1.6649   0.0000   2.0000 </r>
       <r>   1.7353   0.0000   2.0000 </r>
       <r>   1.8057   0.0000   2.0000 </r>
       <r>   1.8761   0.0000   2.0000 </r>
       <r>   1.9466   0.0000   2.0000 </r>
       <r>   2.0170   0.0000   2.0000 </r>
       <r>   2.0874   0.0000   2.0000 </r>
       <r>   2.1578   0.0000   2.0000 </r>
       <r>   2.2283   0.0000   2.0000 </r>
       <r>   2.2987   0.0000   2.0000 </r>
       <r>   2.3691   0.0000   2.0000 </r>
       <r>   2.4395   0.0000   2.0000 </r>
       <r>   2.5100   0.0000   2.0000 </r>
       <r>   2.5804   0.0000   2.0000 </r>
       <r>   2.6508   0.0000   2.0000 </r>
       <r>   2.7212   0.0000   2.0000 </r>
       <r>   2.7917   0.0000   2.0000 </r>
       <r>   2.8621   0.0000   2.0000 </r>
       <r>   2.9325   0.0000   2.0000 </r>
       <r>   3.0029   0.0000   2.0000 </r>
       <r>   3.0734   0.0000   2.0000 </r>
       <r>   3.1438   0.0000   2.0000 </r>
       <r>   3.2142   0.0000   2.0000 </r>
       <r>   3.2846   0.0000   2.0000 </r>
       <r>   3.3551   0.0000   2.0000 </r>
       <r>   3.4255   0.0000   2.0000 </r>
       <r>   3.4959   0.0000   2.0000 </r>
       <r>   3.5663   0.0000   2.0000 </r>
       <r>   3.6367   0.0000   2.0000 </r>
       <r>   3.7072   0.0000   2.0000 </r>
       <r>   3.7776   0.0000   2.0000 </r>
       <r>   3.8480   0.0000   2.0000 </r>
       <r>   3.9184   0.0000   2.0000 </r>
       <r>   3.9889   0.0000   2.0000 </r>
       <r>   4.0593   0.0000   2.0000 </r>
       <r>   4.1297   0.0000   2.0000 </r>
       <r>   4.2001  -0.0001   2.0000 </r>
       <r>   4.2706  -0.0007   1.9999 </r>
       <r>   4.3410  -0.0047   1.9996 </r>
       <r>   4.4114  -0.0252   1.9978 </r>
       <r>   4.4818  -0.0990   1.9909 </r>
       <r>   4.5523  -0.2728   1.9717 </r>
       <r>   4.6227  -0.4666   1.9388 </r>
       <r>   4.6931  -0.2276   1.9228 </r>
       <r>   4.7635   1.1752   2.0055 </r>
       <r>   4.8340   3.8970   2.2800 </r>
       <r>   4.9044   6.9800   2.7715 </r>
       <r>   4.9748   9.6690   3.4525 </r>
       <r>   5.0452  12.6313   4.3420 </r>
       <r>   5.1157  15.9087   5.4624 </r>
       <r>   5.1861  16.8529   6.6492 </r>
       <r>   5.2565  13.1460   7.5750 </r>
       <r>   5.3269   6.6545   8.0437 </r>
       <r>   5.3974   1.4414   8.1452 </r>
       <r>   5.4678  -0.6991   8.0960 </r>
       <r>   5.5382  -0.8053   8.0392 </r>
       <r>   5.6086  -0.3961   8.0113 </r>
       <r>   5.6791  -0.1267   8.0024 </r>
       <r>   5.7495  -0.0289   8.0004 </r>
       <r>   5.8199  -0.0049   8.0000 </r>
       <r>   5.8903  -0.0006   8.0000 </r>
       <r>   5.9608  -0.0001   8.0000 </r>
       <r>   6.0312   0.0000   8.0000 </r>
       <r>   6.1016   0.0000   8.0000 </r>
       <r>   6.1720   0.0000   8.0000 </r>
       <r>   6.2425   0.0000   8.0000 </r>
       <r>   6.3129   0.0000   8.0000 </r>
       <r>   6.3833   0.0000   8.0000 </r>
       <r>   6.4537   0.0000   8.0000 </r>
       <r>   6.5242   0.0000   8.0000 </r>
       <r>   6.5946   0.0000   8.0000 </r>
       <r>   6.6650   0.0000   8.0000 </r>
       <r>   6.7354   0.0000   8.0000 </r>
       <r>   6.8059   0.0000   8.0000 </r>
       <r>   6.8763   0.0000   8.0000 </r>
       <r>   6.9467   0.0000   8.0000 </r>
       <r>   7.0171   0.0000   8.0000 </r>
       <r>   7.0875   0.0000   8.0000 </r>
       <r>   7.1580   0.0000   8.0000 </r>
       <r>   7.2284   0.0000   8.0000 </r>
       <r>   7.2988   0.0000   8.0000 </r>
       <r>   7.3692   0.0000   8.0000 </r>
       <r>   7.4397   0.0000   8.0000 </r>
       <r>   7.5101   0.0000   8.0000 </r>
       <r>   7.5805   0.0000   8.0000 </r>
       <r>   7.6509   0.0000   8.0000 </r>
       <r>   7.7214   0.0000   8.0000 </r>
       <r>   7.7918   0.0000   8.0000 </r>
       <r>   7.8622   0.0000   8.0000 </r>
       <r>   7.9326   0.0000   8.0000 </r>
       <r>   8.0031   0.0000   8.0000 </r>
       <r>   8.0735   0.0000   8.0000 </r>
       <r>   8.1439   0.0000   8.0000 </r>
       <r>   8.2143   0.0000   8.0000 </r>
       <r>   8.2848   0.0000   8.0000 </r>
       <r>   8.3552   0.0000   8.0000 </r>
       <r>   8.4256   0.0000   8.0000 </r>
       <r>   8.4960   0.0000   8.0000 </r>
       <r>   8.5665   0.0000   8.0000 </r>
       <r>   8.6369   0.0000   8.0000 </r>
       <r>   8.7073   0.0000   8.0000 </r>
       <r>   8.7777   0.0000   8.0000 </r>
       <r>   8.8482   0.0000   8.0000 </r>
       <r>   8.9186   0.0000   8.0000 </r>
       <r>   8.9890   0.0000   8.0000 </r>
       <r>   9.0594   0.0000   8.0000 </r>
       <r>   9.1299   0.0000   8.0000 </r>
       <r>   9.2003   0.0000   8.0000 </r>
       <r>   9.2707   0.0000   8.0000 </r>
       <r>   9.3411   0.0000   8.0000 </r>
       <r>   9.4116   0.0000   8.0000 </r>
       <r>   9.4820   0.0000   8.0000 </r>
       <r>   9.5524   0.0000   8.0000 </r>
       <r>   9.6228   0.0000   8.0000 </r>
       <r>   9.6933   0.0000   8.0000 </r>
       <r>   9.7637   0.0000   8.0000 </r>
       <r>   9.8341  -0.0003   8.0000 </r>
       <r>   9.9045  -0.0028   7.9998 </r>
       <r>   9.9750  -0.0183   7.9985 </r>
       <r>  10.0454  -0.0873   7.9923 </r>
       <r>  10.1158  -0.3005   7.9712 </r>
       <r>  10.1862  -0.6951   7.9222 </r>
       <r>  10.2567  -0.8296   7.8638 </r>
       <r>  10.3271   0.6624   7.9105 </r>
       <r>  10.3975   5.2363   8.2792 </r>
       <r>  10.4679  11.9161   9.1184 </r>
       <r>  10.5383  16.3951  10.2730 </r>
       <r>  10.6088  14.9323  11.3246 </r>
       <r>  10.6792   8.8040  11.9446 </r>
       <r>  10.7496   2.7245  12.1365 </r>
       <r>  10.8200  -0.3439  12.1123 </r>
       <r>  10.8905  -0.8788  12.0504 </r>
       <r>  10.9609  -0.5606  12.0109 </r>
       <r>  11.0313  -0.3675  11.9851 </r>
       <r>  11.1017  -0.4359  11.9544 </r>
       <r>  11.1722  -0.3557  11.9293 </r>
       <r>  11.2426   0.7105  11.9793 </r>
       <r>  11.3130   3.3550  12.2156 </r>
       <r>  11.3834   6.6688  12.6853 </r>
       <r>  11.4539   8.3165  13.2710 </r>
       <r>  11.5243   6.8872  13.7560 </r>
       <r>  11.5947   3.6125  14.0104 </r>
       <r>  11.6651   0.8593  14.0709 </r>
       <r>  11.7356  -0.3136  14.0488 </r>
       <r>  11.8060  -0.4045  14.0203 </r>
       <r>  11.8764  -0.2042  14.0060 </r>
       <r>  11.9468  -0.0663  14.0013 </r>
       <r>  12.0173  -0.0153  14.0002 </r>
       <r>  12.0877  -0.0026  14.0000 </r>
       <r>  12.1581  -0.0003  14.0000 </r>
       <r>  12.2285   0.0000  14.0000 </r>
       <r>  12.2990   0.0000  14.0000 </r>
       <r>  12.3694   0.0000  14.0000 </r>
       <r>  12.4398   0.0000  14.0000 </r>
       <r>  12.5102   0.0000  14.0000 </r>
       <r>  12.5807   0.0000  14.0000 </r>
       <r>  12.6511   0.0000  14.0000 </r>
       <r>  12.7215   0.0000  14.0000 </r>
       <r>  12.7919   0.0000  14.0000 </r>
       <r>  12.8624   0.0000  14.0000 </r>
       <r>  12.9328   0.0000  14.0000 </r>
       <r>  13.0032   0.0000  14.0000 </r>
       <r>  13.0736   0.0000  14.0000 </r>
       <r>  13.1441   0.0000  14.0000 </r>
       <r>  13.2145   0.0000  14.0000 </r>
       <r>  13.2849   0.0000  14.0000 </r>
       <r>  13.3553   0.0000  14.0000 </r>
       <r>  13.4258   0.0000  14.0000 </r>
       <r>  13.4962   0.0000  14.0000 </r>
       <r>  13.5666   0.0000  14.0000 </r>
       <r>  13.6370   0.0000  14.0000 </r>
       <r>  13.7074   0.0000  14.0000 </r>
       <r>  13.7779   0.0000  14.0000 </r>
       <r>  13.8483   0.0000  14.0000 </r>
       <r>  13.9187   0.0000  14.0000 </r>
       <r>  13.9891   0.0000  14.0000 </r>
       <r>  14.0596   0.0000  14.0000 </r>
       <r>  14.1300   0.0000  14.0000 </r>
       <r>  14.2004   0.0000  14.0000 </r>
       <r>  14.2708   0.0000  14.0000 </r>
       <r>  14.3413   0.0000  14.0000 </r>
       <r>  14.4117   0.0000  14.0000 </r>
       <r>  14.4821   0.0000  14.0000 </r>
       <r>  14.5525   0.0000  14.0000 </r>
       <r>  14.6230   0.0000  14.0000 </r>
       <r>  14.6934   0.0000  14.0000 </r>
       <r>  14.7638   0.0000  14.0000 </r>
       <r>  14.8342   0.0000  14.0000 </r>
       <r>  14.9047   0.0000  14.0000 </r>
       <r>  14.9751   0.0000  14.0000 </r>
       <r>  15.0455   0.0000  14.0000 </r>
       <r>  15.1159   0.0000  14.0000 </r>
       <r>  15.1864   0.0000  14.0000 </r>
       <r>  15.2568   0.0000  14.0000 </r>
       <r>  15.3272   0.0000  14.0000 </r>
       <r>  15.3976   0.0000  14.0000 </r>
       <r>  15.4681   0.0000  14.0000 </r>
       <r>  15.5385   0.0000  14.0000 </r>
       <r>  15.6089  -0.0002  14.0000 </r>
       <r>  15.6793  -0.0020  13.9998 </r>
       <r>  15.7498  -0.0122  13.9990 </r>
       <r>  15.8202  -0.0551  13.9951 </r>
       <r>  15.8906  -0.1786  13.9825 </r>
       <r>  15.9610  -0.3807  13.9557 </r>
       <r>  16.0315  -0.3705  13.9296 </r>
       <r>  16.1019   0.6006  13.9719 </r>
       <r>  16.1723   3.1521  14.1939 </r>
       <r>  16.2427   6.4859  14.6507 </r>
       <r>  16.3132   8.3020  15.2353 </r>
       <r>  16.3836   7.0541  15.7321 </r>
       <r>  16.4540   3.8220  16.0013 </r>
       <r>  16.5244   0.9852  16.0707 </r>
       <r>  16.5949  -0.2815  16.0508 </r>
       <r>  16.6653  -0.4136  16.0217 </r>
       <r>  16.7357  -0.2162  16.0065 </r>
       <r>  16.8061  -0.0719  16.0014 </r>
       <r>  16.8766  -0.0169  16.0002 </r>
       <r>  16.9470  -0.0029  16.0000 </r>
       <r>  17.0174  -0.0004  16.0000 </r>
       <r>  17.0878   0.0000  16.0000 </r>
       <r>  17.1582   0.0000  16.0000 </r>
       <r>  17.2287   0.0000  16.0000 </r>
       <r>  17.2991   0.0000  16.0000 </r>
       <r>  17.3695   0.0000  16.0000 </r>
       <r>  17.4399   0.0000  16.0000 </r>
       <r>  17.5104   0.0000  16.0000 </r>
       <r>  17.5808   0.0000  16.0000 </r>
       <r>  17.6512   0.0000  16.0000 </r>
       <r>  17.7216   0.0000  16.0000 </r>
       <r>  17.7921   0.0000  16.0000 </r>
       <r>  17.8625   0.0000  16.0000 </r>
       <r>  17.9329   0.0000  16.0000 </r>
       <r>  18.0033   0.0000  16.0000 </r>
       <r>  18.0738   0.0000  16.0000 </r>
       <r>  18.1442   0.0000  16.0000 </r>
       <r>  18.2146   0.0000  16.0000 </r>
       <r>  18.2850   0.0000  16.0000 </r>
      </set>
     </set>
    </array>
   </total>
  </dos>
 </calculation>
 <structure name="finalpos" >
  <crystal>
   <varray name="basis" >
    <v>       3.50000000       0.00000000       0.00000000 </v>
    <v>       0.00000000       3.50000000       0.00000000 </v>
    <v>       0.00000000       0.00000000       3.50000000 </v>
   </varray>
   <i name="volume">     42.87500000 </i>
   <varray name="rec_basis" >
    <v>       0.28571429       0.00000000       0.00000000 </v>
    <v>       0.00000000       0.28571429       0.00000000 </v>
    <v>       0.00000000       0.00000000       0.28571429 </v>
   </varray>
  </crystal>
  <varray name="positions" >
   <v>       0.00000000       0.00000000       0.00000000 </v>
   <v>       0.00000000       0.50000000       0.50000000 </v>
   <v>       0.50000000       0.00000000       0.50000000 </v>
  </varray>
 </structure>
</modeling>
