   8   8   0   0
  0.2226630E+02  0.5626600E-09  0.5626600E-09  0.5626600E-09  0.5000000E-15
  1.000000000000000E-004
  CAR 
 unknown system                          
     11.51521576    -13.70434934  301      2.73525764      1.00000000
    -13.704  0.0000E+00  0.0000E+00  0.0000E+00  0.0000E+00
    -13.620  0.0000E+00  0.0000E+00  0.0000E+00  0.0000E+00
    -13.536  0.0000E+00  0.0000E+00  0.0000E+00  0.0000E+00
    -13.452  0.0000E+00  0.0000E+00  0.0000E+00  0.0000E+00
    -13.368 -0.6891E-30 -0.7404E-30 -0.5793E-31 -0.6224E-31
    -13.284 -0.6026E-27 -0.6451E-27 -0.5072E-28 -0.5429E-28
    -13.200 -0.3676E-24 -0.3921E-24 -0.3095E-25 -0.3301E-25
    -13.116 -0.1570E-21 -0.1668E-21 -0.1323E-22 -0.1406E-22
    -13.032 -0.4693E-19 -0.4969E-19 -0.3958E-20 -0.4191E-20
    -12.948 -0.9817E-17 -0.1036E-16 -0.8292E-18 -0.8747E-18
    -12.864 -0.1397E-14 -0.1470E-14 -0.1182E-15 -0.1244E-15
    -12.780 -0.1419E-12 -0.1486E-12 -0.1204E-13 -0.1261E-13
    -12.696 -0.1007E-10 -0.1051E-10 -0.8588E-12 -0.8959E-12
    -12.612 -0.4981E-09 -0.5177E-09 -0.4274E-10 -0.4442E-10
    -12.527 -0.1713E-07 -0.1774E-07 -0.1483E-08 -0.1536E-08
    -12.443 -0.4090E-06 -0.4219E-06 -0.3587E-07 -0.3700E-07
    -12.359 -0.6758E-05 -0.6944E-05 -0.6040E-06 -0.6207E-06
    -12.275 -0.7695E-04 -0.7877E-04 -0.7073E-05 -0.7243E-05
    -12.191 -0.6002E-03 -0.6120E-03 -0.5753E-04 -0.5869E-04
    -12.107 -0.3167E-02 -0.3216E-02 -0.3238E-03 -0.3291E-03
    -12.023 -0.1096E-01 -0.1108E-01 -0.1245E-02 -0.1260E-02
    -11.939 -0.2224E-01 -0.2233E-01 -0.3115E-02 -0.3137E-02
    -11.855 -0.1027E-01 -0.9824E-02 -0.3979E-02 -0.3963E-02
    -11.771  0.9003E-01  0.9183E-01  0.3590E-02  0.3756E-02
    -11.687  0.3294E+00  0.3326E+00  0.3128E-01  0.3172E-01
    -11.603  0.6189E+00  0.6214E+00  0.8331E-01  0.8396E-01
    -11.519  0.7210E+00  0.7204E+00  0.1439E+00  0.1445E+00
    -11.435  0.5185E+00  0.5152E+00  0.1875E+00  0.1878E+00
    -11.351  0.2000E+00  0.1970E+00  0.2043E+00  0.2044E+00
    -11.266  0.6772E-02  0.5660E-02  0.2049E+00  0.2049E+00
    -11.182 -0.3379E-01 -0.3375E-01  0.2021E+00  0.2020E+00
    -11.098 -0.1828E-01 -0.1809E-01  0.2005E+00  0.2005E+00
    -11.014 -0.5114E-02 -0.5031E-02  0.2001E+00  0.2001E+00
    -10.930 -0.8932E-03 -0.8745E-03  0.2000E+00  0.2000E+00
    -10.846 -0.1031E-03 -0.1005E-03  0.2000E+00  0.2000E+00
    -10.762 -0.8070E-05 -0.7835E-05  0.2000E+00  0.2000E+00
    -10.678 -0.4335E-06 -0.4192E-06  0.2000E+00  0.2000E+00
    -10.594 -0.1610E-07 -0.1551E-07  0.2000E+00  0.2000E+00
    -10.510 -0.4156E-09 -0.3987E-09  0.2000E+00  0.2000E+00
    -10.426 -0.7474E-11 -0.7143E-11  0.2000E+00  0.2000E+00
    -10.342 -0.9390E-13 -0.8936E-13  0.2000E+00  0.2000E+00
    -10.258 -0.8452E-15 -0.7660E-15  0.2000E+00  0.2000E+00
    -10.174 -0.1206E-19 -0.1222E-19  0.2000E+00  0.2000E+00
    -10.090 -0.2556E-17 -0.2587E-17  0.2000E+00  0.2000E+00
    -10.005 -0.3651E-15 -0.3694E-15  0.2000E+00  0.2000E+00
     -9.921 -0.3777E-13 -0.3817E-13  0.2000E+00  0.2000E+00
     -9.837 -0.2704E-11 -0.2731E-11  0.2000E+00  0.2000E+00
     -9.753 -0.1345E-09 -0.1357E-09  0.2000E+00  0.2000E+00
     -9.669 -0.4635E-08 -0.4672E-08  0.2000E+00  0.2000E+00
     -9.585 -0.1101E-06 -0.1109E-06  0.2000E+00  0.2000E+00
     -9.501 -0.1792E-05 -0.1804E-05  0.2000E+00  0.2000E+00
     -9.417 -0.1976E-04 -0.1986E-04  0.2000E+00  0.2000E+00
     -9.333 -0.1447E-03 -0.1453E-03  0.2000E+00  0.2000E+00
     -9.249 -0.6761E-03 -0.6782E-03  0.1999E+00  0.1999E+00
     -9.165 -0.1810E-02 -0.1813E-02  0.1998E+00  0.1998E+00
     -9.081 -0.1550E-02 -0.1543E-02  0.1996E+00  0.1996E+00
     -8.997  0.6149E-02  0.6181E-02  0.2002E+00  0.2002E+00
     -8.913  0.2412E-01  0.2416E-01  0.2022E+00  0.2022E+00
     -8.829  0.3991E-01  0.3993E-01  0.2055E+00  0.2056E+00
     -8.745  0.3654E-01  0.3650E-01  0.2086E+00  0.2086E+00
     -8.660  0.1791E-01  0.1786E-01  0.2101E+00  0.2101E+00
     -8.576  0.2591E-02  0.2568E-02  0.2103E+00  0.2103E+00
     -8.492 -0.2082E-02 -0.2084E-02  0.2102E+00  0.2102E+00
     -8.408 -0.1438E-02 -0.1435E-02  0.2100E+00  0.2100E+00
     -8.324 -0.4431E-03 -0.4416E-03  0.2100E+00  0.2100E+00
     -8.240 -0.8207E-04 -0.8170E-04  0.2100E+00  0.2100E+00
     -8.156 -0.1056E-04 -0.1051E-04  0.2100E+00  0.2100E+00
     -8.072 -0.1127E-04 -0.1131E-04  0.2100E+00  0.2100E+00
     -7.988 -0.1040E-03 -0.1044E-03  0.2100E+00  0.2100E+00
     -7.904 -0.6805E-03 -0.6826E-03  0.2099E+00  0.2099E+00
     -7.820 -0.2792E-02 -0.2797E-02  0.2097E+00  0.2097E+00
     -7.736 -0.6176E-02 -0.6180E-02  0.2092E+00  0.2092E+00
     -7.652 -0.1626E-02 -0.1599E-02  0.2090E+00  0.2090E+00
     -7.568  0.3016E-01  0.3025E-01  0.2116E+00  0.2116E+00
     -7.484  0.8792E-01  0.8803E-01  0.2190E+00  0.2190E+00
     -7.399  0.1236E+00  0.1236E+00  0.2294E+00  0.2294E+00
     -7.315  0.9720E-01  0.9711E-01  0.2375E+00  0.2375E+00
     -7.231  0.3885E-01  0.3875E-01  0.2408E+00  0.2408E+00
     -7.147  0.1335E-02  0.1298E-02  0.2409E+00  0.2409E+00
     -7.063 -0.6432E-02 -0.6431E-02  0.2404E+00  0.2404E+00
     -6.979 -0.3357E-02 -0.3350E-02  0.2401E+00  0.2401E+00
     -6.895 -0.8938E-03 -0.8912E-03  0.2400E+00  0.2400E+00
     -6.811 -0.1471E-03 -0.1465E-03  0.2400E+00  0.2400E+00
     -6.727 -0.1586E-04 -0.1579E-04  0.2400E+00  0.2400E+00
     -6.643 -0.1150E-05 -0.1144E-05  0.2400E+00  0.2400E+00
     -6.559 -0.5691E-07 -0.5657E-07  0.2400E+00  0.2400E+00
     -6.475 -0.1937E-08 -0.1924E-08  0.2400E+00  0.2400E+00
     -6.391 -0.4558E-10 -0.4525E-10  0.2400E+00  0.2400E+00
     -6.307 -0.7443E-12 -0.7384E-12  0.2400E+00  0.2400E+00
     -6.223 -0.8479E-14 -0.8399E-14  0.2400E+00  0.2400E+00
     -6.138 -0.7924E-16 -0.7924E-16  0.2400E+00  0.2400E+00
     -6.054  0.0000E+00  0.0000E+00  0.2400E+00  0.2400E+00
     -5.970  0.0000E+00  0.0000E+00  0.2400E+00  0.2400E+00
     -5.886  0.0000E+00  0.0000E+00  0.2400E+00  0.2400E+00
     -5.802  0.0000E+00  0.0000E+00  0.2400E+00  0.2400E+00
     -5.718  0.0000E+00  0.0000E+00  0.2400E+00  0.2400E+00
     -5.634  0.0000E+00  0.0000E+00  0.2400E+00  0.2400E+00
     -5.550  0.0000E+00  0.0000E+00  0.2400E+00  0.2400E+00
     -5.466  0.0000E+00  0.0000E+00  0.2400E+00  0.2400E+00
     -5.382  0.0000E+00  0.0000E+00  0.2400E+00  0.2400E+00
     -5.298  0.0000E+00  0.0000E+00  0.2400E+00  0.2400E+00
     -5.214  0.0000E+00  0.0000E+00  0.2400E+00  0.2400E+00
     -5.130  0.0000E+00  0.0000E+00  0.2400E+00  0.2400E+00
     -5.046  0.0000E+00  0.0000E+00  0.2400E+00  0.2400E+00
     -4.962  0.0000E+00  0.0000E+00  0.2400E+00  0.2400E+00
     -4.878  0.0000E+00  0.0000E+00  0.2400E+00  0.2400E+00
     -4.793  0.0000E+00  0.0000E+00  0.2400E+00  0.2400E+00
     -4.709 -0.8783E-29 -0.9002E-29  0.2400E+00  0.2400E+00
     -4.625 -0.6688E-26 -0.6846E-26  0.2400E+00  0.2400E+00
     -4.541 -0.3569E-23 -0.3648E-23  0.2400E+00  0.2400E+00
     -4.457 -0.1333E-20 -0.1361E-20  0.2400E+00  0.2400E+00
     -4.373 -0.3482E-18 -0.3550E-18  0.2400E+00  0.2400E+00
     -4.289 -0.6358E-16 -0.6475E-16  0.2400E+00  0.2400E+00
     -4.205 -0.7852E-14 -0.7990E-14  0.2400E+00  0.2400E+00
     -4.121 -0.6957E-12 -0.7066E-12  0.2400E+00  0.2400E+00
     -4.037 -0.4284E-10 -0.4346E-10  0.2400E+00  0.2400E+00
     -3.953 -0.1831E-08 -0.1855E-08  0.2400E+00  0.2400E+00
     -3.869 -0.5412E-07 -0.5475E-07  0.2400E+00  0.2400E+00
     -3.785 -0.1100E-05 -0.1112E-05  0.2400E+00  0.2400E+00
     -3.701 -0.1526E-04 -0.1540E-04  0.2400E+00  0.2400E+00
     -3.617 -0.1425E-03 -0.1435E-03  0.2400E+00  0.2400E+00
     -3.532 -0.8719E-03 -0.8769E-03  0.2399E+00  0.2399E+00
     -3.448 -0.3302E-02 -0.3315E-02  0.2396E+00  0.2396E+00
     -3.364 -0.6419E-02 -0.6422E-02  0.2391E+00  0.2391E+00
     -3.280  0.1022E-02  0.1093E-02  0.2392E+00  0.2392E+00
     -3.196  0.3800E-01  0.3820E-01  0.2424E+00  0.2424E+00
     -3.112  0.9637E-01  0.9656E-01  0.2505E+00  0.2505E+00
     -3.028  0.1237E+00  0.1237E+00  0.2609E+00  0.2609E+00
     -2.944  0.8882E-01  0.8861E-01  0.2683E+00  0.2684E+00
     -2.860  0.3094E-01  0.3076E-01  0.2709E+00  0.2709E+00
     -2.776 -0.1386E-02 -0.1442E-02  0.2708E+00  0.2708E+00
     -2.692 -0.6209E-02 -0.6202E-02  0.2703E+00  0.2703E+00
     -2.608 -0.2842E-02 -0.2830E-02  0.2701E+00  0.2701E+00
     -2.524 -0.6985E-03 -0.6943E-03  0.2700E+00  0.2700E+00
     -2.440 -0.1075E-03 -0.1067E-03  0.2700E+00  0.2700E+00
     -2.356 -0.1089E-04 -0.1079E-04  0.2700E+00  0.2700E+00
     -2.271 -0.7447E-06 -0.7370E-06  0.2700E+00  0.2700E+00
     -2.187 -0.3478E-07 -0.3438E-07  0.2700E+00  0.2700E+00
     -2.103 -0.1119E-08 -0.1104E-08  0.2700E+00  0.2700E+00
     -2.019 -0.2490E-10 -0.2454E-10  0.2700E+00  0.2700E+00
     -1.935 -0.8543E-12 -0.8550E-12  0.2700E+00  0.2700E+00
     -1.851 -0.2725E-10 -0.2760E-10  0.2700E+00  0.2700E+00
     -1.767 -0.1096E-08 -0.1109E-08  0.2700E+00  0.2700E+00
     -1.683 -0.3046E-07 -0.3078E-07  0.2700E+00  0.2700E+00
     -1.599 -0.5817E-06 -0.5871E-06  0.2700E+00  0.2700E+00
     -1.515 -0.7566E-05 -0.7627E-05  0.2700E+00  0.2700E+00
     -1.431 -0.6601E-04 -0.6645E-04  0.2700E+00  0.2700E+00
     -1.347 -0.3752E-03 -0.3772E-03  0.2700E+00  0.2700E+00
     -1.263 -0.1298E-02 -0.1303E-02  0.2699E+00  0.2699E+00
     -1.179 -0.2144E-02 -0.2143E-02  0.2697E+00  0.2697E+00
     -1.095  0.1575E-02  0.1603E-02  0.2698E+00  0.2698E+00
     -1.011  0.1573E-01  0.1579E-01  0.2711E+00  0.2711E+00
     -0.926  0.3488E-01  0.3493E-01  0.2741E+00  0.2741E+00
     -0.842  0.4066E-01  0.4064E-01  0.2775E+00  0.2775E+00
     -0.758  0.2638E-01  0.2631E-01  0.2797E+00  0.2797E+00
     -0.674  0.7716E-02  0.7666E-02  0.2803E+00  0.2803E+00
     -0.590 -0.1313E-02 -0.1326E-02  0.2802E+00  0.2802E+00
     -0.506 -0.2708E-02 -0.2711E-02  0.2800E+00  0.2800E+00
     -0.422 -0.3841E-02 -0.3853E-02  0.2797E+00  0.2797E+00
     -0.338 -0.6506E-02 -0.6512E-02  0.2791E+00  0.2791E+00
     -0.254 -0.3090E-03 -0.2299E-03  0.2791E+00  0.2791E+00
     -0.170  0.3431E-01  0.3454E-01  0.2820E+00  0.2820E+00
     -0.086  0.9257E-01  0.9281E-01  0.2898E+00  0.2898E+00
     -0.002  0.1239E+00  0.1239E+00  0.3002E+00  0.3002E+00
      0.082  0.9276E-01  0.9251E-01  0.3080E+00  0.3080E+00
      0.166  0.3449E-01  0.3426E-01  0.3109E+00  0.3109E+00
      0.250 -0.2239E-03 -0.3026E-03  0.3109E+00  0.3109E+00
      0.335 -0.6335E-02 -0.6329E-02  0.3103E+00  0.3103E+00
      0.419 -0.3074E-02 -0.3059E-02  0.3101E+00  0.3101E+00
      0.503 -0.7872E-03 -0.7816E-03  0.3100E+00  0.3100E+00
      0.587 -0.1691E-03 -0.1683E-03  0.3100E+00  0.3100E+00
      0.671 -0.3589E-03 -0.3613E-03  0.3100E+00  0.3100E+00
      0.755 -0.1717E-02 -0.1727E-02  0.3098E+00  0.3098E+00
      0.839 -0.4988E-02 -0.5002E-02  0.3094E+00  0.3094E+00
      0.923 -0.5523E-02 -0.5500E-02  0.3089E+00  0.3089E+00
      1.007  0.1367E-01  0.1381E-01  0.3101E+00  0.3101E+00
      1.091  0.6468E-01  0.6492E-01  0.3155E+00  0.3156E+00
      1.175  0.1163E+00  0.1164E+00  0.3253E+00  0.3253E+00
      1.259  0.1144E+00  0.1143E+00  0.3349E+00  0.3349E+00
      1.343  0.6128E-01  0.6104E-01  0.3401E+00  0.3401E+00
      1.427  0.1172E-01  0.1159E-01  0.3411E+00  0.3411E+00
      1.511 -0.5808E-02 -0.5826E-02  0.3406E+00  0.3406E+00
      1.596 -0.4783E-02 -0.4768E-02  0.3402E+00  0.3402E+00
      1.680 -0.1589E-02 -0.1581E-02  0.3400E+00  0.3400E+00
      1.764 -0.3120E-03 -0.3097E-03  0.3400E+00  0.3400E+00
      1.848 -0.3998E-04 -0.3963E-04  0.3400E+00  0.3400E+00
      1.932 -0.1081E-04 -0.1084E-04  0.3400E+00  0.3400E+00
      2.016 -0.7366E-04 -0.7413E-04  0.3400E+00  0.3400E+00
      2.100 -0.4751E-03 -0.4775E-03  0.3400E+00  0.3400E+00
      2.184 -0.1921E-02 -0.1928E-02  0.3398E+00  0.3398E+00
      2.268 -0.4156E-02 -0.4160E-02  0.3394E+00  0.3394E+00
      2.352 -0.7972E-03 -0.7647E-03  0.3394E+00  0.3394E+00
      2.436  0.2103E-01  0.2113E-01  0.3411E+00  0.3412E+00
      2.520  0.5967E-01  0.5979E-01  0.3462E+00  0.3462E+00
      2.604  0.8252E-01  0.8252E-01  0.3531E+00  0.3531E+00
      2.688  0.6382E-01  0.6371E-01  0.3585E+00  0.3585E+00
      2.772  0.2490E-01  0.2480E-01  0.3606E+00  0.3606E+00
      2.856  0.5235E-03  0.4841E-03  0.3606E+00  0.3606E+00
      2.941 -0.4271E-02 -0.4269E-02  0.3602E+00  0.3602E+00
      3.025 -0.2173E-02 -0.2166E-02  0.3601E+00  0.3601E+00
      3.109 -0.5701E-03 -0.5674E-03  0.3600E+00  0.3600E+00
      3.193 -0.9266E-04 -0.9208E-04  0.3600E+00  0.3600E+00
      3.277 -0.9878E-05 -0.9805E-05  0.3600E+00  0.3600E+00
      3.361 -0.7088E-06 -0.7027E-06  0.3600E+00  0.3600E+00
      3.445 -0.3470E-07 -0.3437E-07  0.3600E+00  0.3600E+00
      3.529 -0.1169E-08 -0.1156E-08  0.3600E+00  0.3600E+00
      3.613 -0.2723E-10 -0.2690E-10  0.3600E+00  0.3600E+00
      3.697 -0.5144E-12 -0.5098E-12  0.3600E+00  0.3600E+00
      3.781 -0.5028E-11 -0.5103E-11  0.3600E+00  0.3600E+00
      3.865 -0.2363E-09 -0.2395E-09  0.3600E+00  0.3600E+00
      3.949 -0.7697E-08 -0.7791E-08  0.3600E+00  0.3600E+00
      4.033 -0.1727E-06 -0.1746E-06  0.3600E+00  0.3600E+00
      4.117 -0.2651E-05 -0.2676E-05  0.3600E+00  0.3600E+00
      4.202 -0.2750E-04 -0.2772E-04  0.3600E+00  0.3600E+00
      4.286 -0.1887E-03 -0.1899E-03  0.3600E+00  0.3600E+00
      4.370 -0.8181E-03 -0.8218E-03  0.3599E+00  0.3599E+00
      4.454 -0.1968E-02 -0.1971E-02  0.3597E+00  0.3597E+00
      4.538 -0.1035E-02 -0.1020E-02  0.3597E+00  0.3597E+00
      4.622  0.8329E-02  0.8385E-02  0.3604E+00  0.3604E+00
      4.706  0.2718E-01  0.2725E-01  0.3626E+00  0.3627E+00
      4.790  0.4085E-01  0.4087E-01  0.3661E+00  0.3661E+00
      4.874  0.3418E-01  0.3412E-01  0.3690E+00  0.3690E+00
      4.958  0.1452E-01  0.1445E-01  0.3702E+00  0.3702E+00
      5.042 -0.8063E-03 -0.8498E-03  0.3701E+00  0.3701E+00
      5.126 -0.7615E-02 -0.7633E-02  0.3695E+00  0.3695E+00
      5.210 -0.5819E-02 -0.5768E-02  0.3690E+00  0.3690E+00
      5.294  0.1848E-01  0.1870E-01  0.3705E+00  0.3705E+00
      5.378  0.7287E-01  0.7320E-01  0.3767E+00  0.3767E+00
      5.463  0.1200E+00  0.1201E+00  0.3867E+00  0.3868E+00
      5.547  0.1092E+00  0.1090E+00  0.3959E+00  0.3960E+00
      5.631  0.5316E-01  0.5285E-01  0.4004E+00  0.4004E+00
      5.715  0.7497E-02  0.7343E-02  0.4010E+00  0.4010E+00
      5.799 -0.6269E-02 -0.6282E-02  0.4005E+00  0.4005E+00
      5.883 -0.4277E-02 -0.4257E-02  0.4001E+00  0.4001E+00
      5.967 -0.1311E-02 -0.1301E-02  0.4000E+00  0.4000E+00
      6.051 -0.2417E-03 -0.2392E-03  0.4000E+00  0.4000E+00
      6.135 -0.2890E-04 -0.2854E-04  0.4000E+00  0.4000E+00
      6.219 -0.2313E-05 -0.2279E-05  0.4000E+00  0.4000E+00
      6.303 -0.1259E-06 -0.1238E-06  0.4000E+00  0.4000E+00
      6.387 -0.4707E-08 -0.4619E-08  0.4000E+00  0.4000E+00
      6.471 -0.1215E-09 -0.1190E-09  0.4000E+00  0.4000E+00
      6.555 -0.2175E-11 -0.2127E-11  0.4000E+00  0.4000E+00
      6.639 -0.2719E-13 -0.2656E-13  0.4000E+00  0.4000E+00
      6.723 -0.1042E-13 -0.1074E-13  0.4000E+00  0.4000E+00
      6.808 -0.8557E-12 -0.8806E-12  0.4000E+00  0.4000E+00
      6.892 -0.5003E-10 -0.5136E-10  0.4000E+00  0.4000E+00
      6.976 -0.2030E-08 -0.2079E-08  0.4000E+00  0.4000E+00
      7.060 -0.5693E-07 -0.5816E-07  0.4000E+00  0.4000E+00
      7.144 -0.1099E-05 -0.1119E-05  0.4000E+00  0.4000E+00
      7.228 -0.1447E-04 -0.1470E-04  0.4000E+00  0.4000E+00
      7.312 -0.1285E-03 -0.1302E-03  0.4000E+00  0.4000E+00
      7.396 -0.7518E-03 -0.7595E-03  0.3999E+00  0.3999E+00
      7.480 -0.2764E-02 -0.2782E-02  0.3997E+00  0.3997E+00
      7.564 -0.5523E-02 -0.5527E-02  0.3992E+00  0.3992E+00
      7.648 -0.1319E-02 -0.1223E-02  0.3991E+00  0.3991E+00
      7.732  0.2425E-01  0.2451E-01  0.4012E+00  0.4012E+00
      7.816  0.7526E-01  0.7558E-01  0.4075E+00  0.4075E+00
      7.900  0.1320E+00  0.1321E+00  0.4186E+00  0.4186E+00
      7.984  0.1608E+00  0.1607E+00  0.4321E+00  0.4322E+00
      8.069  0.1371E+00  0.1368E+00  0.4436E+00  0.4437E+00
      8.153  0.7354E-01  0.7326E-01  0.4498E+00  0.4498E+00
      8.237  0.1686E-01  0.1671E-01  0.4512E+00  0.4512E+00
      8.321 -0.5748E-02 -0.5772E-02  0.4507E+00  0.4507E+00
      8.405 -0.5981E-02 -0.5964E-02  0.4502E+00  0.4502E+00
      8.489 -0.2232E-02 -0.2221E-02  0.4500E+00  0.4500E+00
      8.573 -0.4846E-03 -0.4812E-03  0.4500E+00  0.4500E+00
      8.657 -0.7073E-04 -0.7019E-04  0.4500E+00  0.4500E+00
      8.741 -0.3992E-04 -0.4010E-04  0.4500E+00  0.4500E+00
      8.825 -0.2226E-03 -0.2239E-03  0.4500E+00  0.4500E+00
      8.909 -0.9242E-03 -0.9279E-03  0.4499E+00  0.4499E+00
      8.993 -0.2122E-02 -0.2125E-02  0.4497E+00  0.4497E+00
      9.077 -0.1021E-02 -0.1008E-02  0.4496E+00  0.4496E+00
      9.161  0.8454E-02  0.8502E-02  0.4503E+00  0.4504E+00
      9.245  0.2692E-01  0.2698E-01  0.4526E+00  0.4526E+00
      9.330  0.4326E-01  0.4332E-01  0.4562E+00  0.4563E+00
      9.414  0.4948E-01  0.4953E-01  0.4604E+00  0.4604E+00
      9.498  0.4895E-01  0.4898E-01  0.4645E+00  0.4645E+00
      9.582  0.4085E-01  0.4079E-01  0.4680E+00  0.4680E+00
      9.666  0.2308E-01  0.2297E-01  0.4699E+00  0.4699E+00
      9.750  0.5769E-02  0.5691E-02  0.4704E+00  0.4704E+00
      9.834 -0.1691E-02 -0.1707E-02  0.4702E+00  0.4702E+00
      9.918 -0.1921E-02 -0.1914E-02  0.4701E+00  0.4701E+00
     10.002 -0.7308E-03 -0.7254E-03  0.4700E+00  0.4700E+00
     10.086 -0.1599E-03 -0.1582E-03  0.4700E+00  0.4700E+00
     10.170 -0.2231E-04 -0.2203E-04  0.4700E+00  0.4700E+00
     10.254 -0.2067E-05 -0.2036E-05  0.4700E+00  0.4700E+00
     10.338 -0.1297E-06 -0.1275E-06  0.4700E+00  0.4700E+00
     10.422 -0.5572E-08 -0.5465E-08  0.4700E+00  0.4700E+00
     10.506 -0.1650E-09 -0.1615E-09  0.4700E+00  0.4700E+00
     10.590 -0.3385E-11 -0.3305E-11  0.4700E+00  0.4700E+00
     10.675 -0.4823E-13 -0.4699E-13  0.4700E+00  0.4700E+00
     10.759 -0.4754E-15 -0.4754E-15  0.4700E+00  0.4700E+00
     10.843  0.0000E+00  0.0000E+00  0.4700E+00  0.4700E+00
     10.927  0.0000E+00  0.0000E+00  0.4700E+00  0.4700E+00
     11.011  0.0000E+00  0.0000E+00  0.4700E+00  0.4700E+00
     11.095  0.0000E+00  0.0000E+00  0.4700E+00  0.4700E+00
     11.179  0.0000E+00  0.0000E+00  0.4700E+00  0.4700E+00
     11.263  0.0000E+00  0.0000E+00  0.4700E+00  0.4700E+00
     11.347  0.0000E+00  0.0000E+00  0.4700E+00  0.4700E+00
     11.431  0.0000E+00  0.0000E+00  0.4700E+00  0.4700E+00
     11.515  0.0000E+00  0.0000E+00  0.4700E+00  0.4700E+00
