    8    8  100    2
  0.2226630E+02  0.5626600E-09  0.5626600E-09  0.5626600E-09  0.5000000E-15
  1.000000000000000E-004
  CAR 
 unknown system                          
   72    1   47
 
  0.2500000E+00  0.2500000E+00  0.2500000E+00  0.1000000E+01
   1      -11.703480    -11.704349
   2      -11.703480    -11.704349
   3      -11.703480    -11.704349
   4      -11.654060    -11.654946
   5      -11.597952    -11.598861
   6      -11.597951    -11.598861
   7      -11.578457    -11.579367
   8      -11.578457    -11.579367
   9      -11.578457    -11.579367
  10      -11.572840    -11.573752
  11      -11.572840    -11.573752
  12      -11.572840    -11.573752
  13      -11.540381    -11.541287
  14      -11.540381    -11.541287
  15      -11.540380    -11.541287
  16      -11.528581    -11.529488
  17      -11.528581    -11.529487
  18      -11.521546    -11.522453
  19      -11.521546    -11.522453
  20      -11.521546    -11.522453
  21       -8.841507     -8.841705
  22       -7.434410     -7.434565
  23       -7.434410     -7.434565
  24       -7.434410     -7.434565
  25       -3.075859     -3.076163
  26       -3.075859     -3.076163
  27       -3.075859     -3.076163
  28       -0.904055     -0.904337
  29       -0.043608     -0.043986
  30       -0.043608     -0.043986
  31       -0.043608     -0.043986
  32        1.172838      1.172505
  33        1.172838      1.172505
  34        1.172838      1.172505
  35        2.567010      2.566752
  36        2.567010      2.566752
  37        4.764243      4.763933
  38        5.448780      5.448328
  39        5.448780      5.448328
  40        5.448780      5.448328
  41        7.840583      7.840014
  42        7.840583      7.840014
  43        8.002135      8.001808
  44        8.002136      8.001809
  45        8.002136      8.001809
  46        9.295760      9.295474
  47        9.515216      9.514726
