       N       E                     dE             d eps       ncg     rms          rms(c)
DAV:   1     0.559097836822E+03    0.55910E+03   -0.24162E+04   218   0.191E+03
DAV:   2     0.692299777733E+02   -0.48987E+03   -0.46852E+03   188   0.553E+02
DAV:   3    -0.265144768848E+02   -0.95744E+02   -0.94565E+02   209   0.164E+02
DAV:   4    -0.318605517714E+02   -0.53461E+01   -0.53318E+01   232   0.445E+01
DAV:   5    -0.319360619244E+02   -0.75510E-01   -0.75496E-01   209   0.570E+00    0.145E+01
DAV:   6    -0.325835945009E+02   -0.64753E+00   -0.16907E+00   256   0.126E+01    0.556E+00
DAV:   7    -0.327334078605E+02   -0.14981E+00   -0.48375E-01   240   0.476E+00    0.213E+00
DAV:   8    -0.327164937214E+02    0.16914E-01   -0.13422E-01   216   0.154E+00    0.855E-01
DAV:   9    -0.327252475475E+02   -0.87538E-02   -0.27978E-02   210   0.841E-01    0.352E-01
DAV:  10    -0.327269931494E+02   -0.17456E-02   -0.39945E-03   232   0.412E-01    0.110E-01
DAV:  11    -0.327274629705E+02   -0.46982E-03   -0.87970E-04   202   0.195E-01    0.465E-02
DAV:  12    -0.327276861652E+02   -0.22319E-03   -0.19803E-04   168   0.831E-02    0.230E-02
DAV:  13    -0.327277557365E+02   -0.69571E-04   -0.85840E-05   146   0.450E-02
   1 F= -.32727756E+02 E0= -.32735486E+02  d E =-.327278E+02  mag=    -0.0006
