    7    7    1    1
  0.2314286E+02  0.6164414E-09  0.6633250E-09  0.7348469E-09  0.1000000E-16
  1.000000000000000E-004
  CAR 
 unknown system                          
   29    1   18
 
  0.0000000E+00  0.0000000E+00  0.0000000E+00  0.1000000E+01
   1      -14.489985
   2      -12.053143
   3       -9.537205
   4       -6.128254
   5       -5.251656
   6       -4.639730
   7       -3.828939
   8       -2.610893
   9       -2.151507
  10       -1.894585
  11       -0.255819
  12        0.886591
  13        1.867489
  14        2.192816
  15        3.733349
  16        4.281005
  17        5.033168
  18        5.840534
