Processors received = 1
script running on host compute-0-2.local
PBS_NODEFILE
compute-0-2
 running on    1 nodes
 distr:  one band on    1 nodes,    1 groups
 vasp.5.2.2 15Apr09 complex 
 POSCAR found type information on POSCAR  Ga As
 POSCAR found :  2 types and    7 ions
 LDA part: xc-table for Pade appr. of Perdew
 found WAVECAR, reading the header
 WAVECAR: different cutoff or change in lattice found
 POSCAR, INCAR and KPOINTS ok, starting setup
 WARNING: small aliasing (wrap around) errors must be expected
 FFT: planning ...(           2 )
 reading WAVECAR
 the WAVECAR file was read sucessfully
 initial charge from wavefunction
 entering main loop
       N       E                     dE             d eps       ncg     rms          rms(c)
DAV:   1    -0.450539862174E+02   -0.45054E+02   -0.31759E+03    44   0.313E+02    0.264E+01
DAV:   2    -0.181308984501E+02    0.26923E+02   -0.24345E+02    48   0.882E+01    0.166E+01
DAV:   3     0.583979164433E+01    0.23971E+02   -0.11325E+02    40   0.435E+01    0.482E+00
DAV:   4     0.584266356876E+01    0.28719E-02   -0.11806E+01    52   0.165E+01    0.303E+00
DAV:   5     0.617504218111E+01    0.33238E+00   -0.20869E+00    40   0.767E+00    0.796E-01
DAV:   6     0.615816028517E+01   -0.16882E-01   -0.30161E-01    48   0.311E+00    0.527E-01
DAV:   7     0.614844690205E+01   -0.97134E-02   -0.34767E-02    40   0.112E+00    0.167E-01
DAV:   8     0.614608039121E+01   -0.23665E-02   -0.76106E-03    56   0.504E-01    0.882E-02
DAV:   9     0.614560676610E+01   -0.47363E-03   -0.11140E-03    48   0.211E-01    0.312E-02
DAV:  10     0.614546231597E+01   -0.14445E-03   -0.33137E-04    40   0.109E-01    0.126E-02
DAV:  11     0.614544026458E+01   -0.22051E-04   -0.31242E-05    48   0.326E-02    0.496E-03
DAV:  12     0.614543491552E+01   -0.53491E-05   -0.68024E-06    40   0.154E-02    0.189E-03
DAV:  13     0.614543379408E+01   -0.11214E-05   -0.10606E-06    22   0.600E-03    0.755E-04
DAV:  14     0.614543378091E+01   -0.13174E-07   -0.20711E-07    18   0.278E-03
   1 F= 0.61454338E+01 E0= 0.61641034E+01  d E =-.560089E-01
 Finite differences POTIM= 0.01000 DOF=   3
 bond charge predicted
       N       E                     dE             d eps       ncg     rms          rms(c)
DAV:   1     0.588573573201E+01   -0.25970E+00   -0.18887E-02    36   0.841E-01    0.476E-02
DAV:   2     0.588575721995E+01    0.21488E-04   -0.53085E-04    48   0.136E-01    0.267E-02
DAV:   3     0.588578122589E+01    0.24006E-04   -0.34360E-05    40   0.338E-02    0.869E-03
DAV:   4     0.588578467577E+01    0.34499E-05   -0.39973E-06    40   0.120E-02    0.246E-03
DAV:   5     0.588578539465E+01    0.71888E-06   -0.58806E-07    22   0.459E-03
   2 F= 0.58857854E+01 E0= 0.59044402E+01  d E =-.559645E-01
 Finite differences progress:
  Degree of freedom:   1/  3
  Displacement:        1/  2
  Total:               1/  6
 bond charge predicted
       N       E                     dE             d eps       ncg     rms          rms(c)
DAV:   1     0.640471749107E+01    0.51893E+00   -0.75900E-02    36   0.168E+00    0.953E-02
DAV:   2     0.640477961562E+01    0.62125E-04   -0.21283E-03    48   0.271E-01    0.534E-02
DAV:   3     0.640484975036E+01    0.70135E-04   -0.13370E-04    40   0.669E-02    0.174E-02
DAV:   4     0.640485194456E+01    0.21942E-05   -0.15935E-05    48   0.239E-02    0.481E-03
DAV:   5     0.640485089335E+01   -0.10512E-05   -0.24664E-06    32   0.903E-03    0.129E-03
DAV:   6     0.640485070923E+01   -0.18412E-06   -0.40845E-07    18   0.424E-03
   3 F= 0.64048507E+01 E0= 0.64235341E+01  d E =-.560500E-01
 Finite differences progress:
  Degree of freedom:   1/  3
  Displacement:        2/  2
  Total:               2/  6
 bond charge predicted
       N       E                     dE             d eps       ncg     rms          rms(c)
DAV:   1     0.597115388929E+01   -0.43370E+00   -0.39128E-02    36   0.121E+00    0.719E-02
DAV:   2     0.597123382307E+01    0.79934E-04   -0.12184E-03    48   0.201E-01    0.402E-02
DAV:   3     0.597129192021E+01    0.58097E-04   -0.98940E-05    48   0.561E-02    0.135E-02
DAV:   4     0.597129950406E+01    0.75839E-05   -0.10074E-05    48   0.194E-02    0.408E-03
DAV:   5     0.597130084452E+01    0.13405E-05   -0.11318E-06    20   0.666E-03    0.116E-03
DAV:   6     0.597130101408E+01    0.16956E-06   -0.24679E-07    18   0.324E-03
   4 F= 0.59713010E+01 E0= 0.59899467E+01  d E =-.559370E-01
 Finite differences progress:
  Degree of freedom:   2/  3
  Displacement:        1/  2
  Total:               3/  6
 bond charge predicted
       N       E                     dE             d eps       ncg     rms          rms(c)
DAV:   1     0.631729273998E+01    0.34599E+00   -0.81691E-02    36   0.170E+00    0.872E-02
DAV:   2     0.631734086308E+01    0.48123E-04   -0.17884E-03    48   0.246E-01    0.472E-02
DAV:   3     0.631739602105E+01    0.55158E-04   -0.14062E-04    54   0.664E-02    0.138E-02
DAV:   4     0.631739663767E+01    0.61662E-06   -0.13947E-05    40   0.233E-02    0.460E-03
DAV:   5     0.631739576333E+01   -0.87434E-06   -0.20975E-06    20   0.851E-03
   5 F= 0.63173958E+01 E0= 0.63360859E+01  d E =-.560705E-01
 Finite differences progress:
  Degree of freedom:   2/  3
  Displacement:        2/  2
  Total:               4/  6
 bond charge predicted
       N       E                     dE             d eps       ncg     rms          rms(c)
DAV:   1     0.671321533149E+01    0.39582E+00   -0.41830E-02    36   0.124E+00    0.827E-02
DAV:   2     0.671329861543E+01    0.83284E-04   -0.12681E-03    48   0.209E-01    0.463E-02
DAV:   3     0.671335352893E+01    0.54913E-04   -0.12306E-04    40   0.604E-02    0.132E-02
DAV:   4     0.671335534445E+01    0.18155E-05   -0.10581E-05    48   0.185E-02    0.366E-03
DAV:   5     0.671335498426E+01   -0.36019E-06   -0.79811E-07    24   0.541E-03
   6 F= 0.67133550E+01 E0= 0.67320338E+01  d E =-.560363E-01
 Finite differences progress:
  Degree of freedom:   3/  3
  Displacement:        1/  2
  Total:               5/  6
 bond charge predicted
       N       E                     dE             d eps       ncg     rms          rms(c)
DAV:   1     0.559318515458E+01   -0.11202E+01   -0.72916E-02    36   0.172E+00    0.169E-01
DAV:   2     0.559389922684E+01    0.71407E-03   -0.43856E-03    48   0.391E-01    0.976E-02
DAV:   3     0.559421364681E+01    0.31442E-03   -0.70820E-04    48   0.138E-01    0.281E-02
DAV:   4     0.559424213531E+01    0.28488E-04   -0.42958E-05    46   0.389E-02    0.812E-03
DAV:   5     0.559424566078E+01    0.35255E-05   -0.32226E-06    40   0.115E-02    0.205E-03
DAV:   6     0.559424584403E+01    0.18325E-06   -0.29078E-07    20   0.346E-03
   7 F= 0.55942458E+01 E0= 0.56129060E+01  d E =-.559805E-01
 Finite differences progress:
  Degree of freedom:   3/  3
  Displacement:        2/  2
  Total:               6/  6
 Finite differences POTIM=  1.000000000000000E-002
 writing wavefunctions
