Processors received = 1
script running on host compute-0-2.local
PBS_NODEFILE
compute-0-2
 running on    1 nodes
 distr:  one band on    1 nodes,    1 groups
 vasp.5.2.2 15Apr09 complex 
 POSCAR found type information on POSCAR  Ga As
 POSCAR found :  2 types and    7 ions
 LDA part: xc-table for Pade appr. of Perdew
 POSCAR, INCAR and KPOINTS ok, starting setup
 WARNING: small aliasing (wrap around) errors must be expected
 FFT: planning ...(           2 )
 reading WAVECAR
 entering main loop
       N       E                     dE             d eps       ncg     rms          rms(c)
DAV:   1     0.117607938920E+03    0.11761E+03   -0.80699E+03    36   0.834E+02
DAV:   2    -0.144779823672E+02   -0.13209E+03   -0.13024E+03    46   0.161E+02
DAV:   3    -0.257640192945E+02   -0.11286E+02   -0.11202E+02    48   0.507E+01
DAV:   4    -0.260804794907E+02   -0.31646E+00   -0.30067E+00    46   0.791E+00
DAV:   5    -0.260940304185E+02   -0.13551E-01   -0.13340E-01    56   0.112E+00    0.363E+00
DAV:   6    -0.256210192911E+02    0.47301E+00   -0.34391E-01    36   0.264E+00    0.210E+00
DAV:   7    -0.254169283387E+02    0.20409E+00   -0.59383E-01    36   0.347E+00    0.407E-01
DAV:   8    -0.254350888404E+02   -0.18161E-01   -0.27000E-02    36   0.900E-01    0.750E-02
DAV:   9    -0.254362033969E+02   -0.11146E-02   -0.39340E-03    40   0.318E-01    0.635E-02
DAV:  10    -0.254364777525E+02   -0.27436E-03   -0.46416E-04    36   0.135E-01    0.147E-02
DAV:  11    -0.254365131620E+02   -0.35410E-04   -0.61051E-05    40   0.405E-02    0.642E-03
DAV:  12    -0.254365252954E+02   -0.12133E-04   -0.16637E-05    36   0.219E-02    0.192E-03
DAV:  13    -0.254365277931E+02   -0.24977E-05   -0.14961E-06    36   0.687E-03    0.687E-04
DAV:  14    -0.254365285307E+02   -0.73765E-06   -0.27834E-07    18   0.273E-03
   1 F= -.25436529E+02 E0= -.25407680E+02  d E =-.865448E-01
 Finite differences POTIM= 0.01000 DOF=   3
 bond charge predicted
       N       E                     dE             d eps       ncg     rms          rms(c)
DAV:   1    -0.254362108641E+02    0.31693E-03   -0.13056E-02    36   0.536E-01    0.363E-02
DAV:   2    -0.254362454824E+02   -0.34618E-04   -0.66183E-04    40   0.133E-01    0.227E-02
DAV:   3    -0.254362371141E+02    0.83683E-05   -0.70515E-05    48   0.407E-02    0.857E-03
DAV:   4    -0.254362365140E+02    0.60015E-06   -0.52115E-06    40   0.140E-02
   2 F= -.25436237E+02 E0= -.25407389E+02  d E =-.865433E-01
 Finite differences progress:
  Degree of freedom:   1/  3
  Displacement:        1/  2
  Total:               1/  6
 bond charge predicted
       N       E                     dE             d eps       ncg     rms          rms(c)
DAV:   1    -0.254361537405E+02    0.83374E-04   -0.52352E-02    36   0.114E+00    0.729E-02
DAV:   2    -0.254362799560E+02   -0.12622E-03   -0.27035E-03    40   0.265E-01    0.474E-02
DAV:   3    -0.254362383011E+02    0.41655E-04   -0.26169E-04    46   0.817E-02    0.169E-02
DAV:   4    -0.254362360594E+02    0.22417E-05   -0.24669E-05    40   0.296E-02    0.630E-03
DAV:   5    -0.254362367630E+02   -0.70365E-06   -0.57347E-06    46   0.123E-02
   3 F= -.25436237E+02 E0= -.25407389E+02  d E =-.865434E-01
 Finite differences progress:
  Degree of freedom:   1/  3
  Displacement:        2/  2
  Total:               2/  6
 bond charge predicted
       N       E                     dE             d eps       ncg     rms          rms(c)
DAV:   1    -0.254361931900E+02    0.42869E-04   -0.27237E-02    36   0.812E-01    0.401E-02
DAV:   2    -0.254362617976E+02   -0.68608E-04   -0.11887E-03    48   0.170E-01    0.242E-02
DAV:   3    -0.254362485658E+02    0.13232E-04   -0.75154E-05    48   0.411E-02    0.120E-02
DAV:   4    -0.254362391090E+02    0.94568E-05   -0.17424E-05    48   0.223E-02    0.359E-03
DAV:   5    -0.254362373646E+02    0.17444E-05   -0.70752E-06    40   0.121E-02    0.128E-03
DAV:   6    -0.254362369140E+02    0.45060E-06   -0.11696E-06    24   0.525E-03
   4 F= -.25436237E+02 E0= -.25407389E+02  d E =-.865429E-01
 Finite differences progress:
  Degree of freedom:   2/  3
  Displacement:        1/  2
  Total:               3/  6
 bond charge predicted
       N       E                     dE             d eps       ncg     rms          rms(c)
DAV:   1    -0.254361338650E+02    0.10350E-03   -0.54990E-02    36   0.114E+00    0.721E-02
DAV:   2    -0.254362686141E+02   -0.13475E-03   -0.26811E-03    40   0.260E-01    0.444E-02
DAV:   3    -0.254362389116E+02    0.29703E-04   -0.27815E-04    56   0.833E-02    0.174E-02
DAV:   4    -0.254362362176E+02    0.26939E-05   -0.25137E-05    46   0.281E-02    0.852E-03
DAV:   5    -0.254362368168E+02   -0.59914E-06   -0.82587E-06    48   0.159E-02
   5 F= -.25436237E+02 E0= -.25407389E+02  d E =-.865435E-01
 Finite differences progress:
  Degree of freedom:   2/  3
  Displacement:        2/  2
  Total:               4/  6
 bond charge predicted
       N       E                     dE             d eps       ncg     rms          rms(c)
DAV:   1    -0.254357937169E+02    0.44250E-03   -0.26273E-02    36   0.813E-01    0.427E-02
DAV:   2    -0.254358861793E+02   -0.92462E-04   -0.14683E-03    56   0.190E-01    0.333E-02
DAV:   3    -0.254358578921E+02    0.28287E-04   -0.10657E-04    48   0.459E-02    0.176E-02
DAV:   4    -0.254358435441E+02    0.14348E-04   -0.47855E-05    40   0.317E-02    0.715E-03
DAV:   5    -0.254358410664E+02    0.24777E-05   -0.82287E-06    48   0.155E-02    0.157E-03
DAV:   6    -0.254358405325E+02    0.53392E-06   -0.19238E-06    24   0.667E-03
   6 F= -.25435841E+02 E0= -.25406996E+02  d E =-.865326E-01
 Finite differences progress:
  Degree of freedom:   3/  3
  Displacement:        1/  2
  Total:               5/  6
 bond charge predicted
       N       E                     dE             d eps       ncg     rms          rms(c)
DAV:   1    -0.254357393222E+02    0.10174E-03   -0.49587E-02    36   0.106E+00    0.787E-02
DAV:   2    -0.254359612554E+02   -0.22193E-03   -0.38973E-03    56   0.294E-01    0.638E-02
DAV:   3    -0.254358604600E+02    0.10080E-03   -0.35125E-04    46   0.881E-02    0.305E-02
DAV:   4    -0.254358444767E+02    0.15983E-04   -0.10302E-04    56   0.509E-02    0.132E-02
DAV:   5    -0.254358400027E+02    0.44740E-05   -0.16365E-05    48   0.227E-02    0.262E-03
DAV:   6    -0.254358402618E+02   -0.25904E-06   -0.21412E-06    30   0.769E-03
   7 F= -.25435840E+02 E0= -.25406996E+02  d E =-.865326E-01
 Finite differences progress:
  Degree of freedom:   3/  3
  Displacement:        2/  2
  Total:               6/  6
 Finite differences POTIM=  1.000000000000000E-002
 writing wavefunctions
