    7    7  100    2
  0.2544720E+02  0.5626600E-09  0.5626600E-09  0.5626600E-09  0.5000000E-15
  1.000000000000000E-004
  CAR 
 unknown system                          
   61    1   40
 
  0.2500000E+00  0.2500000E+00  0.2500000E+00  0.1000000E+01
   1      -12.525153    -12.511151
   2      -12.498723    -12.486212
   3      -12.498723    -12.486212
   4      -12.469986    -12.459173
   5      -12.445903    -12.436395
   6      -12.445902    -12.436395
   7      -12.421784    -12.413714
   8      -12.421784    -12.413714
   9      -12.416591    -12.408623
  10      -12.404758    -12.397593
  11      -12.404757    -12.397593
  12      -12.391788    -12.384951
  13      -12.390059    -12.384834
  14      -12.376340    -12.371508
  15      -12.376339    -12.371507
  16       -9.208339     -9.051300
  17       -7.996572     -7.824562
  18       -7.996571     -7.824562
  19       -7.708263     -7.517803
  20       -3.704357     -3.608767
  21       -3.704357     -3.608767
  22       -2.266257     -2.126014
  23       -0.695835     -0.582729
  24       -0.695834     -0.582729
  25       -0.552237     -0.364654
  26        0.443225      0.564686
  27        0.598371      0.821682
  28        1.160995      1.325041
  29        1.160995      1.325041
  30        2.422570      2.658687
  31        2.422570      2.658687
  32        4.291680      4.395467
  33        4.654928      4.741376
  34        4.654928      4.741377
  35        6.039825      6.142644
  36        7.013094      7.118777
  37        7.013094      7.118777
  38        7.514557      7.625569
  39        7.514557      7.625570
  40        8.247762      8.373696
