       N       E                     dE             d eps       ncg     rms          rms(c)
DAV:   1     0.620679568083E+04    0.62068E+04   -0.12304E+05   932   0.260E+03
DAV:   2     0.219911191924E+04   -0.40077E+04   -0.36588E+04   868   0.803E+02
DAV:   3     0.536589032362E+03   -0.16625E+04   -0.14658E+04   980   0.374E+02
DAV:   4    -0.225309021851E+03   -0.76190E+03   -0.70437E+03  1321   0.211E+02
DAV:   5    -0.381272231957E+03   -0.15596E+03   -0.15311E+03  1592   0.105E+02    0.594E+01
DAV:   6    -0.337287935879E+03    0.43984E+02   -0.75350E+02  1388   0.752E+01    0.249E+01
DAV:   7    -0.339723878654E+03   -0.24359E+01   -0.13044E+02  1542   0.424E+01    0.115E+01
DAV:   8    -0.342572889958E+03   -0.28490E+01   -0.24237E+01  1632   0.183E+01    0.135E+01
DAV:   9    -0.342062794312E+03    0.51010E+00   -0.85306E+00  1608   0.113E+01    0.791E+00
DAV:  10    -0.342155176072E+03   -0.92382E-01   -0.45251E+00  1656   0.741E+00    0.740E+00
DAV:  11    -0.341976079724E+03    0.17910E+00   -0.25007E+00  1600   0.526E+00    0.400E+00
DAV:  12    -0.342020601473E+03   -0.44522E-01   -0.13037E+00  1624   0.393E+00    0.335E+00
DAV:  13    -0.341966628041E+03    0.53973E-01   -0.63985E-01  1568   0.281E+00    0.156E+00
DAV:  14    -0.341979893058E+03   -0.13265E-01   -0.22988E-01  1680   0.186E+00    0.126E+00
DAV:  15    -0.341981102512E+03   -0.12095E-02   -0.93913E-02  1648   0.126E+00    0.781E-01
DAV:  16    -0.341985745476E+03   -0.46430E-02   -0.53474E-02  1648   0.926E-01    0.624E-01
DAV:  17    -0.341984691498E+03    0.10540E-02   -0.23454E-02  1584   0.685E-01    0.267E-01
DAV:  18    -0.341985063726E+03   -0.37223E-03   -0.88814E-03  1672   0.402E-01    0.158E-01
DAV:  19    -0.341985109512E+03   -0.45786E-04   -0.32241E-03  1600   0.263E-01    0.123E-01
DAV:  20    -0.341985045439E+03    0.64073E-04   -0.99571E-04  1128   0.159E-01
   1 F= -.34198505E+03 E0= -.34198390E+03  d E =-.341985E+03  mag=     3.9809
       N       E                     dE             d eps       ncg     rms          rms(c)
DAV:   1    -0.341984077405E+03   -0.34198E+03   -0.10329E-01   984   0.117E+00    0.737E-02
DAV:   2    -0.341985415652E+03   -0.13382E-02   -0.14747E-02  1512   0.487E-01    0.464E-02
DAV:   3    -0.341985489680E+03   -0.74027E-04   -0.11167E-03  1272   0.157E-01    0.390E-02
DAV:   4    -0.341985480867E+03    0.88125E-05   -0.13574E-04   712   0.855E-02
   2 F= -.34198548E+03 E0= -.34198442E+03  d E =-.435429E-03  mag=     3.9787
       N       E                     dE             d eps       ncg     rms          rms(c)
DAV:   1    -0.341985381179E+03   -0.34199E+03   -0.13893E-02  1016   0.422E-01    0.260E-02
DAV:   2    -0.341985571886E+03   -0.19071E-03   -0.20345E-03  1496   0.184E-01    0.317E-02
DAV:   3    -0.341985569990E+03    0.18960E-05   -0.12269E-04   632   0.732E-02
   3 F= -.34198557E+03 E0= -.34198451E+03  d E =-.524551E-03  mag=     3.9786
