   7   7   0   0
  0.2544720E+02  0.5626600E-09  0.5626600E-09  0.5626600E-09  0.5000000E-15
  1.000000000000000E-004
  CAR 
 unknown system                          
     10.37369624    -14.52515310  301      2.65059226      1.00000000
    -14.525  0.0000E+00  0.0000E+00  0.0000E+00  0.0000E+00
    -14.442  0.0000E+00  0.0000E+00  0.0000E+00  0.0000E+00
    -14.359  0.0000E+00  0.0000E+00  0.0000E+00  0.0000E+00
    -14.276  0.0000E+00  0.0000E+00  0.0000E+00  0.0000E+00
    -14.193 -0.1755E-30 -0.5479E-31 -0.1457E-31 -0.4547E-32
    -14.110 -0.1795E-27 -0.6084E-28 -0.1491E-28 -0.5054E-29
    -14.027 -0.1056E-24 -0.3803E-25 -0.8782E-26 -0.3161E-26
    -13.944 -0.4404E-22 -0.1683E-22 -0.3664E-23 -0.1400E-23
    -13.861 -0.1301E-19 -0.5276E-20 -0.1083E-20 -0.4393E-21
    -13.778 -0.2721E-17 -0.1172E-17 -0.2269E-18 -0.9773E-19
    -13.695 -0.3967E-15 -0.1778E-15 -0.3315E-16 -0.1486E-16
    -13.612 -0.4098E-13 -0.1993E-13 -0.3434E-14 -0.1669E-14
    -13.529 -0.3030E-11 -0.1566E-11 -0.2549E-12 -0.1316E-12
    -13.446 -0.1585E-09 -0.8704E-10 -0.1341E-10 -0.7356E-11
    -13.363 -0.5859E-08 -0.3421E-08 -0.4997E-09 -0.2913E-09
    -13.280 -0.1528E-06 -0.9494E-07 -0.1319E-07 -0.8171E-08
    -13.197 -0.2809E-05 -0.1857E-05 -0.2463E-06 -0.1623E-06
    -13.114 -0.3623E-04 -0.2552E-04 -0.3253E-05 -0.2281E-05
    -13.031 -0.3258E-03 -0.2447E-03 -0.3029E-04 -0.2259E-04
    -12.948 -0.2013E-02 -0.1616E-02 -0.1973E-03 -0.1567E-03
    -12.865 -0.8262E-02 -0.7127E-02 -0.8830E-03 -0.7482E-03
    -12.782 -0.2048E-01 -0.1934E-01 -0.2583E-02 -0.2353E-02
    -12.699 -0.1844E-01 -0.2227E-01 -0.4113E-02 -0.4202E-02
    -12.616  0.5976E-01  0.4324E-01  0.8465E-03 -0.6126E-03
    -12.533  0.2633E+00  0.2368E+00  0.2270E-01  0.1904E-01
    -12.450  0.5007E+00  0.4846E+00  0.6426E-01  0.5926E-01
    -12.367  0.5628E+00  0.5738E+00  0.1110E+00  0.1069E+00
    -12.284  0.3821E+00  0.4087E+00  0.1427E+00  0.1408E+00
    -12.201  0.1346E+00  0.1543E+00  0.1539E+00  0.1536E+00
    -12.118 -0.2322E-02  0.3454E-02  0.1537E+00  0.1539E+00
    -12.035 -0.2636E-01 -0.2721E-01  0.1515E+00  0.1516E+00
    -11.952 -0.1336E-01 -0.1468E-01  0.1504E+00  0.1504E+00
    -11.869 -0.3664E-02 -0.4170E-02  0.1501E+00  0.1501E+00
    -11.786 -0.6392E-03 -0.7483E-03  0.1500E+00  0.1500E+00
    -11.703 -0.7471E-04 -0.8967E-04  0.1500E+00  0.1500E+00
    -11.620 -0.5985E-05 -0.7353E-05  0.1500E+00  0.1500E+00
    -11.537 -0.3326E-06 -0.4178E-06  0.1500E+00  0.1500E+00
    -11.454 -0.1291E-07 -0.1657E-07  0.1500E+00  0.1500E+00
    -11.371 -0.3518E-09 -0.4609E-09  0.1500E+00  0.1500E+00
    -11.288 -0.6745E-11 -0.9019E-11  0.1500E+00  0.1500E+00
    -11.205 -0.9110E-13 -0.1244E-12  0.1500E+00  0.1500E+00
    -11.122 -0.9364E-15 -0.1257E-14  0.1500E+00  0.1500E+00
    -11.039  0.0000E+00  0.0000E+00  0.1500E+00  0.1500E+00
    -10.956  0.0000E+00  0.0000E+00  0.1500E+00  0.1500E+00
    -10.873 -0.2256E-30  0.0000E+00  0.1500E+00  0.1500E+00
    -10.790 -0.1805E-27  0.0000E+00  0.1500E+00  0.1500E+00
    -10.707 -0.1021E-24 -0.4718E-30  0.1500E+00  0.1500E+00
    -10.624 -0.4082E-22 -0.3636E-27  0.1500E+00  0.1500E+00
    -10.541 -0.1152E-19 -0.1982E-24  0.1500E+00  0.1500E+00
    -10.458 -0.2293E-17 -0.7629E-22  0.1500E+00  0.1500E+00
    -10.375 -0.3151E-15 -0.2073E-19  0.1500E+00  0.1500E+00
    -10.292 -0.3075E-13 -0.3975E-17  0.1500E+00  0.1500E+00
    -10.209 -0.2127E-11 -0.5239E-15  0.1500E+00  0.1500E+00
    -10.126 -0.1031E-09 -0.4940E-13  0.1500E+00  0.1500E+00
    -10.043 -0.3497E-08 -0.3288E-11  0.1500E+00  0.1500E+00
     -9.960 -0.8259E-07 -0.1535E-09  0.1500E+00  0.1500E+00
     -9.877 -0.1349E-05 -0.5006E-08  0.1500E+00  0.1500E+00
     -9.794 -0.1510E-04 -0.1136E-06  0.1500E+00  0.1500E+00
     -9.711 -0.1138E-03 -0.1784E-05  0.1500E+00  0.1500E+00
     -9.628 -0.5573E-03 -0.1915E-04  0.1499E+00  0.1500E+00
     -9.545 -0.1625E-02 -0.1380E-03  0.1498E+00  0.1500E+00
     -9.462 -0.1923E-02 -0.6429E-03  0.1496E+00  0.1499E+00
     -9.379  0.3891E-02 -0.1753E-02  0.1500E+00  0.1498E+00
     -9.296  0.2016E-01 -0.1717E-02  0.1516E+00  0.1496E+00
     -9.213  0.3785E-01  0.5154E-02  0.1548E+00  0.1501E+00
     -9.130  0.3917E-01  0.2232E-01  0.1580E+00  0.1519E+00
     -9.047  0.2260E-01  0.3903E-01  0.1599E+00  0.1552E+00
     -8.964  0.5328E-02  0.3802E-01  0.1604E+00  0.1583E+00
     -8.881 -0.1685E-02  0.2044E-01  0.1602E+00  0.1600E+00
     -8.798 -0.1769E-02  0.4048E-02  0.1601E+00  0.1604E+00
     -8.715 -0.6552E-03 -0.1901E-02  0.1600E+00  0.1602E+00
     -8.632 -0.1489E-03 -0.1642E-02  0.1600E+00  0.1601E+00
     -8.549 -0.9085E-04 -0.5684E-03  0.1600E+00  0.1600E+00
     -8.466 -0.4555E-03 -0.1229E-03  0.1600E+00  0.1600E+00
     -8.383 -0.1837E-02 -0.7675E-04  0.1598E+00  0.1600E+00
     -8.300 -0.4098E-02 -0.4038E-03  0.1595E+00  0.1600E+00
     -8.217 -0.1560E-02 -0.1688E-02  0.1593E+00  0.1598E+00
     -8.134  0.1799E-01 -0.3971E-02  0.1608E+00  0.1595E+00
     -8.051  0.5469E-01 -0.2138E-02  0.1654E+00  0.1593E+00
     -7.968  0.8002E-01  0.1595E-01  0.1720E+00  0.1606E+00
     -7.885  0.7091E-01  0.5222E-01  0.1779E+00  0.1650E+00
     -7.802  0.4826E-01  0.7924E-01  0.1819E+00  0.1715E+00
     -7.719  0.3945E-01  0.7069E-01  0.1852E+00  0.1774E+00
     -7.636  0.3551E-01  0.4543E-01  0.1881E+00  0.1812E+00
     -7.553  0.2152E-01  0.3610E-01  0.1899E+00  0.1842E+00
     -7.470  0.5535E-02  0.3700E-01  0.1904E+00  0.1873E+00
     -7.387 -0.1625E-02  0.2709E-01  0.1902E+00  0.1895E+00
     -7.304 -0.1868E-02  0.9876E-02  0.1901E+00  0.1903E+00
     -7.221 -0.7206E-03 -0.4282E-03  0.1900E+00  0.1903E+00
     -7.138 -0.1610E-03 -0.2123E-02  0.1900E+00  0.1901E+00
     -7.055 -0.2317E-04 -0.1017E-02  0.1900E+00  0.1900E+00
     -6.973 -0.2233E-05 -0.2629E-03  0.1900E+00  0.1900E+00
     -6.890 -0.1470E-06 -0.4283E-04  0.1900E+00  0.1900E+00
     -6.807 -0.6688E-08 -0.4633E-05  0.1900E+00  0.1900E+00
     -6.724 -0.2116E-09 -0.3408E-06  0.1900E+00  0.1900E+00
     -6.641 -0.4680E-11 -0.1728E-07  0.1900E+00  0.1900E+00
     -6.558 -0.7253E-13 -0.6081E-09  0.1900E+00  0.1900E+00
     -6.475 -0.8026E-15 -0.1494E-10  0.1900E+00  0.1900E+00
     -6.392  0.0000E+00 -0.2570E-12  0.1900E+00  0.1900E+00
     -6.309  0.0000E+00 -0.3103E-14  0.1900E+00  0.1900E+00
     -6.226  0.0000E+00 -0.2675E-16  0.1900E+00  0.1900E+00
     -6.143  0.0000E+00  0.0000E+00  0.1900E+00  0.1900E+00
     -6.060  0.0000E+00  0.0000E+00  0.1900E+00  0.1900E+00
     -5.977  0.0000E+00  0.0000E+00  0.1900E+00  0.1900E+00
     -5.894  0.0000E+00  0.0000E+00  0.1900E+00  0.1900E+00
     -5.811  0.0000E+00  0.0000E+00  0.1900E+00  0.1900E+00
     -5.728  0.0000E+00  0.0000E+00  0.1900E+00  0.1900E+00
     -5.645  0.0000E+00  0.0000E+00  0.1900E+00  0.1900E+00
     -5.562  0.0000E+00  0.0000E+00  0.1900E+00  0.1900E+00
     -5.479  0.0000E+00  0.0000E+00  0.1900E+00  0.1900E+00
     -5.396  0.0000E+00  0.0000E+00  0.1900E+00  0.1900E+00
     -5.313 -0.4534E-28  0.0000E+00  0.1900E+00  0.1900E+00
     -5.230 -0.2860E-25 -0.1653E-28  0.1900E+00  0.1900E+00
     -5.147 -0.1276E-22 -0.1099E-25  0.1900E+00  0.1900E+00
     -5.064 -0.4019E-20 -0.5170E-23  0.1900E+00  0.1900E+00
     -4.981 -0.8934E-18 -0.1717E-20  0.1900E+00  0.1900E+00
     -4.898 -0.1401E-15 -0.4024E-18  0.1900E+00  0.1900E+00
     -4.815 -0.1498E-13 -0.6652E-16  0.1900E+00  0.1900E+00
     -4.732 -0.1158E-11 -0.7510E-14  0.1900E+00  0.1900E+00
     -4.649 -0.6285E-10 -0.6125E-12  0.1900E+00  0.1900E+00
     -4.566 -0.2387E-08 -0.3508E-10  0.1900E+00  0.1900E+00
     -4.483 -0.6324E-07 -0.1407E-08  0.1900E+00  0.1900E+00
     -4.400 -0.1162E-05 -0.3938E-07  0.1900E+00  0.1900E+00
     -4.317 -0.1468E-04 -0.7651E-06  0.1900E+00  0.1900E+00
     -4.234 -0.1257E-03 -0.1024E-04  0.1900E+00  0.1900E+00
     -4.151 -0.7092E-03 -0.9310E-04  0.1899E+00  0.1900E+00
     -4.068 -0.2477E-02 -0.5612E-03  0.1897E+00  0.1899E+00
     -3.985 -0.4316E-02 -0.2123E-02  0.1894E+00  0.1898E+00
     -3.902  0.1942E-02 -0.4249E-02  0.1895E+00  0.1894E+00
     -3.819  0.2816E-01 -0.7642E-04  0.1919E+00  0.1894E+00
     -3.736  0.6655E-01  0.2281E-01  0.1974E+00  0.1913E+00
     -3.653  0.8230E-01  0.6121E-01  0.2042E+00  0.1964E+00
     -3.570  0.5769E-01  0.8262E-01  0.2090E+00  0.2032E+00
     -3.487  0.1970E-01  0.6329E-01  0.2106E+00  0.2085E+00
     -3.404 -0.1095E-02  0.2480E-01  0.2105E+00  0.2106E+00
     -3.321 -0.4141E-02  0.6333E-03  0.2102E+00  0.2106E+00
     -3.238 -0.1916E-02 -0.4292E-02  0.2100E+00  0.2102E+00
     -3.155 -0.4828E-03 -0.2255E-02  0.2100E+00  0.2101E+00
     -3.072 -0.7694E-04 -0.6141E-03  0.2100E+00  0.2100E+00
     -2.989 -0.8384E-05 -0.1044E-03  0.2100E+00  0.2100E+00
     -2.906 -0.3925E-05 -0.1178E-04  0.2100E+00  0.2100E+00
     -2.823 -0.3255E-04 -0.1452E-05  0.2100E+00  0.2100E+00
     -2.740 -0.2113E-03 -0.7098E-05  0.2100E+00  0.2100E+00
     -2.657 -0.8732E-03 -0.6078E-04  0.2099E+00  0.2100E+00
     -2.574 -0.2008E-02 -0.3456E-03  0.2097E+00  0.2100E+00
     -2.491 -0.9205E-03 -0.1218E-02  0.2097E+00  0.2099E+00
     -2.408  0.8581E-02 -0.2158E-02  0.2104E+00  0.2097E+00
     -2.325  0.2727E-01  0.8453E-03  0.2126E+00  0.2098E+00
     -2.242  0.4085E-01  0.1377E-01  0.2160E+00  0.2109E+00
     -2.159  0.3459E-01  0.3299E-01  0.2189E+00  0.2136E+00
     -2.076  0.1559E-01  0.4119E-01  0.2202E+00  0.2171E+00
     -1.993  0.1614E-02  0.2917E-01  0.2203E+00  0.2195E+00
     -1.910 -0.2142E-02  0.1013E-01  0.2202E+00  0.2203E+00
     -1.827 -0.1337E-02 -0.4613E-03  0.2200E+00  0.2203E+00
     -1.744 -0.4002E-03 -0.2082E-02  0.2200E+00  0.2201E+00
     -1.661 -0.7351E-04 -0.9766E-03  0.2200E+00  0.2200E+00
     -1.578 -0.8873E-05 -0.2482E-03  0.2200E+00  0.2200E+00
     -1.495 -0.7534E-06 -0.3983E-04  0.2200E+00  0.2200E+00
     -1.412 -0.6247E-06 -0.4257E-05  0.2200E+00  0.2200E+00
     -1.329 -0.8126E-05 -0.5130E-06  0.2200E+00  0.2200E+00
     -1.246 -0.7706E-04 -0.3270E-05  0.2200E+00  0.2200E+00
     -1.163 -0.4881E-03 -0.3544E-04  0.2200E+00  0.2200E+00
     -1.080 -0.1975E-02 -0.2594E-03  0.2198E+00  0.2200E+00
     -0.997 -0.4503E-02 -0.1231E-02  0.2194E+00  0.2199E+00
     -0.914 -0.2388E-02 -0.3462E-02  0.2192E+00  0.2196E+00
     -0.831  0.1745E-01 -0.3831E-02  0.2207E+00  0.2193E+00
     -0.748  0.5870E-01  0.8476E-02  0.2255E+00  0.2200E+00
     -0.665  0.9674E-01  0.4113E-01  0.2336E+00  0.2234E+00
     -0.582  0.1003E+00  0.7681E-01  0.2419E+00  0.2298E+00
     -0.499  0.6936E-01  0.8680E-01  0.2476E+00  0.2370E+00
     -0.416  0.3043E-01  0.7128E-01  0.2502E+00  0.2429E+00
     -0.333  0.5203E-02  0.5008E-01  0.2506E+00  0.2470E+00
     -0.250 -0.3134E-02  0.2949E-01  0.2503E+00  0.2495E+00
     -0.167 -0.2776E-02  0.1059E-01  0.2501E+00  0.2504E+00
     -0.084 -0.1129E-02 -0.2722E-03  0.2500E+00  0.2503E+00
     -0.001 -0.6278E-03 -0.2433E-02  0.2500E+00  0.2501E+00
      0.082 -0.1394E-02 -0.1440E-02  0.2499E+00  0.2500E+00
      0.165 -0.2607E-02 -0.1123E-02  0.2496E+00  0.2499E+00
      0.248 -0.2560E-03 -0.1989E-02  0.2496E+00  0.2498E+00
      0.331  0.1247E-01 -0.1487E-02  0.2506E+00  0.2496E+00
      0.414  0.3600E-01  0.6307E-02  0.2536E+00  0.2502E+00
      0.497  0.5810E-01  0.2331E-01  0.2585E+00  0.2521E+00
      0.580  0.6404E-01  0.3859E-01  0.2638E+00  0.2553E+00
      0.663  0.4960E-01  0.4191E-01  0.2679E+00  0.2588E+00
      0.746  0.2389E-01  0.4083E-01  0.2699E+00  0.2622E+00
      0.829  0.2006E-02  0.4176E-01  0.2700E+00  0.2656E+00
      0.912 -0.5772E-02  0.3418E-01  0.2696E+00  0.2685E+00
      0.995  0.7042E-02  0.1466E-01  0.2701E+00  0.2697E+00
      1.078  0.4198E-01 -0.4226E-03  0.2736E+00  0.2696E+00
      1.161  0.7693E-01  0.7715E-02  0.2800E+00  0.2703E+00
      1.244  0.7703E-01  0.4215E-01  0.2864E+00  0.2738E+00
      1.327  0.4269E-01  0.7708E-01  0.2899E+00  0.2802E+00
      1.410  0.9139E-02  0.7643E-01  0.2907E+00  0.2865E+00
      1.493 -0.3638E-02  0.4174E-01  0.2904E+00  0.2900E+00
      1.576 -0.3393E-02  0.8593E-02  0.2901E+00  0.2907E+00
      1.659 -0.1207E-02 -0.3726E-02  0.2900E+00  0.2904E+00
      1.742 -0.2552E-03 -0.3337E-02  0.2900E+00  0.2901E+00
      1.825 -0.5660E-04 -0.1170E-02  0.2900E+00  0.2900E+00
      1.908 -0.1797E-03 -0.2430E-03  0.2900E+00  0.2900E+00
      1.991 -0.9207E-03 -0.3554E-04  0.2899E+00  0.2900E+00
      2.074 -0.2912E-02 -0.3434E-04  0.2897E+00  0.2900E+00
      2.157 -0.4172E-02 -0.2350E-03  0.2893E+00  0.2900E+00
      2.240  0.4952E-02 -0.1141E-02  0.2897E+00  0.2899E+00
      2.323  0.3489E-01 -0.3292E-02  0.2926E+00  0.2896E+00
      2.406  0.7209E-01 -0.3791E-02  0.2986E+00  0.2893E+00
      2.489  0.8059E-01  0.8165E-02  0.3053E+00  0.2900E+00
      2.572  0.5073E-01  0.4100E-01  0.3095E+00  0.2934E+00
      2.655  0.1433E-01  0.7611E-01  0.3107E+00  0.2997E+00
      2.738 -0.2577E-02  0.7800E-01  0.3105E+00  0.3062E+00
      2.821 -0.3836E-02  0.4451E-01  0.3102E+00  0.3099E+00
      2.904 -0.1556E-02  0.1023E-01  0.3100E+00  0.3107E+00
      2.987 -0.3592E-03 -0.3448E-02  0.3100E+00  0.3104E+00
      3.070 -0.5308E-04 -0.3499E-02  0.3100E+00  0.3101E+00
      3.153 -0.5245E-05 -0.1281E-02  0.3100E+00  0.3100E+00
      3.236 -0.3537E-06 -0.2745E-03  0.3100E+00  0.3100E+00
      3.319 -0.1648E-07 -0.3804E-04  0.3100E+00  0.3100E+00
      3.402 -0.8914E-09 -0.3539E-05  0.3100E+00  0.3100E+00
      3.485 -0.1074E-07 -0.2254E-06  0.3100E+00  0.3100E+00
      3.568 -0.2237E-06 -0.1465E-07  0.3100E+00  0.3100E+00
      3.651 -0.3216E-05 -0.1085E-06  0.3100E+00  0.3100E+00
      3.734 -0.3152E-04 -0.1709E-05  0.3100E+00  0.3100E+00
      3.817 -0.2061E-03 -0.1846E-04  0.3100E+00  0.3100E+00
      3.900 -0.8583E-03 -0.1340E-03  0.3099E+00  0.3100E+00
      3.983 -0.1997E-02 -0.6292E-03  0.3097E+00  0.3099E+00
      4.066 -0.1011E-02 -0.1736E-02  0.3097E+00  0.3098E+00
      4.149  0.8141E-02 -0.1779E-02  0.3103E+00  0.3096E+00
      4.232  0.2592E-01  0.4751E-02  0.3125E+00  0.3100E+00
      4.315  0.3761E-01  0.2098E-01  0.3156E+00  0.3118E+00
      4.398  0.3088E-01  0.3580E-01  0.3182E+00  0.3147E+00
      4.481  0.2290E-01  0.3416E-01  0.3201E+00  0.3176E+00
      4.564  0.4067E-01  0.2693E-01  0.3234E+00  0.3198E+00
      4.647  0.7271E-01  0.4152E-01  0.3295E+00  0.3233E+00
      4.730  0.7762E-01  0.7190E-01  0.3359E+00  0.3292E+00
      4.813  0.4620E-01  0.7802E-01  0.3398E+00  0.3357E+00
      4.896  0.1147E-01  0.4770E-01  0.3407E+00  0.3397E+00
      4.979 -0.3204E-02  0.1252E-01  0.3404E+00  0.3407E+00
      5.062 -0.3619E-02 -0.2981E-02  0.3401E+00  0.3405E+00
      5.145 -0.1370E-02 -0.3710E-02  0.3400E+00  0.3402E+00
      5.228 -0.3009E-03 -0.1443E-02  0.3400E+00  0.3400E+00
      5.311 -0.4279E-04 -0.3234E-03  0.3400E+00  0.3400E+00
      5.394 -0.6793E-05 -0.4668E-04  0.3400E+00  0.3400E+00
      5.477 -0.2788E-04 -0.5991E-05  0.3400E+00  0.3400E+00
      5.560 -0.1854E-03 -0.1679E-04  0.3400E+00  0.3400E+00
      5.643 -0.7962E-03 -0.1223E-03  0.3399E+00  0.3400E+00
      5.726 -0.1937E-02 -0.5879E-03  0.3398E+00  0.3399E+00
      5.809 -0.1223E-02 -0.1673E-02  0.3397E+00  0.3398E+00
      5.892  0.7432E-02 -0.1856E-02  0.3403E+00  0.3396E+00
      5.975  0.2574E-01  0.4341E-02  0.3424E+00  0.3400E+00
      6.058  0.4042E-01  0.2095E-01  0.3458E+00  0.3417E+00
      6.141  0.3577E-01  0.3831E-01  0.3487E+00  0.3449E+00
      6.224  0.1708E-01  0.3877E-01  0.3501E+00  0.3481E+00
      6.307  0.2299E-02  0.2180E-01  0.3503E+00  0.3500E+00
      6.390 -0.2111E-02  0.4839E-02  0.3502E+00  0.3504E+00
      6.473 -0.1530E-02 -0.1779E-02  0.3500E+00  0.3502E+00
      6.556 -0.1027E-02 -0.1778E-02  0.3500E+00  0.3501E+00
      6.639 -0.2254E-02 -0.9925E-03  0.3498E+00  0.3500E+00
      6.722 -0.4277E-02 -0.1724E-02  0.3494E+00  0.3498E+00
      6.805  0.1590E-03 -0.3891E-02  0.3494E+00  0.3495E+00
      6.888  0.2348E-01 -0.2448E-02  0.3514E+00  0.3493E+00
      6.971  0.6185E-01  0.1486E-01  0.3565E+00  0.3505E+00
      7.054  0.8210E-01  0.5143E-01  0.3633E+00  0.3548E+00
      7.137  0.6051E-01  0.8053E-01  0.3683E+00  0.3615E+00
      7.220  0.1988E-01  0.7015E-01  0.3700E+00  0.3673E+00
      7.303  0.4957E-04  0.3051E-01  0.3700E+00  0.3698E+00
      7.386  0.1778E-01  0.1487E-02  0.3715E+00  0.3700E+00
      7.469  0.5819E-01  0.7750E-02  0.3763E+00  0.3706E+00
      7.552  0.8199E-01  0.4436E-01  0.3831E+00  0.3743E+00
      7.635  0.6397E-01  0.7835E-01  0.3884E+00  0.3808E+00
      7.718  0.2550E-01  0.7428E-01  0.3905E+00  0.3870E+00
      7.801  0.5731E-03  0.3827E-01  0.3906E+00  0.3901E+00
      7.884 -0.5532E-02  0.6541E-02  0.3901E+00  0.3907E+00
      7.967 -0.4465E-02 -0.4676E-02  0.3897E+00  0.3903E+00
      8.050  0.2755E-03 -0.4938E-02  0.3898E+00  0.3899E+00
      8.133  0.1382E-01 -0.2634E-02  0.3909E+00  0.3897E+00
      8.216  0.3313E-01  0.5586E-02  0.3937E+00  0.3901E+00
      8.299  0.4117E-01  0.2331E-01  0.3971E+00  0.3921E+00
      8.382  0.2900E-01  0.3950E-01  0.3995E+00  0.3953E+00
      8.465  0.9982E-02  0.3740E-01  0.4003E+00  0.3984E+00
      8.548 -0.5069E-03  0.1943E-01  0.4003E+00  0.4001E+00
      8.631 -0.2076E-02  0.3494E-02  0.4001E+00  0.4003E+00
      8.714 -0.9669E-03 -0.1977E-02  0.4000E+00  0.4002E+00
      8.797 -0.2446E-03 -0.1581E-02  0.4000E+00  0.4001E+00
      8.880 -0.3910E-04 -0.5302E-03  0.4000E+00  0.4000E+00
      8.963 -0.4157E-05 -0.1065E-03  0.4000E+00  0.4000E+00
      9.046 -0.3007E-06 -0.1392E-04  0.4000E+00  0.4000E+00
      9.129 -0.1499E-07 -0.1227E-05  0.4000E+00  0.4000E+00
      9.212 -0.5193E-09 -0.7405E-07  0.4000E+00  0.4000E+00
      9.295 -0.1256E-10 -0.3095E-08  0.4000E+00  0.4000E+00
      9.378 -0.2126E-12 -0.9006E-10  0.4000E+00  0.4000E+00
      9.461 -0.2515E-14 -0.1833E-11  0.4000E+00  0.4000E+00
      9.544 -0.2675E-16 -0.2617E-13  0.4000E+00  0.4000E+00
      9.627  0.0000E+00 -0.2675E-15  0.4000E+00  0.4000E+00
      9.710  0.0000E+00  0.0000E+00  0.4000E+00  0.4000E+00
      9.793  0.0000E+00  0.0000E+00  0.4000E+00  0.4000E+00
      9.876  0.0000E+00  0.0000E+00  0.4000E+00  0.4000E+00
      9.959  0.0000E+00  0.0000E+00  0.4000E+00  0.4000E+00
     10.042  0.0000E+00  0.0000E+00  0.4000E+00  0.4000E+00
     10.125  0.0000E+00  0.0000E+00  0.4000E+00  0.4000E+00
     10.208  0.0000E+00  0.0000E+00  0.4000E+00  0.4000E+00
     10.291  0.0000E+00  0.0000E+00  0.4000E+00  0.4000E+00
     10.374  0.0000E+00  0.0000E+00  0.4000E+00  0.4000E+00
