  31  31   0   0
  0.1706118E+02  0.8087052E-09  0.8087052E-09  0.8087052E-09  0.5000000E-15
  1.000000000000000E-004
  CAR 
 unknown system                          
     13.31982584     -4.93401265  301      7.87818764      1.00000000
     -4.934  0.0000E+00  0.0000E+00
     -4.873  0.0000E+00  0.0000E+00
     -4.812  0.0000E+00  0.0000E+00
     -4.751  0.0000E+00  0.0000E+00
     -4.691  0.0000E+00  0.0000E+00
     -4.630  0.0000E+00  0.0000E+00
     -4.569 -0.7215E-27 -0.4390E-28
     -4.508 -0.9084E-25 -0.5571E-26
     -4.447 -0.9550E-23 -0.5866E-24
     -4.386 -0.8327E-21 -0.5125E-22
     -4.326 -0.6021E-19 -0.3715E-20
     -4.265 -0.3609E-17 -0.2233E-18
     -4.204 -0.1793E-15 -0.1113E-16
     -4.143 -0.7378E-14 -0.4601E-15
     -4.082 -0.2442E-12 -0.1532E-13
     -4.021 -0.6858E-11 -0.4326E-12
     -3.960 -0.1594E-09 -0.1013E-10
     -3.900 -0.3060E-08 -0.1963E-09
     -3.839 -0.4848E-07 -0.3146E-08
     -3.778 -0.6327E-06 -0.4165E-07
     -3.717 -0.6793E-05 -0.4549E-06
     -3.656 -0.5983E-04 -0.4095E-05
     -3.595 -0.4309E-03 -0.3031E-04
     -3.535 -0.2526E-02 -0.1840E-03
     -3.474 -0.1196E-01 -0.9119E-03
     -3.413 -0.4527E-01 -0.3667E-02
     -3.352 -0.1341E+00 -0.1183E-01
     -3.291 -0.2982E+00 -0.2997E-01
     -3.230 -0.4431E+00 -0.5693E-01
     -3.169 -0.2177E+00 -0.7018E-01
     -3.109  0.9412E+00 -0.1291E-01
     -3.048  0.3317E+01  0.1889E+00
     -2.987  0.6247E+01  0.5690E+00
     -2.926  0.8184E+01  0.1067E+01
     -2.865  0.7866E+01  0.1546E+01
     -2.804  0.5510E+01  0.1881E+01
     -2.744  0.2597E+01  0.2039E+01
     -2.683  0.5215E+00  0.2071E+01
     -2.622 -0.3428E+00  0.2050E+01
     -2.561 -0.4216E+00  0.2024E+01
     -2.500 -0.2515E+00  0.2009E+01
     -2.439 -0.1122E+00  0.2002E+01
     -2.378 -0.7056E-01  0.1998E+01
     -2.318 -0.1413E+00  0.1989E+01
     -2.257 -0.3663E+00  0.1967E+01
     -2.196 -0.7395E+00  0.1922E+01
     -2.135 -0.9538E+00  0.1864E+01
     -2.074 -0.1553E+00  0.1854E+01
     -2.013  0.2773E+01  0.2023E+01
     -1.953  0.8116E+01  0.2517E+01
     -1.892  0.1434E+02  0.3389E+01
     -1.831  0.1871E+02  0.4528E+01
     -1.770  0.1937E+02  0.5706E+01
     -1.709  0.1656E+02  0.6714E+01
     -1.648  0.1193E+02  0.7440E+01
     -1.587  0.7093E+01  0.7871E+01
     -1.527  0.3147E+01  0.8063E+01
     -1.466  0.6418E+00  0.8102E+01
     -1.405 -0.4420E+00  0.8075E+01
     -1.344 -0.5950E+00  0.8039E+01
     -1.283 -0.4082E+00  0.8014E+01
     -1.222 -0.2661E+00  0.7998E+01
     -1.162 -0.3290E+00  0.7978E+01
     -1.101 -0.6140E+00  0.7940E+01
     -1.040 -0.9010E+00  0.7886E+01
     -0.979 -0.4845E+00  0.7856E+01
     -0.918  0.1737E+01  0.7962E+01
     -0.857  0.6318E+01  0.8346E+01
     -0.796  0.1203E+02  0.9078E+01
     -0.736  0.1612E+02  0.1006E+02
     -0.675  0.1663E+02  0.1107E+02
     -0.614  0.1426E+02  0.1194E+02
     -0.553  0.1137E+02  0.1263E+02
     -0.492  0.9206E+01  0.1319E+02
     -0.431  0.7234E+01  0.1363E+02
     -0.371  0.4766E+01  0.1392E+02
     -0.310  0.2187E+01  0.1405E+02
     -0.249  0.3592E+00  0.1408E+02
     -0.188 -0.4166E+00  0.1405E+02
     -0.127 -0.5266E+00  0.1402E+02
     -0.066 -0.5282E+00  0.1399E+02
     -0.005 -0.7615E+00  0.1394E+02
      0.055 -0.1168E+01  0.1387E+02
      0.116 -0.1056E+01  0.1380E+02
      0.177  0.9640E+00  0.1386E+02
      0.238  0.6153E+01  0.1424E+02
      0.299  0.1398E+02  0.1509E+02
      0.360  0.2138E+02  0.1639E+02
      0.420  0.2471E+02  0.1789E+02
      0.481  0.2285E+02  0.1928E+02
      0.542  0.1791E+02  0.2037E+02
      0.603  0.1270E+02  0.2115E+02
      0.664  0.8386E+01  0.2166E+02
      0.725  0.4847E+01  0.2195E+02
      0.786  0.2027E+01  0.2207E+02
      0.846  0.2217E+00  0.2209E+02
      0.907 -0.5297E+00  0.2206E+02
      0.968 -0.6720E+00  0.2201E+02
      1.029 -0.7882E+00  0.2197E+02
      1.090 -0.1200E+01  0.2189E+02
      1.151 -0.1640E+01  0.2179E+02
      1.211 -0.9286E+00  0.2174E+02
      1.272  0.2841E+01  0.2191E+02
      1.333  0.1093E+02  0.2258E+02
      1.394  0.2201E+02  0.2391E+02
      1.455  0.3180E+02  0.2585E+02
      1.516  0.3553E+02  0.2801E+02
      1.577  0.3137E+02  0.2992E+02
      1.637  0.2175E+02  0.3124E+02
      1.698  0.1166E+02  0.3195E+02
      1.759  0.5415E+01  0.3228E+02
      1.820  0.4180E+01  0.3254E+02
      1.881  0.5878E+01  0.3289E+02
      1.942  0.7258E+01  0.3334E+02
      2.002  0.6473E+01  0.3373E+02
      2.063  0.3998E+01  0.3397E+02
      2.124  0.1438E+01  0.3406E+02
      2.185 -0.1665E+00  0.3405E+02
      2.246 -0.8785E+00  0.3400E+02
      2.307 -0.1212E+01  0.3392E+02
      2.368 -0.1220E+01  0.3385E+02
      2.428 -0.6513E-01  0.3385E+02
      2.489  0.3506E+01  0.3406E+02
      2.550  0.9794E+01  0.3465E+02
      2.611  0.1696E+02  0.3569E+02
      2.672  0.2164E+02  0.3700E+02
      2.733  0.2134E+02  0.3830E+02
      2.793  0.1642E+02  0.3930E+02
      2.854  0.9594E+01  0.3988E+02
      2.915  0.3785E+01  0.4011E+02
      2.976  0.4067E+00  0.4014E+02
      3.037 -0.7966E+00  0.4009E+02
      3.098 -0.8523E+00  0.4004E+02
      3.159 -0.6896E+00  0.4000E+02
      3.219 -0.8164E+00  0.3995E+02
      3.280 -0.1307E+01  0.3987E+02
      3.341 -0.1643E+01  0.3977E+02
      3.402 -0.4260E+00  0.3974E+02
      3.463  0.4325E+01  0.4001E+02
      3.524  0.1364E+02  0.4084E+02
      3.584  0.2557E+02  0.4239E+02
      3.645  0.3503E+02  0.4452E+02
      3.706  0.3691E+02  0.4677E+02
      3.767  0.3034E+02  0.4861E+02
      3.828  0.1976E+02  0.4982E+02
      3.889  0.1122E+02  0.5050E+02
      3.950  0.7418E+01  0.5095E+02
      4.010  0.6660E+01  0.5136E+02
      4.071  0.5905E+01  0.5171E+02
      4.132  0.3899E+01  0.5195E+02
      4.193  0.1366E+01  0.5204E+02
      4.254 -0.6998E+00  0.5199E+02
      4.315 -0.1990E+01  0.5187E+02
      4.375 -0.2196E+01  0.5174E+02
      4.436 -0.3526E-04  0.5174E+02
      4.497  0.6496E+01  0.5213E+02
      4.558  0.1751E+02  0.5320E+02
      4.619  0.2971E+02  0.5501E+02
      4.680  0.3783E+02  0.5731E+02
      4.741  0.3918E+02  0.5969E+02
      4.801  0.3590E+02  0.6188E+02
      4.862  0.3177E+02  0.6381E+02
      4.923  0.2788E+02  0.6551E+02
      4.984  0.2294E+02  0.6690E+02
      5.045  0.1687E+02  0.6793E+02
      5.106  0.1166E+02  0.6864E+02
      5.166  0.8633E+01  0.6916E+02
      5.227  0.6863E+01  0.6958E+02
      5.288  0.4829E+01  0.6988E+02
      5.349  0.2279E+01  0.7001E+02
      5.410  0.1380E-01  0.7001E+02
      5.471 -0.1204E+01  0.6994E+02
      5.532 -0.8320E+00  0.6989E+02
      5.592  0.1781E+01  0.7000E+02
      5.653  0.6811E+01  0.7041E+02
      5.714  0.1272E+02  0.7119E+02
      5.775  0.1637E+02  0.7218E+02
      5.836  0.1534E+02  0.7312E+02
      5.897  0.1030E+02  0.7374E+02
      5.957  0.4501E+01  0.7402E+02
      6.018  0.1132E+01  0.7409E+02
      6.079  0.1334E+01  0.7417E+02
      6.140  0.4050E+01  0.7441E+02
      6.201  0.7007E+01  0.7484E+02
      6.262  0.8078E+01  0.7533E+02
      6.323  0.6559E+01  0.7573E+02
      6.383  0.3421E+01  0.7594E+02
      6.444  0.3020E+00  0.7596E+02
      6.505 -0.1501E+01  0.7587E+02
      6.566 -0.9661E+00  0.7581E+02
      6.627  0.2905E+01  0.7598E+02
      6.688  0.1020E+02  0.7661E+02
      6.748  0.1895E+02  0.7776E+02
      6.809  0.2623E+02  0.7935E+02
      6.870  0.3085E+02  0.8123E+02
      6.931  0.3382E+02  0.8329E+02
      6.992  0.3536E+02  0.8544E+02
      7.053  0.3325E+02  0.8746E+02
      7.114  0.2574E+02  0.8903E+02
      7.174  0.1491E+02  0.8994E+02
      7.235  0.5295E+01  0.9026E+02
      7.296 -0.1626E+00  0.9025E+02
      7.357 -0.1795E+01  0.9014E+02
      7.418 -0.1630E+01  0.9004E+02
      7.479 -0.1330E+01  0.8996E+02
      7.539 -0.1407E+01  0.8987E+02
      7.600 -0.1252E+01  0.8980E+02
      7.661  0.5888E+00  0.8983E+02
      7.722  0.5468E+01  0.9017E+02
      7.783  0.1295E+02  0.9095E+02
      7.844  0.2016E+02  0.9218E+02
      7.905  0.2415E+02  0.9365E+02
      7.965  0.2537E+02  0.9519E+02
      8.026  0.2746E+02  0.9687E+02
      8.087  0.3266E+02  0.9885E+02
      8.148  0.3837E+02  0.1012E+03
      8.209  0.3952E+02  0.1036E+03
      8.270  0.3378E+02  0.1056E+03
      8.330  0.2344E+02  0.1071E+03
      8.391  0.1281E+02  0.1079E+03
      8.452  0.4952E+01  0.1082E+03
      8.513  0.6244E+00  0.1082E+03
      8.574 -0.9719E+00  0.1081E+03
      8.635 -0.1112E+01  0.1081E+03
      8.696 -0.8573E+00  0.1080E+03
      8.756 -0.8221E+00  0.1080E+03
      8.817 -0.1145E+01  0.1079E+03
      8.878 -0.1358E+01  0.1078E+03
      8.939 -0.1988E+00  0.1078E+03
      9.000  0.3894E+01  0.1080E+03
      9.061  0.1115E+02  0.1087E+03
      9.121  0.1913E+02  0.1099E+03
      9.182  0.2418E+02  0.1113E+03
      9.243  0.2512E+02  0.1129E+03
      9.304  0.2446E+02  0.1144E+03
      9.365  0.2484E+02  0.1159E+03
      9.426  0.2518E+02  0.1174E+03
      9.487  0.2219E+02  0.1188E+03
      9.547  0.1501E+02  0.1197E+03
      9.608  0.6427E+01  0.1201E+03
      9.669 -0.1299E+00  0.1201E+03
      9.730 -0.3057E+01  0.1199E+03
      9.791 -0.1844E+01  0.1198E+03
      9.852  0.4377E+01  0.1200E+03
      9.912  0.1591E+02  0.1210E+03
      9.973  0.3006E+02  0.1228E+03
     10.034  0.4094E+02  0.1253E+03
     10.095  0.4301E+02  0.1279E+03
     10.156  0.3523E+02  0.1301E+03
     10.217  0.2179E+02  0.1314E+03
     10.278  0.9241E+01  0.1320E+03
     10.338  0.2801E+01  0.1321E+03
     10.399  0.4346E+01  0.1324E+03
     10.460  0.1186E+02  0.1331E+03
     10.521  0.2016E+02  0.1343E+03
     10.582  0.2361E+02  0.1358E+03
     10.643  0.1995E+02  0.1370E+03
     10.703  0.1198E+02  0.1377E+03
     10.764  0.5217E+01  0.1380E+03
     10.825  0.3741E+01  0.1383E+03
     10.886  0.7566E+01  0.1387E+03
     10.947  0.1305E+02  0.1395E+03
     11.008  0.1573E+02  0.1405E+03
     11.069  0.1376E+02  0.1413E+03
     11.129  0.9244E+01  0.1419E+03
     11.190  0.5938E+01  0.1422E+03
     11.251  0.5645E+01  0.1426E+03
     11.312  0.7002E+01  0.1430E+03
     11.373  0.7453E+01  0.1435E+03
     11.434  0.5875E+01  0.1438E+03
     11.494  0.3178E+01  0.1440E+03
     11.555  0.9012E+00  0.1441E+03
     11.616 -0.2268E+00  0.1441E+03
     11.677 -0.4448E+00  0.1440E+03
     11.738 -0.2984E+00  0.1440E+03
     11.799 -0.1341E+00  0.1440E+03
     11.860 -0.4527E-01  0.1440E+03
     11.920 -0.1196E-01  0.1440E+03
     11.981 -0.2526E-02  0.1440E+03
     12.042 -0.4309E-03  0.1440E+03
     12.103 -0.5983E-04  0.1440E+03
     12.164 -0.6793E-05  0.1440E+03
     12.225 -0.6327E-06  0.1440E+03
     12.285 -0.4848E-07  0.1440E+03
     12.346 -0.3060E-08  0.1440E+03
     12.407 -0.1594E-09  0.1440E+03
     12.468 -0.6861E-11  0.1440E+03
     12.529 -0.2409E-12  0.1440E+03
     12.590 -0.7299E-14  0.1440E+03
     12.651  0.0000E+00  0.1440E+03
     12.711  0.0000E+00  0.1440E+03
     12.772  0.0000E+00  0.1440E+03
     12.833  0.0000E+00  0.1440E+03
     12.894  0.0000E+00  0.1440E+03
     12.955  0.0000E+00  0.1440E+03
     13.016  0.0000E+00  0.1440E+03
     13.076  0.0000E+00  0.1440E+03
     13.137  0.0000E+00  0.1440E+03
     13.198  0.0000E+00  0.1440E+03
     13.259  0.0000E+00  0.1440E+03
     13.320  0.0000E+00  0.1440E+03
