   31   31    1    1
  0.1706118E+02  0.8087052E-09  0.8087052E-09  0.8087052E-09  0.5000000E-15
  1.000000000000000E-004
  CAR 
 unknown system                          
   93    1   72
 
  0.2500000E+00  0.2500000E+00  0.2500000E+00  0.1000000E+01
   1       -2.934013
   2       -1.858351
   3       -1.858351
   4       -1.687098
   5       -0.743293
   6       -0.743293
   7       -0.498081
   8        0.360189
   9        0.360189
  10        0.426136
  11        0.604541
  12        1.428330
  13        1.428330
  14        1.457722
  15        1.562709
  16        1.562709
  17        1.907335
  18        2.634160
  19        2.634160
  20        2.751793
  21        3.595157
  22        3.595157
  23        3.695684
  24        3.697426
  25        3.697426
  26        3.988505
  27        4.622470
  28        4.622470
  29        4.654936
  30        4.716672
  31        4.716672
  32        4.910360
  33        4.910360
  34        4.914467
  35        5.173874
  36        5.763629
  37        5.763630
  38        6.221639
  39        6.777357
  40        6.793624
  41        6.793624
  42        6.970637
  43        7.022040
  44        7.030657
  45        7.030657
  46        7.835526
  47        7.881505
  48        7.881505
  49        8.096217
  50        8.096217
  51        8.153840
  52        8.195824
  53        8.195825
  54        8.318541
  55        9.149347
  56        9.149348
  57        9.181483
  58        9.408750
  59        9.408750
  60        9.434473
  61        9.987151
  62       10.003819
  63       10.003819
  64       10.052497
  65       10.128693
  66       10.128695
  67       10.532301
  68       10.532303
  69       10.582621
  70       10.976088
  71       10.977871
  72       11.319826
