       N       E                     dE             d eps       ncg     rms          rms(c)
RMM:   1     0.233068905609E+03    0.23307E+03   -0.15661E+04    72   0.536E+02
RMM:   2    -0.377924715083E+02   -0.27086E+03   -0.26138E+03    72   0.111E+02
RMM:   3    -0.958174079457E+02   -0.58025E+02   -0.56217E+02    72   0.363E+01
RMM:   4    -0.108434983786E+03   -0.12618E+02   -0.11261E+02    72   0.200E+01
RMM:   5    -0.113085834331E+03   -0.46509E+01   -0.35226E+01    72   0.102E+01
RMM:   6    -0.114681273382E+03   -0.15954E+01   -0.11636E+01    72   0.567E+00
RMM:   7    -0.115167315805E+03   -0.48604E+00   -0.39865E+00    72   0.318E+00
RMM:   8    -0.115332692535E+03   -0.16538E+00   -0.14356E+00    72   0.186E+00
RMM:   9    -0.115415852619E+03   -0.83160E-01   -0.78525E-01   187   0.108E+00
RMM:  10    -0.115426902332E+03   -0.11050E-01   -0.73045E-02   181   0.289E-01
RMM:  11    -0.115427351538E+03   -0.44921E-03   -0.33231E-03   145   0.644E-02
RMM:  12    -0.115427372787E+03   -0.21249E-04   -0.19510E-04   105   0.208E-02    0.536E+00
RMM:  13    -0.114893900372E+03    0.53347E+00   -0.36801E-01   155   0.932E-01    0.329E+00
RMM:  14    -0.114630283620E+03    0.26362E+00   -0.16168E-01   158   0.838E-01    0.960E-01
RMM:  15    -0.114603563316E+03    0.26720E-01   -0.18410E-02   166   0.315E-01    0.131E-01
RMM:  16    -0.114602860179E+03    0.70314E-03   -0.23665E-03   167   0.974E-02    0.417E-02
RMM:  17    -0.114602894694E+03   -0.34516E-04   -0.20389E-04   120   0.379E-02
   1 F= -.11460289E+03 E0= -.11458613E+03  d E =-.502948E-01
