 vasp.5.2.2 15Apr09 complex 
 executed on             LinuxIFC date 2017.03.17  11:26:43
 running on   12 nodes
 distr:  one band on    1 nodes,   12 groups


--------------------------------------------------------------------------------------------------------


 INCAR:
 POTCAR:   PAW_PBE Al 04Jan2001                   
 POTCAR:   PAW_PBE Al 04Jan2001                   
   VRHFIN =Al: s2p1                                                             
   LEXCH  = PE                                                                  
   EATOM  =    53.5387 eV,    3.9350 Ry                                         
                                                                                
   TITEL  = PAW_PBE Al 04Jan2001                                                
   LULTRA =        F    use ultrasoft PP ?                                      
   IUNSCR =        1    unscreen: 0-lin 1-nonlin 2-no                           
   RPACOR =    1.500    partial core radius                                     
   POMASS =   26.982; ZVAL   =    3.000    mass and valenz                      
   RCORE  =    1.900    outmost cutoff radius                                   
   RWIGS  =    2.650; RWIGS  =    1.402    wigner-seitz radius (au A)           
   ENMAX  =  240.300; ENMIN  =  180.225 eV                                      
   ICORE  =        2    local potential                                         
   LCOR   =        T    correct aug charges                                     
   LPAW   =        T    paw PP                                                  
   EAUG   =  291.052                                                            
   DEXC   =    -.041                                                            
   RMAX   =    2.974    core radius for proj-oper                               
   RAUG   =    1.300    factor for augmentation sphere                          
   RDEP   =    1.966    radius for radial grids                                 
   QCUT   =   -4.203; QGAM   =    8.405    optimization parameters              
                                                                                
   Description                                                                  
     l     E      TYP  RCUT    TYP  RCUT                                        
     0   .000     23  1.900                                                     
     0   .000     23  1.900                                                     
     1   .000     23  1.900                                                     
     1  1.000     23  1.900                                                     
     2   .000      7  1.900                                                     
  local pseudopotential read in
  partial core-charges read in
  atomic valenz-charges read in
  non local Contribution for L=           0  read in
    real space projection operators read in
  non local Contribution for L=           0  read in
    real space projection operators read in
  non local Contribution for L=           1  read in
    real space projection operators read in
  non local Contribution for L=           1  read in
    real space projection operators read in
    PAW grid and wavefunctions read in
 
   number of l-projection  operators is LMAX  =           4
   number of lm-projection operators is LMMAX =           8
 

 ----------------------------------------------------------------------------- 
|                                                                             |
|  ADVICE TO THIS USER RUNNING 'VASP/VAMP'   (HEAR YOUR MASTER'S VOICE ...):  |
|                                                                             |
|      You have a (more or less) 'large supercell' and for larger cells       |
|      it might be more efficient to use real space projection operators      |
|      So try LREAL= Auto  in the INCAR   file.                               |
|      Mind: If you want to do a very accurate calculations keep the          |
|      reciprocal projection scheme          (i.e. LREAL=.FALSE.)             |
|                                                                             |
 ----------------------------------------------------------------------------- 

 PAW_PBE Al 04Jan2001                   :
 energy of atom  1       EATOM=  -53.5387
 kinetic energy error for atom=    0.0011 (will be added to EATOM!!)
 
 
 POSCAR: Al31                                    
  positions in direct lattice
  velocities in cartesian coordinates
 exchange correlation table for  LEXCH =        8
   RHO(1)=    0.500       N(1)  =     2000
   RHO(2)=  100.500       N(2)  =     4000

 VTST: version 2.03d, (02/18/09)

 CHAIN: initializing optimizer
 
 OPT: Using VASP Dynamics algorithm
 CHAIN: Read ICHAIN            0
 


--------------------------------------------------------------------------------------------------------


 ion  position               nearest neighbor table
   1  0.999  0.000  0.999-   7 2.85  14 2.85  19 2.85  21 2.85  27 2.85  17 2.86   6 2.86   2 2.87
                             4 2.88  10 2.88  11 2.88   3 2.88
   2  0.250  0.000  0.250-   3 2.86   4 2.86   8 2.86  10 2.86  11 2.86  15 2.86  18 2.86  26 2.86
                            16 2.87   1 2.87  20 2.87   5 2.87
   3  0.250  0.253  0.003-   4 2.82   8 2.82   9 2.82  12 2.82   2 2.86  25 2.86   1 2.88  19 2.88
                            23 2.88   5 2.88  17 2.90
   4  0.003  0.253  0.250-   3 2.82   9 2.82  18 2.82  24 2.82   2 2.86  13 2.86  16 2.88   1 2.88
                            22 2.88   7 2.88   6 2.90
   5  0.501  0.000  0.999-   7 2.85  14 2.85  21 2.85  23 2.85  31 2.85  17 2.86   6 2.86   2 2.87
                             8 2.88  10 2.88   3 2.88  15 2.88
   6  0.750  0.000  0.250-   1 2.86   5 2.86   7 2.86  14 2.86  16 2.86  20 2.86  22 2.86  30 2.86
                             8 2.90  11 2.90   4 2.90  15 2.90
   7  0.750  0.249  0.999-   1 2.85   5 2.85  19 2.85  21 2.85  23 2.85   6 2.86  29 2.86  13 2.87
                             8 2.88   9 2.88  12 2.88   4 2.88
   8  0.497  0.253  0.250-   3 2.82  12 2.82  18 2.82  28 2.82   2 2.86  13 2.86   5 2.88  20 2.88
                            22 2.88   7 2.88   6 2.90
   9  0.003  0.500  0.003-   3 2.82   4 2.82  10 2.82  11 2.82  13 2.86  25 2.86  14 2.88  19 2.88
                             7 2.88  27 2.88  29 2.90
  10  0.250  0.747  0.003-   9 2.82  11 2.82  12 2.82  15 2.82   2 2.86  25 2.86   5 2.88   1 2.88
                            27 2.88  31 2.88  17 2.90
  11  0.003  0.747  0.250-   9 2.82  10 2.82  24 2.82  26 2.82   2 2.86  13 2.86  16 2.88   1 2.88
                            14 2.88  30 2.88   6 2.90
  12  0.497  0.500  0.003-   3 2.82   8 2.82  10 2.82  15 2.82  13 2.86  25 2.86   7 2.88  23 2.88
                            14 2.88  31 2.88  29 2.90
  13  0.750  0.500  0.250-   4 2.86   8 2.86   9 2.86  11 2.86  12 2.86  15 2.86  24 2.86  28 2.86
                            22 2.87  14 2.87   7 2.87  30 2.87
  14  0.750  0.751  0.999-   1 2.85   5 2.85  21 2.85  27 2.85  31 2.85  29 2.86   6 2.86  13 2.87
                            11 2.88  12 2.88   9 2.88  15 2.88
  15  0.497  0.747  0.250-  10 2.82  12 2.82  26 2.82  28 2.82   2 2.86  13 2.86  20 2.88   5 2.88
                            14 2.88  30 2.88   6 2.90
  16  0.999  0.000  0.501-  19 2.85  21 2.85  22 2.85  27 2.85  30 2.85  17 2.86   6 2.86   2 2.87
                            18 2.88  26 2.88  11 2.88   4 2.88
  17  0.250  0.000  0.750-   1 2.86   5 2.86  16 2.86  19 2.86  20 2.86  23 2.86  27 2.86  31 2.86
                            18 2.90  26 2.90  10 2.90   3 2.90
  18  0.250  0.253  0.497-   4 2.82   8 2.82  24 2.82  28 2.82  25 2.86   2 2.86  23 2.88  16 2.88
                            19 2.88  20 2.88  17 2.90
  19  0.999  0.249  0.750-   1 2.85   7 2.85  16 2.85  21 2.85  22 2.85  17 2.86  29 2.86  25 2.87
                             9 2.88  24 2.88  18 2.88   3 2.88
  20  0.501  0.000  0.501-  21 2.85  22 2.85  23 2.85  30 2.85  31 2.85  17 2.86   6 2.86   2 2.87
                            18 2.88  26 2.88  15 2.88   8 2.88
  21  0.750  0.000  0.750-   1 2.85   5 2.85   7 2.85  14 2.85  16 2.85  19 2.85  20 2.85  22 2.85
                            23 2.85  27 2.85  30 2.85  31 2.85
  22  0.750  0.249  0.501-  16 2.85  19 2.85  20 2.85  21 2.85  23 2.85   6 2.86  29 2.86  13 2.87
                             8 2.88  24 2.88  28 2.88   4 2.88
  23  0.501  0.249  0.750-   5 2.85   7 2.85  20 2.85  21 2.85  22 2.85  17 2.86  29 2.86  25 2.87
                            18 2.88  12 2.88  28 2.88   3 2.88
  24  0.003  0.500  0.497-   4 2.82  11 2.82  18 2.82  26 2.82  25 2.86  13 2.86  19 2.88  22 2.88
                            27 2.88  30 2.88  29 2.90
  25  0.250  0.500  0.750-   3 2.86   9 2.86  10 2.86  12 2.86  18 2.86  24 2.86  26 2.86  28 2.86
                            23 2.87  27 2.87  19 2.87  31 2.87
  26  0.250  0.747  0.497-  11 2.82  15 2.82  24 2.82  28 2.82  25 2.86   2 2.86  20 2.88  27 2.88
                            16 2.88  31 2.88  17 2.90
  27  0.999  0.751  0.750-   1 2.85  14 2.85  16 2.85  21 2.85  30 2.85  29 2.86  17 2.86  25 2.87
                             9 2.88  26 2.88  10 2.88  24 2.88
  28  0.497  0.500  0.497-   8 2.82  15 2.82  18 2.82  26 2.82  25 2.86  13 2.86  22 2.88  23 2.88
                            30 2.88  31 2.88  29 2.90
  29  0.750  0.500  0.750-   7 2.86  14 2.86  19 2.86  22 2.86  23 2.86  27 2.86  30 2.86  31 2.86
                             9 2.90  28 2.90  12 2.90  24 2.90
  30  0.750  0.751  0.501-  16 2.85  20 2.85  21 2.85  27 2.85  31 2.85  29 2.86   6 2.86  13 2.87
                            15 2.88  28 2.88  11 2.88  24 2.88
  31  0.501  0.751  0.750-   5 2.85  14 2.85  20 2.85  21 2.85  30 2.85  29 2.86  17 2.86  25 2.87
                            26 2.88  28 2.88  12 2.88  10 2.88
 
  LATTYP: Found a simple cubic cell.
 ALAT       =     8.0870520000
  
  Lattice vectors:
  
 A1 = (   8.0870520000,   0.0000000000,   0.0000000000)
 A2 = (   0.0000000000,   8.0870520000,   0.0000000000)
 A3 = (   0.0000000000,   0.0000000000,   8.0870520000)
 Subroutine PRICEL returns:
 Original cell was already a primitive cell.
 

Analysis of symmetry for initial positions (statically):

 Routine SETGRP: Setting up the symmetry group for a 
 simple cubic supercell.


 Subroutine GETGRP returns: Found 48 space group operations
 (whereof  4 operations were pure point group operations)
 out of a pool of 48 trial point group operations.


The static configuration has the point symmetry C_2v.
 The point group associated with its full space group is O_h .

Analysis of symmetry for dynamics (positions and initial velocities):

 Subroutine DYNSYM returns: Found 48 space group operations
 (whereof  4 operations were pure point group operations)
 out of a pool of 48 trial space group operations
 (whereof  4 operations were pure point group operations)
 and found also     1 'primitive' translations


The dynamic configuration has the point symmetry C_2v.
 The point group associated with its full space group is O_h .
 
 
 KPOINTS: Automatic kpoint scheme                 

Automatic generation of k-mesh.
 
 Subroutine IBZKPT returns following result:
 ===========================================
 
 Found      1 irreducible k-points:
 
 Following reciprocal coordinates:
            Coordinates               Weight
  0.250000  0.250000  0.250000      8.000000
 
 Following cartesian coordinates:
            Coordinates               Weight
  0.030914  0.030914  0.030914      8.000000
 


--------------------------------------------------------------------------------------------------------




 Dimension of arrays:
   k-points           NKPTS =      1   k-points in BZ     NKDIM =      1   number of bands    NBANDS=     72
   number of dos      NEDOS =    301   number of ions     NIONS =     31
   non local maximal  LDIM  =      4   non local SUM 2l+1 LMDIM =      8
   total plane-waves  NPLWV = 110592
   max r-space proj   IRMAX =      1   max aug-charges    IRDMAX=   8337
   dimension x,y,z NGX =    48 NGY =   48 NGZ =   48
   dimension x,y,z NGXF=    96 NGYF=   96 NGZF=   96
   support grid    NGXF=    96 NGYF=   96 NGZF=   96
   ions per type =              31
 NGX,Y,Z   is equivalent  to a cutoff of   9.87,  9.87,  9.87 a.u.
 NGXF,Y,Z  is equivalent  to a cutoff of  19.73, 19.73, 19.73 a.u.


 I would recommend the setting:
   dimension x,y,z NGX =    46 NGY =   46 NGZ =   46
 SYSTEM =  unknown system                          
 POSCAR =  Al31                                    

 Startparameter for this run:
   NWRITE =      2    write-flag & timer
   PREC   = accura    medium, high low
   ISTART =      0    job   : 0-new  1-cont  2-samecut
   ICHARG =      2    charge: 1-file 2-atom 10-const
   ISPIN  =      1    spin polarized calculation?
   LNONCOLLINEAR =      F non collinear calculations
   LSORBIT =      F    spin-orbit coupling
   INIWAV =      1    electr: 0-lowe 1-rand  2-diag
   LASPH  =      F    aspherical Exc in radial PAW
   METAGGA=      F    non-selfconsistent MetaGGA calc.

 Electronic Relaxation 1
   ENCUT  =  300.0 eV  22.05 Ry    4.70 a.u.  11.42 11.42 11.42*2*pi/ulx,y,z
   ENINI  =  300.0     initial cutoff
   ENAUG  =  291.1 eV  augmentation charge cutoff
   NELM   =     60;   NELMIN=  2; NELMDL=-12     # of ELM steps 
   EDIFF  = 0.1E-03   stopping-criterion for ELM
   LREAL  =      F    real-space projection
   LCOMPAT=      F    compatible to vasp.4.4
   LREAL_COMPAT= F    compatible to vasp.4.5.1-3
   GGA_COMPAT  = T    GGA compatible to vasp.4.4-vasp.4.6
   LMAXPAW     = -100 max onsite density
   LMAXMIX     =    2 max onsite mixed and CHGCAR
   VOSKOWN=      0    Vosko Wilk Nusair interpolation
   ROPT   =    0.00000
 Ionic relaxation
   EDIFFG = 0.5E-01   stopping-criterion for IOM
   NSW    =      0    number of steps for IOM
   NBLOCK =      1;   KBLOCK =      1    inner block; outer block 
   IBRION =     -1    ionic relax: 0-MD 1-quasi-New 2-CG
   NFREE  =      0    steps in history (QN), initial steepest desc. (CG)
   ISIF   =      2    stress and relaxation
   IWAVPR =     10    prediction:  0-non 1-charg 2-wave 3-comb
   ISYM   =      2    0-nonsym 1-usesym 2-fastsym
   LCORR  =      T    Harris-Foulkes like correction to forces

   POTIM  = 0.5000    time-step for ionic-motion
   TEIN   =    0.0    initial temperature
   TEBEG  =    0.0;   TEEND  =   0.0 temperature during run
   SMASS  =  -3.00    Nose mass-parameter (am)
   estimated Nose-frequenzy (Omega)   =  0.10E-29 period in steps =****** mass=  -0.149E-26a.u.
   NPACO  =    256;   APACO  = 16.0  distance and # of slots for P.C.
   PSTRESS=    0.0 pullay stress

  Mass of Ions in am
   POMASS =  26.98
  Ionic Valenz
   ZVAL   =   3.00
  Atomic Wigner-Seitz radii
   RWIGS  =  -1.00
   NELECT =      93.0000    total number of electrons
   NUPDOWN=      -1.0000    fix difference up-down

 DOS related values:
   EMIN   =  10.00;   EMAX   =-10.00  energy-range for DOS
   EFERMI =   0.00
   ISMEAR =     1;   SIGMA  =   0.20  broadening in eV -4-tet -1-fermi 0-gaus

 Electronic relaxation 2 (details)
   IALGO  =     48    algorithm
   LDIAG  =      T    sub-space diagonalisation
   IMIX   =      4    mixing-type and parameters
     AMIX     =   0.40;   BMIX     =  1.00
     AMIX_MAG =   1.60;   BMIX_MAG =  1.00
     AMIN     =   0.10
     WC   =   100.;   INIMIX=   1;  MIXPRE=   1

 Intra band minimization:
   WEIMIN = 0.0000     energy-eigenvalue tresh-hold
   EBREAK =  0.40E-06  absolut break condition
   DEPER  =   0.30     relativ break condition  

   TIME   =   0.40     timestep for ELM

  volume/ion in A,a.u.               =      17.06       115.13
  Fermi-wavevector in a.u.,A,eV,Ry     =   0.917161  1.733183 11.445007  0.841184
  Thomas-Fermi vector in A             =   2.042098
 
 Write flags
   LWAVE  =      F    write WAVECAR
   LCHARG =      F    write CHGCAR
   LVTOT  =      F    write LOCPOT, local potential
   LELF   =      F    write electronic localiz. function (ELF)
   LORBIT =      0    0 simple, 1 ext, 2 COOP (PROOUT)


 Dipole corrections
   LMONO  =      F    monopole corrections only (constant potential shift)
   LDIPOL =      F    correct potential (dipole corrections)
   IDIPOL =      0    1-x, 2-y, 3-z, 4-all directions 
   EPSILON=  1.0000000 bulk dielectric constant

 Exchange correlation treatment:
   GGA     =    --    GGA type
   LEXCH   =     8    internal setting for exchange type
   VOSKOWN=      0    Vosko Wilk Nusair interpolation
   LHFCALC =     F    Hartree Fock is set to
   LHFONE  =     F    Hartree Fock one center treatment
   AEXX    =    0.0000 exact exchange contribution

 Linear response parameters
   LEPSILON=     F    determine dielectric tensor
   LRPA    =     F    only Hartree local field effects (RPA)
   LNABLA  =     F    use nabla operator in PAW spheres
   LVEL    =     F    velocity operator in full k-point grid
   LINTERFAST=   F  fast interpolation
   KINTER  =     0    interpolate to denser k-point grid
   CSHIFT  =0.1000    complex shift for real part using Kramers Kronig
   OMEGAMAX=  -1.0    maximum frequency

 Orbital magnetization related:
   ORBITALMAG=     F  switch on orbital magnetization
   LCHIMAG   =     F  perturbation theory with respect to B field



--------------------------------------------------------------------------------------------------------


 Static calculation
 charge density and potential will be updated during run
 non-spin polarized calculation
 RMM-DIIS sequential band-by-band
 perform sub-space diagonalisation
    before iterative eigenvector-optimisation
 modified Broyden-mixing scheme, WC =      100.0
 initial mixing is a Kerker type mixing with AMIX =  0.4000 and BMIX =      1.0000
 Hartree-type preconditioning will be used
 using additional bands           25
 reciprocal scheme for non local part
 use partial core corrections
 calculate Harris-corrections to forces 
   (improved forces if not selfconsistent)
 use gradient corrections 
 use of overlap-Matrix (Vanderbilt PP)
 Methfessel and Paxton  Order N= 1 SIGMA  =   0.20


--------------------------------------------------------------------------------------------------------


  energy-cutoff  :      300.00
  volume of cell :      528.90
      direct lattice vectors                 reciprocal lattice vectors
     8.087052000  0.000000000  0.000000000     0.123654454  0.000000000  0.000000000
     0.000000000  8.087052000  0.000000000     0.000000000  0.123654454  0.000000000
     0.000000000  0.000000000  8.087052000     0.000000000  0.000000000  0.123654454

  length of vectors
     8.087052000  8.087052000  8.087052000     0.123654454  0.123654454  0.123654454


 
 k-points in units of 2pi/SCALE and weight: Automatic kpoint scheme                 
   0.03091361  0.03091361  0.03091361       1.000
 
 k-points in reciprocal lattice and weights: Automatic kpoint scheme                 
   0.25000000  0.25000000  0.25000000       1.000
 
 position of ions in fractional coordinates (direct lattice) 
   0.99943900  0.00000000  0.99943900
   0.25000000  0.00000000  0.25000000
   0.25000000  0.25327200  0.00327200
   0.00327200  0.25327200  0.25000000
   0.50056100  0.00000000  0.99943900
   0.75000000  0.00000000  0.25000000
   0.75000000  0.24943900  0.99943900
   0.49672800  0.25327200  0.25000000
   0.00327200  0.50000000  0.00327200
   0.25000000  0.74672800  0.00327200
   0.00327200  0.74672800  0.25000000
   0.49672800  0.50000000  0.00327200
   0.75000000  0.50000000  0.25000000
   0.75000000  0.75056100  0.99943900
   0.49672800  0.74672800  0.25000000
   0.99943900  0.00000000  0.50056100
   0.25000000  0.00000000  0.75000000
   0.25000000  0.25327200  0.49672800
   0.99943900  0.24943900  0.75000000
   0.50056100  0.00000000  0.50056100
   0.75000000  0.00000000  0.75000000
   0.75000000  0.24943900  0.50056100
   0.50056100  0.24943900  0.75000000
   0.00327200  0.50000000  0.49672800
   0.25000000  0.50000000  0.75000000
   0.25000000  0.74672800  0.49672800
   0.99943900  0.75056100  0.75000000
   0.49672800  0.50000000  0.49672800
   0.75000000  0.50000000  0.75000000
   0.75000000  0.75056100  0.50056100
   0.50056100  0.75056100  0.75000000
 
 position of ions in cartesian coordinates  (Angst):
   8.08251516  0.00000000  8.08251516
   2.02176300  0.00000000  2.02176300
   2.02176300  2.04822383  0.02646083
   0.02646083  2.04822383  2.02176300
   4.04806284  0.00000000  8.08251516
   6.06528900  0.00000000  2.02176300
   6.06528900  2.01722616  8.08251516
   4.01706517  2.04822383  2.02176300
   0.02646083  4.04352600  0.02646083
   2.02176300  6.03882817  0.02646083
   0.02646083  6.03882817  2.02176300
   4.01706517  4.04352600  0.02646083
   6.06528900  4.04352600  2.02176300
   6.06528900  6.06982584  8.08251516
   4.01706517  6.03882817  2.02176300
   8.08251516  0.00000000  4.04806284
   2.02176300  0.00000000  6.06528900
   2.02176300  2.04822383  4.01706517
   8.08251516  2.01722616  6.06528900
   4.04806284  0.00000000  4.04806284
   6.06528900  0.00000000  6.06528900
   6.06528900  2.01722616  4.04806284
   4.04806284  2.01722616  6.06528900
   0.02646083  4.04352600  4.01706517
   2.02176300  4.04352600  6.06528900
   2.02176300  6.03882817  4.01706517
   8.08251516  6.06982584  6.06528900
   4.01706517  4.04352600  4.01706517
   6.06528900  4.04352600  6.06528900
   6.06528900  6.06982584  4.04806284
   4.04806284  6.06982584  6.06528900
 


--------------------------------------------------------------------------------------------------------


 k-point  1 :  0.25000.25000.2500  plane waves:    6238

 maximum and minimum number of plane-waves per node :    6238   6238

 maximum number of plane-waves:    6238
 maximal index in each direction: 
   IXMAX= 11   IYMAX= 11   IZMAX= 11
   IXMIN=-11   IYMIN=-11   IZMIN=-11

 NGX is ok and might be reduce to  46
 NGY is ok and might be reduce to  46
 NGZ is ok and might be reduce to  46

 serial   3D FFT for wavefunctions
 parallel 3D FFT for charge:
    minimum data exchange during FFTs selected (reduces bandwidth)


 total amount of memory used by VASP on root node  58219. kBytes
========================================================================

   base      :    30000. kBytes
   nonl-proj :     3494. kBytes
   fftplans  :     2983. kBytes
   grid      :    21024. kBytes
   one-center:       95. kBytes
   wavefun   :      623. kBytes
 
 Broyden mixing: mesh for mixing (old mesh)
   NGX = 23   NGY = 23   NGZ = 23
  (NGX  = 96   NGY  = 96   NGZ  = 96)
  gives a total of  12167 points

 initial charge density was supplied:
 charge density of overlapping atoms calculated
 number of electron   93.0000000 magnetization 
 keeping initial charge density in first step


--------------------------------------------------------------------------------------------------------


 Maximum index for augmentation-charges          535 (set IRDMAX)


--------------------------------------------------------------------------------------------------------


 First call to EWALD:  gamma=   0.219
 Maximum number of real-space cells 3x 3x 3
 Maximum number of reciprocal cells 3x 3x 3

    FEWALD:  cpu time    0.01: real time    0.01
   RESPFUN:  cpu time    0.00: real time    0.00


----------------------------------------- Iteration    1(   1)  ---------------------------------------


    POTLOK:  cpu time    0.15: real time    0.15
    SETDIJ:  cpu time    0.01: real time    0.01
    EDDIAG:  cpu time    0.15: real time    0.15
  RMM-DIIS:  cpu time    0.34: real time    0.34
    ORTHCH:  cpu time    0.01: real time    0.01
       DOS:  cpu time    0.00: real time    0.00
    --------------------------------------------
      LOOP:  cpu time    0.66: real time    0.67

 eigenvalue-minimisations  :    72
 total energy-change (2. order) : 0.2330689E+03  (-0.1566085E+04)
 number of electron   93.0000000 magnetization 
 augmentation part    93.0000000 magnetization 

 Free energy of the ion-electron system (eV)
  ---------------------------------------------------
  alpha Z        PSCENC =        -6.10292983
  Ewald energy   TEWEN  =     -2232.11219689
  -1/2 Hartree   DENC   =       -17.02293394
  -exchange  EXHF       =         0.00000000
  -V(xc)+E(xc)   XCENC  =      -814.85634027
  PAW double counting   =      1102.18190231     -111.56847430
  entropy T*S    EENTRO =        -0.05584079
  eigenvalues    EBANDS =       652.93937526
  atomic energy  EATOM  =      1659.66634407
  ---------------------------------------------------
  free energy    TOTEN  =       233.06890561 eV

  energy without entropy =      233.12474640  energy(sigma->0) =      233.08751921


--------------------------------------------------------------------------------------------------------




----------------------------------------- Iteration    1(   2)  ---------------------------------------


    EDDIAG:  cpu time    0.15: real time    0.15
  RMM-DIIS:  cpu time    0.33: real time    0.34
    ORTHCH:  cpu time    0.01: real time    0.01
       DOS:  cpu time    0.00: real time    0.00
    --------------------------------------------
      LOOP:  cpu time    0.49: real time    0.50

 eigenvalue-minimisations  :    72
 total energy-change (2. order) :-0.2708614E+03  (-0.2613847E+03)
 number of electron   93.0000000 magnetization 
 augmentation part    93.0000000 magnetization 

 Free energy of the ion-electron system (eV)
  ---------------------------------------------------
  alpha Z        PSCENC =        -6.10292983
  Ewald energy   TEWEN  =     -2232.11219689
  -1/2 Hartree   DENC   =       -17.02293394
  -exchange  EXHF       =         0.00000000
  -V(xc)+E(xc)   XCENC  =      -814.85634027
  PAW double counting   =      1102.18190231     -111.56847430
  entropy T*S    EENTRO =        -0.09788775
  eigenvalues    EBANDS =       382.12004510
  atomic energy  EATOM  =      1659.66634407
  ---------------------------------------------------
  free energy    TOTEN  =       -37.79247151 eV

  energy without entropy =      -37.69458376  energy(sigma->0) =      -37.75984226


--------------------------------------------------------------------------------------------------------




----------------------------------------- Iteration    1(   3)  ---------------------------------------


    EDDIAG:  cpu time    0.15: real time    0.15
  RMM-DIIS:  cpu time    0.34: real time    0.34
    ORTHCH:  cpu time    0.01: real time    0.01
       DOS:  cpu time    0.00: real time    0.00
    --------------------------------------------
      LOOP:  cpu time    0.50: real time    0.50

 eigenvalue-minimisations  :    72
 total energy-change (2. order) :-0.5802494E+02  (-0.5621722E+02)
 number of electron   93.0000000 magnetization 
 augmentation part    93.0000000 magnetization 

 Free energy of the ion-electron system (eV)
  ---------------------------------------------------
  alpha Z        PSCENC =        -6.10292983
  Ewald energy   TEWEN  =     -2232.11219689
  -1/2 Hartree   DENC   =       -17.02293394
  -exchange  EXHF       =         0.00000000
  -V(xc)+E(xc)   XCENC  =      -814.85634027
  PAW double counting   =      1102.18190231     -111.56847430
  entropy T*S    EENTRO =        -0.01143163
  eigenvalues    EBANDS =       324.00865254
  atomic energy  EATOM  =      1659.66634407
  ---------------------------------------------------
  free energy    TOTEN  =       -95.81740795 eV

  energy without entropy =      -95.80597631  energy(sigma->0) =      -95.81359740


--------------------------------------------------------------------------------------------------------




----------------------------------------- Iteration    1(   4)  ---------------------------------------


    EDDIAG:  cpu time    0.15: real time    0.15
  RMM-DIIS:  cpu time    0.33: real time    0.33
    ORTHCH:  cpu time    0.01: real time    0.01
       DOS:  cpu time    0.00: real time    0.00
    --------------------------------------------
      LOOP:  cpu time    0.49: real time    0.50

 eigenvalue-minimisations  :    72
 total energy-change (2. order) :-0.1261758E+02  (-0.1126142E+02)
 number of electron   93.0000000 magnetization 
 augmentation part    93.0000000 magnetization 

 Free energy of the ion-electron system (eV)
  ---------------------------------------------------
  alpha Z        PSCENC =        -6.10292983
  Ewald energy   TEWEN  =     -2232.11219689
  -1/2 Hartree   DENC   =       -17.02293394
  -exchange  EXHF       =         0.00000000
  -V(xc)+E(xc)   XCENC  =      -814.85634027
  PAW double counting   =      1102.18190231     -111.56847430
  entropy T*S    EENTRO =        -0.14264300
  eigenvalues    EBANDS =       311.52228807
  atomic energy  EATOM  =      1659.66634407
  ---------------------------------------------------
  free energy    TOTEN  =      -108.43498379 eV

  energy without entropy =     -108.29234079  energy(sigma->0) =     -108.38743612


--------------------------------------------------------------------------------------------------------




----------------------------------------- Iteration    1(   5)  ---------------------------------------


    EDDIAG:  cpu time    0.15: real time    0.15
  RMM-DIIS:  cpu time    0.33: real time    0.33
    ORTHCH:  cpu time    0.01: real time    0.01
       DOS:  cpu time    0.00: real time    0.00
    --------------------------------------------
      LOOP:  cpu time    0.49: real time    0.50

 eigenvalue-minimisations  :    72
 total energy-change (2. order) :-0.4650851E+01  (-0.3522556E+01)
 number of electron   93.0000000 magnetization 
 augmentation part    93.0000000 magnetization 

 Free energy of the ion-electron system (eV)
  ---------------------------------------------------
  alpha Z        PSCENC =        -6.10292983
  Ewald energy   TEWEN  =     -2232.11219689
  -1/2 Hartree   DENC   =       -17.02293394
  -exchange  EXHF       =         0.00000000
  -V(xc)+E(xc)   XCENC  =      -814.85634027
  PAW double counting   =      1102.18190231     -111.56847430
  entropy T*S    EENTRO =        -0.07674150
  eigenvalues    EBANDS =       306.80553602
  atomic energy  EATOM  =      1659.66634407
  ---------------------------------------------------
  free energy    TOTEN  =      -113.08583433 eV

  energy without entropy =     -113.00909283  energy(sigma->0) =     -113.06025383


--------------------------------------------------------------------------------------------------------




----------------------------------------- Iteration    1(   6)  ---------------------------------------


    EDDIAG:  cpu time    0.15: real time    0.15
  RMM-DIIS:  cpu time    0.33: real time    0.33
    ORTHCH:  cpu time    0.01: real time    0.01
       DOS:  cpu time    0.00: real time    0.00
    --------------------------------------------
      LOOP:  cpu time    0.49: real time    0.49

 eigenvalue-minimisations  :    72
 total energy-change (2. order) :-0.1595439E+01  (-0.1163609E+01)
 number of electron   93.0000000 magnetization 
 augmentation part    93.0000000 magnetization 

 Free energy of the ion-electron system (eV)
  ---------------------------------------------------
  alpha Z        PSCENC =        -6.10292983
  Ewald energy   TEWEN  =     -2232.11219689
  -1/2 Hartree   DENC   =       -17.02293394
  -exchange  EXHF       =         0.00000000
  -V(xc)+E(xc)   XCENC  =      -814.85634027
  PAW double counting   =      1102.18190231     -111.56847430
  entropy T*S    EENTRO =        -0.08632647
  eigenvalues    EBANDS =       305.21968194
  atomic energy  EATOM  =      1659.66634407
  ---------------------------------------------------
  free energy    TOTEN  =      -114.68127338 eV

  energy without entropy =     -114.59494691  energy(sigma->0) =     -114.65249789


--------------------------------------------------------------------------------------------------------




----------------------------------------- Iteration    1(   7)  ---------------------------------------


    EDDIAG:  cpu time    0.15: real time    0.15
  RMM-DIIS:  cpu time    0.34: real time    0.34
    ORTHCH:  cpu time    0.01: real time    0.01
       DOS:  cpu time    0.00: real time    0.00
    --------------------------------------------
      LOOP:  cpu time    0.50: real time    0.50

 eigenvalue-minimisations  :    72
 total energy-change (2. order) :-0.4860424E+00  (-0.3986511E+00)
 number of electron   93.0000000 magnetization 
 augmentation part    93.0000000 magnetization 

 Free energy of the ion-electron system (eV)
  ---------------------------------------------------
  alpha Z        PSCENC =        -6.10292983
  Ewald energy   TEWEN  =     -2232.11219689
  -1/2 Hartree   DENC   =       -17.02293394
  -exchange  EXHF       =         0.00000000
  -V(xc)+E(xc)   XCENC  =      -814.85634027
  PAW double counting   =      1102.18190231     -111.56847430
  entropy T*S    EENTRO =        -0.07670516
  eigenvalues    EBANDS =       304.72401821
  atomic energy  EATOM  =      1659.66634407
  ---------------------------------------------------
  free energy    TOTEN  =      -115.16731581 eV

  energy without entropy =     -115.09061065  energy(sigma->0) =     -115.14174742


--------------------------------------------------------------------------------------------------------




----------------------------------------- Iteration    1(   8)  ---------------------------------------


    EDDIAG:  cpu time    0.15: real time    0.15
  RMM-DIIS:  cpu time    0.34: real time    0.34
    ORTHCH:  cpu time    0.01: real time    0.01
       DOS:  cpu time    0.00: real time    0.00
    --------------------------------------------
      LOOP:  cpu time    0.50: real time    0.50

 eigenvalue-minimisations  :    72
 total energy-change (2. order) :-0.1653767E+00  (-0.1435598E+00)
 number of electron   93.0000000 magnetization 
 augmentation part    93.0000000 magnetization 

 Free energy of the ion-electron system (eV)
  ---------------------------------------------------
  alpha Z        PSCENC =        -6.10292983
  Ewald energy   TEWEN  =     -2232.11219689
  -1/2 Hartree   DENC   =       -17.02293394
  -exchange  EXHF       =         0.00000000
  -V(xc)+E(xc)   XCENC  =      -814.85634027
  PAW double counting   =      1102.18190231     -111.56847430
  entropy T*S    EENTRO =        -0.06600279
  eigenvalues    EBANDS =       304.54793911
  atomic energy  EATOM  =      1659.66634407
  ---------------------------------------------------
  free energy    TOTEN  =      -115.33269254 eV

  energy without entropy =     -115.26668974  energy(sigma->0) =     -115.31069160


--------------------------------------------------------------------------------------------------------




----------------------------------------- Iteration    1(   9)  ---------------------------------------


    EDDIAG:  cpu time    0.15: real time    0.15
  RMM-DIIS:  cpu time    0.79: real time    0.79
    ORTHCH:  cpu time    0.01: real time    0.01
       DOS:  cpu time    0.00: real time    0.00
    --------------------------------------------
      LOOP:  cpu time    0.95: real time    0.95

 eigenvalue-minimisations  :   187
 total energy-change (2. order) :-0.8316008E-01  (-0.7852489E-01)
 number of electron   93.0000000 magnetization 
 augmentation part    93.0000000 magnetization 

 Free energy of the ion-electron system (eV)
  ---------------------------------------------------
  alpha Z        PSCENC =        -6.10292983
  Ewald energy   TEWEN  =     -2232.11219689
  -1/2 Hartree   DENC   =       -17.02293394
  -exchange  EXHF       =         0.00000000
  -V(xc)+E(xc)   XCENC  =      -814.85634027
  PAW double counting   =      1102.18190231     -111.56847430
  entropy T*S    EENTRO =        -0.04989382
  eigenvalues    EBANDS =       304.44867006
  atomic energy  EATOM  =      1659.66634407
  ---------------------------------------------------
  free energy    TOTEN  =      -115.41585262 eV

  energy without entropy =     -115.36595880  energy(sigma->0) =     -115.39922135


--------------------------------------------------------------------------------------------------------




----------------------------------------- Iteration    1(  10)  ---------------------------------------


    EDDIAG:  cpu time    0.15: real time    0.15
  RMM-DIIS:  cpu time    0.77: real time    0.77
    ORTHCH:  cpu time    0.01: real time    0.01
       DOS:  cpu time    0.00: real time    0.00
    --------------------------------------------
      LOOP:  cpu time    0.93: real time    0.93

 eigenvalue-minimisations  :   181
 total energy-change (2. order) :-0.1104971E-01  (-0.7304489E-02)
 number of electron   93.0000000 magnetization 
 augmentation part    93.0000000 magnetization 

 Free energy of the ion-electron system (eV)
  ---------------------------------------------------
  alpha Z        PSCENC =        -6.10292983
  Ewald energy   TEWEN  =     -2232.11219689
  -1/2 Hartree   DENC   =       -17.02293394
  -exchange  EXHF       =         0.00000000
  -V(xc)+E(xc)   XCENC  =      -814.85634027
  PAW double counting   =      1102.18190231     -111.56847430
  entropy T*S    EENTRO =        -0.05054221
  eigenvalues    EBANDS =       304.43826873
  atomic energy  EATOM  =      1659.66634407
  ---------------------------------------------------
  free energy    TOTEN  =      -115.42690233 eV

  energy without entropy =     -115.37636012  energy(sigma->0) =     -115.41005493


--------------------------------------------------------------------------------------------------------




----------------------------------------- Iteration    1(  11)  ---------------------------------------


    EDDIAG:  cpu time    0.15: real time    0.15
  RMM-DIIS:  cpu time    0.65: real time    0.65
    ORTHCH:  cpu time    0.01: real time    0.01
       DOS:  cpu time    0.00: real time    0.00
    --------------------------------------------
      LOOP:  cpu time    0.81: real time    0.81

 eigenvalue-minimisations  :   145
 total energy-change (2. order) :-0.4492067E-03  (-0.3323100E-03)
 number of electron   93.0000000 magnetization 
 augmentation part    93.0000000 magnetization 

 Free energy of the ion-electron system (eV)
  ---------------------------------------------------
  alpha Z        PSCENC =        -6.10292983
  Ewald energy   TEWEN  =     -2232.11219689
  -1/2 Hartree   DENC   =       -17.02293394
  -exchange  EXHF       =         0.00000000
  -V(xc)+E(xc)   XCENC  =      -814.85634027
  PAW double counting   =      1102.18190231     -111.56847430
  entropy T*S    EENTRO =        -0.05049592
  eigenvalues    EBANDS =       304.43777324
  atomic energy  EATOM  =      1659.66634407
  ---------------------------------------------------
  free energy    TOTEN  =      -115.42735154 eV

  energy without entropy =     -115.37685561  energy(sigma->0) =     -115.41051956


--------------------------------------------------------------------------------------------------------




----------------------------------------- Iteration    1(  12)  ---------------------------------------


    EDDIAG:  cpu time    0.15: real time    0.15
  RMM-DIIS:  cpu time    0.56: real time    0.56
    ORTHCH:  cpu time    0.01: real time    0.01
       DOS:  cpu time    0.00: real time    0.00
    CHARGE:  cpu time    0.14: real time    0.14
    MIXING:  cpu time    0.00: real time    0.00
    --------------------------------------------
      LOOP:  cpu time    0.87: real time    0.87

 eigenvalue-minimisations  :   105
 total energy-change (2. order) :-0.2124929E-04  (-0.1950961E-04)
 number of electron   92.9999995 magnetization 
 augmentation part    -1.1373724 magnetization 

 Broyden mixing:
  rms(total) = 0.53552E+00    rms(broyden)= 0.53549E+00
  rms(prec ) = 0.83749E+00
  weight for this iteration     100.00

 Free energy of the ion-electron system (eV)
  ---------------------------------------------------
  alpha Z        PSCENC =        -6.10292983
  Ewald energy   TEWEN  =     -2232.11219689
  -1/2 Hartree   DENC   =       -17.02293394
  -exchange  EXHF       =         0.00000000
  -V(xc)+E(xc)   XCENC  =      -814.85634027
  PAW double counting   =      1102.18190231     -111.56847430
  entropy T*S    EENTRO =        -0.05049500
  eigenvalues    EBANDS =       304.43775107
  atomic energy  EATOM  =      1659.66634407
  ---------------------------------------------------
  free energy    TOTEN  =      -115.42737279 eV

  energy without entropy =     -115.37687779  energy(sigma->0) =     -115.41054112


--------------------------------------------------------------------------------------------------------




----------------------------------------- Iteration    1(  13)  ---------------------------------------


    POTLOK:  cpu time    0.15: real time    0.15
    SETDIJ:  cpu time    0.01: real time    0.01
    EDDIAG:  cpu time    0.15: real time    0.15
  RMM-DIIS:  cpu time    0.71: real time    0.71
    ORTHCH:  cpu time    0.02: real time    0.02
       DOS:  cpu time    0.00: real time    0.00
    CHARGE:  cpu time    0.14: real time    0.15
    MIXING:  cpu time    0.00: real time    0.00
    --------------------------------------------
      LOOP:  cpu time    1.19: real time    1.20

 eigenvalue-minimisations  :   155
 total energy-change (2. order) : 0.5334724E+00  (-0.3680125E-01)
 number of electron   92.9999995 magnetization 
 augmentation part    -1.1516522 magnetization 

 Broyden mixing:
  rms(total) = 0.32917E+00    rms(broyden)= 0.32917E+00
  rms(prec ) = 0.48401E+00
  weight for this iteration     100.00

 eigenvalues of (default mixing * dielectric matrix)
  average eigenvalue GAMMA=   2.5224
  2.5224

 Free energy of the ion-electron system (eV)
  ---------------------------------------------------
  alpha Z        PSCENC =        -6.10292983
  Ewald energy   TEWEN  =     -2232.11219689
  -1/2 Hartree   DENC   =       -17.74576228
  -exchange  EXHF       =         0.00000000
  -V(xc)+E(xc)   XCENC  =      -813.76306114
  PAW double counting   =      1103.93308294     -113.43698630
  entropy T*S    EENTRO =        -0.04965653
  eigenvalues    EBANDS =       304.71726560
  atomic energy  EATOM  =      1659.66634407
  ---------------------------------------------------
  free energy    TOTEN  =      -114.89390037 eV

  energy without entropy =     -114.84424384  energy(sigma->0) =     -114.87734820


--------------------------------------------------------------------------------------------------------




----------------------------------------- Iteration    1(  14)  ---------------------------------------


    POTLOK:  cpu time    0.14: real time    0.15
    SETDIJ:  cpu time    0.01: real time    0.01
    EDDIAG:  cpu time    0.15: real time    0.15
  RMM-DIIS:  cpu time    0.72: real time    0.72
    ORTHCH:  cpu time    0.01: real time    0.01
       DOS:  cpu time    0.00: real time    0.00
    CHARGE:  cpu time    0.13: real time    0.13
    MIXING:  cpu time    0.01: real time    0.01
    --------------------------------------------
      LOOP:  cpu time    1.18: real time    1.18

 eigenvalue-minimisations  :   158
 total energy-change (2. order) : 0.2636168E+00  (-0.1616812E-01)
 number of electron   92.9999995 magnetization 
 augmentation part    -1.1715889 magnetization 

 Broyden mixing:
  rms(total) = 0.95981E-01    rms(broyden)= 0.95981E-01
  rms(prec ) = 0.14157E+00
  weight for this iteration     100.00

 eigenvalues of (default mixing * dielectric matrix)
  average eigenvalue GAMMA=   1.8673
  2.6077  1.1269

 Free energy of the ion-electron system (eV)
  ---------------------------------------------------
  alpha Z        PSCENC =        -6.10292983
  Ewald energy   TEWEN  =     -2232.11219689
  -1/2 Hartree   DENC   =       -18.71666029
  -exchange  EXHF       =         0.00000000
  -V(xc)+E(xc)   XCENC  =      -812.22734266
  PAW double counting   =      1105.60500977     -115.27437509
  entropy T*S    EENTRO =        -0.04992429
  eigenvalues    EBANDS =       304.58179160
  atomic energy  EATOM  =      1659.66634407
  ---------------------------------------------------
  free energy    TOTEN  =      -114.63028362 eV

  energy without entropy =     -114.58035933  energy(sigma->0) =     -114.61364219


--------------------------------------------------------------------------------------------------------




----------------------------------------- Iteration    1(  15)  ---------------------------------------


    POTLOK:  cpu time    0.15: real time    0.15
    SETDIJ:  cpu time    0.01: real time    0.01
    EDDIAG:  cpu time    0.15: real time    0.15
  RMM-DIIS:  cpu time    0.77: real time    0.77
    ORTHCH:  cpu time    0.01: real time    0.01
       DOS:  cpu time    0.00: real time    0.00
    CHARGE:  cpu time    0.13: real time    0.13
    MIXING:  cpu time    0.00: real time    0.00
    --------------------------------------------
      LOOP:  cpu time    1.23: real time    1.23

 eigenvalue-minimisations  :   166
 total energy-change (2. order) : 0.2672030E-01  (-0.1840975E-02)
 number of electron   92.9999994 magnetization 
 augmentation part    -1.1819151 magnetization 

 Broyden mixing:
  rms(total) = 0.13118E-01    rms(broyden)= 0.13118E-01
  rms(prec ) = 0.23259E-01
  weight for this iteration     100.00

 eigenvalues of (default mixing * dielectric matrix)
  average eigenvalue GAMMA=   1.8258
  2.6137  1.0167  1.8469

 Free energy of the ion-electron system (eV)
  ---------------------------------------------------
  alpha Z        PSCENC =        -6.10292983
  Ewald energy   TEWEN  =     -2232.11219689
  -1/2 Hartree   DENC   =       -19.21287049
  -exchange  EXHF       =         0.00000000
  -V(xc)+E(xc)   XCENC  =      -811.53480155
  PAW double counting   =      1106.42693723     -116.18650946
  entropy T*S    EENTRO =        -0.05031197
  eigenvalues    EBANDS =       304.50277559
  atomic energy  EATOM  =      1659.66634407
  ---------------------------------------------------
  free energy    TOTEN  =      -114.60356332 eV

  energy without entropy =     -114.55325135  energy(sigma->0) =     -114.58679266


--------------------------------------------------------------------------------------------------------




----------------------------------------- Iteration    1(  16)  ---------------------------------------


    POTLOK:  cpu time    0.15: real time    0.15
    SETDIJ:  cpu time    0.01: real time    0.01
    EDDIAG:  cpu time    0.15: real time    0.15
  RMM-DIIS:  cpu time    0.75: real time    0.76
    ORTHCH:  cpu time    0.01: real time    0.01
       DOS:  cpu time    0.00: real time    0.00
    CHARGE:  cpu time    0.13: real time    0.13
    MIXING:  cpu time    0.00: real time    0.00
    --------------------------------------------
      LOOP:  cpu time    1.22: real time    1.22

 eigenvalue-minimisations  :   167
 total energy-change (2. order) : 0.7031375E-03  (-0.2366540E-03)
 number of electron   92.9999994 magnetization 
 augmentation part    -1.1842732 magnetization 

 Broyden mixing:
  rms(total) = 0.41733E-02    rms(broyden)= 0.41732E-02
  rms(prec ) = 0.62622E-02
  weight for this iteration     100.00

 eigenvalues of (default mixing * dielectric matrix)
  average eigenvalue GAMMA=   1.8700
  2.6755  2.3171  1.0247  1.4628

 Free energy of the ion-electron system (eV)
  ---------------------------------------------------
  alpha Z        PSCENC =        -6.10292983
  Ewald energy   TEWEN  =     -2232.11219689
  -1/2 Hartree   DENC   =       -19.20257220
  -exchange  EXHF       =         0.00000000
  -V(xc)+E(xc)   XCENC  =      -811.46449658
  PAW double counting   =      1106.72997491     -116.51698171
  entropy T*S    EENTRO =        -0.05036623
  eigenvalues    EBANDS =       304.45036430
  atomic energy  EATOM  =      1659.66634407
  ---------------------------------------------------
  free energy    TOTEN  =      -114.60286018 eV

  energy without entropy =     -114.55249395  energy(sigma->0) =     -114.58607143


--------------------------------------------------------------------------------------------------------




----------------------------------------- Iteration    1(  17)  ---------------------------------------


    POTLOK:  cpu time    0.15: real time    0.15
    SETDIJ:  cpu time    0.01: real time    0.01
    EDDIAG:  cpu time    0.15: real time    0.15
  RMM-DIIS:  cpu time    0.60: real time    0.61
    ORTHCH:  cpu time    0.01: real time    0.01
       DOS:  cpu time    0.00: real time    0.00
    --------------------------------------------
      LOOP:  cpu time    0.92: real time    0.93

 eigenvalue-minimisations  :   120
 total energy-change (2. order) :-0.3451556E-04  (-0.2038904E-04)
 number of electron   92.9999994 magnetization 
 augmentation part    -1.1842732 magnetization 

 Free energy of the ion-electron system (eV)
  ---------------------------------------------------
  alpha Z        PSCENC =        -6.10292983
  Ewald energy   TEWEN  =     -2232.11219689
  -1/2 Hartree   DENC   =       -19.21539431
  -exchange  EXHF       =         0.00000000
  -V(xc)+E(xc)   XCENC  =      -811.44301577
  PAW double counting   =      1106.81684889     -116.61606086
  entropy T*S    EENTRO =        -0.05029477
  eigenvalues    EBANDS =       304.45380479
  atomic energy  EATOM  =      1659.66634407
  ---------------------------------------------------
  free energy    TOTEN  =      -114.60289469 eV

  energy without entropy =     -114.55259993  energy(sigma->0) =     -114.58612977


--------------------------------------------------------------------------------------------------------




 average (electrostatic) potential at core
  the test charge radii are     1.0406
  (the norm of the test charge is              1.0000)
       1 -73.0115       2 -73.0616       3 -72.9738       4 -72.9738       5 -73.0115
       6 -73.0547       7 -73.0115       8 -72.9738       9 -72.9738      10 -72.9738
      11 -72.9738      12 -72.9738      13 -73.0616      14 -73.0115      15 -72.9738
      16 -73.0115      17 -73.0547      18 -72.9738      19 -73.0115      20 -73.0115
      21 -72.9255      22 -73.0115      23 -73.0115      24 -72.9738      25 -73.0616
      26 -72.9738      27 -73.0115      28 -72.9738      29 -73.0547      30 -73.0115
      31 -73.0115
 
 
 
 E-fermi :   7.8782     XC(G=0): -10.0467     alpha+bet :-14.3870
   add alpha+bet to get absolut eigen values

 k-point   1 :       0.2500    0.2500    0.2500
  band No.  band energies     occupation 
      1      -2.9340      2.00000
      2      -1.8584      2.00000
      3      -1.8584      2.00000
      4      -1.6871      2.00000
      5      -0.7433      2.00000
      6      -0.7433      2.00000
      7      -0.4981      2.00000
      8       0.3602      2.00000
      9       0.3602      2.00000
     10       0.4261      2.00000
     11       0.6045      2.00000
     12       1.4283      2.00000
     13       1.4283      2.00000
     14       1.4577      2.00000
     15       1.5627      2.00000
     16       1.5627      2.00000
     17       1.9073      2.00000
     18       2.6342      2.00000
     19       2.6342      2.00000
     20       2.7518      2.00000
     21       3.5952      2.00000
     22       3.5952      2.00000
     23       3.6957      2.00000
     24       3.6974      2.00000
     25       3.6974      2.00000
     26       3.9885      2.00000
     27       4.6225      2.00000
     28       4.6225      2.00000
     29       4.6549      2.00000
     30       4.7167      2.00000
     31       4.7167      2.00000
     32       4.9104      2.00000
     33       4.9104      2.00000
     34       4.9145      2.00000
     35       5.1739      2.00000
     36       5.7636      2.00000
     37       5.7636      2.00000
     38       6.2216      2.00000
     39       6.7774      2.00000
     40       6.7936      2.00000
     41       6.7936      2.00000
     42       6.9706      2.00000
     43       7.0220      2.00000
     44       7.0307      2.00000
     45       7.0307      2.00000
     46       7.8355      1.35208
     47       7.8815      0.97193
     48       7.8815      0.97193
     49       8.0962     -0.06426
     50       8.0962     -0.06426
     51       8.1538     -0.06507
     52       8.1958     -0.04723
     53       8.1958     -0.04723
     54       8.3185     -0.00790
     55       9.1493      0.00000
     56       9.1493      0.00000
     57       9.1815      0.00000
     58       9.4088      0.00000
     59       9.4088      0.00000
     60       9.4345      0.00000
     61       9.9872      0.00000
     62      10.0038      0.00000
     63      10.0038      0.00000
     64      10.0525      0.00000
     65      10.1287      0.00000
     66      10.1287      0.00000
     67      10.5323      0.00000
     68      10.5323      0.00000
     69      10.5826      0.00000
     70      10.9761      0.00000
     71      10.9779      0.00000
     72      11.3198      0.00000


--------------------------------------------------------------------------------------------------------


 soft charge-density along one line, spin component           1
         0         1         2         3         4         5         6         7         8         9
 total charge-density along one line
 
 pseudopotential strength for first ion, spin component:           1
  8.458  -0.006   0.000   0.000   0.000   0.000   0.000   0.000
 -0.006   0.000   0.000   0.000   0.000   0.000   0.000   0.000
  0.000   0.000   1.988   0.000   0.000  -0.026   0.000   0.000
  0.000   0.000   0.000   1.988   0.000   0.000  -0.026   0.000
  0.000   0.000   0.000   0.000   1.988   0.000   0.000  -0.026
  0.000   0.000  -0.026   0.000   0.000  -0.012   0.000   0.000
  0.000   0.000   0.000  -0.026   0.000   0.000  -0.012   0.000
  0.000   0.000   0.000   0.000  -0.026   0.000   0.000  -0.012
 total augmentation occupancy for first ion, spin component:           1
  1.320  -0.506   0.000   0.004   0.004   0.000   0.002   0.002
 -0.506   0.486   0.000   0.008   0.008   0.000  -0.002  -0.002
  0.000   0.000   0.717   0.000   0.000  -0.178   0.000   0.000
  0.004   0.008   0.000   0.741  -0.009   0.000  -0.181   0.001
  0.004   0.008   0.000  -0.009   0.741   0.000   0.001  -0.181
  0.000   0.000  -0.178   0.000   0.000   0.050   0.000   0.000
  0.002  -0.002   0.000  -0.181   0.001   0.000   0.050   0.000
  0.002  -0.002   0.000   0.001  -0.181   0.000   0.000   0.050


------------------------ aborting loop because EDIFF is reached ----------------------------------------




--------------------------------------------------------------------------------------------------------



  FREE ENERGIE OF THE ION-ELECTRON SYSTEM (eV)
  ---------------------------------------------------
  free  energy   TOTEN  =      -114.602895 eV

  energy  without entropy=     -114.552600  energy(sigma->0) =     -114.586130
 
    CHARGE:  cpu time    0.13: real time    0.13
    FORLOC:  cpu time    0.03: real time    0.03
    FORNL :  cpu time    0.24: real time    0.24
    STRESS:  cpu time    0.39: real time    0.39
    FORCOR:  cpu time    0.17: real time    0.17
    FORHAR:  cpu time    0.07: real time    0.07
    MIXING:  cpu time    0.00: real time    0.00

  FORCE on cell =-STRESS in cart. coord.  units (eV):
  Direction    XX          YY          ZZ          XY          YZ          ZX
  --------------------------------------------------------------------------------------
  Alpha Z    -6.10293    -6.10293    -6.10293
  Ewald    -744.04046  -744.04046  -744.04046     0.00000     0.00000     0.00000
  Hartree     6.41480     6.41480     6.41480     0.00000     0.00000     0.00000
  E(xc)    -264.13570  -264.13570  -264.13570     0.00000     0.00000     0.00000
  Local      -9.12911    -9.12911    -9.12911     0.00000     0.00000     0.00000
  n-local   585.59784   585.59836   585.59773    -0.90178    -0.90172    -0.90179
  augment   -31.60735   -31.60736   -31.60734     0.00002     0.00001     0.00001
  Kinetic   460.40276   460.40287   460.40273    -1.45086    -1.45133    -1.45127
  Fock        0.00000     0.00000     0.00000     0.00000     0.00000     0.00000
  -------------------------------------------------------------------------------------
  Total      -2.59999    -2.59999    -2.59999     0.00000     0.00000     0.00000
  in kB      -7.87610    -7.87610    -7.87610     0.00000     0.00000     0.00000
  external pressure =       -7.88 kB  Pullay stress =        0.00 kB


 VOLUME and BASIS-vectors are now :
 -----------------------------------------------------------------------------
  energy-cutoff  :      300.00
  volume of cell :      528.90
      direct lattice vectors                 reciprocal lattice vectors
     8.087052000  0.000000000  0.000000000     0.123654454  0.000000000  0.000000000
     0.000000000  8.087052000  0.000000000     0.000000000  0.123654454  0.000000000
     0.000000000  0.000000000  8.087052000     0.000000000  0.000000000  0.123654454

  length of vectors
     8.087052000  8.087052000  8.087052000     0.123654454  0.123654454  0.123654454


 FORCES acting on ions
    electron-ion (+dipol)            ewald-force                    non-local-force                 convergence-correction
 -----------------------------------------------------------------------------------------------
   -.234E+01 0.379E-13 -.234E+01   0.231E+01 -.222E-14 0.231E+01   0.471E-01 -.434E-17 0.471E-01   0.406E-02 -.142E-13 0.406E-02
   -.130E-11 -.500E-13 -.918E-12   -.305E-14 0.222E-14 -.504E-14   -.212E-21 -.212E-21 0.000E+00   0.530E-13 -.148E-13 0.186E-13
   -.162E-11 -.754E+01 -.754E+01   -.155E-14 0.762E+01 0.762E+01   0.104E-16 -.115E+00 -.115E+00   0.430E-13 0.468E-02 0.468E-02
   -.754E+01 -.754E+01 -.275E-06   0.762E+01 0.762E+01 -.496E-14   -.115E+00 -.115E+00 -.208E-16   0.468E-02 0.468E-02 0.427E-13
   0.234E+01 -.499E-13 -.234E+01   -.231E+01 0.944E-15 0.231E+01   -.471E-01 0.217E-17 0.471E-01   -.406E-02 -.212E-13 0.406E-02
   -.105E-11 -.505E-13 -.994E-12   -.405E-14 -.761E-14 0.685E-14   -.728E-22 -.106E-21 0.847E-21   -.502E-13 -.188E-13 0.332E-13
   -.102E-11 -.234E+01 -.234E+01   -.200E-14 0.231E+01 0.231E+01   -.121E-16 0.471E-01 0.471E-01   -.389E-13 0.406E-02 0.406E-02
   0.754E+01 -.754E+01 -.131E-11   -.762E+01 0.762E+01 -.221E-15   0.115E+00 -.115E+00 -.214E-16   -.468E-02 0.468E-02 0.412E-13
   -.754E+01 -.153E-13 -.754E+01   0.762E+01 0.222E-14 0.762E+01   -.115E+00 0.278E-16 -.115E+00   0.468E-02 0.139E-13 0.468E-02
   -.162E-11 0.754E+01 -.754E+01   0.500E-15 -.762E+01 0.762E+01   0.141E-16 0.115E+00 -.115E+00   0.506E-13 -.468E-02 0.468E-02
   -.754E+01 0.754E+01 -.151E-11   0.762E+01 -.762E+01 -.157E-14   -.115E+00 0.115E+00 0.409E-17   0.468E-02 -.468E-02 0.328E-13
   0.754E+01 0.921E-13 -.754E+01   -.762E+01 -.144E-14 0.762E+01   0.115E+00 0.101E-16 -.115E+00   -.468E-02 0.221E-13 0.468E-02
   -.117E-11 -.996E-13 -.986E-12   0.328E-14 -.777E-15 -.243E-14   -.106E-21 -.424E-21 0.212E-21   -.561E-13 0.180E-13 0.392E-13
   -.102E-11 0.234E+01 -.234E+01   0.261E-14 -.231E+01 0.231E+01   0.386E-17 -.471E-01 0.471E-01   -.466E-13 -.406E-02 0.406E-02
   0.754E+01 0.754E+01 0.275E-06   -.762E+01 -.762E+01 0.925E-14   0.115E+00 0.115E+00 -.312E-16   -.468E-02 -.468E-02 0.222E-13
   -.234E+01 0.138E-13 0.234E+01   0.231E+01 -.222E-14 -.231E+01   0.471E-01 -.436E-18 -.471E-01   0.406E-02 -.433E-14 -.406E-02
   -.138E-11 0.457E-13 -.102E-11   -.222E-15 -.433E-14 -.293E-14   0.106E-21 -.794E-22 0.424E-21   0.230E-13 -.222E-14 -.185E-13
   -.162E-11 -.754E+01 0.754E+01   -.738E-14 0.762E+01 -.762E+01   0.603E-18 -.115E+00 0.115E+00   0.407E-13 0.468E-02 -.468E-02
   -.234E+01 -.234E+01 0.977E-07   0.231E+01 0.231E+01 -.978E-14   0.471E-01 0.471E-01 0.173E-17   0.406E-02 0.406E-02 -.428E-13
   0.234E+01 0.345E-12 0.234E+01   -.231E+01 -.261E-14 -.231E+01   -.471E-01 0.130E-16 -.471E-01   -.406E-02 -.133E-14 -.406E-02
   -.115E-11 0.283E-13 -.122E-11   0.616E-14 0.261E-14 -.953E-15   -.318E-21 -.165E-21 0.582E-21   -.211E-13 -.587E-14 -.345E-13
   -.102E-11 -.234E+01 0.234E+01   -.222E-15 0.231E+01 -.231E+01   -.750E-19 0.471E-01 -.471E-01   -.367E-13 0.406E-02 -.406E-02
   0.234E+01 -.234E+01 -.968E-12   -.231E+01 0.231E+01 -.933E-14   -.471E-01 0.471E-01 0.313E-17   -.406E-02 0.406E-02 -.398E-13
   -.754E+01 0.282E-13 0.754E+01   0.762E+01 -.766E-14 -.762E+01   -.115E+00 -.318E-17 0.115E+00   0.468E-02 0.409E-14 -.468E-02
   -.136E-11 -.469E-13 -.867E-12   0.111E-14 0.289E-14 0.133E-14   -.212E-21 -.635E-21 0.993E-22   0.337E-13 0.325E-14 -.456E-13
   -.162E-11 0.754E+01 0.754E+01   -.139E-14 -.762E+01 -.762E+01   -.451E-16 0.115E+00 0.115E+00   0.386E-13 -.468E-02 -.468E-02
   -.234E+01 0.234E+01 -.114E-11   0.231E+01 -.231E+01 0.115E-13   0.471E-01 -.471E-01 0.164E-17   0.406E-02 -.406E-02 -.330E-13
   0.754E+01 -.484E-13 0.754E+01   -.762E+01 0.333E-15 -.762E+01   0.115E+00 -.312E-16 0.115E+00   -.468E-02 0.264E-14 -.468E-02
   -.874E-12 0.741E-13 -.762E-12   0.816E-14 -.222E-15 0.106E-14   0.127E-20 0.000E+00 -.127E-20   -.312E-13 0.686E-14 -.396E-13
   -.102E-11 0.234E+01 0.234E+01   0.971E-14 -.231E+01 -.231E+01   0.520E-17 -.471E-01 -.471E-01   -.344E-13 -.406E-02 -.406E-02
   0.234E+01 0.234E+01 -.977E-07   -.231E+01 -.231E+01 0.115E-13   -.471E-01 -.471E-01 0.347E-17   -.406E-02 -.406E-02 -.196E-13
 -----------------------------------------------------------------------------------------------
   -.358E-10 -.122E-12 -.308E-10   0.711E-14 0.488E-14 -.214E-13   0.347E-16 0.347E-16 -.149E-15   -.533E-13 -.126E-13 -.437E-13
 
 
 POSITION                                       TOTAL-FORCE (eV/Angst)
 -----------------------------------------------------------------------------------
      8.08252      0.00000      8.08252         0.023232      0.000000      0.023232
      2.02176      0.00000      2.02176         0.000000      0.000000      0.000000
      2.02176      2.04822      0.02646         0.000000     -0.025891     -0.025891
      0.02646      2.04822      2.02176        -0.025891     -0.025891      0.000000
      4.04806      0.00000      8.08252        -0.023232      0.000000      0.023232
      6.06529      0.00000      2.02176         0.000000      0.000000      0.000000
      6.06529      2.01723      8.08252         0.000000      0.023232      0.023232
      4.01707      2.04822      2.02176         0.025891     -0.025891      0.000000
      0.02646      4.04353      0.02646        -0.025891      0.000000     -0.025891
      2.02176      6.03883      0.02646         0.000000      0.025891     -0.025891
      0.02646      6.03883      2.02176        -0.025891      0.025891      0.000000
      4.01707      4.04353      0.02646         0.025891      0.000000     -0.025891
      6.06529      4.04353      2.02176         0.000000      0.000000      0.000000
      6.06529      6.06983      8.08252         0.000000     -0.023232      0.023232
      4.01707      6.03883      2.02176         0.025891      0.025891      0.000000
      8.08252      0.00000      4.04806         0.023232      0.000000     -0.023232
      2.02176      0.00000      6.06529         0.000000      0.000000      0.000000
      2.02176      2.04822      4.01707         0.000000     -0.025891      0.025891
      8.08252      2.01723      6.06529         0.023232      0.023232      0.000000
      4.04806      0.00000      4.04806        -0.023232      0.000000     -0.023232
      6.06529      0.00000      6.06529         0.000000      0.000000      0.000000
      6.06529      2.01723      4.04806         0.000000      0.023232     -0.023232
      4.04806      2.01723      6.06529        -0.023232      0.023232      0.000000
      0.02646      4.04353      4.01707        -0.025891      0.000000      0.025891
      2.02176      4.04353      6.06529         0.000000      0.000000      0.000000
      2.02176      6.03883      4.01707         0.000000      0.025891      0.025891
      8.08252      6.06983      6.06529         0.023232     -0.023232      0.000000
      4.01707      4.04353      4.01707         0.025891      0.000000      0.025891
      6.06529      4.04353      6.06529         0.000000      0.000000      0.000000
      6.06529      6.06983      4.04806         0.000000     -0.023232     -0.023232
      4.04806      6.06983      6.06529        -0.023232     -0.023232      0.000000
 -----------------------------------------------------------------------------------
    total drift:                                0.000000      0.000000      0.000000


--------------------------------------------------------------------------------------------------------


    POTLOK:  cpu time    0.16: real time    0.16


--------------------------------------------------------------------------------------------------------


  FORCES: max atom, RMS     0.036616    0.030608
  FORCE total and by dimension    0.170418    0.025891
     LOOP+:  cpu time   14.65: real time   14.69
    4ORBIT:  cpu time    0.00: real time    0.00

 total amount of memory used by VASP on root node  58219. kBytes
========================================================================

   base      :    30000. kBytes
   nonl-proj :     3494. kBytes
   fftplans  :     2983. kBytes
   grid      :    21024. kBytes
   one-center:       95. kBytes
   wavefun   :      623. kBytes
 
  
  
 General timing and accounting informations for this job:
 ========================================================
  
                  Total CPU time used (sec):       15.299
                            User time (sec):       15.201
                          System time (sec):        0.098
                         Elapsed time (sec):       15.458
  
                   Maximum memory used (kb):           0.
                   Average memory used (kb):           0.
  
                          Minor page faults:        22379
                          Major page faults:            0
                 Voluntary context switches:         1778
