   3   3   0   0
  0.1429167E+02  0.3500000E-09  0.3500000E-09  0.3500000E-09  0.1000000E-16
  1.000000000000000E-004
  CAR 
 unknown system                          
     17.88993194     -2.62791143  301     10.29027398      1.00000000
     -2.628  0.0000E+00  0.0000E+00
     -2.560  0.0000E+00  0.0000E+00
     -2.491  0.0000E+00  0.0000E+00
     -2.423  0.0000E+00  0.0000E+00
     -2.354  0.0000E+00  0.0000E+00
     -2.286 -0.8819E-28 -0.6031E-29
     -2.218 -0.2181E-25 -0.1498E-26
     -2.149 -0.4273E-23 -0.2938E-24
     -2.081 -0.6612E-21 -0.4552E-22
     -2.012 -0.8077E-19 -0.5569E-20
     -1.944 -0.7786E-17 -0.5381E-18
     -1.876 -0.5921E-15 -0.4103E-16
     -1.807 -0.3388E-13 -0.2358E-14
     -1.739 -0.1625E-11 -0.1135E-12
     -1.670 -0.6016E-10 -0.4228E-11
     -1.602 -0.1752E-08 -0.1240E-09
     -1.534 -0.4004E-07 -0.2862E-08
     -1.465 -0.7169E-06 -0.5189E-07
     -1.397 -0.1003E-04 -0.7380E-06
     -1.328 -0.1093E-03 -0.8214E-05
     -1.260 -0.9228E-03 -0.7132E-04
     -1.192 -0.5989E-02 -0.4809E-03
     -1.123 -0.2951E-01 -0.2499E-02
     -1.055 -0.1079E+00 -0.9879E-02
     -0.986 -0.2787E+00 -0.2894E-01
     -0.918 -0.4400E+00 -0.5903E-01
     -0.850 -0.1109E+00 -0.6662E-01
     -0.781  0.1476E+01  0.3434E-01
     -0.713  0.4470E+01  0.3401E+00
     -0.645  0.7452E+01  0.8497E+00
     -0.576  0.8236E+01  0.1413E+01
     -0.508  0.6173E+01  0.1835E+01
     -0.439  0.2913E+01  0.2034E+01
     -0.371  0.5206E+00  0.2070E+01
     -0.303 -0.3779E+00  0.2044E+01
     -0.234 -0.3833E+00  0.2018E+01
     -0.166 -0.1858E+00  0.2005E+01
     -0.097 -0.6037E-01  0.2001E+01
     -0.029 -0.1426E-01  0.2000E+01
      0.039 -0.2531E-02  0.2000E+01
      0.108 -0.3435E-03  0.2000E+01
      0.176 -0.3599E-04  0.2000E+01
      0.245 -0.2929E-05  0.2000E+01
      0.313 -0.1860E-06  0.2000E+01
      0.381 -0.9238E-08  0.2000E+01
      0.450 -0.3599E-09  0.2000E+01
      0.518 -0.1102E-10  0.2000E+01
      0.587 -0.2630E-12  0.2000E+01
      0.655 -0.6493E-14  0.2000E+01
      0.723  0.0000E+00  0.2000E+01
      0.792  0.0000E+00  0.2000E+01
      0.860  0.0000E+00  0.2000E+01
      0.929  0.0000E+00  0.2000E+01
      0.997  0.0000E+00  0.2000E+01
      1.065  0.0000E+00  0.2000E+01
      1.134  0.0000E+00  0.2000E+01
      1.202  0.0000E+00  0.2000E+01
      1.270  0.0000E+00  0.2000E+01
      1.339  0.0000E+00  0.2000E+01
      1.407  0.0000E+00  0.2000E+01
      1.476  0.0000E+00  0.2000E+01
      1.544  0.0000E+00  0.2000E+01
      1.612  0.0000E+00  0.2000E+01
      1.681  0.0000E+00  0.2000E+01
      1.749  0.0000E+00  0.2000E+01
      1.818  0.0000E+00  0.2000E+01
      1.886  0.0000E+00  0.2000E+01
      1.954  0.0000E+00  0.2000E+01
      2.023  0.0000E+00  0.2000E+01
      2.091  0.0000E+00  0.2000E+01
      2.160  0.0000E+00  0.2000E+01
      2.228  0.0000E+00  0.2000E+01
      2.296  0.0000E+00  0.2000E+01
      2.365  0.0000E+00  0.2000E+01
      2.433  0.0000E+00  0.2000E+01
      2.502  0.0000E+00  0.2000E+01
      2.570  0.0000E+00  0.2000E+01
      2.638  0.0000E+00  0.2000E+01
      2.707  0.0000E+00  0.2000E+01
      2.775  0.0000E+00  0.2000E+01
      2.844  0.0000E+00  0.2000E+01
      2.912  0.0000E+00  0.2000E+01
      2.980  0.0000E+00  0.2000E+01
      3.049  0.0000E+00  0.2000E+01
      3.117  0.0000E+00  0.2000E+01
      3.185  0.0000E+00  0.2000E+01
      3.254  0.0000E+00  0.2000E+01
      3.322  0.0000E+00  0.2000E+01
      3.391  0.0000E+00  0.2000E+01
      3.459 -0.2268E-26  0.2000E+01
      3.527 -0.4801E-24  0.2000E+01
      3.596 -0.8063E-22  0.2000E+01
      3.664 -0.1070E-19  0.2000E+01
      3.733 -0.1122E-17  0.2000E+01
      3.801 -0.9291E-16  0.2000E+01
      3.869 -0.6076E-14  0.2000E+01
      3.938 -0.3039E-12  0.2000E+01
      4.006 -0.1233E-10  0.2000E+01
      4.075 -0.3938E-09  0.2000E+01
      4.143 -0.9896E-08  0.2000E+01
      4.211 -0.1954E-06  0.2000E+01
      4.280 -0.3025E-05  0.2000E+01
      4.348 -0.3664E-04  0.2000E+01
      4.417 -0.3458E-03  0.2000E+01
      4.485 -0.2531E-02  0.2000E+01
      4.553 -0.1425E-01  0.1999E+01
      4.622 -0.6097E-01  0.1995E+01
      4.690 -0.1936E+00  0.1981E+01
      4.759 -0.4339E+00  0.1952E+01
      4.827 -0.5843E+00  0.1912E+01
      4.895 -0.2940E-01  0.1910E+01
      4.964  0.2048E+01  0.2050E+01
      5.032  0.5941E+01  0.2456E+01
      5.100  0.1094E+02  0.3204E+01
      5.169  0.1560E+02  0.4271E+01
      5.237  0.1820E+02  0.5516E+01
      5.306  0.1722E+02  0.6693E+01
      5.374  0.1261E+02  0.7556E+01
      5.442  0.6535E+01  0.8003E+01
      5.511  0.1801E+01  0.8126E+01
      5.579 -0.3953E+00  0.8099E+01
      5.648 -0.7483E+00  0.8047E+01
      5.716 -0.4532E+00  0.8016E+01
      5.784 -0.1774E+00  0.8004E+01
      5.853 -0.5029E-01  0.8001E+01
      5.921 -0.1075E-01  0.8000E+01
      5.990 -0.1764E-02  0.8000E+01
      6.058 -0.2246E-03  0.8000E+01
      6.126 -0.2232E-04  0.8000E+01
      6.195 -0.1738E-05  0.8000E+01
      6.263 -0.1063E-06  0.8000E+01
      6.332 -0.5111E-08  0.8000E+01
      6.400 -0.1936E-09  0.8000E+01
      6.468 -0.5782E-11  0.8000E+01
      6.537 -0.1364E-12  0.8000E+01
      6.605 -0.3247E-14  0.8000E+01
      6.674  0.0000E+00  0.8000E+01
      6.742  0.0000E+00  0.8000E+01
      6.810  0.0000E+00  0.8000E+01
      6.879  0.0000E+00  0.8000E+01
      6.947  0.0000E+00  0.8000E+01
      7.015  0.0000E+00  0.8000E+01
      7.084  0.0000E+00  0.8000E+01
      7.152  0.0000E+00  0.8000E+01
      7.221  0.0000E+00  0.8000E+01
      7.289  0.0000E+00  0.8000E+01
      7.357  0.0000E+00  0.8000E+01
      7.426  0.0000E+00  0.8000E+01
      7.494  0.0000E+00  0.8000E+01
      7.563  0.0000E+00  0.8000E+01
      7.631  0.0000E+00  0.8000E+01
      7.699  0.0000E+00  0.8000E+01
      7.768  0.0000E+00  0.8000E+01
      7.836  0.0000E+00  0.8000E+01
      7.905  0.0000E+00  0.8000E+01
      7.973  0.0000E+00  0.8000E+01
      8.041  0.0000E+00  0.8000E+01
      8.110  0.0000E+00  0.8000E+01
      8.178  0.0000E+00  0.8000E+01
      8.247  0.0000E+00  0.8000E+01
      8.315  0.0000E+00  0.8000E+01
      8.383  0.0000E+00  0.8000E+01
      8.452 -0.9637E-27  0.8000E+01
      8.520 -0.2091E-24  0.8000E+01
      8.589 -0.3595E-22  0.8000E+01
      8.657 -0.4881E-20  0.8000E+01
      8.725 -0.5230E-18  0.8000E+01
      8.794 -0.4422E-16  0.8000E+01
      8.862 -0.2948E-14  0.8000E+01
      8.930 -0.1501E-12  0.8000E+01
      8.999 -0.6196E-11  0.8000E+01
      9.067 -0.2009E-09  0.8000E+01
      9.136 -0.5117E-08  0.8000E+01
      9.204 -0.1022E-06  0.8000E+01
      9.272 -0.1597E-05  0.8000E+01
      9.341 -0.1946E-04  0.8000E+01
      9.409 -0.1842E-03  0.8000E+01
      9.478 -0.1346E-02  0.8000E+01
      9.546 -0.7513E-02  0.7999E+01
      9.614 -0.3150E-01  0.7997E+01
      9.683 -0.9585E-01  0.7991E+01
      9.751 -0.1946E+00  0.7977E+01
      9.820 -0.1837E+00  0.7965E+01
      9.888  0.2866E+00  0.7984E+01
      9.956  0.1503E+01  0.8087E+01
     10.025  0.3116E+01  0.8300E+01
     10.093  0.4057E+01  0.8578E+01
     10.162  0.3520E+01  0.8819E+01
     10.230  0.1960E+01  0.8953E+01
     10.298  0.7635E+00  0.9005E+01
     10.367  0.9512E+00  0.9070E+01
     10.435  0.2291E+01  0.9226E+01
     10.504  0.3558E+01  0.9470E+01
     10.572  0.3811E+01  0.9731E+01
     10.640  0.3474E+01  0.9968E+01
     10.709  0.3771E+01  0.1023E+02
     10.777  0.5081E+01  0.1057E+02
     10.845  0.6395E+01  0.1101E+02
     10.914  0.6428E+01  0.1145E+02
     10.982  0.4837E+01  0.1178E+02
     11.051  0.2422E+01  0.1195E+02
     11.119  0.5287E+00  0.1198E+02
     11.187  0.3037E+00  0.1200E+02
     11.256  0.2148E+01  0.1215E+02
     11.324  0.5245E+01  0.1251E+02
     11.393  0.7623E+01  0.1303E+02
     11.461  0.7535E+01  0.1355E+02
     11.529  0.5114E+01  0.1390E+02
     11.598  0.2158E+01  0.1404E+02
     11.666  0.2537E+00  0.1406E+02
     11.735 -0.3668E+00  0.1404E+02
     11.803 -0.3174E+00  0.1401E+02
     11.871 -0.1470E+00  0.1400E+02
     11.940 -0.4687E-01  0.1400E+02
     12.008 -0.1102E-01  0.1400E+02
     12.077 -0.1966E-02  0.1400E+02
     12.145 -0.2699E-03  0.1400E+02
     12.213 -0.2875E-04  0.1400E+02
     12.282 -0.2389E-05  0.1400E+02
     12.350 -0.1554E-06  0.1400E+02
     12.419 -0.7928E-08  0.1400E+02
     12.487 -0.3179E-09  0.1400E+02
     12.555 -0.1003E-10  0.1400E+02
     12.624 -0.2467E-12  0.1400E+02
     12.692 -0.6493E-14  0.1400E+02
     12.760  0.0000E+00  0.1400E+02
     12.829  0.0000E+00  0.1400E+02
     12.897  0.0000E+00  0.1400E+02
     12.966  0.0000E+00  0.1400E+02
     13.034  0.0000E+00  0.1400E+02
     13.102  0.0000E+00  0.1400E+02
     13.171  0.0000E+00  0.1400E+02
     13.239  0.0000E+00  0.1400E+02
     13.308  0.0000E+00  0.1400E+02
     13.376  0.0000E+00  0.1400E+02
     13.444  0.0000E+00  0.1400E+02
     13.513  0.0000E+00  0.1400E+02
     13.581  0.0000E+00  0.1400E+02
     13.650  0.0000E+00  0.1400E+02
     13.718  0.0000E+00  0.1400E+02
     13.786  0.0000E+00  0.1400E+02
     13.855  0.0000E+00  0.1400E+02
     13.923  0.0000E+00  0.1400E+02
     13.992  0.0000E+00  0.1400E+02
     14.060  0.0000E+00  0.1400E+02
     14.128  0.0000E+00  0.1400E+02
     14.197 -0.2501E-28  0.1400E+02
     14.265 -0.7061E-26  0.1400E+02
     14.334 -0.1431E-23  0.1400E+02
     14.402 -0.2292E-21  0.1400E+02
     14.470 -0.2902E-19  0.1400E+02
     14.539 -0.2902E-17  0.1400E+02
     14.607 -0.2292E-15  0.1400E+02
     14.675 -0.1429E-13  0.1400E+02
     14.744 -0.6807E-12  0.1400E+02
     14.812 -0.2633E-10  0.1400E+02
     14.881 -0.8009E-09  0.1400E+02
     14.949 -0.1916E-07  0.1400E+02
     15.017 -0.3598E-06  0.1400E+02
     15.086 -0.5291E-05  0.1400E+02
     15.154 -0.6076E-04  0.1400E+02
     15.223 -0.5424E-03  0.1400E+02
     15.291 -0.3738E-02  0.1400E+02
     15.359 -0.1967E-01  0.1400E+02
     15.428 -0.7758E-01  0.1399E+02
     15.496 -0.2204E+00  0.1398E+02
     15.565 -0.4072E+00  0.1395E+02
     15.633 -0.2859E+00  0.1393E+02
     15.701  0.8690E+00  0.1399E+02
     15.770  0.3497E+01  0.1423E+02
     15.838  0.6670E+01  0.1469E+02
     15.907  0.8260E+01  0.1525E+02
     15.975  0.6981E+01  0.1573E+02
     16.043  0.3878E+01  0.1599E+02
     16.112  0.1104E+01  0.1607E+02
     16.180 -0.2192E+00  0.1605E+02
     16.249 -0.4204E+00  0.1602E+02
     16.317 -0.2431E+00  0.1601E+02
     16.385 -0.8932E-01  0.1600E+02
     16.454 -0.2348E-01  0.1600E+02
     16.522 -0.4609E-02  0.1600E+02
     16.590 -0.6899E-03  0.1600E+02
     16.659 -0.7964E-04  0.1600E+02
     16.727 -0.7142E-05  0.1600E+02
     16.796 -0.4998E-06  0.1600E+02
     16.864 -0.2739E-07  0.1600E+02
     16.932 -0.1178E-08  0.1600E+02
     17.001 -0.3983E-10  0.1600E+02
     17.069 -0.1062E-11  0.1600E+02
     17.138 -0.2273E-13  0.1600E+02
     17.206  0.0000E+00  0.1600E+02
     17.274  0.0000E+00  0.1600E+02
     17.343  0.0000E+00  0.1600E+02
     17.411  0.0000E+00  0.1600E+02
     17.480  0.0000E+00  0.1600E+02
     17.548  0.0000E+00  0.1600E+02
     17.616  0.0000E+00  0.1600E+02
     17.685  0.0000E+00  0.1600E+02
     17.753  0.0000E+00  0.1600E+02
     17.822  0.0000E+00  0.1600E+02
     17.890  0.0000E+00  0.1600E+02
