   31   31  191    1
  0.1706119E+02  0.8087054E-09  0.8087054E-09  0.8087054E-09  0.5000000E-15
  1.000000000000000E-004
  CAR 
 unknown system                          
   93    1   62
 
  0.0000000E+00  0.0000000E+00  0.0000000E+00  0.1000000E+01
   1       -3.350861
   2       -1.374345
   3       -1.166295
   4       -1.113952
   5       -1.103276
   6       -0.981327
   7       -0.830332
   8        0.798387
   9        0.881502
  10        0.935284
  11        1.019052
  12        1.112088
  13        1.112999
  14        1.113337
  15        1.114042
  16        1.216134
  17        1.278892
  18        1.364645
  19        1.926423
  20        3.149167
  21        3.222148
  22        3.229043
  23        3.250534
  24        3.326056
  25        3.337237
  26        3.694382
  27        3.821806
  28        4.875638
  29        4.907736
  30        4.929956
  31        6.045377
  32        6.224928
  33        6.352118
  34        6.626513
  35        6.658749
  36        6.802069
  37        6.905753
  38        6.936129
  39        6.954952
  40        6.955068
  41        7.058336
  42        7.107214
  43        7.234787
  44        7.277558
  45        7.316495
  46        7.495763
  47        7.987707
  48        8.001391
  49        8.079619
  50        8.086138
  51        8.252962
  52        8.609021
  53        8.683208
  54        8.698383
  55        8.776727
  56        8.801943
  57        8.910035
  58        9.005351
  59        9.012336
  60        9.036643
  61        9.045830
  62        9.123631
