 107 107   0   0
  0.1212439E+02  0.1090639E-08  0.1090639E-08  0.1090639E-08  0.5000000E-15
  1.000000000000000E-004
  CAR 
 unknown system                          
     26.91388491     -7.54683495  301      3.68431409      1.00000000
     -7.547  0.0000E+00  0.0000E+00  0.0000E+00  0.0000E+00
     -7.432  0.0000E+00  0.0000E+00  0.0000E+00  0.0000E+00
     -7.317  0.0000E+00  0.0000E+00  0.0000E+00  0.0000E+00
     -7.202  0.0000E+00  0.0000E+00  0.0000E+00  0.0000E+00
     -7.087  0.0000E+00  0.0000E+00  0.0000E+00  0.0000E+00
     -6.972  0.0000E+00  0.0000E+00  0.0000E+00  0.0000E+00
     -6.858  0.0000E+00  0.0000E+00  0.0000E+00  0.0000E+00
     -6.743  0.0000E+00  0.0000E+00  0.0000E+00  0.0000E+00
     -6.628  0.0000E+00  0.0000E+00  0.0000E+00  0.0000E+00
     -6.513  0.0000E+00  0.0000E+00  0.0000E+00  0.0000E+00
     -6.398  0.0000E+00  0.0000E+00  0.0000E+00  0.0000E+00
     -6.283  0.0000E+00  0.0000E+00  0.0000E+00  0.0000E+00
     -6.168  0.0000E+00  0.0000E+00  0.0000E+00  0.0000E+00
     -6.054  0.0000E+00  0.0000E+00  0.0000E+00  0.0000E+00
     -5.939  0.0000E+00  0.0000E+00  0.0000E+00  0.0000E+00
     -5.824  0.0000E+00  0.0000E+00  0.0000E+00  0.0000E+00
     -5.709  0.0000E+00  0.0000E+00  0.0000E+00  0.0000E+00
     -5.594  0.0000E+00  0.0000E+00  0.0000E+00  0.0000E+00
     -5.479  0.1238E+01  0.1235E+01  0.7722E-01  0.7685E-01
     -5.364  0.3145E+01  0.3143E+01  0.3617E+00  0.3607E+00
     -5.249  0.2656E+01  0.2659E+01  0.7589E+00  0.7580E+00
     -5.135  0.9114E+00  0.9155E+00  0.9705E+00  0.9701E+00
     -5.020  0.4544E+01  0.4536E+01  0.1181E+01  0.1179E+01
     -4.905  0.3246E+01  0.3252E+01  0.1762E+01  0.1761E+01
     -4.790  0.3131E+01  0.3130E+01  0.2081E+01  0.2080E+01
     -4.675  0.2309E+01  0.2309E+01  0.2456E+01  0.2455E+01
     -4.560  0.4917E+01  0.4917E+01  0.2924E+01  0.2923E+01
     -4.445  0.4339E+01  0.4339E+01  0.3646E+01  0.3645E+01
     -4.331  0.1595E+01  0.1592E+01  0.4148E+01  0.4148E+01
     -4.216  0.5502E+01  0.5499E+01  0.4548E+01  0.4546E+01
     -4.101  0.4960E+01  0.4973E+01  0.5208E+01  0.5207E+01
     -3.986  0.6122E+01  0.6139E+01  0.6035E+01  0.6033E+01
     -3.871  0.1043E+02  0.1029E+02  0.6569E+01  0.6566E+01
     -3.756  0.3014E+01  0.2992E+01  0.7255E+01  0.7254E+01
     -3.641  0.0000E+00  0.0000E+00  0.8000E+01  0.8000E+01
     -3.526  0.3175E+01  0.3164E+01  0.8805E+01  0.8804E+01
     -3.412  0.4455E+01  0.4455E+01  0.9562E+01  0.9561E+01
     -3.297  0.5003E+01  0.5009E+01  0.1033E+02  0.1033E+02
     -3.182  0.6569E+01  0.6567E+01  0.1101E+02  0.1101E+02
     -3.067  0.7809E+01  0.7812E+01  0.1224E+02  0.1224E+02
     -2.952  0.1553E+02  0.1556E+02  0.1345E+02  0.1344E+02
     -2.837  0.7531E+01  0.7532E+01  0.1442E+02  0.1442E+02
     -2.722  0.1032E+02  0.1037E+02  0.1574E+02  0.1574E+02
     -2.607  0.2218E+01  0.2217E+01  0.1640E+02  0.1640E+02
     -2.493  0.7090E+01  0.7077E+01  0.1695E+02  0.1695E+02
     -2.378  0.1720E+02  0.1721E+02  0.1874E+02  0.1873E+02
     -2.263  0.8649E+01  0.8654E+01  0.2057E+02  0.2057E+02
     -2.148  0.9887E+01  0.9916E+01  0.2179E+02  0.2179E+02
     -2.033  0.9927E+01  0.9922E+01  0.2291E+02  0.2291E+02
     -1.918  0.1940E+02  0.1986E+02  0.2460E+02  0.2458E+02
     -1.803  0.8579E+01  0.8586E+01  0.2636E+02  0.2635E+02
     -1.689  0.2207E+02  0.2207E+02  0.2881E+02  0.2880E+02
     -1.574  0.5320E+01  0.5318E+01  0.3093E+02  0.3093E+02
     -1.459  0.5059E+01  0.5065E+01  0.3258E+02  0.3258E+02
     -1.344  0.2452E+02  0.2455E+02  0.3640E+02  0.3640E+02
     -1.229  0.3147E+02  0.3149E+02  0.4112E+02  0.4112E+02
     -1.114  0.5315E+02  0.5314E+02  0.4626E+02  0.4626E+02
     -0.999  0.2979E+02  0.2984E+02  0.5361E+02  0.5361E+02
     -0.884  0.5785E+02  0.5802E+02  0.6093E+02  0.6093E+02
     -0.770  0.5337E+02  0.5323E+02  0.6816E+02  0.6816E+02
     -0.655  0.6895E+02  0.6897E+02  0.7735E+02  0.7735E+02
     -0.540  0.6657E+02  0.6672E+02  0.8837E+02  0.8837E+02
     -0.425  0.8667E+02  0.8670E+02  0.1016E+03  0.1016E+03
     -0.310  0.8174E+02  0.8172E+02  0.1171E+03  0.1171E+03
     -0.195  0.9089E+02  0.9119E+02  0.1303E+03  0.1303E+03
     -0.080  0.1676E+03  0.1662E+03  0.1439E+03  0.1439E+03
      0.035  0.2227E+03  0.2218E+03  0.1582E+03  0.1582E+03
      0.149  0.1136E+03  0.1136E+03  0.1717E+03  0.1717E+03
      0.264  0.1638E+03  0.1637E+03  0.1869E+03  0.1869E+03
      0.379  0.1725E+03  0.1725E+03  0.2067E+03  0.2067E+03
      0.494  0.1282E+03  0.1282E+03  0.2254E+03  0.2254E+03
      0.609  0.1638E+03  0.1629E+03  0.2483E+03  0.2483E+03
      0.724  0.1685E+03  0.1685E+03  0.2728E+03  0.2728E+03
      0.839  0.2754E+03  0.2764E+03  0.2999E+03  0.2999E+03
      0.953  0.1190E+03  0.1191E+03  0.3233E+03  0.3233E+03
      1.068  0.1212E+03  0.1212E+03  0.3421E+03  0.3421E+03
      1.183  0.1243E+03  0.1241E+03  0.3584E+03  0.3584E+03
      1.298  0.1555E+03  0.1555E+03  0.3774E+03  0.3774E+03
      1.413  0.1689E+03  0.1802E+03  0.4021E+03  0.4021E+03
      1.528  0.1819E+03  0.1818E+03  0.4246E+03  0.4247E+03
      1.643  0.1431E+03  0.1428E+03  0.4450E+03  0.4451E+03
      1.758  0.1610E+03  0.1606E+03  0.4652E+03  0.4652E+03
      1.872  0.1844E+03  0.1832E+03  0.4887E+03  0.4887E+03
      1.987  0.3707E+03  0.3710E+03  0.5197E+03  0.5198E+03
      2.102  0.1512E+03  0.1510E+03  0.5486E+03  0.5486E+03
      2.217  0.2749E+02  0.2747E+02  0.5570E+03  0.5570E+03
      2.332  0.1621E+02  0.1621E+02  0.5593E+03  0.5593E+03
      2.447  0.1336E+02  0.1337E+02  0.5627E+03  0.5627E+03
      2.562  0.1356E+02  0.1356E+02  0.5644E+03  0.5644E+03
      2.677  0.6148E+01  0.6149E+01  0.5663E+03  0.5663E+03
      2.791  0.2528E+02  0.2529E+02  0.5687E+03  0.5687E+03
      2.906  0.1748E+02  0.1748E+02  0.5716E+03  0.5716E+03
      3.021  0.6064E+01  0.6063E+01  0.5730E+03  0.5730E+03
      3.136  0.2491E+02  0.2491E+02  0.5752E+03  0.5752E+03
      3.251  0.1297E+02  0.1298E+02  0.5777E+03  0.5777E+03
      3.366  0.1565E+02  0.1565E+02  0.5800E+03  0.5800E+03
      3.481  0.1343E+02  0.1344E+02  0.5818E+03  0.5818E+03
      3.595  0.9497E+01  0.9497E+01  0.5835E+03  0.5835E+03
      3.710  0.1317E+02  0.1317E+02  0.5848E+03  0.5848E+03
      3.825  0.1371E+02  0.1372E+02  0.5868E+03  0.5868E+03
      3.940  0.1559E+02  0.1558E+02  0.5883E+03  0.5883E+03
      4.055  0.2159E+02  0.2154E+02  0.5913E+03  0.5913E+03
      4.170  0.9878E+01  0.9859E+01  0.5932E+03  0.5932E+03
      4.285  0.4637E+01  0.4640E+01  0.5943E+03  0.5943E+03
      4.400  0.1075E+02  0.1074E+02  0.5952E+03  0.5952E+03
      4.514  0.1494E+02  0.1493E+02  0.5969E+03  0.5969E+03
      4.629  0.1121E+02  0.1121E+02  0.5987E+03  0.5987E+03
      4.744  0.1794E+02  0.1794E+02  0.6006E+03  0.6006E+03
      4.859  0.1440E+02  0.1440E+02  0.6029E+03  0.6029E+03
      4.974  0.1565E+02  0.1565E+02  0.6045E+03  0.6045E+03
      5.089  0.1336E+02  0.1336E+02  0.6063E+03  0.6063E+03
      5.204  0.7794E+01  0.7794E+01  0.6078E+03  0.6078E+03
      5.319  0.1230E+02  0.1230E+02  0.6090E+03  0.6090E+03
      5.433  0.8559E+01  0.8563E+01  0.6103E+03  0.6103E+03
      5.548  0.1746E+02  0.1747E+02  0.6117E+03  0.6117E+03
      5.663  0.6720E+01  0.6724E+01  0.6130E+03  0.6130E+03
      5.778  0.1147E+02  0.1149E+02  0.6145E+03  0.6145E+03
      5.893  0.1885E+02  0.1889E+02  0.6166E+03  0.6166E+03
      6.008  0.7161E+01  0.7163E+01  0.6180E+03  0.6180E+03
      6.123  0.9562E+01  0.9563E+01  0.6191E+03  0.6191E+03
      6.237  0.1359E+02  0.1360E+02  0.6206E+03  0.6206E+03
      6.352  0.7383E+01  0.7398E+01  0.6220E+03  0.6220E+03
      6.467  0.6885E+01  0.6882E+01  0.6228E+03  0.6228E+03
      6.582  0.8923E+01  0.8927E+01  0.6239E+03  0.6239E+03
      6.697  0.9443E+01  0.9446E+01  0.6252E+03  0.6252E+03
      6.812  0.5810E+01  0.5812E+01  0.6262E+03  0.6262E+03
      6.927  0.1374E+02  0.1373E+02  0.6272E+03  0.6272E+03
      7.042  0.1526E+02  0.1533E+02  0.6284E+03  0.6284E+03
      7.156  0.1277E+02  0.1278E+02  0.6298E+03  0.6298E+03
      7.271  0.1137E+02  0.1137E+02  0.6313E+03  0.6313E+03
      7.386  0.9084E+01  0.9088E+01  0.6328E+03  0.6328E+03
      7.501  0.5752E+01  0.5753E+01  0.6337E+03  0.6337E+03
      7.616  0.1141E+02  0.1141E+02  0.6346E+03  0.6346E+03
      7.731  0.1373E+02  0.1372E+02  0.6365E+03  0.6365E+03
      7.846  0.1868E+02  0.1872E+02  0.6390E+03  0.6390E+03
      7.960  0.1459E+02  0.1460E+02  0.6410E+03  0.6410E+03
      8.075  0.1083E+02  0.1077E+02  0.6424E+03  0.6424E+03
      8.190  0.1392E+02  0.1391E+02  0.6438E+03  0.6438E+03
      8.305  0.1529E+02  0.1530E+02  0.6459E+03  0.6459E+03
      8.420  0.1303E+02  0.1303E+02  0.6478E+03  0.6478E+03
      8.535  0.1626E+02  0.1625E+02  0.6494E+03  0.6494E+03
      8.650  0.1228E+02  0.1228E+02  0.6516E+03  0.6516E+03
      8.765  0.2222E+01  0.2218E+01  0.6532E+03  0.6532E+03
      8.879  0.1763E+02  0.1763E+02  0.6546E+03  0.6546E+03
      8.994  0.2405E+01  0.2400E+01  0.6571E+03  0.6571E+03
      9.109  0.7815E+01  0.7808E+01  0.6578E+03  0.6578E+03
      9.224  0.1144E+02  0.1143E+02  0.6590E+03  0.6590E+03
      9.339  0.1585E+02  0.1586E+02  0.6609E+03  0.6609E+03
      9.454  0.1085E+02  0.1085E+02  0.6626E+03  0.6626E+03
      9.569  0.1904E+02  0.1902E+02  0.6646E+03  0.6646E+03
      9.684  0.1034E+02  0.1035E+02  0.6668E+03  0.6667E+03
      9.798  0.8470E+01  0.8464E+01  0.6678E+03  0.6678E+03
      9.913  0.1163E+02  0.1162E+02  0.6690E+03  0.6690E+03
     10.028  0.1548E+02  0.1547E+02  0.6707E+03  0.6707E+03
     10.143  0.1041E+02  0.1041E+02  0.6725E+03  0.6725E+03
     10.258  0.5699E+01  0.5692E+01  0.6736E+03  0.6736E+03
     10.373  0.9012E+01  0.9012E+01  0.6748E+03  0.6748E+03
     10.488  0.1123E+02  0.1123E+02  0.6766E+03  0.6766E+03
     10.602  0.1287E+02  0.1287E+02  0.6782E+03  0.6782E+03
     10.717  0.1269E+02  0.1269E+02  0.6797E+03  0.6797E+03
     10.832  0.1493E+02  0.1493E+02  0.6815E+03  0.6815E+03
     10.947  0.1550E+02  0.1555E+02  0.6835E+03  0.6835E+03
     11.062  0.1683E+02  0.1687E+02  0.6856E+03  0.6856E+03
     11.177  0.2131E+02  0.2130E+02  0.6877E+03  0.6877E+03
     11.292  0.7517E+01  0.7538E+01  0.6897E+03  0.6897E+03
     11.407  0.1271E+02  0.1268E+02  0.6913E+03  0.6913E+03
     11.521  0.1353E+02  0.1355E+02  0.6933E+03  0.6933E+03
     11.636  0.1475E+02  0.1474E+02  0.6949E+03  0.6949E+03
     11.751  0.1368E+02  0.1369E+02  0.6968E+03  0.6968E+03
     11.866  0.1519E+02  0.1519E+02  0.6988E+03  0.6988E+03
     11.981  0.1617E+02  0.1617E+02  0.7009E+03  0.7009E+03
     12.096  0.2191E+02  0.2191E+02  0.7033E+03  0.7033E+03
     12.211  0.2467E+02  0.2466E+02  0.7062E+03  0.7062E+03
     12.326  0.1935E+02  0.1935E+02  0.7091E+03  0.7091E+03
     12.440  0.1486E+02  0.1485E+02  0.7110E+03  0.7110E+03
     12.555  0.1503E+02  0.1503E+02  0.7129E+03  0.7129E+03
     12.670  0.1359E+02  0.1358E+02  0.7147E+03  0.7147E+03
     12.785  0.2158E+02  0.2157E+02  0.7170E+03  0.7170E+03
     12.900  0.2150E+02  0.2151E+02  0.7199E+03  0.7199E+03
     13.015  0.1616E+02  0.1618E+02  0.7225E+03  0.7225E+03
     13.130  0.1460E+02  0.1461E+02  0.7244E+03  0.7244E+03
     13.244  0.1316E+02  0.1316E+02  0.7263E+03  0.7263E+03
     13.359  0.1131E+02  0.1129E+02  0.7278E+03  0.7278E+03
     13.474  0.9345E+01  0.9335E+01  0.7296E+03  0.7296E+03
     13.589  0.2581E+02  0.2580E+02  0.7317E+03  0.7317E+03
     13.704  0.1485E+02  0.1486E+02  0.7345E+03  0.7345E+03
     13.819  0.1310E+02  0.1310E+02  0.7370E+03  0.7370E+03
     13.934  0.1732E+02  0.1727E+02  0.7393E+03  0.7393E+03
     14.049  0.2587E+02  0.2570E+02  0.7421E+03  0.7421E+03
     14.163  0.7231E+01  0.7242E+01  0.7444E+03  0.7444E+03
     14.278  0.1083E+02  0.1083E+02  0.7470E+03  0.7470E+03
     14.393  0.7468E+01  0.7479E+01  0.7490E+03  0.7490E+03
     14.508  0.1091E+02  0.1091E+02  0.7511E+03  0.7511E+03
     14.623  0.2331E+02  0.2330E+02  0.7535E+03  0.7534E+03
     14.738  0.2137E+02  0.2136E+02  0.7562E+03  0.7562E+03
     14.853  0.1560E+02  0.1560E+02  0.7587E+03  0.7587E+03
     14.968  0.2287E+02  0.2286E+02  0.7607E+03  0.7607E+03
     15.082  0.1359E+02  0.1362E+02  0.7633E+03  0.7632E+03
     15.197  0.2011E+02  0.2011E+02  0.7660E+03  0.7660E+03
     15.312  0.1766E+02  0.1764E+02  0.7686E+03  0.7686E+03
     15.427  0.1185E+02  0.1182E+02  0.7705E+03  0.7705E+03
     15.542  0.1795E+02  0.3157E+02  0.7727E+03  0.7727E+03
     15.657  0.6784E+01  0.6791E+01  0.7759E+03  0.7759E+03
     15.772  0.1089E+02  0.1088E+02  0.7772E+03  0.7772E+03
     15.886  0.2680E+02  0.2686E+02  0.7796E+03  0.7796E+03
     16.001  0.1769E+02  0.1771E+02  0.7828E+03  0.7828E+03
     16.116  0.2005E+02  0.2005E+02  0.7854E+03  0.7854E+03
     16.231  0.1514E+02  0.1513E+02  0.7878E+03  0.7878E+03
     16.346  0.1336E+02  0.1336E+02  0.7901E+03  0.7901E+03
     16.461  0.2598E+02  0.2598E+02  0.7929E+03  0.7929E+03
     16.576  0.1597E+02  0.1600E+02  0.7956E+03  0.7956E+03
     16.691  0.2668E+02  0.2661E+02  0.7979E+03  0.7979E+03
     16.805  0.2391E+02  0.2391E+02  0.8012E+03  0.8012E+03
     16.920  0.2494E+02  0.2495E+02  0.8046E+03  0.8046E+03
     17.035  0.2073E+02  0.2072E+02  0.8077E+03  0.8077E+03
     17.150  0.1506E+02  0.1505E+02  0.8105E+03  0.8105E+03
     17.265  0.1845E+02  0.1846E+02  0.8129E+03  0.8128E+03
     17.380  0.3550E+02  0.3582E+02  0.8155E+03  0.8155E+03
     17.495  0.1648E+02  0.1652E+02  0.8185E+03  0.8185E+03
     17.609  0.1287E+02  0.1287E+02  0.8209E+03  0.8209E+03
     17.724  0.1571E+02  0.1570E+02  0.8227E+03  0.8227E+03
     17.839  0.1713E+02  0.1714E+02  0.8254E+03  0.8254E+03
     17.954  0.1287E+02  0.1287E+02  0.8277E+03  0.8276E+03
     18.069  0.3554E+02  0.3555E+02  0.8306E+03  0.8306E+03
     18.184  0.2605E+02  0.2596E+02  0.8340E+03  0.8340E+03
     18.299  0.1868E+02  0.1794E+02  0.8365E+03  0.8364E+03
     18.414  0.1700E+02  0.1702E+02  0.8391E+03  0.8391E+03
     18.528  0.1460E+02  0.1460E+02  0.8410E+03  0.8410E+03
     18.643  0.1500E+02  0.1500E+02  0.8429E+03  0.8429E+03
     18.758  0.1951E+02  0.1953E+02  0.8454E+03  0.8454E+03
     18.873  0.2101E+02  0.2099E+02  0.8484E+03  0.8484E+03
     18.988  0.1723E+02  0.1724E+02  0.8512E+03  0.8512E+03
     19.103  0.1309E+02  0.1309E+02  0.8532E+03  0.8532E+03
     19.218  0.1693E+02  0.1692E+02  0.8551E+03  0.8551E+03
     19.333  0.2333E+02  0.2332E+02  0.8578E+03  0.8577E+03
     19.447  0.2093E+02  0.2092E+02  0.8603E+03  0.8603E+03
     19.562  0.1983E+02  0.1983E+02  0.8631E+03  0.8631E+03
     19.677  0.1977E+02  0.1977E+02  0.8655E+03  0.8655E+03
     19.792  0.1089E+02  0.1088E+02  0.8677E+03  0.8677E+03
     19.907  0.1446E+02  0.1472E+02  0.8700E+03  0.8700E+03
     20.022  0.2010E+02  0.1981E+02  0.8720E+03  0.8720E+03
     20.137  0.9324E+01  0.9322E+01  0.8736E+03  0.8736E+03
     20.251  0.1664E+02  0.1664E+02  0.8752E+03  0.8752E+03
     20.366  0.1556E+02  0.1568E+02  0.8772E+03  0.8772E+03
     20.481  0.1659E+02  0.1658E+02  0.8795E+03  0.8795E+03
     20.596  0.1495E+02  0.1495E+02  0.8816E+03  0.8816E+03
     20.711  0.1509E+02  0.1509E+02  0.8835E+03  0.8835E+03
     20.826  0.1378E+02  0.1378E+02  0.8854E+03  0.8854E+03
     20.941  0.1705E+02  0.1705E+02  0.8873E+03  0.8873E+03
     21.056  0.1501E+02  0.1502E+02  0.8895E+03  0.8895E+03
     21.170  0.1727E+02  0.1727E+02  0.8916E+03  0.8916E+03
     21.285  0.1714E+02  0.1714E+02  0.8938E+03  0.8938E+03
     21.400  0.1564E+02  0.1564E+02  0.8960E+03  0.8960E+03
     21.515  0.1538E+02  0.1538E+02  0.8980E+03  0.8980E+03
     21.630  0.1970E+02  0.1972E+02  0.9000E+03  0.9000E+03
     21.745  0.1883E+02  0.1883E+02  0.9025E+03  0.9025E+03
     21.860  0.1617E+02  0.1617E+02  0.9049E+03  0.9049E+03
     21.975  0.1554E+02  0.1554E+02  0.9069E+03  0.9068E+03
     22.089  0.1462E+02  0.1462E+02  0.9088E+03  0.9088E+03
     22.204  0.1565E+02  0.1565E+02  0.9108E+03  0.9108E+03
     22.319  0.1692E+02  0.1692E+02  0.9129E+03  0.9129E+03
     22.434  0.1666E+02  0.1666E+02  0.9152E+03  0.9152E+03
     22.549  0.1650E+02  0.1650E+02  0.9173E+03  0.9173E+03
     22.664  0.1564E+02  0.1563E+02  0.9194E+03  0.9194E+03
     22.779  0.1962E+02  0.1961E+02  0.9217E+03  0.9217E+03
     22.893  0.2248E+02  0.2248E+02  0.9244E+03  0.9244E+03
     23.008  0.2190E+02  0.2191E+02  0.9274E+03  0.9274E+03
     23.123  0.1980E+02  0.1982E+02  0.9308E+03  0.9308E+03
     23.238  0.1211E+02  0.1210E+02  0.9326E+03  0.9326E+03
     23.353  0.2171E+02  0.2170E+02  0.9349E+03  0.9349E+03
     23.468  0.2499E+02  0.2500E+02  0.9382E+03  0.9382E+03
     23.583  0.2543E+02  0.2543E+02  0.9410E+03  0.9410E+03
     23.698  0.1805E+02  0.1806E+02  0.9438E+03  0.9438E+03
     23.812  0.1858E+02  0.1859E+02  0.9462E+03  0.9462E+03
     23.927  0.1946E+02  0.1937E+02  0.9495E+03  0.9495E+03
     24.042  0.2506E+02  0.2507E+02  0.9527E+03  0.9527E+03
     24.157  0.2070E+02  0.2070E+02  0.9561E+03  0.9561E+03
     24.272  0.1950E+02  0.1949E+02  0.9585E+03  0.9585E+03
     24.387  0.3039E+02  0.3038E+02  0.9618E+03  0.9618E+03
     24.502  0.2073E+02  0.2075E+02  0.9660E+03  0.9660E+03
     24.617  0.1229E+02  0.1162E+02  0.9679E+03  0.9678E+03
     24.731  0.2370E+02  0.2236E+02  0.9701E+03  0.9699E+03
     24.846  0.1384E+01  0.6025E+01  0.9720E+03  0.9718E+03
     24.961  0.0000E+00  0.0000E+00  0.9720E+03  0.9720E+03
     25.076  0.0000E+00  0.0000E+00  0.9720E+03  0.9720E+03
     25.191  0.0000E+00  0.0000E+00  0.9720E+03  0.9720E+03
     25.306  0.0000E+00  0.0000E+00  0.9720E+03  0.9720E+03
     25.421  0.0000E+00  0.0000E+00  0.9720E+03  0.9720E+03
     25.535  0.0000E+00  0.0000E+00  0.9720E+03  0.9720E+03
     25.650  0.0000E+00  0.0000E+00  0.9720E+03  0.9720E+03
     25.765  0.0000E+00  0.0000E+00  0.9720E+03  0.9720E+03
     25.880  0.0000E+00  0.0000E+00  0.9720E+03  0.9720E+03
     25.995  0.0000E+00  0.0000E+00  0.9720E+03  0.9720E+03
     26.110  0.0000E+00  0.0000E+00  0.9720E+03  0.9720E+03
     26.225  0.0000E+00  0.0000E+00  0.9720E+03  0.9720E+03
     26.340  0.0000E+00  0.0000E+00  0.9720E+03  0.9720E+03
     26.454  0.0000E+00  0.0000E+00  0.9720E+03  0.9720E+03
     26.569  0.0000E+00  0.0000E+00  0.9720E+03  0.9720E+03
     26.684  0.0000E+00  0.0000E+00  0.9720E+03  0.9720E+03
     26.799  0.0000E+00  0.0000E+00  0.9720E+03  0.9720E+03
     26.914  0.0000E+00  0.0000E+00  0.9720E+03  0.9720E+03
