unknown system                          
           1
    10.906394    0.000000    0.000000
     0.000000   10.906394    0.000000
     0.000000    0.000000   10.906394
   Al   Mg
   1 106
Direct configuration=     1
   0.00000000  0.00000000  0.00122583
   0.16544124  0.00000000  0.16953904
   0.00000000  0.00000000  0.66482129
   0.00000000  0.33373617  0.00030093
   0.00000000  0.33255138  0.33375893
   0.00000000  0.33331301  0.66588522
   0.00000000  0.66626383  0.00030093
   0.00000000  0.66744862  0.33375893
   0.00000000  0.66668699  0.66588522
   0.33373617  0.00000000  0.00030093
   0.33255138  0.00000000  0.33375893
   0.33331301  0.00000000  0.66588522
   0.33353305  0.33353305  0.00033277
   0.33333335  0.33333335  0.33367496
   0.33328712  0.33328712  0.66604020
   0.33353305  0.66646695  0.00033277
   0.33333335  0.66666665  0.33367496
   0.33328712  0.66671288  0.66604020
   0.66626383  0.00000000  0.00030093
   0.66744862  0.00000000  0.33375893
   0.66668699  0.00000000  0.66588522
   0.66646695  0.33353305  0.00033277
   0.66666665  0.33333335  0.33367496
   0.66671288  0.33328712  0.66604020
   0.66646695  0.66646695  0.00033277
   0.66666665  0.66666665  0.33367496
   0.66671288  0.66671288  0.66604020
   0.00000000  0.16544124  0.16953904
   0.00000000  0.16489885  0.49793512
   0.00000000  0.16709388  0.83261403
   0.00000000  0.50000000  0.16742226
   0.00000000  0.50000000  0.49955279
   0.00000000  0.50000000  0.83292640
   0.00000000  0.83455876  0.16953904
   0.00000000  0.83510115  0.49793512
   0.00000000  0.83290612  0.83261403
   0.33290170  0.16646128  0.16764260
   0.33276451  0.16629644  0.49940241
   0.33331982  0.16681999  0.83290798
   0.33320252  0.50000000  0.16717945
   0.33307521  0.50000000  0.49977963
   0.33347468  0.50000000  0.83308110
   0.33290170  0.83353872  0.16764260
   0.33276451  0.83370356  0.49940241
   0.33331982  0.83318001  0.83290798
   0.66709830  0.16646128  0.16764260
   0.66723549  0.16629644  0.49940241
   0.66668018  0.16681999  0.83290798
   0.66679748  0.50000000  0.16717945
   0.66692479  0.50000000  0.49977963
   0.66652532  0.50000000  0.83308110
   0.66709830  0.83353872  0.16764260
   0.66723549  0.83370356  0.49940241
   0.66668018  0.83318001  0.83290798
   0.16489885  0.00000000  0.49793512
   0.16709388  0.00000000  0.83261403
   0.16646128  0.33290170  0.16764260
   0.16629644  0.33276451  0.49940241
   0.16681999  0.33331982  0.83290798
   0.16646128  0.66709830  0.16764260
   0.16629644  0.66723549  0.49940241
   0.16681999  0.66668018  0.83290798
   0.50000000  0.00000000  0.16742226
   0.50000000  0.00000000  0.49955279
   0.50000000  0.00000000  0.83292640
   0.50000000  0.33320252  0.16717945
   0.50000000  0.33307521  0.49977963
   0.50000000  0.33347468  0.83308110
   0.50000000  0.66679748  0.16717945
   0.50000000  0.66692479  0.49977963
   0.50000000  0.66652532  0.83308110
   0.83455876  0.00000000  0.16953904
   0.83510115  0.00000000  0.49793512
   0.83290612  0.00000000  0.83261403
   0.83353872  0.33290170  0.16764260
   0.83370356  0.33276451  0.49940241
   0.83318001  0.33331982  0.83290798
   0.83353872  0.66709830  0.16764260
   0.83370356  0.66723549  0.49940241
   0.83318001  0.66668018  0.83290798
   0.16718814  0.16718814  0.00084860
   0.16516351  0.16516351  0.33368604
   0.16642565  0.16642565  0.66545836
   0.16674979  0.50000000  0.00043951
   0.16641760  0.50000000  0.33365580
   0.16660277  0.50000000  0.66592124
   0.16718814  0.83281186  0.00084860
   0.16516351  0.83483649  0.33368604
   0.16642565  0.83357435  0.66545836
   0.50000000  0.16674979  0.00043951
   0.50000000  0.16641760  0.33365580
   0.50000000  0.16660277  0.66592124
   0.50000000  0.50000000  0.00018438
   0.50000000  0.50000000  0.33352739
   0.50000000  0.50000000  0.66633407
   0.50000000  0.83325021  0.00043951
   0.50000000  0.83358240  0.33365580
   0.50000000  0.83339723  0.66592124
   0.83281186  0.16718814  0.00084860
   0.83483649  0.16516351  0.33368604
   0.83357435  0.16642565  0.66545836
   0.83325021  0.50000000  0.00043951
   0.83358240  0.50000000  0.33365580
   0.83339723  0.50000000  0.66592124
   0.83281186  0.83281186  0.00084860
   0.83483649  0.83483649  0.33368604
   0.83357435  0.83357435  0.66545836
