   3   3   0   0
  0.1429167E+02  0.3500000E-09  0.3500000E-09  0.3500000E-09  0.5000000E-15
  1.000000000000000E-004
  CAR 
 unknown system                          
     18.28607029     -2.84248042  301     10.45970519      1.00000000
     -2.842  0.0000E+00  0.0000E+00
     -2.772  0.0000E+00  0.0000E+00
     -2.702  0.0000E+00  0.0000E+00
     -2.631  0.0000E+00  0.0000E+00
     -2.561  0.0000E+00  0.0000E+00
     -2.490 -0.2173E-27 -0.1531E-28
     -2.420 -0.6065E-25 -0.4287E-26
     -2.349 -0.1322E-22 -0.9352E-24
     -2.279 -0.2242E-20 -0.1588E-21
     -2.209 -0.2960E-18 -0.2100E-19
     -2.138 -0.3039E-16 -0.2161E-17
     -2.068 -0.2426E-14 -0.1731E-15
     -1.997 -0.1458E-12 -0.1044E-13
     -1.927 -0.7013E-11 -0.5043E-12
     -1.856 -0.2609E-09 -0.1888E-10
     -1.786 -0.7517E-08 -0.5483E-09
     -1.716 -0.1674E-06 -0.1234E-07
     -1.645 -0.2874E-05 -0.2148E-06
     -1.575 -0.3794E-04 -0.2887E-05
     -1.504 -0.3831E-03 -0.2987E-04
     -1.434 -0.2939E-02 -0.2369E-03
     -1.363 -0.1695E-01 -0.1430E-02
     -1.293 -0.7198E-01 -0.6500E-02
     -1.223 -0.2164E+00 -0.2174E-01
     -1.152 -0.4138E+00 -0.5089E-01
     -1.082 -0.2807E+00 -0.7066E-01
     -1.011  0.9883E+00 -0.1055E-02
     -0.941  0.3827E+01  0.2685E+00
     -0.870  0.7058E+01  0.7656E+00
     -0.800  0.8301E+01  0.1350E+01
     -0.730  0.6481E+01  0.1807E+01
     -0.659  0.3146E+01  0.2028E+01
     -0.589  0.5975E+00  0.2070E+01
     -0.518 -0.3711E+00  0.2044E+01
     -0.448 -0.3803E+00  0.2017E+01
     -0.377 -0.1783E+00  0.2005E+01
     -0.307 -0.5495E-01  0.2001E+01
     -0.237 -0.1212E-01  0.2000E+01
     -0.166 -0.1981E-02  0.2000E+01
     -0.096 -0.2439E-03  0.2000E+01
     -0.025 -0.2285E-04  0.2000E+01
      0.045 -0.1640E-05  0.2000E+01
      0.116 -0.9054E-07  0.2000E+01
      0.186 -0.3857E-08  0.2000E+01
      0.256 -0.1270E-09  0.2000E+01
      0.327 -0.3235E-11  0.2000E+01
      0.397 -0.6936E-13  0.2000E+01
      0.468  0.0000E+00  0.2000E+01
      0.538  0.0000E+00  0.2000E+01
      0.609  0.0000E+00  0.2000E+01
      0.679  0.0000E+00  0.2000E+01
      0.749  0.0000E+00  0.2000E+01
      0.820  0.0000E+00  0.2000E+01
      0.890  0.0000E+00  0.2000E+01
      0.961  0.0000E+00  0.2000E+01
      1.031  0.0000E+00  0.2000E+01
      1.102  0.0000E+00  0.2000E+01
      1.172  0.0000E+00  0.2000E+01
      1.242  0.0000E+00  0.2000E+01
      1.313  0.0000E+00  0.2000E+01
      1.383  0.0000E+00  0.2000E+01
      1.454  0.0000E+00  0.2000E+01
      1.524  0.0000E+00  0.2000E+01
      1.595  0.0000E+00  0.2000E+01
      1.665  0.0000E+00  0.2000E+01
      1.735  0.0000E+00  0.2000E+01
      1.806  0.0000E+00  0.2000E+01
      1.876  0.0000E+00  0.2000E+01
      1.947  0.0000E+00  0.2000E+01
      2.017  0.0000E+00  0.2000E+01
      2.088  0.0000E+00  0.2000E+01
      2.158  0.0000E+00  0.2000E+01
      2.228  0.0000E+00  0.2000E+01
      2.299  0.0000E+00  0.2000E+01
      2.369  0.0000E+00  0.2000E+01
      2.440  0.0000E+00  0.2000E+01
      2.510  0.0000E+00  0.2000E+01
      2.581  0.0000E+00  0.2000E+01
      2.651  0.0000E+00  0.2000E+01
      2.721  0.0000E+00  0.2000E+01
      2.792  0.0000E+00  0.2000E+01
      2.862  0.0000E+00  0.2000E+01
      2.933  0.0000E+00  0.2000E+01
      3.003  0.0000E+00  0.2000E+01
      3.074  0.0000E+00  0.2000E+01
      3.144  0.0000E+00  0.2000E+01
      3.214  0.0000E+00  0.2000E+01
      3.285 -0.9519E-27  0.2000E+01
      3.355 -0.2490E-24  0.2000E+01
      3.426 -0.5087E-22  0.2000E+01
      3.496 -0.8090E-20  0.2000E+01
      3.567 -0.1001E-17  0.2000E+01
      3.637 -0.9633E-16  0.2000E+01
      3.707 -0.7207E-14  0.2000E+01
      3.778 -0.4064E-12  0.2000E+01
      3.848 -0.1826E-10  0.2000E+01
      3.919 -0.6361E-09  0.2000E+01
      3.989 -0.1715E-07  0.2000E+01
      4.060 -0.3573E-06  0.2000E+01
      4.130 -0.5735E-05  0.2000E+01
      4.200 -0.7069E-04  0.2000E+01
      4.271 -0.6657E-03  0.2000E+01
      4.341 -0.4753E-02  0.2000E+01
      4.412 -0.2542E-01  0.1998E+01
      4.482 -0.9968E-01  0.1991E+01
      4.553 -0.2740E+00  0.1972E+01
      4.623 -0.4671E+00  0.1939E+01
      4.693 -0.2235E+00  0.1923E+01
      4.764  0.1188E+01  0.2007E+01
      4.834  0.3915E+01  0.2282E+01
      4.905  0.6997E+01  0.2775E+01
      4.975  0.9685E+01  0.3457E+01
      5.046  0.1265E+02  0.4348E+01
      5.116  0.1592E+02  0.5470E+01
      5.186  0.1684E+02  0.6656E+01
      5.257  0.1311E+02  0.7579E+01
      5.327  0.6615E+01  0.8045E+01
      5.398  0.1419E+01  0.8145E+01
      5.468 -0.7042E+00  0.8096E+01
      5.539 -0.8031E+00  0.8039E+01
      5.609 -0.3936E+00  0.8011E+01
      5.679 -0.1256E+00  0.8002E+01
      5.750 -0.2857E-01  0.8000E+01
      5.820 -0.4803E-02  0.8000E+01
      5.891 -0.6077E-03  0.8000E+01
      5.961 -0.5848E-04  0.8000E+01
      6.032 -0.4309E-05  0.8000E+01
      6.102 -0.2441E-06  0.8000E+01
      6.172 -0.1067E-07  0.8000E+01
      6.243 -0.3603E-09  0.8000E+01
      6.313 -0.9433E-11  0.8000E+01
      6.384 -0.1892E-12  0.8000E+01
      6.454  0.0000E+00  0.8000E+01
      6.525  0.0000E+00  0.8000E+01
      6.595  0.0000E+00  0.8000E+01
      6.665  0.0000E+00  0.8000E+01
      6.736  0.0000E+00  0.8000E+01
      6.806  0.0000E+00  0.8000E+01
      6.877  0.0000E+00  0.8000E+01
      6.947  0.0000E+00  0.8000E+01
      7.018  0.0000E+00  0.8000E+01
      7.088  0.0000E+00  0.8000E+01
      7.158  0.0000E+00  0.8000E+01
      7.229  0.0000E+00  0.8000E+01
      7.299  0.0000E+00  0.8000E+01
      7.370  0.0000E+00  0.8000E+01
      7.440  0.0000E+00  0.8000E+01
      7.511  0.0000E+00  0.8000E+01
      7.581  0.0000E+00  0.8000E+01
      7.651  0.0000E+00  0.8000E+01
      7.722  0.0000E+00  0.8000E+01
      7.792  0.0000E+00  0.8000E+01
      7.863  0.0000E+00  0.8000E+01
      7.933  0.0000E+00  0.8000E+01
      8.004  0.0000E+00  0.8000E+01
      8.074  0.0000E+00  0.8000E+01
      8.144  0.0000E+00  0.8000E+01
      8.215  0.0000E+00  0.8000E+01
      8.285  0.0000E+00  0.8000E+01
      8.356  0.0000E+00  0.8000E+01
      8.426  0.0000E+00  0.8000E+01
      8.497  0.0000E+00  0.8000E+01
      8.567  0.0000E+00  0.8000E+01
      8.637  0.0000E+00  0.8000E+01
      8.708  0.0000E+00  0.8000E+01
      8.778  0.0000E+00  0.8000E+01
      8.849  0.0000E+00  0.8000E+01
      8.919 -0.1628E-25  0.8000E+01
      8.990 -0.3872E-23  0.8000E+01
      9.060 -0.7192E-21  0.8000E+01
      9.130 -0.1040E-18  0.8000E+01
      9.201 -0.1169E-16  0.8000E+01
      9.271 -0.1023E-14  0.8000E+01
      9.342 -0.6638E-13  0.8000E+01
      9.412 -0.3556E-11  0.8000E+01
      9.483 -0.1451E-09  0.8000E+01
      9.553 -0.4585E-08  0.8000E+01
      9.623 -0.1121E-06  0.8000E+01
      9.694 -0.2116E-05  0.8000E+01
      9.764 -0.3073E-04  0.8000E+01
      9.835 -0.3422E-03  0.8000E+01
      9.905 -0.2903E-02  0.8000E+01
      9.976 -0.1859E-01  0.7998E+01
     10.046 -0.8849E-01  0.7992E+01
     10.116 -0.3036E+00  0.7971E+01
     10.187 -0.6992E+00  0.7922E+01
     10.257 -0.8256E+00  0.7863E+01
     10.328  0.6921E+00  0.7912E+01
     10.398  0.5299E+01  0.8285E+01
     10.469  0.1198E+02  0.9129E+01
     10.539  0.1641E+02  0.1029E+02
     10.609  0.1489E+02  0.1133E+02
     10.680  0.8732E+01  0.1195E+02
     10.750  0.2675E+01  0.1214E+02
     10.821 -0.3599E+00  0.1211E+02
     10.891 -0.8772E+00  0.1205E+02
     10.962 -0.5569E+00  0.1201E+02
     11.032 -0.3671E+00  0.1198E+02
     11.102 -0.4369E+00  0.1195E+02
     11.173 -0.3513E+00  0.1193E+02
     11.243  0.7297E+00  0.1198E+02
     11.314  0.3389E+01  0.1222E+02
     11.384  0.6699E+01  0.1269E+02
     11.455  0.8318E+01  0.1328E+02
     11.525  0.6858E+01  0.1376E+02
     11.595  0.3577E+01  0.1401E+02
     11.666  0.8383E+00  0.1407E+02
     11.736 -0.3187E+00  0.1405E+02
     11.807 -0.4028E+00  0.1402E+02
     11.877 -0.2021E+00  0.1401E+02
     11.948 -0.6538E-01  0.1400E+02
     12.018 -0.1503E-01  0.1400E+02
     12.088 -0.2551E-02  0.1400E+02
     12.159 -0.3257E-03  0.1400E+02
     12.229 -0.3161E-04  0.1400E+02
     12.300 -0.2348E-05  0.1400E+02
     12.370 -0.1341E-06  0.1400E+02
     12.441 -0.5909E-08  0.1400E+02
     12.511 -0.2012E-09  0.1400E+02
     12.581 -0.5303E-11  0.1400E+02
     12.652 -0.1135E-12  0.1400E+02
     12.722  0.0000E+00  0.1400E+02
     12.793  0.0000E+00  0.1400E+02
     12.863  0.0000E+00  0.1400E+02
     12.934  0.0000E+00  0.1400E+02
     13.004  0.0000E+00  0.1400E+02
     13.074  0.0000E+00  0.1400E+02
     13.145  0.0000E+00  0.1400E+02
     13.215  0.0000E+00  0.1400E+02
     13.286  0.0000E+00  0.1400E+02
     13.356  0.0000E+00  0.1400E+02
     13.427  0.0000E+00  0.1400E+02
     13.497  0.0000E+00  0.1400E+02
     13.567  0.0000E+00  0.1400E+02
     13.638  0.0000E+00  0.1400E+02
     13.708  0.0000E+00  0.1400E+02
     13.779  0.0000E+00  0.1400E+02
     13.849  0.0000E+00  0.1400E+02
     13.920  0.0000E+00  0.1400E+02
     13.990  0.0000E+00  0.1400E+02
     14.060  0.0000E+00  0.1400E+02
     14.131  0.0000E+00  0.1400E+02
     14.201  0.0000E+00  0.1400E+02
     14.272  0.0000E+00  0.1400E+02
     14.342  0.0000E+00  0.1400E+02
     14.413  0.0000E+00  0.1400E+02
     14.483  0.0000E+00  0.1400E+02
     14.553  0.0000E+00  0.1400E+02
     14.624 -0.6645E-28  0.1400E+02
     14.694 -0.1952E-25  0.1400E+02
     14.765 -0.4478E-23  0.1400E+02
     14.835 -0.7996E-21  0.1400E+02
     14.906 -0.1111E-18  0.1400E+02
     14.976 -0.1201E-16  0.1400E+02
     15.046 -0.1010E-14  0.1400E+02
     15.117 -0.6441E-13  0.1400E+02
     15.187 -0.3239E-11  0.1400E+02
     15.258 -0.1270E-09  0.1400E+02
     15.328 -0.3857E-08  0.1400E+02
     15.399 -0.9054E-07  0.1400E+02
     15.469 -0.1640E-05  0.1400E+02
     15.539 -0.2285E-04  0.1400E+02
     15.610 -0.2439E-03  0.1400E+02
     15.680 -0.1981E-02  0.1400E+02
     15.751 -0.1212E-01  0.1400E+02
     15.821 -0.5495E-01  0.1400E+02
     15.892 -0.1783E+00  0.1398E+02
     15.962 -0.3803E+00  0.1396E+02
     16.032 -0.3711E+00  0.1393E+02
     16.103  0.5975E+00  0.1397E+02
     16.173  0.3146E+01  0.1419E+02
     16.244  0.6481E+01  0.1465E+02
     16.314  0.8301E+01  0.1523E+02
     16.385  0.7058E+01  0.1573E+02
     16.455  0.3827E+01  0.1600E+02
     16.525  0.9883E+00  0.1607E+02
     16.596 -0.2807E+00  0.1605E+02
     16.666 -0.4138E+00  0.1602E+02
     16.737 -0.2164E+00  0.1601E+02
     16.807 -0.7198E-01  0.1600E+02
     16.878 -0.1695E-01  0.1600E+02
     16.948 -0.2939E-02  0.1600E+02
     17.018 -0.3831E-03  0.1600E+02
     17.089 -0.3794E-04  0.1600E+02
     17.159 -0.2874E-05  0.1600E+02
     17.230 -0.1674E-06  0.1600E+02
     17.300 -0.7517E-08  0.1600E+02
     17.370 -0.2609E-09  0.1600E+02
     17.441 -0.7018E-11  0.1600E+02
     17.511 -0.1450E-12  0.1600E+02
     17.582  0.0000E+00  0.1600E+02
     17.652  0.0000E+00  0.1600E+02
     17.723  0.0000E+00  0.1600E+02
     17.793  0.0000E+00  0.1600E+02
     17.863  0.0000E+00  0.1600E+02
     17.934  0.0000E+00  0.1600E+02
     18.004  0.0000E+00  0.1600E+02
     18.075  0.0000E+00  0.1600E+02
     18.145  0.0000E+00  0.1600E+02
     18.216  0.0000E+00  0.1600E+02
     18.286  0.0000E+00  0.1600E+02
