  32  32   0   0
  0.1660753E+02  0.8100000E-09  0.8100000E-09  0.8100000E-09  0.5000000E-15
  1.000000000000000E-004
  CAR 
 unknown system                          
     13.22740540     -5.01233978  301      8.48315590      1.00000000
     -5.012  0.0000E+00  0.0000E+00
     -4.952  0.0000E+00  0.0000E+00
     -4.891  0.0000E+00  0.0000E+00
     -4.830  0.0000E+00  0.0000E+00
     -4.769  0.0000E+00  0.0000E+00
     -4.708  0.0000E+00  0.0000E+00
     -4.648 -0.3695E-29 -0.2246E-30
     -4.587 -0.4639E-27 -0.2843E-28
     -4.526 -0.4865E-25 -0.2986E-26
     -4.465 -0.4232E-23 -0.2603E-24
     -4.404 -0.3054E-21 -0.1883E-22
     -4.344 -0.1828E-19 -0.1130E-20
     -4.283 -0.9067E-18 -0.5625E-19
     -4.222 -0.3727E-16 -0.2323E-17
     -4.161 -0.1231E-14 -0.7718E-16
     -4.100 -0.3460E-13 -0.2181E-14
     -4.040 -0.8042E-12 -0.5107E-13
     -3.979 -0.1544E-10 -0.9899E-12
     -3.918 -0.2447E-09 -0.1587E-10
     -3.857 -0.3197E-08 -0.2102E-09
     -3.796 -0.3435E-07 -0.2299E-08
     -3.736 -0.3030E-06 -0.2072E-07
     -3.675 -0.2186E-05 -0.1537E-06
     -3.614 -0.1284E-04 -0.9346E-06
     -3.553 -0.6101E-04 -0.4644E-05
     -3.492 -0.2316E-03 -0.1873E-04
     -3.432 -0.6890E-03 -0.6062E-04
     -3.371 -0.1541E-02 -0.1543E-03
     -3.310 -0.2315E-02 -0.2951E-03
     -3.249 -0.1208E-02 -0.3685E-03
     -3.188  0.4717E-02 -0.8171E-04
     -3.128  0.1701E-01  0.9527E-03
     -3.067  0.3236E-01  0.2920E-02
     -3.006  0.4272E-01  0.5518E-02
     -2.945  0.4138E-01  0.8034E-02
     -2.884  0.2925E-01  0.9813E-02
     -2.824  0.1398E-01  0.1066E-01
     -2.763  0.2946E-02  0.1084E-01
     -2.702 -0.1737E-02  0.1074E-01
     -2.641 -0.2224E-02  0.1060E-01
     -2.580 -0.1338E-02  0.1052E-01
     -2.520 -0.5603E-03  0.1049E-01
     -2.459 -0.1785E-03  0.1047E-01
     -2.398 -0.4481E-04  0.1047E-01
     -2.337 -0.9017E-05  0.1047E-01
     -2.276 -0.1469E-05  0.1047E-01
     -2.216 -0.1952E-06  0.1047E-01
     -2.155 -0.2123E-07  0.1047E-01
     -2.094 -0.1896E-08  0.1047E-01
     -2.033 -0.1393E-09  0.1047E-01
     -1.972 -0.8445E-11  0.1047E-01
     -1.912 -0.4229E-12  0.1047E-01
     -1.851 -0.3100E-13  0.1047E-01
     -1.790 -0.3688E-12  0.1047E-01
     -1.729 -0.8272E-11  0.1047E-01
     -1.668 -0.1535E-09  0.1047E-01
     -1.608 -0.2351E-08  0.1047E-01
     -1.547 -0.2967E-07  0.1047E-01
     -1.486 -0.3079E-06  0.1047E-01
     -1.425 -0.2622E-05  0.1047E-01
     -1.364 -0.1824E-04  0.1047E-01
     -1.304 -0.1033E-03  0.1046E-01
     -1.243 -0.4718E-03  0.1043E-01
     -1.182 -0.1718E-02  0.1033E-01
     -1.121 -0.4879E-02  0.1003E-01
     -1.060 -0.1029E-01  0.9408E-02
     -1.000 -0.1399E-01  0.8557E-02
     -0.939 -0.3546E-02  0.8342E-02
     -0.878  0.3871E-01  0.1070E-01
     -0.817  0.1182E+00  0.1788E-01
     -0.756  0.2089E+00  0.3059E-01
     -0.696  0.2606E+00  0.4643E-01
     -0.635  0.2391E+00  0.6097E-01
     -0.574  0.1591E+00  0.7064E-01
     -0.513  0.6943E-01  0.7486E-01
     -0.452  0.1005E-01  0.7547E-01
     -0.392 -0.1223E-01  0.7473E-01
     -0.331 -0.1262E-01  0.7396E-01
     -0.270 -0.7034E-02  0.7354E-01
     -0.209 -0.2795E-02  0.7337E-01
     -0.148 -0.8521E-03  0.7331E-01
     -0.088 -0.2054E-03  0.7330E-01
     -0.027 -0.3979E-04  0.7330E-01
      0.034 -0.6251E-05  0.7330E-01
      0.095 -0.8011E-06  0.7330E-01
      0.156 -0.8411E-07  0.7330E-01
      0.216 -0.7255E-08  0.7330E-01
      0.277 -0.5152E-09  0.7330E-01
      0.338 -0.3018E-10  0.7330E-01
      0.399 -0.1473E-11  0.7330E-01
      0.460 -0.4411E-12  0.7330E-01
      0.520 -0.8940E-11  0.7330E-01
      0.581 -0.1725E-09  0.7330E-01
      0.642 -0.2746E-08  0.7330E-01
      0.703 -0.3605E-07  0.7330E-01
      0.764 -0.3893E-06  0.7330E-01
      0.824 -0.3451E-05  0.7330E-01
      0.885 -0.2503E-04  0.7330E-01
      0.946 -0.1478E-03  0.7329E-01
      1.007 -0.7059E-03  0.7324E-01
      1.068 -0.2696E-02  0.7308E-01
      1.128 -0.8071E-02  0.7259E-01
      1.189 -0.1820E-01  0.7148E-01
      1.250 -0.2769E-01  0.6980E-01
      1.311 -0.1538E-01  0.6887E-01
      1.372  0.5386E-01  0.7214E-01
      1.432  0.1997E+00  0.8428E-01
      1.493  0.3840E+00  0.1076E+00
      1.554  0.5111E+00  0.1387E+00
      1.615  0.4989E+00  0.1690E+00
      1.676  0.3556E+00  0.1907E+00
      1.736  0.1720E+00  0.2011E+00
      1.797  0.3770E-01  0.2034E+00
      1.858 -0.2021E-01  0.2022E+00
      1.919 -0.2686E-01  0.2005E+00
      1.980 -0.1634E-01  0.1995E+00
      2.040 -0.6897E-02  0.1991E+00
      2.101 -0.2212E-02  0.1990E+00
      2.162 -0.5583E-03  0.1990E+00
      2.223 -0.1129E-03  0.1990E+00
      2.284 -0.1850E-04  0.1990E+00
      2.344 -0.2470E-05  0.1990E+00
      2.405 -0.2700E-06  0.1990E+00
      2.466 -0.2423E-07  0.1990E+00
      2.527 -0.1790E-08  0.1990E+00
      2.588 -0.1101E-09  0.1990E+00
      2.648 -0.2819E-10  0.1990E+00
      2.709 -0.3850E-09  0.1990E+00
      2.770 -0.5375E-08  0.1990E+00
      2.831 -0.6181E-07  0.1990E+00
      2.892 -0.5839E-06  0.1990E+00
      2.952 -0.4518E-05  0.1990E+00
      3.013 -0.2852E-04  0.1990E+00
      3.074 -0.1459E-03  0.1989E+00
      3.135 -0.5997E-03  0.1989E+00
      3.196 -0.1948E-02  0.1988E+00
      3.256 -0.4845E-02  0.1985E+00
      3.317 -0.8570E-02  0.1980E+00
      3.378 -0.8076E-02  0.1975E+00
      3.439  0.7171E-02  0.1979E+00
      3.500  0.4642E-01  0.2007E+00
      3.560  0.1036E+00  0.2070E+00
      3.621  0.1523E+00  0.2163E+00
      3.682  0.1656E+00  0.2264E+00
      3.743  0.1464E+00  0.2353E+00
      3.804  0.1277E+00  0.2430E+00
      3.864  0.1361E+00  0.2513E+00
      3.925  0.1599E+00  0.2610E+00
      3.986  0.1631E+00  0.2709E+00
      4.047  0.1274E+00  0.2787E+00
      4.108  0.6985E-01  0.2829E+00
      4.168  0.2088E-01  0.2842E+00
      4.229 -0.4069E-02  0.2840E+00
      4.290 -0.9388E-02  0.2834E+00
      4.351 -0.6498E-02  0.2830E+00
      4.412 -0.2980E-02  0.2828E+00
      4.472 -0.1023E-02  0.2827E+00
      4.533 -0.2747E-03  0.2827E+00
      4.594 -0.5909E-04  0.2827E+00
      4.655 -0.1205E-04  0.2827E+00
      4.716 -0.1392E-04  0.2827E+00
      4.776 -0.6829E-04  0.2827E+00
      4.837 -0.2997E-03  0.2827E+00
      4.898 -0.1048E-02  0.2826E+00
      4.959 -0.2839E-02  0.2825E+00
      5.020 -0.5637E-02  0.2821E+00
      5.080 -0.6844E-02  0.2817E+00
      5.141  0.5109E-03  0.2817E+00
      5.202  0.2501E-01  0.2833E+00
      5.263  0.6716E-01  0.2873E+00
      5.324  0.1110E+00  0.2941E+00
      5.384  0.1312E+00  0.3021E+00
      5.445  0.1142E+00  0.3090E+00
      5.506  0.7143E-01  0.3134E+00
      5.567  0.2821E-01  0.3151E+00
      5.628  0.1924E-02  0.3152E+00
      5.688 -0.6667E-02  0.3148E+00
      5.749 -0.5883E-02  0.3144E+00
      5.810 -0.3064E-02  0.3142E+00
      5.871 -0.1159E-02  0.3142E+00
      5.932 -0.3390E-03  0.3141E+00
      5.992 -0.7880E-04  0.3141E+00
      6.053 -0.1621E-04  0.3141E+00
      6.114 -0.1269E-04  0.3141E+00
      6.175 -0.5859E-04  0.3141E+00
      6.236 -0.2621E-03  0.3141E+00
      6.296 -0.9377E-03  0.3141E+00
      6.357 -0.2609E-02  0.3139E+00
      6.418 -0.5362E-02  0.3136E+00
      6.479 -0.6957E-02  0.3132E+00
      6.539 -0.8395E-03  0.3131E+00
      6.600  0.2175E-01  0.3144E+00
      6.661  0.6261E-01  0.3182E+00
      6.722  0.1074E+00  0.3248E+00
      6.783  0.1308E+00  0.3327E+00
      6.843  0.1173E+00  0.3398E+00
      6.904  0.7567E-01  0.3444E+00
      6.965  0.3037E-01  0.3463E+00
      7.026 -0.1284E-02  0.3462E+00
      7.087 -0.1914E-01  0.3450E+00
      7.147 -0.3016E-01  0.3432E+00
      7.208 -0.2949E-01  0.3414E+00
      7.269  0.9622E-02  0.3420E+00
      7.330  0.1195E+00  0.3493E+00
      7.391  0.2946E+00  0.3672E+00
      7.451  0.4630E+00  0.3953E+00
      7.512  0.5242E+00  0.4272E+00
      7.573  0.4371E+00  0.4538E+00
      7.634  0.2597E+00  0.4696E+00
      7.695  0.9353E-01  0.4753E+00
      7.755 -0.6961E-03  0.4752E+00
      7.816 -0.2765E-01  0.4735E+00
      7.877 -0.2208E-01  0.4722E+00
      7.938 -0.1123E-01  0.4715E+00
      7.999 -0.5240E-02  0.4712E+00
      8.059 -0.4973E-02  0.4709E+00
      8.120 -0.9068E-02  0.4703E+00
      8.181 -0.1379E-01  0.4695E+00
      8.242 -0.8500E-02  0.4690E+00
      8.303  0.2438E-01  0.4705E+00
      8.363  0.9560E-01  0.4763E+00
      8.424  0.1878E+00  0.4877E+00
      8.485  0.2539E+00  0.5031E+00
      8.546  0.2515E+00  0.5184E+00
      8.607  0.1822E+00  0.5295E+00
      8.667  0.9012E-01  0.5350E+00
      8.728  0.2119E-01  0.5363E+00
      8.789 -0.9446E-02  0.5357E+00
      8.850 -0.1358E-01  0.5349E+00
      8.911 -0.8457E-02  0.5343E+00
      8.971 -0.3680E-02  0.5341E+00
      9.032 -0.1503E-02  0.5340E+00
      9.093 -0.1732E-02  0.5339E+00
      9.154 -0.5049E-02  0.5336E+00
      9.215 -0.1355E-01  0.5328E+00
      9.275 -0.2718E-01  0.5311E+00
      9.336 -0.3431E-01  0.5291E+00
      9.397 -0.2341E-02  0.5289E+00
      9.458  0.1117E+00  0.5357E+00
      9.519  0.3172E+00  0.5550E+00
      9.579  0.5464E+00  0.5882E+00
      9.640  0.6758E+00  0.6293E+00
      9.701  0.6231E+00  0.6672E+00
      9.762  0.4231E+00  0.6929E+00
      9.823  0.1946E+00  0.7047E+00
      9.883  0.3752E-01  0.7070E+00
      9.944 -0.2661E-01  0.7054E+00
     10.005 -0.3220E-01  0.7034E+00
     10.066 -0.1926E-01  0.7023E+00
     10.127 -0.8136E-02  0.7018E+00
     10.187 -0.2637E-02  0.7016E+00
     10.248 -0.6781E-03  0.7016E+00
     10.309 -0.1407E-03  0.7016E+00
     10.370 -0.2377E-04  0.7016E+00
     10.431 -0.3405E-05  0.7016E+00
     10.491 -0.1454E-05  0.7016E+00
     10.552 -0.8080E-05  0.7016E+00
     10.613 -0.4884E-04  0.7016E+00
     10.674 -0.2401E-03  0.7016E+00
     10.735 -0.9457E-03  0.7015E+00
     10.795 -0.2932E-02  0.7013E+00
     10.856 -0.6898E-02  0.7009E+00
     10.917 -0.1123E-01  0.7002E+00
     10.978 -0.8170E-02  0.6997E+00
     11.039  0.1651E-01  0.7007E+00
     11.099  0.7301E-01  0.7052E+00
     11.160  0.1495E+00  0.7143E+00
     11.221  0.2084E+00  0.7269E+00
     11.282  0.2123E+00  0.7398E+00
     11.343  0.1586E+00  0.7495E+00
     11.403  0.8190E-01  0.7545E+00
     11.464  0.2170E-01  0.7558E+00
     11.525 -0.6618E-02  0.7554E+00
     11.586 -0.1149E-01  0.7547E+00
     11.647 -0.7494E-02  0.7542E+00
     11.707 -0.3309E-02  0.7540E+00
     11.768 -0.1101E-02  0.7539E+00
     11.829 -0.2876E-03  0.7539E+00
     11.890 -0.6006E-04  0.7539E+00
     11.951 -0.1015E-04  0.7539E+00
     12.011 -0.1396E-05  0.7539E+00
     12.072 -0.1572E-06  0.7539E+00
     12.133 -0.1453E-07  0.7539E+00
     12.194 -0.1105E-08  0.7539E+00
     12.255 -0.6930E-10  0.7539E+00
     12.315 -0.3587E-11  0.7539E+00
     12.376 -0.1535E-12  0.7539E+00
     12.437 -0.5392E-14  0.7539E+00
     12.498 -0.1912E-15  0.7539E+00
     12.559  0.0000E+00  0.7539E+00
     12.619  0.0000E+00  0.7539E+00
     12.680  0.0000E+00  0.7539E+00
     12.741  0.0000E+00  0.7539E+00
     12.802  0.0000E+00  0.7539E+00
     12.863  0.0000E+00  0.7539E+00
     12.923  0.0000E+00  0.7539E+00
     12.984  0.0000E+00  0.7539E+00
     13.045  0.0000E+00  0.7539E+00
     13.106  0.0000E+00  0.7539E+00
     13.167  0.0000E+00  0.7539E+00
     13.227  0.0000E+00  0.7539E+00
