Processors received = 32
script running on host compute-2-13.local
PBS_NODEFILE
compute-2-13
compute-2-13
compute-2-13
compute-2-13
compute-2-13
compute-2-13
compute-2-13
compute-2-13
compute-2-13
compute-2-13
compute-2-13
compute-2-13
compute-2-13
compute-2-13
compute-2-13
compute-2-13
compute-2-13
compute-2-13
compute-2-13
compute-2-13
compute-2-13
compute-2-13
compute-2-13
compute-2-13
compute-2-13
compute-2-13
compute-2-13
compute-2-13
compute-2-13
compute-2-13
compute-2-13
compute-2-13
 running on   32 nodes
 distr:  one band on    1 nodes,   32 groups
 vasp.5.2.2 15Apr09 complex 
 POSCAR found type information on POSCAR  Al
 POSCAR found :  1 types and   32 ions

 ----------------------------------------------------------------------------- 
|                                                                             |
|  ADVICE TO THIS USER RUNNING 'VASP/VAMP'   (HEAR YOUR MASTER'S VOICE ...):  |
|                                                                             |
|      You have a (more or less) 'large supercell' and for larger cells       |
|      it might be more efficient to use real space projection operators      |
|      So try LREAL= Auto  in the INCAR   file.                               |
|      Mind: If you want to do a very accurate calculations keep the          |
|      reciprocal projection scheme          (i.e. LREAL=.FALSE.)             |
|                                                                             |
 ----------------------------------------------------------------------------- 

 LDA part: xc-table for Pade appr. of Perdew
 POSCAR, INCAR and KPOINTS ok, starting setup
 FFT: planning ...(           1 )
 reading WAVECAR
 entering main loop
       N       E                     dE             d eps       ncg     rms          rms(c)
RMM:   1     0.152412443531E+03    0.15241E+03   -0.13926E+04    96   0.388E+02
RMM:   2    -0.526017607588E+02   -0.20501E+03   -0.18740E+03    96   0.768E+01
RMM:   3    -0.876717014673E+02   -0.35070E+02   -0.29184E+02    96   0.229E+01
RMM:   4    -0.999650622307E+02   -0.12293E+02   -0.66462E+01    96   0.120E+01
RMM:   5    -0.102789593347E+03   -0.28245E+01   -0.15333E+01    96   0.546E+00
RMM:   6    -0.103330423681E+03   -0.54083E+00   -0.32493E+00    96   0.249E+00
RMM:   7    -0.103417920381E+03   -0.87497E-01   -0.60111E-01    96   0.108E+00
RMM:   8    -0.103430715940E+03   -0.12796E-01   -0.10377E-01    96   0.458E-01
RMM:   9    -0.103433000065E+03   -0.22841E-02   -0.20739E-02   184   0.199E-01
RMM:  10    -0.103433121656E+03   -0.12159E-03   -0.10792E-03   158   0.490E-02
RMM:  11    -0.103433125117E+03   -0.34612E-05   -0.30125E-05   126   0.143E-02
RMM:  12    -0.103433125940E+03   -0.82273E-06   -0.81410E-06    95   0.804E-03    0.622E+00
RMM:  13    -0.102888520842E+03    0.54461E+00   -0.66222E-02   192   0.555E-01    0.387E+00
RMM:  14    -0.102478550236E+03    0.40997E+00   -0.22014E-01   192   0.949E-01    0.152E-01
RMM:  15    -0.102478601678E+03   -0.51442E-04   -0.17420E-03   192   0.109E-01    0.390E-02
RMM:  16    -0.102478600583E+03    0.10955E-05   -0.39400E-05   107   0.134E-02
   1 F= -.10247860E+03 E0= -.10236576E+03  d E =-.102479E+03
 curvature:   0.00 expect dE= 0.000E+00 dE for cont linesearch  0.000E+00
 trial: gam= 0.00000 g(F)=  0.312E-60 g(S)=  0.702E+00 ort = 0.000E+00 (trialstep = 0.100E+01)
 search vector abs. value=  0.702E+00
 bond charge predicted
       N       E                     dE             d eps       ncg     rms          rms(c)
RMM:   1    -0.102733688987E+03   -0.25509E+00   -0.39911E+00   192   0.401E+00    0.912E-01
RMM:   2    -0.102715459905E+03    0.18229E-01   -0.14107E-02   192   0.253E-01    0.576E-01
RMM:   3    -0.102702441273E+03    0.13019E-01   -0.51095E-03   192   0.128E-01    0.232E-02
RMM:   4    -0.102702453727E+03   -0.12454E-04   -0.15047E-04   115   0.293E-02
   2 F= -.10270245E+03 E0= -.10258962E+03  d E =-.223853E+00
 trial-energy change:   -0.223853  1 .order   -0.212323   -0.702417    0.277772
 step:   0.7305(harm=  0.7166)  dis= 0.00000  next Energy=  -102.739657 (dE=-0.261E+00)
 bond charge predicted
       N       E                     dE             d eps       ncg     rms          rms(c)
RMM:   1    -0.102742962558E+03   -0.40521E-01   -0.28344E-01   192   0.105E+00    0.239E-01
RMM:   2    -0.102741567162E+03    0.13954E-02   -0.85747E-04   169   0.618E-02    0.152E-01
RMM:   3    -0.102740516023E+03    0.10511E-02   -0.34443E-04   140   0.344E-02    0.676E-03
RMM:   4    -0.102740521237E+03   -0.52135E-05   -0.16045E-05    89   0.112E-02
   3 F= -.10274052E+03 E0= -.10262768E+03  d E =-.261921E+00
 curvature:  -0.36 expect dE=-0.129E-05 dE for cont linesearch -0.129E-05
 trial: gam= 0.00000 g(F)=  0.404E-60 g(S)=  0.361E-05 ort =-0.159E-02 (trialstep = 0.946E+00)
 search vector abs. value=  0.361E-05
 reached required accuracy - stopping structural energy minimisation
