/home/usitguest/MAST-structopt_VASP/MAST/structopt_stem/examples/STEM/Au309-rank0/LAMMPSFiles/rank-12/data_lammps000001wvl9nw (written by ASE) 

309 	 atoms 
1  atom types
0.0 500.00000000  xlo xhi
0.0 500.00000000  ylo yhi
0.0 500.00000000  zlo zhi


Atoms 

     1   1 258.82021646 259.09700000 270.04455667
     2   1 263.80825669 268.21000000 269.23191611
     3   1 264.47688108 256.43000000 253.99835627
     4   1 257.65782310 265.51800000 260.94106714
     5   1 265.35060197 256.01600000 260.17827535
     6   1 261.18060242 269.98400000 258.13615665
     7   1 265.50841185 269.59200000 260.32747669
     8   1 256.06480126 266.96800000 265.19223938
     9   1 260.26041019 256.86000000 264.24678831
    10   1 265.61128949 266.46700000 264.18801100
    11   1 254.82488100 267.22700000 255.09025019
    12   1 269.13673785 255.03700000 259.44670234
    13   1 266.92640570 265.37200000 253.58847925
    14   1 256.74298647 267.62400000 262.38090183
    15   1 263.53660984 261.93800000 270.68017092
    16   1 263.28901243 268.68200000 254.05144170
    17   1 258.71115635 269.76300000 261.93521102
    18   1 255.52477398 269.65700000 265.37015095
    19   1 257.75646851 267.99500000 259.96439213
    20   1 257.82362869 252.76800000 256.54487498
    21   1 263.41786608 255.19300000 256.20540775
    22   1 252.08763799 259.31800000 261.86696552
    23   1 255.10562618 261.61600000 258.58421100
    24   1 260.78764286 265.87700000 266.41746233
    25   1 258.74628171 260.87500000 265.13085841
    26   1 266.63943302 252.41900000 262.97812098
    27   1 266.79001204 261.14000000 260.79871120
    28   1 259.68518114 266.78700000 254.54424696
    29   1 255.51506229 266.47000000 259.65413392
    30   1 257.98145740 265.10700000 267.03168475
    31   1 259.33530681 268.08200000 257.73940345
    32   1 258.26086730 255.91100000 262.78903757
    33   1 256.26674922 256.09800000 258.01789105
    34   1 264.31948459 253.69300000 261.68136183
    35   1 266.37729182 262.40700000 266.85318988
    36   1 262.83439441 263.43900000 255.16326293
    37   1 266.06169512 265.65200000 260.41938224
    38   1 267.50151159 267.82600000 259.93681771
    39   1 269.69605827 262.47900000 255.27441212
    40   1 267.85502119 255.56200000 265.02727260
    41   1 254.31002481 268.19700000 263.29040037
    42   1 264.01119910 261.88900000 268.02237389
    43   1 260.96409295 271.13700000 260.57468257
    44   1 255.27560237 261.58800000 265.66143348
    45   1 269.99119839 257.62600000 258.30179091
    46   1 258.49857086 259.13100000 259.72773817
    47   1 260.28143377 263.99300000 254.66020732
    48   1 260.39154692 265.68000000 256.92434956
    49   1 266.58735540 266.79500000 256.92164965
    50   1 255.42310300 264.49500000 254.60281256
    51   1 260.59609177 261.10700000 254.30120824
    52   1 265.14384679 263.85900000 264.84861552
    53   1 267.80810559 256.44600000 261.35340979
    54   1 259.46285321 264.44100000 271.27097708
    55   1 255.23129175 269.02100000 260.57197284
    56   1 260.74679720 256.31600000 266.92381066
    57   1 268.00883079 258.28000000 256.39286170
    58   1 263.98981748 267.59800000 256.40073718
    59   1 264.24446906 266.30100000 252.90965905
    60   1 263.63814105 262.56000000 257.71528984
    61   1 263.11667424 258.41300000 260.27702702
    62   1 257.45734673 258.34700000 262.09881246
    63   1 264.63261544 253.48700000 264.55916343
    64   1 266.18742666 271.43600000 262.19854400
    65   1 261.67091736 263.73200000 269.81039133
    66   1 267.52490832 260.99300000 256.01804436
    67   1 271.22492080 261.83900000 261.65736672
    68   1 262.84233244 255.83600000 261.01547781
    69   1 255.63014244 265.64500000 257.08167857
    70   1 255.09766762 262.93200000 268.11980860
    71   1 256.91416658 259.77200000 266.78852368
    72   1 253.85898104 264.12400000 258.61882146
    73   1 258.93723158 263.45800000 257.64129579
    74   1 266.53846131 254.53000000 258.09338826
    75   1 261.12451674 258.54500000 268.55569361
    76   1 258.58639285 257.80000000 267.55325651
    77   1 260.76724659 254.32400000 265.00283517
    78   1 258.77339557 254.97100000 257.82628704
    79   1 261.49613527 260.15800000 261.48296170
    80   1 270.68390432 256.88100000 260.88567626
    81   1 261.02776643 268.09000000 268.83037047
    82   1 265.03221549 258.10600000 258.44206797
    83   1 257.89029068 258.25600000 264.80956670
    84   1 258.20781091 260.96600000 252.79456179
    85   1 262.34789812 254.05200000 253.98364166
    86   1 265.81555301 256.52500000 256.45246517
    87   1 260.37382000 258.71800000 253.10252385
    88   1 270.21860566 263.92000000 260.17848239
    89   1 264.92671628 265.27600000 255.38273097
    90   1 261.78734605 266.26100000 270.88594065
    91   1 269.56294356 256.91300000 263.36384897
    92   1 260.07243953 265.89700000 259.83174504
    93   1 263.05931004 267.57700000 263.85655678
    94   1 257.99137411 268.74000000 264.43049528
    95   1 257.97598046 264.94500000 255.64166851
    96   1 262.19211944 257.87300000 262.75065016
    97   1 263.73552010 271.65000000 260.71201644
    98   1 256.21561617 270.28200000 262.82782976
    99   1 256.51644189 265.17100000 263.27841370
   100   1 257.94967677 265.89500000 258.23263707
   101   1 262.03951822 267.30300000 258.51645214
   102   1 262.18701299 252.83900000 263.14784397
   103   1 261.06157410 262.08800000 256.74660375
   104   1 254.73598937 258.68100000 262.37734277
   105   1 265.12279072 270.11300000 255.63818118
   106   1 265.14399828 267.04400000 267.08261753
   107   1 264.74379783 267.35300000 258.92630061
   108   1 260.54589388 268.05600000 264.80875278
   109   1 267.55541337 263.56400000 260.01388651
   110   1 268.98119951 262.89400000 257.82970271
   111   1 262.29853094 260.09500000 264.15338698
   112   1 258.77340427 254.03300000 260.79968947
   113   1 253.85907798 259.51700000 259.79762255
   114   1 267.27648081 259.72200000 258.54912966
   115   1 267.32889247 262.66700000 253.83439265
   116   1 258.62225279 266.11200000 264.68289990
   117   1 269.86615538 264.03800000 265.86443762
   118   1 256.72845593 253.62600000 259.03248058
   119   1 271.54411107 262.03300000 258.68497129
   120   1 254.19483193 254.97700000 259.52025043
   121   1 270.07030881 261.56300000 264.17569656
   122   1 262.48958596 270.08100000 264.89463119
   123   1 261.39648295 268.27300000 256.03403020
   124   1 258.31534133 259.34100000 254.88830060
   125   1 254.54627055 260.22700000 267.96030540
   126   1 261.20940717 265.61300000 263.77919797
   127   1 262.69238731 265.96200000 268.34449258
   128   1 256.31095925 268.25200000 267.57815519
   129   1 258.72938298 261.00800000 261.60063399
   130   1 262.88635788 269.08300000 260.36813342
   131   1 262.69964104 272.22300000 258.26369363
   132   1 252.54049762 257.16200000 260.25194163
   133   1 259.41545034 267.12100000 262.33250937
   134   1 261.82179591 256.69600000 254.37717116
   135   1 263.04746757 260.80900000 255.41973483
   136   1 265.49984884 271.78000000 258.57306435
   137   1 259.81619280 259.31400000 263.31902115
   138   1 260.17821541 262.71400000 252.16487368
   139   1 256.45318201 263.91100000 259.24712976
   140   1 255.92112107 261.80500000 254.27524731
   141   1 265.18215688 260.95200000 253.62565524
   142   1 259.39852935 261.82300000 270.27009425
   143   1 258.44390293 262.11000000 255.38906493
   144   1 257.53726339 263.75800000 269.37952028
   145   1 269.75446377 260.25200000 257.46608838
   146   1 265.00004679 268.98100000 265.16223242
   147   1 262.38692266 263.41000000 264.63050007
   148   1 273.22858733 259.93000000 261.76332162
   149   1 264.30589760 257.40900000 267.47474921
   150   1 265.57617486 259.84500000 267.41496885
   151   1 265.92667782 267.77500000 254.47240525
   152   1 260.53142588 262.02000000 263.29353310
   153   1 251.64631945 259.00400000 258.35199995
   154   1 256.59604241 260.57700000 263.43491532
   155   1 257.74979695 263.63600000 253.27577818
   156   1 253.54017602 257.85300000 266.93582173
   157   1 262.17898237 264.48400000 252.66262520
   158   1 261.97153845 266.77200000 261.48076787
   159   1 261.59428684 261.25700000 268.73629274
   160   1 261.50896267 253.95000000 257.69697498
   161   1 255.41655936 257.22600000 260.36220890
   162   1 260.43406870 258.92200000 265.92641110
   163   1 252.74028566 260.30800000 265.90820098
   164   1 258.61789781 270.42400000 259.15768985
   165   1 254.94440397 263.05600000 263.46400939
   166   1 259.24889216 260.50100000 267.78950143
   167   1 265.49269965 264.62800000 258.06265481
   168   1 263.16604344 258.93600000 253.55648450
   169   1 260.33890949 261.18300000 259.30648438
   170   1 266.99958776 257.86400000 266.30778290
   171   1 257.98981579 256.49500000 260.00588969
   172   1 260.98934238 258.91800000 255.83031091
   173   1 253.15262386 265.11200000 256.07511874
   174   1 266.19725837 255.09400000 262.95795716
   175   1 260.79738439 258.29900000 258.77746854
   176   1 264.74546038 263.62600000 253.23049810
   177   1 266.68357929 268.59500000 262.70657704
   178   1 261.68628873 253.34400000 260.42160329
   179   1 253.70719171 260.80000000 263.47283187
   180   1 252.46053493 261.65600000 258.49723825
   181   1 255.63120521 264.33000000 265.81628702
   182   1 266.51709265 264.34100000 262.61756469
   183   1 259.55789300 265.37300000 252.26048281
   184   1 257.44925600 267.53300000 255.89579710
   185   1 262.48054550 270.76600000 255.82881229
   186   1 257.17001044 255.28700000 255.61764082
   187   1 263.35507332 265.64100000 265.61093533
   188   1 262.21464842 263.66000000 267.19828250
   189   1 260.71286433 255.04700000 262.32236365
   190   1 256.93906941 261.05300000 269.21755741
   191   1 270.50228452 264.24300000 263.09704648
   192   1 264.15635048 264.72100000 270.25656079
   193   1 253.53909858 267.16100000 257.89901301
   194   1 267.03274616 265.12900000 266.34042521
   195   1 258.44797982 257.64000000 257.36787174
   196   1 268.35081579 265.70600000 264.09070401
   197   1 269.24838665 259.02600000 265.05524926
   198   1 255.11161396 258.99100000 265.02482387
   199   1 262.54322675 260.05900000 257.96109395
   200   1 268.80674166 258.76700000 260.54148246
   201   1 268.93313736 261.42100000 266.66224860
   202   1 265.14629563 256.24500000 265.12401887
   203   1 262.90912983 259.66700000 266.82116770
   204   1 263.95316124 254.03300000 258.95449252
   205   1 262.72735266 261.77900000 252.84312456
   206   1 253.78684191 256.05900000 262.33553250
   207   1 257.47179348 262.44800000 266.92463480
   208   1 260.60217163 255.69700000 259.57162028
   209   1 261.35555999 259.92100000 271.03159022
   210   1 266.52980813 269.30600000 257.82137700
   211   1 256.19901172 260.32600000 260.79220693
   212   1 253.91824013 257.34200000 257.94509648
   213   1 258.90610408 267.70900000 266.99566371
   214   1 263.78156380 264.95200000 262.71687678
   215   1 259.11129568 264.29000000 262.76732190
   216   1 262.64491178 262.07400000 260.09042534
   217   1 265.11200403 260.20000000 256.88256844
   218   1 270.65680685 259.28000000 262.53064304
   219   1 258.28607362 255.65600000 265.60747200
   220   1 264.55750480 267.35700000 261.66566531
   221   1 271.30866023 259.52400000 259.82267200
   222   1 252.75368311 258.03900000 264.18481666
   223   1 264.28576930 259.81000000 262.24231929
   224   1 260.86722839 256.42900000 256.86075604
   225   1 261.32603522 263.84900000 258.73794258
   226   1 268.59724043 265.70100000 261.40501604
   227   1 257.13779012 266.34500000 253.43759796
   228   1 263.29091644 262.19500000 262.59685107
   229   1 264.99799149 263.12500000 260.65682614
   230   1 256.83712663 262.87300000 261.64362127
   231   1 265.80964923 258.67300000 254.80845630
   232   1 256.57024399 260.52800000 256.53207682
   233   1 253.00720382 263.04500000 265.34514086
   234   1 266.69527734 263.73700000 251.33618272
   235   1 263.40593507 265.15600000 259.91579555
   236   1 264.23360081 261.47200000 265.35465530
   237   1 267.42621292 257.03000000 258.75932075
   238   1 266.92819171 253.84500000 260.65788728
   239   1 264.74658963 264.39600000 267.55971119
   240   1 262.95939856 256.49100000 258.45402500
   241   1 264.66699438 257.17400000 262.53660562
   242   1 252.43321918 263.53700000 262.66620681
   243   1 261.33876214 269.23500000 262.55976191
   244   1 256.13900590 257.04700000 266.60033514
   245   1 255.92372323 256.66600000 263.84165840
   246   1 262.62820492 257.44900000 265.35040831
   247   1 254.66833080 264.63100000 261.32525564
   248   1 257.67775002 261.54200000 258.95929094
   249   1 261.57238356 267.21600000 252.50445162
   250   1 266.92287022 260.39100000 265.14508414
   251   1 256.08741554 257.90000000 255.92666069
   252   1 254.07870105 261.99500000 261.03450359
   253   1 261.26908735 262.47500000 272.18648090
   254   1 262.29999828 266.05900000 254.84618128
   255   1 253.97394168 259.81000000 256.92436667
   256   1 257.43391711 262.95600000 264.31798439
   257   1 257.48109735 266.54300000 269.35284864
   258   1 262.98894700 255.39900000 263.67066691
   259   1 266.04226700 262.86000000 269.53896488
   260   1 268.12167280 260.09300000 262.79101078
   261   1 261.14666997 261.52100000 266.08271984
   262   1 256.02547081 268.46900000 257.92238332
   263   1 261.48845469 264.02900000 261.54615196
   264   1 269.23831987 261.30400000 259.93143226
   265   1 260.31877086 268.51400000 260.19945943
   266   1 260.02971981 257.58500000 261.33729180
   267   1 253.89225572 262.46700000 256.20746193
   268   1 268.83226705 254.29800000 262.63911672
   269   1 267.00245059 257.82700000 263.59198435
   270   1 259.16696616 260.21000000 257.22218838
   271   1 267.44077068 264.26600000 256.12593717
   272   1 267.74588388 263.00600000 264.66433315
   273   1 259.94927320 265.63500000 268.90279537
   274   1 263.10484786 254.96500000 266.41501693
   275   1 259.84371974 270.73000000 264.31745706
   276   1 268.36210441 265.57200000 258.53131389
   277   1 264.64501884 260.50600000 259.53717516
   278   1 268.60083592 262.64800000 262.19282126
   279   1 259.75340904 263.67900000 265.34534274
   280   1 256.17095694 254.88600000 261.46257171
   281   1 256.17875409 258.87900000 258.48457923
   282   1 256.29230073 258.35000000 269.03573258
   283   1 259.48643391 252.46900000 258.73779696
   284   1 266.55224138 265.65400000 269.08881477
   285   1 265.86419776 261.80000000 263.16213265
   286   1 266.34313218 262.16000000 258.19453928
   287   1 256.00478351 291.00800000 276.34277192
   288   1 260.66066943 269.91900000 266.86710080
   289   1 264.75673585 258.89800000 264.77852187
   290   1 251.11840007 261.31600000 263.77833123
   291   1 251.32698923 261.72900000 260.96359490
   292   1 257.96681028 270.32500000 266.59806572
   293   1 263.03673572 265.18700000 257.24852263
   294   1 263.83257571 269.72900000 258.00193799
   295   1 262.10069204 271.87300000 262.92893372
   296   1 259.17305310 256.85500000 254.80119417
   297   1 253.90554509 265.52400000 263.98008519
   298   1 259.14465324 263.37200000 260.29096242
   299   1 265.34709593 262.63500000 255.71266725
   300   1 259.76847319 263.15300000 267.96156407
   301   1 259.94926065 254.29900000 255.42318440
   302   1 263.64122400 259.46400000 269.41430328
   303   1 263.65601926 270.30100000 267.37892049
   304   1 256.39576438 263.13000000 256.75125452
   305   1 264.06637453 269.81700000 262.70863993
   306   1 266.17555414 258.54800000 260.84372776
   307   1 262.59704018 267.98000000 266.57756957
   308   1 263.47686986 258.02500000 256.20248298
   309   1 268.37075151 263.67400000 268.21933279
