ITEM: TIMESTEP
2
ITEM: NUMBER OF ATOMS
309
ITEM: BOX BOUNDS pp pp pp
0 500
0 500
0 500
ITEM: ATOMS id type x y z c_pea 
1 1 258.82 259.097 270.045 -1.79664 
2 1 263.808 268.21 269.232 -1.5234 
3 1 264.477 256.43 253.998 -1.60066 
4 1 257.658 265.518 260.941 -2.96122 
5 1 265.351 256.016 260.178 -3.03731 
6 1 261.181 269.984 258.136 -2.38671 
7 1 265.508 269.592 260.327 -2.56162 
8 1 256.065 266.968 265.192 -2.44229 
9 1 260.26 256.86 264.247 -2.86799 
10 1 265.611 266.467 264.188 -2.84881 
11 1 254.825 267.227 255.09 -1.48616 
12 1 269.137 255.037 259.447 -1.62207 
13 1 266.926 265.372 253.588 -1.76921 
14 1 256.743 267.624 262.381 -2.68896 
15 1 263.537 261.938 270.68 -1.94193 
16 1 263.289 268.682 254.051 -1.93141 
17 1 258.711 269.763 261.935 -2.50749 
18 1 255.525 269.657 265.37 -1.47845 
19 1 257.756 267.995 259.964 -2.77698 
20 1 257.824 252.768 256.545 -1.26025 
21 1 263.418 255.193 256.205 -2.23158 
22 1 252.088 259.318 261.867 -1.9787 
23 1 255.106 261.616 258.584 -2.9219 
24 1 260.788 265.877 266.417 -3.1144 
25 1 258.746 260.875 265.131 -3.04615 
26 1 266.639 252.419 262.978 -1.23424 
27 1 266.79 261.14 260.799 -2.81903 
28 1 259.685 266.787 254.544 -2.37542 
29 1 255.515 266.47 259.654 -2.53486 
30 1 257.981 265.107 267.032 -2.82857 
31 1 259.335 268.082 257.739 -2.59814 
32 1 258.261 255.911 262.789 -2.49941 
33 1 256.267 256.098 258.018 -2.4737 
34 1 264.319 253.693 261.681 -2.38239 
35 1 266.377 262.407 266.853 -2.72042 
36 1 262.834 263.439 255.163 -3.03237 
37 1 266.062 265.652 260.419 -2.59571 
38 1 267.502 267.826 259.937 -1.95345 
39 1 269.696 262.479 255.274 -1.25662 
40 1 267.855 255.562 265.027 -1.66971 
41 1 254.31 268.197 263.29 -1.56422 
42 1 264.011 261.889 268.022 -2.65804 
43 1 260.964 271.137 260.575 -2.17342 
44 1 255.276 261.588 265.661 -2.94877 
45 1 269.991 257.626 258.302 -1.82375 
46 1 258.499 259.131 259.728 -3.02788 
47 1 260.281 263.993 254.66 -3.11646 
48 1 260.392 265.68 256.924 -3.2297 
49 1 266.587 266.795 256.922 -2.30501 
50 1 255.423 264.495 254.603 -2.17154 
51 1 260.596 261.107 254.301 -2.69196 
52 1 265.144 263.859 264.849 -3.03193 
53 1 267.808 256.446 261.353 -2.77344 
54 1 259.463 264.441 271.271 -1.61576 
55 1 255.231 269.021 260.572 -1.64466 
56 1 260.747 256.316 266.924 -2.10286 
57 1 268.009 258.28 256.393 -1.94946 
58 1 263.99 267.598 256.401 -2.90333 
59 1 264.244 266.301 252.91 -2.02067 
60 1 263.638 262.56 257.715 -3.27827 
61 1 263.117 258.413 260.277 -3.10286 
62 1 257.457 258.347 262.099 -3.17609 
63 1 264.633 253.487 264.559 -1.74977 
64 1 266.187 271.436 262.199 -1.14218 
65 1 261.671 263.732 269.81 -2.70155 
66 1 267.525 260.993 256.018 -2.57883 
67 1 271.225 261.839 261.657 -2.12463 
68 1 262.842 255.836 261.015 -2.90033 
69 1 255.63 265.645 257.082 -2.76097 
70 1 255.098 262.932 268.12 -1.74002 
71 1 256.914 259.772 266.789 -2.83537 
72 1 253.859 264.124 258.619 -2.39371 
73 1 258.937 263.458 257.641 -3.0766 
74 1 266.538 254.53 258.093 -1.64643 
75 1 261.125 258.545 268.556 -2.40586 
76 1 258.586 257.8 267.553 -2.46359 
77 1 260.767 254.324 265.003 -1.87497 
78 1 258.773 254.971 257.826 -2.78869 
79 1 261.496 260.158 261.483 -3.11718 
80 1 270.684 256.881 260.886 -1.76365 
81 1 261.028 268.09 268.83 -1.97532 
82 1 265.032 258.106 258.442 -2.82916 
83 1 257.89 258.256 264.81 -3.14085 
84 1 258.208 260.966 252.795 -1.6816 
85 1 262.348 254.052 253.984 -1.02635 
86 1 265.816 256.525 256.452 -2.1742 
87 1 260.374 258.718 253.103 -1.77956 
88 1 270.219 263.92 260.178 -2.09896 
89 1 264.927 265.276 255.383 -2.97729 
90 1 261.787 266.261 270.886 -1.61646 
91 1 269.563 256.913 263.364 -1.94124 
92 1 260.072 265.897 259.832 -3.18159 
93 1 263.059 267.577 263.857 -3.08774 
94 1 257.991 268.74 264.43 -2.7171 
95 1 257.976 264.945 255.642 -2.96112 
96 1 262.192 257.873 262.751 -2.97334 
97 1 263.736 271.65 260.712 -2.04731 
98 1 256.216 270.282 262.828 -1.56633 
99 1 256.516 265.171 263.278 -2.80912 
100 1 257.95 265.895 258.233 -3.02796 
101 1 262.04 267.303 258.516 -3.26826 
102 1 262.187 252.839 263.148 -1.59765 
103 1 261.062 262.088 256.747 -3.15586 
104 1 254.736 258.681 262.377 -2.79174 
105 1 265.123 270.113 255.638 -1.6258 
106 1 265.144 267.044 267.083 -2.32514 
107 1 264.744 267.353 258.926 -3.07427 
108 1 260.546 268.056 264.809 -3.09532 
109 1 267.555 263.564 260.014 -2.73476 
110 1 268.981 262.894 257.83 -2.45288 
111 1 262.299 260.095 264.153 -3.26514 
112 1 258.773 254.033 260.8 -2.16381 
113 1 253.859 259.517 259.798 -2.92275 
114 1 267.276 259.722 258.549 -3.10266 
115 1 267.329 262.667 253.834 -1.95801 
116 1 258.622 266.112 264.683 -3.08392 
117 1 269.866 264.038 265.864 -1.60536 
118 1 256.728 253.626 259.032 -1.8156 
119 1 271.544 262.033 258.685 -1.51662 
120 1 254.195 254.977 259.52 -1.64206 
121 1 270.07 261.563 264.176 -2.23267 
122 1 262.49 270.081 264.895 -2.35228 
123 1 261.396 268.273 256.034 -2.44904 
124 1 258.315 259.341 254.888 -2.41675 
125 1 254.546 260.227 267.96 -1.91837 
126 1 261.209 265.613 263.779 -3.22616 
127 1 262.692 265.962 268.344 -2.79425 
128 1 256.311 268.252 267.578 -1.41404 
129 1 258.729 261.008 261.601 -3.14471 
130 1 262.886 269.083 260.368 -2.98763 
131 1 262.7 272.223 258.264 -1.47503 
132 1 252.54 257.162 260.252 -1.77474 
133 1 259.415 267.121 262.333 -3.32263 
134 1 261.822 256.696 254.377 -2.2624 
135 1 263.047 260.809 255.42 -2.95416 
136 1 265.5 271.78 258.573 -1.42437 
137 1 259.816 259.314 263.319 -2.9798 
138 1 260.178 262.714 252.165 -1.80651 
139 1 256.453 263.911 259.247 -3.014 
140 1 255.921 261.805 254.275 -1.90953 
141 1 265.182 260.952 253.626 -2.04217 
142 1 259.399 261.823 270.27 -2.40546 
143 1 258.444 262.11 255.389 -2.97475 
144 1 257.537 263.758 269.38 -2.17775 
145 1 269.754 260.252 257.466 -2.20423 
146 1 265 268.981 265.162 -2.06424 
147 1 262.387 263.41 264.631 -2.88274 
148 1 273.229 259.93 261.763 -0.858279 
149 1 264.306 257.409 267.475 -2.02784 
150 1 265.576 259.845 267.415 -2.30369 
151 1 265.927 267.775 254.472 -1.79326 
152 1 260.531 262.02 263.294 -3.25388 
153 1 251.646 259.004 258.352 -1.36969 
154 1 256.596 260.577 263.435 -3.25503 
155 1 257.75 263.636 253.276 -2.21637 
156 1 253.54 257.853 266.936 -1.3911 
157 1 262.179 264.484 252.663 -2.24467 
158 1 261.972 266.772 261.481 -3.16834 
159 1 261.594 261.257 268.736 -2.90918 
160 1 261.509 253.95 257.697 -2.22752 
161 1 255.417 257.226 260.362 -2.81649 
162 1 260.434 258.922 265.926 -3.12874 
163 1 252.74 260.308 265.908 -1.92419 
164 1 258.618 270.424 259.158 -1.71489 
165 1 254.944 263.056 263.464 -2.71164 
166 1 259.249 260.501 267.79 -3.02912 
167 1 265.493 264.628 258.063 -3.08393 
168 1 263.166 258.936 253.556 -2.15892 
169 1 260.339 261.183 259.306 -3.05324 
170 1 267 257.864 266.308 -2.00599 
171 1 257.99 256.495 260.006 -3.05702 
172 1 260.989 258.918 255.83 -3.08093 
173 1 253.153 265.112 256.075 -1.50191 
174 1 266.197 255.094 262.958 -2.6034 
175 1 260.797 258.299 258.777 -3.07079 
176 1 264.745 263.626 253.23 -2.42949 
177 1 266.684 268.595 262.707 -1.92275 
178 1 261.686 253.344 260.422 -2.17683 
179 1 253.707 260.8 263.473 -2.70683 
180 1 252.461 261.656 258.497 -1.91401 
181 1 255.631 264.33 265.816 -2.58541 
182 1 266.517 264.341 262.618 -2.943 
183 1 259.558 265.373 252.26 -1.74452 
184 1 257.449 267.533 255.896 -2.07619 
185 1 262.481 270.766 255.829 -1.57181 
186 1 257.17 255.287 255.618 -1.66142 
187 1 263.355 265.641 265.611 -3.01904 
188 1 262.215 263.66 267.198 -2.87054 
189 1 260.713 255.047 262.322 -2.59653 
190 1 256.939 261.053 269.218 -2.2505 
191 1 270.502 264.243 263.097 -1.74776 
192 1 264.156 264.721 270.257 -1.92685 
193 1 253.539 267.161 257.899 -1.43557 
194 1 267.033 265.129 266.34 -2.43484 
195 1 258.448 257.64 257.368 -3.14455 
196 1 268.351 265.706 264.091 -1.96594 
197 1 269.248 259.026 265.055 -1.99291 
198 1 255.112 258.991 265.025 -2.77565 
199 1 262.543 260.059 257.961 -3.2 
200 1 268.807 258.767 260.541 -2.81952 
201 1 268.933 261.421 266.662 -1.82505 
202 1 265.146 256.245 265.124 -2.63723 
203 1 262.909 259.667 266.821 -3.00891 
204 1 263.953 254.033 258.954 -2.12832 
205 1 262.727 261.779 252.843 -2.08488 
206 1 253.787 256.059 262.336 -1.73603 
207 1 257.472 262.448 266.925 -2.94848 
208 1 260.602 255.697 259.572 -2.94887 
209 1 261.356 259.921 271.032 -1.68523 
210 1 266.53 269.306 257.821 -1.87246 
211 1 256.199 260.326 260.792 -3.08 
212 1 253.918 257.342 257.945 -2.06413 
213 1 258.906 267.709 266.996 -2.72834 
214 1 263.782 264.952 262.717 -3.40807 
215 1 259.111 264.29 262.767 -3.06853 
216 1 262.645 262.074 260.09 -2.65288 
217 1 265.112 260.2 256.883 -2.92424 
218 1 270.657 259.28 262.531 -2.22509 
219 1 258.286 255.656 265.607 -1.95657 
220 1 264.558 267.357 261.666 -2.89577 
221 1 271.309 259.524 259.823 -2.06408 
222 1 252.754 258.039 264.185 -1.82733 
223 1 264.286 259.81 262.242 -3.09196 
224 1 260.867 256.429 256.861 -2.86944 
225 1 261.326 263.849 258.738 -2.97856 
226 1 268.597 265.701 261.405 -2.2054 
227 1 257.138 266.345 253.438 -1.70976 
228 1 263.291 262.195 262.597 -2.9265 
229 1 264.998 263.125 260.657 -3.21452 
230 1 256.837 262.873 261.644 -3.22038 
231 1 265.81 258.673 254.808 -2.02938 
232 1 256.57 260.528 256.532 -2.63474 
233 1 253.007 263.045 265.345 -1.93826 
234 1 266.695 263.737 251.336 -0.873101 
235 1 263.406 265.156 259.916 -3.23835 
236 1 264.234 261.472 265.355 -3.12497 
237 1 267.426 257.03 258.759 -2.67325 
238 1 266.928 253.845 260.658 -2.01921 
239 1 264.747 264.396 267.56 -2.80033 
240 1 262.959 256.491 258.454 -2.8188 
241 1 264.667 257.174 262.537 -2.91608 
242 1 252.433 263.537 262.666 -1.89798 
243 1 261.339 269.235 262.56 -3.01715 
244 1 256.139 257.047 266.6 -2.00248 
245 1 255.924 256.666 263.842 -2.33917 
246 1 262.628 257.449 265.35 -2.87723 
247 1 254.668 264.631 261.325 -2.52705 
248 1 257.678 261.542 258.959 -3.08616 
249 1 261.572 267.216 252.504 -1.55545 
250 1 266.923 260.391 265.145 -2.77173 
251 1 256.087 257.9 255.927 -2.07887 
252 1 254.079 261.995 261.035 -2.88438 
253 1 261.269 262.475 272.186 -1.34616 
254 1 262.3 266.059 254.846 -2.93584 
255 1 253.974 259.81 256.924 -2.16061 
256 1 257.434 262.956 264.318 -2.83868 
257 1 257.481 266.543 269.353 -1.43755 
258 1 262.989 255.399 263.671 -2.90383 
259 1 266.042 262.86 269.539 -1.81194 
260 1 268.122 260.093 262.791 -2.80806 
261 1 261.147 261.521 266.083 -3.11499 
262 1 256.025 268.469 257.922 -1.8996 
263 1 261.488 264.029 261.546 -3.25905 
264 1 269.238 261.304 259.931 -2.82825 
265 1 260.319 268.514 260.199 -2.83953 
266 1 260.03 257.585 261.337 -3.06276 
267 1 253.892 262.467 256.207 -2.04334 
268 1 268.832 254.298 262.639 -1.63471 
269 1 267.002 257.827 263.592 -2.97299 
270 1 259.167 260.21 257.222 -2.90941 
271 1 267.441 264.266 256.126 -2.50813 
272 1 267.746 263.006 264.664 -2.87029 
273 1 259.949 265.635 268.903 -2.58906 
274 1 263.105 254.965 266.415 -1.78037 
275 1 259.844 270.73 264.317 -2.04715 
276 1 268.362 265.572 258.531 -2.13664 
277 1 264.645 260.506 259.537 -3.05733 
278 1 268.601 262.648 262.193 -2.81353 
279 1 259.753 263.679 265.345 -3.22224 
280 1 256.171 254.886 261.463 -2.04702 
281 1 256.179 258.879 258.485 -2.99437 
282 1 256.292 258.35 269.036 -1.61204 
283 1 259.486 252.469 258.738 -1.53873 
284 1 266.552 265.654 269.089 -1.5687 
285 1 265.864 261.8 263.162 -3.02056 
286 1 266.343 262.16 258.195 -2.99607 
287 1 256.005 291.008 276.343 0 
288 1 260.661 269.919 266.867 -1.96587 
289 1 264.757 258.898 264.779 -3.11153 
290 1 251.118 261.316 263.778 -1.46564 
291 1 251.327 261.729 260.964 -1.47745 
292 1 257.967 270.325 266.598 -1.5159 
293 1 263.037 265.187 257.249 -2.92277 
294 1 263.833 269.729 258.002 -2.69709 
295 1 262.101 271.873 262.929 -1.5801 
296 1 259.173 256.855 254.801 -2.09111 
297 1 253.906 265.524 263.98 -1.99248 
298 1 259.145 263.372 260.291 -3.10709 
299 1 265.347 262.635 255.713 -2.94999 
300 1 259.768 263.153 267.962 -2.93808 
301 1 259.949 254.299 255.423 -1.9105 
302 1 263.641 259.464 269.414 -1.97326 
303 1 263.656 270.301 267.379 -1.32022 
304 1 256.396 263.13 256.751 -2.81054 
305 1 264.066 269.817 262.709 -2.65419 
306 1 266.176 258.548 260.844 -3.1315 
307 1 262.597 267.98 266.578 -2.85002 
308 1 263.477 258.025 256.202 -3.13325 
309 1 268.371 263.674 268.219 -1.56228 
