   31   31  191    1
  0.1706119E+02  0.8087054E-09  0.8087054E-09  0.8087054E-09  0.5000000E-15
  1.000000000000000E-004
  CAR 
 unknown system                          
   92    1   62
 
  0.0000000E+00  0.0000000E+00  0.0000000E+00  0.1000000E+01
   1       -3.416346
   2       -1.427479
   3       -1.281634
   4       -1.202879
   5       -1.202054
   6       -0.852101
   7       -0.844653
   8        0.772566
   9        0.780483
  10        0.916036
  11        0.935079
  12        1.046776
  13        1.054175
  14        1.124313
  15        1.147023
  16        1.166532
  17        1.259571
  18        1.780744
  19        1.980824
  20        3.174287
  21        3.211966
  22        3.280852
  23        3.297775
  24        3.314916
  25        3.398229
  26        3.957085
  27        4.116922
  28        4.850526
  29        4.858838
  30        4.890427
  31        6.011951
  32        6.268852
  33        6.350946
  34        6.629409
  35        6.748036
  36        6.754649
  37        6.770021
  38        6.801646
  39        6.814916
  40        6.972299
  41        7.092888
  42        7.129514
  43        7.305324
  44        7.313259
  45        7.414748
  46        7.517525
  47        7.943019
  48        8.005714
  49        8.019265
  50        8.038793
  51        8.220989
  52        8.546458
  53        8.610467
  54        8.719856
  55        8.724606
  56        8.835584
  57        8.942508
  58        8.961036
  59        9.068127
  60        9.152408
  61        9.201415
  62        9.247600
