 vasp.5.2.2 15Apr09 complex 
 executed on             LinuxIFC date 2014.04.24  10:43:32
 running on    1 nodes
 each image running on    1 nodes
 distr:  one band on    1 nodes,    1 groups


--------------------------------------------------------------------------------------------------------


 INCAR:
 POTCAR:   PAW_PBE Mg 05Jan2001                   
 POTCAR:   PAW_PBE Al 04Jan2001                   
 POTCAR:   PAW_PBE Mg 05Jan2001                   
   VRHFIN =Mg: s2p0                                                             
   LEXCH  = PE                                                                  
   EATOM  =    23.0029 eV,    1.6907 Ry                                         
                                                                                
   TITEL  = PAW_PBE Mg 05Jan2001                                                
   LULTRA =        F    use ultrasoft PP ?                                      
   IUNSCR =        1    unscreen: 0-lin 1-nonlin 2-no                           
   RPACOR =    2.000    partial core radius                                     
   POMASS =   24.305; ZVAL   =    2.000    mass and valenz                      
   RCORE  =    2.000    outmost cutoff radius                                   
   RWIGS  =    2.880; RWIGS  =    1.524    wigner-seitz radius (au A)           
   ENMAX  =  210.012; ENMIN  =  157.509 eV                                      
   ICORE  =        2    local potential                                         
   LCOR   =        T    correct aug charges                                     
   LPAW   =        T    paw PP                                                  
   EAUG   =  274.554                                                            
   DEXC   =    -.136                                                            
   RMAX   =    3.182    core radius for proj-oper                               
   RAUG   =    1.300    factor for augmentation sphere                          
   RDEP   =    2.025    radius for radial grids                                 
   QCUT   =   -3.929; QGAM   =    7.858    optimization parameters              
                                                                                
   Description                                                                  
     l     E      TYP  RCUT    TYP  RCUT                                        
     0   .000     23  2.000                                                     
     0  2.000     23  2.000                                                     
     1   .000     23  2.000                                                     
     1  2.000     23  2.000                                                     
     2   .000     23  2.000                                                     
  local pseudopotential read in
  partial core-charges read in
  atomic valenz-charges read in
  non local Contribution for L=           0  read in
    real space projection operators read in
  non local Contribution for L=           0  read in
    real space projection operators read in
  non local Contribution for L=           1  read in
    real space projection operators read in
  non local Contribution for L=           1  read in
    real space projection operators read in
    PAW grid and wavefunctions read in
 
   number of l-projection  operators is LMAX  =           4
   number of lm-projection operators is LMMAX =           8
 
 POTCAR:   PAW_PBE Al 04Jan2001                   
   VRHFIN =Al: s2p1                                                             
   LEXCH  = PE                                                                  
   EATOM  =    53.5387 eV,    3.9350 Ry                                         
                                                                                
   TITEL  = PAW_PBE Al 04Jan2001                                                
   LULTRA =        F    use ultrasoft PP ?                                      
   IUNSCR =        1    unscreen: 0-lin 1-nonlin 2-no                           
   RPACOR =    1.500    partial core radius                                     
   POMASS =   26.982; ZVAL   =    3.000    mass and valenz                      
   RCORE  =    1.900    outmost cutoff radius                                   
   RWIGS  =    2.650; RWIGS  =    1.402    wigner-seitz radius (au A)           
   ENMAX  =  240.300; ENMIN  =  180.225 eV                                      
   ICORE  =        2    local potential                                         
   LCOR   =        T    correct aug charges                                     
   LPAW   =        T    paw PP                                                  
   EAUG   =  291.052                                                            
   DEXC   =    -.041                                                            
   RMAX   =    2.974    core radius for proj-oper                               
   RAUG   =    1.300    factor for augmentation sphere                          
   RDEP   =    1.966    radius for radial grids                                 
   QCUT   =   -4.203; QGAM   =    8.405    optimization parameters              
                                                                                
   Description                                                                  
     l     E      TYP  RCUT    TYP  RCUT                                        
     0   .000     23  1.900                                                     
     0   .000     23  1.900                                                     
     1   .000     23  1.900                                                     
     1  1.000     23  1.900                                                     
     2   .000      7  1.900                                                     
  local pseudopotential read in
  partial core-charges read in
  atomic valenz-charges read in
  non local Contribution for L=           0  read in
    real space projection operators read in
  non local Contribution for L=           0  read in
    real space projection operators read in
  non local Contribution for L=           1  read in
    real space projection operators read in
  non local Contribution for L=           1  read in
    real space projection operators read in
    PAW grid and wavefunctions read in
 
   number of l-projection  operators is LMAX  =           4
   number of lm-projection operators is LMMAX =           8
 

 ----------------------------------------------------------------------------- 
|                                                                             |
|  ADVICE TO THIS USER RUNNING 'VASP/VAMP'   (HEAR YOUR MASTER'S VOICE ...):  |
|                                                                             |
|      You have a (more or less) 'large supercell' and for larger cells       |
|      it might be more efficient to use real space projection operators      |
|      So try LREAL= Auto  in the INCAR   file.                               |
|      Mind: If you want to do a very accurate calculations keep the          |
|      reciprocal projection scheme          (i.e. LREAL=.FALSE.)             |
|                                                                             |
 ----------------------------------------------------------------------------- 

 PAW_PBE Mg 05Jan2001                   :
 energy of atom  1       EATOM=  -23.0029
 kinetic energy error for atom=    0.0002 (will be added to EATOM!!)
 PAW_PBE Al 04Jan2001                   :
 energy of atom  2       EATOM=  -53.5387
 kinetic energy error for atom=    0.0011 (will be added to EATOM!!)
 
 
 POSCAR: Mg1 Al30                                
  positions in direct lattice
  No initial velocities read in
 exchange correlation table for  LEXCH =        8
   RHO(1)=    0.500       N(1)  =     2000
   RHO(2)=  100.500       N(2)  =     4000

 VTST: version 2.03d, (02/18/09)

 CHAIN: initializing optimizer
 
 OPT: Using VASP QUASI-newton optimizer
 CHAIN: Read ICHAIN            0
 CHAIN: Running the NEB
 NEB:          SPRING     -5.000000
 NEB:          LCLIMB      T
 NEB:     LTANGENTOLD      F
 NEB:           LDNEB      F
 NEB:        LDNEBORG      F
 NEB:          EFIRST      0.000000
 NEB:           ELAST      0.000000
 
 POSCAR: Mg1 Al30                                
  positions in direct lattice
  No initial velocities read in
 
 POSCAR: Mg1 Al30                                
  positions in direct lattice
  No initial velocities read in
 


--------------------------------------------------------------------------------------------------------


 ion  position               nearest neighbor table
   1  0.375  0.500  0.375-   9 2.51  16 2.51  19 2.51  27 2.51  25 3.20  13 3.20  26 3.20  14 3.20

   2  0.999  0.000  0.999-   7 2.84  18 2.84  15 2.84   8 2.84  20 2.84  28 2.84  22 2.84   3 2.85
                             5 2.88  11 2.88  12 2.88   4 2.88
   3  0.249  0.000  0.249-   4 2.85   5 2.85  11 2.85  12 2.85   2 2.85   9 2.87  16 2.87  19 2.87
                            27 2.87   6 2.88  17 2.88  21 2.89
   4  0.251  0.252  0.003-   5 2.83   9 2.84  10 2.84  13 2.85   3 2.85  26 2.87   6 2.87  18 2.87
                             2 2.88  20 2.88  24 2.88
   5  0.003  0.252  0.251-   4 2.83  19 2.84  10 2.84  25 2.85   3 2.85  14 2.87  17 2.87   7 2.87
                             2 2.88   8 2.88  23 2.88
   6  0.500  0.000  0.996-  18 2.82  22 2.84   9 2.85  16 2.85  15 2.86   8 2.86   4 2.87  11 2.87
                            24 2.87  31 2.87   3 2.88   7 2.90
   7  0.754  0.000  0.250-  17 2.82   2 2.84  16 2.85   9 2.85   8 2.86  15 2.86  23 2.87  30 2.87
                            12 2.87   5 2.87  21 2.88   6 2.90
   8  0.752  0.249  0.998-  20 2.82   2 2.84  22 2.84   9 2.85   6 2.86   7 2.86  29 2.87  10 2.87
                            14 2.87  13 2.87  24 2.88   5 2.88
   9  0.502  0.248  0.248-   1 2.51   4 2.84  23 2.84   8 2.85   6 2.85   7 2.85  13 2.86  14 2.86
                             3 2.87  21 2.87  19 2.91
  10  0.002  0.500  0.002-   4 2.84  11 2.84   5 2.84  12 2.84  14 2.86  26 2.86  20 2.87  28 2.87
                            15 2.87   8 2.87  29 2.90
  11  0.251  0.748  0.003-  12 2.83  16 2.84  10 2.84  13 2.85   3 2.85  26 2.87   6 2.87  18 2.87
                             2 2.88  28 2.88  31 2.88
  12  0.003  0.748  0.251-  11 2.83  27 2.84  10 2.84  25 2.85   3 2.85  14 2.87  17 2.87   7 2.87
                             2 2.88  15 2.88  30 2.88
  13  0.501  0.500  0.000-   4 2.85  11 2.85  14 2.85  29 2.86  16 2.86   9 2.86  24 2.87  31 2.87
                            26 2.87  15 2.87   8 2.87   1 3.20
  14  0.750  0.500  0.249-  23 2.85  30 2.85  13 2.85  10 2.86   9 2.86  16 2.86   5 2.87  12 2.87
                            25 2.87   8 2.87  15 2.87   1 3.20
  15  0.752  0.751  0.998-  28 2.82   2 2.84  22 2.84  16 2.85   6 2.86   7 2.86  29 2.87  10 2.87
                            14 2.87  13 2.87  31 2.88  12 2.88
  16  0.502  0.752  0.248-   1 2.51  11 2.84  30 2.84  15 2.85   6 2.85   7 2.85  13 2.86  14 2.86
                             3 2.87  21 2.87  27 2.91
  17  0.996  0.000  0.500-   7 2.82  22 2.84  19 2.85  27 2.85  20 2.86  28 2.86  12 2.87   5 2.87
                            23 2.87  30 2.87   3 2.88  18 2.90
  18  0.250  0.000  0.754-   6 2.82   2 2.84  19 2.85  27 2.85  20 2.86  28 2.86  24 2.87  31 2.87
                             4 2.87  11 2.87  21 2.88  17 2.90
  19  0.248  0.248  0.502-   1 2.51   5 2.84  24 2.84  20 2.85  17 2.85  18 2.85  25 2.86  26 2.86
                             3 2.87  21 2.87   9 2.91
  20  0.998  0.249  0.752-   8 2.82   2 2.84  22 2.84  19 2.85  17 2.86  18 2.86  10 2.87  29 2.87
                            26 2.87  25 2.87  23 2.88   4 2.88
  21  0.501  0.000  0.501-  24 2.85  31 2.85  30 2.85  23 2.85  22 2.85  19 2.87  27 2.87   9 2.87
                            16 2.87  18 2.88   7 2.88   3 2.89
  22  0.751  0.000  0.751-   6 2.84  17 2.84  15 2.84   8 2.84  20 2.84  28 2.84   2 2.84  21 2.85
                            24 2.88  23 2.88  30 2.88  31 2.88
  23  0.747  0.252  0.499-  24 2.83   9 2.84  29 2.84  14 2.85  21 2.85  25 2.87   7 2.87  17 2.87
                            22 2.88  20 2.88   5 2.88
  24  0.499  0.252  0.747-  23 2.83  19 2.84  29 2.84  26 2.85  21 2.85  13 2.87  18 2.87   6 2.87
                            22 2.88   8 2.88   4 2.88
  25  0.000  0.500  0.501-   5 2.85  12 2.85  26 2.85  29 2.86  27 2.86  19 2.86  23 2.87  30 2.87
                            14 2.87  20 2.87  28 2.87   1 3.20
  26  0.249  0.500  0.750-  24 2.85  31 2.85  25 2.85  10 2.86  27 2.86  19 2.86  11 2.87   4 2.87
                            13 2.87  28 2.87  20 2.87   1 3.20
  27  0.248  0.752  0.502-   1 2.51  12 2.84  31 2.84  28 2.85  17 2.85  18 2.85  25 2.86  26 2.86
                             3 2.87  21 2.87  16 2.91
  28  0.998  0.751  0.752-  15 2.82   2 2.84  22 2.84  27 2.85  17 2.86  18 2.86  10 2.87  29 2.87
                            26 2.87  25 2.87  30 2.88  11 2.88
  29  0.748  0.500  0.748-  23 2.84  24 2.84  30 2.84  31 2.84  13 2.86  25 2.86  15 2.87   8 2.87
                            20 2.87  28 2.87  10 2.90
  30  0.747  0.748  0.499-  31 2.83  16 2.84  29 2.84  14 2.85  21 2.85  25 2.87   7 2.87  17 2.87
                            22 2.88  28 2.88  12 2.88
  31  0.499  0.748  0.747-  30 2.83  27 2.84  29 2.84  26 2.85  21 2.85  13 2.87  18 2.87   6 2.87
                            22 2.88  15 2.88  11 2.88
 
  LATTYP: Found a simple cubic cell.
 ALAT       =     8.0870540000
  
  Lattice vectors:
  
 A1 = (   8.0870540000,   0.0000000000,   0.0000000000)
 A2 = (   0.0000000000,   8.0870540000,   0.0000000000)
 A3 = (   0.0000000000,   0.0000000000,   8.0870540000)
 Subroutine PRICEL returns:
 Original cell was already a primitive cell.
 

Analysis of symmetry for initial positions (statically):

 Routine SETGRP: Setting up the symmetry group for a 
 simple cubic supercell.


 Subroutine GETGRP returns: Found  4 space group operations
 (whereof  4 operations were pure point group operations)
 out of a pool of 48 trial point group operations.


The static configuration has the point symmetry C_2v.

Analysis of symmetry for dynamics (positions and initial velocities):

 Subroutine DYNSYM returns: Found  4 space group operations
 (whereof  4 operations were pure point group operations)
 out of a pool of  4 trial space group operations
 (whereof  4 operations were pure point group operations)
 and found also     1 'primitive' translations


The dynamic configuration has the point symmetry C_2v.
 
 
 KPOINTS: Automatic kpoint scheme                 

Automatic generation of k-mesh.
 
 Subroutine IBZKPT returns following result:
 ===========================================
 
 Found      1 irreducible k-points:
 
 Following reciprocal coordinates:
            Coordinates               Weight
  0.000000  0.000000  0.000000      1.000000
 
 Following cartesian coordinates:
            Coordinates               Weight
  0.000000  0.000000  0.000000      1.000000
 


--------------------------------------------------------------------------------------------------------




 Dimension of arrays:
   k-points           NKPTS =      1   k-points in BZ     NKDIM =      1   number of bands    NBANDS=     62
   number of dos      NEDOS =    301   number of ions     NIONS =     31
   non local maximal  LDIM  =      4   non local SUM 2l+1 LMDIM =      8
   total plane-waves  NPLWV = 110592
   max r-space proj   IRMAX =      1   max aug-charges    IRDMAX=   9081
   dimension x,y,z NGX =    48 NGY =   48 NGZ =   48
   dimension x,y,z NGXF=    96 NGYF=   96 NGZF=   96
   support grid    NGXF=    96 NGYF=   96 NGZF=   96
   ions per type =               1  30
 NGX,Y,Z   is equivalent  to a cutoff of   9.87,  9.87,  9.87 a.u.
 NGXF,Y,Z  is equivalent  to a cutoff of  19.73, 19.73, 19.73 a.u.


 I would recommend the setting:
   dimension x,y,z NGX =    46 NGY =   46 NGZ =   46
 SYSTEM =  unknown system                          
 POSCAR =  Mg1 Al30                                

 Startparameter for this run:
   NWRITE =      2    write-flag & timer
   PREC   = accura    medium, high low
   ISTART =      0    job   : 0-new  1-cont  2-samecut
   ICHARG =      2    charge: 1-file 2-atom 10-const
   ISPIN  =      1    spin polarized calculation?
   LNONCOLLINEAR =      F non collinear calculations
   LSORBIT =      F    spin-orbit coupling
   INIWAV =      1    electr: 0-lowe 1-rand  2-diag
   LASPH  =      F    aspherical Exc in radial PAW
   METAGGA=      F    non-selfconsistent MetaGGA calc.

 Electronic Relaxation 1
   ENCUT  =  300.0 eV  22.05 Ry    4.70 a.u.  11.42 11.42 11.42*2*pi/ulx,y,z
   ENINI  =  300.0     initial cutoff
   ENAUG  =  291.1 eV  augmentation charge cutoff
   NELM   =     60;   NELMIN=  2; NELMDL=-12     # of ELM steps 
   EDIFF  = 0.1E-03   stopping-criterion for ELM
   LREAL  =      F    real-space projection
   LCOMPAT=      F    compatible to vasp.4.4
   LREAL_COMPAT= F    compatible to vasp.4.5.1-3
   GGA_COMPAT  = T    GGA compatible to vasp.4.4-vasp.4.6
   LMAXPAW     = -100 max onsite density
   LMAXMIX     =    2 max onsite mixed and CHGCAR
   VOSKOWN=      0    Vosko Wilk Nusair interpolation
   ROPT   =    0.00000   0.00000
 Ionic relaxation
   EDIFFG = 0.5E-01   stopping-criterion for IOM
   NSW    =    191    number of steps for IOM
   NBLOCK =      1;   KBLOCK =    191    inner block; outer block 
   IBRION =      1    ionic relax: 0-MD 1-quasi-New 2-CG
   NFREE  =      0    steps in history (QN), initial steepest desc. (CG)
   ISIF   =      2    stress and relaxation
   IWAVPR =     11    prediction:  0-non 1-charg 2-wave 3-comb
   ISYM   =      2    0-nonsym 1-usesym 2-fastsym
   LCORR  =      T    Harris-Foulkes like correction to forces

   POTIM  = 0.5000    time-step for ionic-motion
   TEIN   =    0.0    initial temperature
   TEBEG  =    0.0;   TEEND  =   0.0 temperature during run
   SMASS  =  -3.00    Nose mass-parameter (am)
   estimated Nose-frequenzy (Omega)   =  0.10E-29 period in steps =****** mass=  -0.149E-26a.u.
   NPACO  =    256;   APACO  = 16.0  distance and # of slots for P.C.
   PSTRESS=    0.0 pullay stress

  Mass of Ions in am
   POMASS =  24.30 26.98
  Ionic Valenz
   ZVAL   =   2.00  3.00
  Atomic Wigner-Seitz radii
   RWIGS  =  -1.00 -1.00
   NELECT =      92.0000    total number of electrons
   NUPDOWN=      -1.0000    fix difference up-down

 DOS related values:
   EMIN   =  10.00;   EMAX   =-10.00  energy-range for DOS
   EFERMI =   0.00
   ISMEAR =     1;   SIGMA  =   0.20  broadening in eV -4-tet -1-fermi 0-gaus

 Electronic relaxation 2 (details)
   IALGO  =     48    algorithm
   LDIAG  =      T    sub-space diagonalisation
   IMIX   =      4    mixing-type and parameters
     AMIX     =   0.40;   BMIX     =  1.00
     AMIX_MAG =   1.60;   BMIX_MAG =  1.00
     AMIN     =   0.10
     WC   =   100.;   INIMIX=   1;  MIXPRE=   1

 Intra band minimization:
   WEIMIN = 0.0010     energy-eigenvalue tresh-hold
   EBREAK =  0.40E-06  absolut break condition
   DEPER  =   0.30     relativ break condition  

   TIME   =   0.40     timestep for ELM

  volume/ion in A,a.u.               =      17.06       115.13
  Fermi-wavevector in a.u.,A,eV,Ry     =   0.913862  1.726948 11.362811  0.835143
  Thomas-Fermi vector in A             =   2.038422
 
 Write flags
   LWAVE  =      F    write WAVECAR
   LCHARG =      F    write CHGCAR
   LVTOT  =      F    write LOCPOT, local potential
   LELF   =      F    write electronic localiz. function (ELF)
   LORBIT =      0    0 simple, 1 ext, 2 COOP (PROOUT)


 Dipole corrections
   LMONO  =      F    monopole corrections only (constant potential shift)
   LDIPOL =      F    correct potential (dipole corrections)
   IDIPOL =      0    1-x, 2-y, 3-z, 4-all directions 
   EPSILON=  1.0000000 bulk dielectric constant

 Exchange correlation treatment:
   GGA     =    --    GGA type
   LEXCH   =     8    internal setting for exchange type
   VOSKOWN=      0    Vosko Wilk Nusair interpolation
   LHFCALC =     F    Hartree Fock is set to
   LHFONE  =     F    Hartree Fock one center treatment
   AEXX    =    0.0000 exact exchange contribution

 Linear response parameters
   LEPSILON=     F    determine dielectric tensor
   LRPA    =     F    only Hartree local field effects (RPA)
   LNABLA  =     F    use nabla operator in PAW spheres
   LVEL    =     F    velocity operator in full k-point grid
   LINTERFAST=   F  fast interpolation
   KINTER  =     0    interpolate to denser k-point grid
   CSHIFT  =0.1000    complex shift for real part using Kramers Kronig
   OMEGAMAX=  -1.0    maximum frequency

 Orbital magnetization related:
   ORBITALMAG=     F  switch on orbital magnetization
   LCHIMAG   =     F  perturbation theory with respect to B field



--------------------------------------------------------------------------------------------------------


 quasi-Newton-method for relaxation of ions
 charge density and potential will be updated during run
 non-spin polarized calculation
 RMM-DIIS sequential band-by-band
 perform sub-space diagonalisation
    before iterative eigenvector-optimisation
 modified Broyden-mixing scheme, WC =      100.0
 initial mixing is a Kerker type mixing with AMIX =  0.4000 and BMIX =      1.0000
 Hartree-type preconditioning will be used
 using additional bands           16
 reciprocal scheme for non local part
 use partial core corrections
 calculate Harris-corrections to forces 
   (improved forces if not selfconsistent)
 use gradient corrections 
 use of overlap-Matrix (Vanderbilt PP)
 Methfessel and Paxton  Order N= 1 SIGMA  =   0.20


--------------------------------------------------------------------------------------------------------


  energy-cutoff  :      300.00
  volume of cell :      528.90
      direct lattice vectors                 reciprocal lattice vectors
     8.087054000  0.000000000  0.000000000     0.123654423  0.000000000  0.000000000
     0.000000000  8.087054000  0.000000000     0.000000000  0.123654423  0.000000000
     0.000000000  0.000000000  8.087054000     0.000000000  0.000000000  0.123654423

  length of vectors
     8.087054000  8.087054000  8.087054000     0.123654423  0.123654423  0.123654423


 
 k-points in units of 2pi/SCALE and weight: Automatic kpoint scheme                 
   0.00000000  0.00000000  0.00000000       1.000
 
 k-points in reciprocal lattice and weights: Automatic kpoint scheme                 
   0.00000000  0.00000000  0.00000000       1.000
 
 position of ions in fractional coordinates (direct lattice) 
   0.37499600  0.50000000  0.37499600
   0.99926900  0.00000000  0.99926900
   0.24872900  0.00000000  0.24872900
   0.25078700  0.25205400  0.00291800
   0.00291800  0.25205400  0.25078700
   0.49987100  0.00000000  0.99640100
   0.75359600  0.00000000  0.25013100
   0.75150700  0.24908600  0.99849400
   0.50235700  0.24755700  0.24764000
   0.00174300  0.50000000  0.00174300
   0.25078700  0.74794600  0.00291800
   0.00291800  0.74794600  0.25078700
   0.50057900  0.50000000  0.00030000
   0.74970500  0.50000000  0.24941700
   0.75150700  0.75091400  0.99849400
   0.50235700  0.75244300  0.24764000
   0.99640100  0.00000000  0.49987100
   0.25013100  0.00000000  0.75359600
   0.24764000  0.24755700  0.50235700
   0.99849400  0.24908600  0.75150700
   0.50127100  0.00000000  0.50127100
   0.75073000  0.00000000  0.75073000
   0.74708400  0.25205300  0.49921500
   0.49921500  0.25205300  0.74708400
   0.00030000  0.50000000  0.50057900
   0.24941700  0.50000000  0.74970500
   0.24764000  0.75244300  0.50235700
   0.99849400  0.75091400  0.75150700
   0.74825800  0.50000000  0.74825800
   0.74708400  0.74794700  0.49921500
   0.49921500  0.74794700  0.74708400
 
 position of ions in cartesian coordinates  (Angst):
   3.03261290  4.04352700  3.03261290
   8.08114236  0.00000000  8.08114236
   2.01148485  0.00000000  2.01148485
   2.02812801  2.03837431  0.02359802
   0.02359802  2.03837431  2.02812801
   4.04248377  0.00000000  8.05794869
   6.09437155  0.00000000  2.02282290
   6.07747769  2.01437193  8.07487490
   4.06258819  2.00200683  2.00267805
   0.01409574  4.04352700  0.01409574
   2.02812801  6.04867969  0.02359802
   0.02359802  6.04867969  2.02812801
   4.04820940  4.04352700  0.00242612
   6.06290482  4.04352700  2.01704875
   6.07747769  6.07268207  8.07487490
   4.06258819  6.08504717  2.00267805
   8.05794869  0.00000000  4.04248377
   2.02282290  0.00000000  6.09437155
   2.00267805  2.00200683  4.06258819
   8.07487490  2.01437193  6.07747769
   4.05380565  0.00000000  4.05380565
   6.07119405  0.00000000  6.07119405
   6.04170865  2.03836622  4.03717866
   4.03717866  2.03836622  6.04170865
   0.00242612  4.04352700  4.04820940
   2.01704875  4.04352700  6.06290482
   2.00267805  6.08504717  4.06258819
   8.07487490  6.07268207  6.07747769
   6.05120285  4.04352700  6.05120285
   6.04170865  6.04868778  4.03717866
   4.03717866  6.04868778  6.04170865
 


--------------------------------------------------------------------------------------------------------


 k-point  1 :  0.00000.00000.0000  plane waves:    6235

 maximum and minimum number of plane-waves per node :    6235   6235

 maximum number of plane-waves:    6235
 maximal index in each direction: 
   IXMAX= 11   IYMAX= 11   IZMAX= 11
   IXMIN=-11   IYMIN=-11   IZMIN=-11

 NGX is ok and might be reduce to  46
 NGY is ok and might be reduce to  46
 NGZ is ok and might be reduce to  46

 serial   3D FFT for wavefunctions
 parallel 3D FFT for charge:
    minimum data exchange during FFTs selected (reduces bandwidth)


 total amount of memory used by VASP on root node 125895. kBytes
========================================================================

   base      :    30000. kBytes
   nonl-proj :     3890. kBytes
   fftplans  :    30736. kBytes
   grid      :    54743. kBytes
   one-center:       95. kBytes
   wavefun   :     6431. kBytes
 
 Broyden mixing: mesh for mixing (old mesh)
   NGX = 23   NGY = 23   NGZ = 23
  (NGX  = 96   NGY  = 96   NGZ  = 96)
  gives a total of  12167 points

 initial charge density was supplied:
 charge density of overlapping atoms calculated
 number of electron   92.0000000 magnetization 
 keeping initial charge density in first step


--------------------------------------------------------------------------------------------------------


 Maximum index for augmentation-charges         8601 (set IRDMAX)


--------------------------------------------------------------------------------------------------------


 First call to EWALD:  gamma=   0.219
 Maximum number of real-space cells 3x 3x 3
 Maximum number of reciprocal cells 3x 3x 3

    FEWALD:  cpu time    0.06: real time    0.02
   RESPFUN:  cpu time    0.01: real time    0.00


----------------------------------------- Iteration    1(   1)  ---------------------------------------


    POTLOK:  cpu time    1.93: real time    1.88
    SETDIJ:  cpu time    0.15: real time    0.15
    EDDIAG:  cpu time    1.96: real time    1.50
  RMM-DIIS:  cpu time   10.49: real time    3.55
    ORTHCH:  cpu time    0.16: real time    0.04
       DOS:  cpu time    0.00: real time    0.00
    --------------------------------------------
      LOOP:  cpu time   14.71: real time    7.12

 eigenvalue-minimisations  :    62
 total energy-change (2. order) : 0.3041284E+03  (-0.1688939E+04)
 number of electron   92.0000000 magnetization 
 augmentation part    92.0000000 magnetization 

 Free energy of the ion-electron system (eV)
  ---------------------------------------------------
  alpha Z        PSCENC =        -7.38312591
  Ewald energy   TEWEN  =     -2184.10012402
  -1/2 Hartree   DENC   =       -20.92751465
  -exchange  EXHF       =         0.00000000
  -V(xc)+E(xc)   XCENC  =      -796.42595717
  PAW double counting   =      1078.21717227     -108.50372521
  entropy T*S    EENTRO =        -0.05846120
  eigenvalues    EBANDS =       714.17873291
  atomic energy  EATOM  =      1629.13144109
  ---------------------------------------------------
  free energy    TOTEN  =       304.12843812 eV

  energy without entropy =      304.18689932  energy(sigma->0) =      304.14792518


--------------------------------------------------------------------------------------------------------




----------------------------------------- Iteration    1(   2)  ---------------------------------------


    EDDIAG:  cpu time    2.05: real time    1.50
  RMM-DIIS:  cpu time   10.48: real time    3.54
    ORTHCH:  cpu time    0.16: real time    0.04
       DOS:  cpu time    0.00: real time    0.00
    --------------------------------------------
      LOOP:  cpu time   12.71: real time    5.08

 eigenvalue-minimisations  :    62
 total energy-change (2. order) :-0.3076147E+03  (-0.3021866E+03)
 number of electron   92.0000000 magnetization 
 augmentation part    92.0000000 magnetization 

 Free energy of the ion-electron system (eV)
  ---------------------------------------------------
  alpha Z        PSCENC =        -7.38312591
  Ewald energy   TEWEN  =     -2184.10012402
  -1/2 Hartree   DENC   =       -20.92751465
  -exchange  EXHF       =         0.00000000
  -V(xc)+E(xc)   XCENC  =      -796.42595717
  PAW double counting   =      1078.21717227     -108.50372521
  entropy T*S    EENTRO =         0.01204808
  eigenvalues    EBANDS =       406.49352695
  atomic energy  EATOM  =      1629.13144109
  ---------------------------------------------------
  free energy    TOTEN  =        -3.48625857 eV

  energy without entropy =       -3.49830665  energy(sigma->0) =       -3.49027460


--------------------------------------------------------------------------------------------------------




----------------------------------------- Iteration    1(   3)  ---------------------------------------


    EDDIAG:  cpu time    2.05: real time    1.50
  RMM-DIIS:  cpu time   10.49: real time    3.54
    ORTHCH:  cpu time    0.16: real time    0.04
       DOS:  cpu time    0.00: real time    0.00
    --------------------------------------------
      LOOP:  cpu time   12.72: real time    5.08

 eigenvalue-minimisations  :    62
 total energy-change (2. order) :-0.6277537E+02  (-0.6648598E+02)
 number of electron   92.0000000 magnetization 
 augmentation part    92.0000000 magnetization 

 Free energy of the ion-electron system (eV)
  ---------------------------------------------------
  alpha Z        PSCENC =        -7.38312591
  Ewald energy   TEWEN  =     -2184.10012402
  -1/2 Hartree   DENC   =       -20.92751465
  -exchange  EXHF       =         0.00000000
  -V(xc)+E(xc)   XCENC  =      -796.42595717
  PAW double counting   =      1078.21717227     -108.50372521
  entropy T*S    EENTRO =         0.03901717
  eigenvalues    EBANDS =       343.69118405
  atomic energy  EATOM  =      1629.13144109
  ---------------------------------------------------
  free energy    TOTEN  =       -66.26163237 eV

  energy without entropy =      -66.30064955  energy(sigma->0) =      -66.27463810


--------------------------------------------------------------------------------------------------------




----------------------------------------- Iteration    1(   4)  ---------------------------------------


    EDDIAG:  cpu time    2.05: real time    1.50
  RMM-DIIS:  cpu time   10.48: real time    3.55
    ORTHCH:  cpu time    0.16: real time    0.04
       DOS:  cpu time    0.00: real time    0.00
    --------------------------------------------
      LOOP:  cpu time   12.71: real time    5.09

 eigenvalue-minimisations  :    62
 total energy-change (2. order) :-0.1704044E+02  (-0.1602672E+02)
 number of electron   92.0000000 magnetization 
 augmentation part    92.0000000 magnetization 

 Free energy of the ion-electron system (eV)
  ---------------------------------------------------
  alpha Z        PSCENC =        -7.38312591
  Ewald energy   TEWEN  =     -2184.10012402
  -1/2 Hartree   DENC   =       -20.92751465
  -exchange  EXHF       =         0.00000000
  -V(xc)+E(xc)   XCENC  =      -796.42595717
  PAW double counting   =      1078.21717227     -108.50372521
  entropy T*S    EENTRO =        -0.04965597
  eigenvalues    EBANDS =       326.73942113
  atomic energy  EATOM  =      1629.13144109
  ---------------------------------------------------
  free energy    TOTEN  =       -83.30206843 eV

  energy without entropy =      -83.25241246  energy(sigma->0) =      -83.28551644


--------------------------------------------------------------------------------------------------------




----------------------------------------- Iteration    1(   5)  ---------------------------------------


    EDDIAG:  cpu time    2.01: real time    1.50
  RMM-DIIS:  cpu time   10.49: real time    3.54
    ORTHCH:  cpu time    0.16: real time    0.04
       DOS:  cpu time    0.00: real time    0.00
    --------------------------------------------
      LOOP:  cpu time   12.72: real time    5.09

 eigenvalue-minimisations  :    62
 total energy-change (2. order) :-0.7212528E+01  (-0.5895284E+01)
 number of electron   92.0000000 magnetization 
 augmentation part    92.0000000 magnetization 

 Free energy of the ion-electron system (eV)
  ---------------------------------------------------
  alpha Z        PSCENC =        -7.38312591
  Ewald energy   TEWEN  =     -2184.10012402
  -1/2 Hartree   DENC   =       -20.92751465
  -exchange  EXHF       =         0.00000000
  -V(xc)+E(xc)   XCENC  =      -796.42595717
  PAW double counting   =      1078.21717227     -108.50372521
  entropy T*S    EENTRO =        -0.08528448
  eigenvalues    EBANDS =       319.56252167
  atomic energy  EATOM  =      1629.13144109
  ---------------------------------------------------
  free energy    TOTEN  =       -90.51459641 eV

  energy without entropy =      -90.42931193  energy(sigma->0) =      -90.48616825


--------------------------------------------------------------------------------------------------------




----------------------------------------- Iteration    1(   6)  ---------------------------------------


    EDDIAG:  cpu time    2.05: real time    1.50
  RMM-DIIS:  cpu time   10.48: real time    3.54
    ORTHCH:  cpu time    0.16: real time    0.04
       DOS:  cpu time    0.00: real time    0.00
    --------------------------------------------
      LOOP:  cpu time   12.71: real time    5.08

 eigenvalue-minimisations  :    62
 total energy-change (2. order) :-0.3453098E+01  (-0.2861652E+01)
 number of electron   92.0000000 magnetization 
 augmentation part    92.0000000 magnetization 

 Free energy of the ion-electron system (eV)
  ---------------------------------------------------
  alpha Z        PSCENC =        -7.38312591
  Ewald energy   TEWEN  =     -2184.10012402
  -1/2 Hartree   DENC   =       -20.92751465
  -exchange  EXHF       =         0.00000000
  -V(xc)+E(xc)   XCENC  =      -796.42595717
  PAW double counting   =      1078.21717227     -108.50372521
  entropy T*S    EENTRO =        -0.02439696
  eigenvalues    EBANDS =       316.04853591
  atomic energy  EATOM  =      1629.13144109
  ---------------------------------------------------
  free energy    TOTEN  =       -93.96769464 eV

  energy without entropy =      -93.94329768  energy(sigma->0) =      -93.95956232


--------------------------------------------------------------------------------------------------------




----------------------------------------- Iteration    1(   7)  ---------------------------------------


    EDDIAG:  cpu time    2.05: real time    1.50
  RMM-DIIS:  cpu time   10.49: real time    3.54
    ORTHCH:  cpu time    0.16: real time    0.04
       DOS:  cpu time    0.00: real time    0.00
    --------------------------------------------
      LOOP:  cpu time   12.71: real time    5.08

 eigenvalue-minimisations  :    62
 total energy-change (2. order) :-0.1843781E+01  (-0.1602628E+01)
 number of electron   92.0000000 magnetization 
 augmentation part    92.0000000 magnetization 

 Free energy of the ion-electron system (eV)
  ---------------------------------------------------
  alpha Z        PSCENC =        -7.38312591
  Ewald energy   TEWEN  =     -2184.10012402
  -1/2 Hartree   DENC   =       -20.92751465
  -exchange  EXHF       =         0.00000000
  -V(xc)+E(xc)   XCENC  =      -796.42595717
  PAW double counting   =      1078.21717227     -108.50372521
  entropy T*S    EENTRO =         0.02973772
  eigenvalues    EBANDS =       314.15061986
  atomic energy  EATOM  =      1629.13144109
  ---------------------------------------------------
  free energy    TOTEN  =       -95.81147601 eV

  energy without entropy =      -95.84121374  energy(sigma->0) =      -95.82138859


--------------------------------------------------------------------------------------------------------




----------------------------------------- Iteration    1(   8)  ---------------------------------------


    EDDIAG:  cpu time    2.05: real time    1.50
  RMM-DIIS:  cpu time   10.51: real time    3.54
    ORTHCH:  cpu time    0.16: real time    0.04
       DOS:  cpu time    0.00: real time    0.00
    --------------------------------------------
      LOOP:  cpu time   12.74: real time    5.08

 eigenvalue-minimisations  :    62
 total energy-change (2. order) :-0.1032699E+01  (-0.9382871E+00)
 number of electron   92.0000000 magnetization 
 augmentation part    92.0000000 magnetization 

 Free energy of the ion-electron system (eV)
  ---------------------------------------------------
  alpha Z        PSCENC =        -7.38312591
  Ewald energy   TEWEN  =     -2184.10012402
  -1/2 Hartree   DENC   =       -20.92751465
  -exchange  EXHF       =         0.00000000
  -V(xc)+E(xc)   XCENC  =      -796.42595717
  PAW double counting   =      1078.21717227     -108.50372521
  entropy T*S    EENTRO =         0.03856896
  eigenvalues    EBANDS =       313.10908958
  atomic energy  EATOM  =      1629.13144109
  ---------------------------------------------------
  free energy    TOTEN  =       -96.84417506 eV

  energy without entropy =      -96.88274402  energy(sigma->0) =      -96.85703138


--------------------------------------------------------------------------------------------------------




----------------------------------------- Iteration    1(   9)  ---------------------------------------


    EDDIAG:  cpu time    2.05: real time    1.50
  RMM-DIIS:  cpu time   26.87: real time    7.83
    ORTHCH:  cpu time    0.16: real time    0.04
       DOS:  cpu time    0.00: real time    0.00
    --------------------------------------------
      LOOP:  cpu time   29.09: real time    9.37

 eigenvalue-minimisations  :   156
 total energy-change (2. order) :-0.1273633E+01  (-0.1236007E+01)
 number of electron   92.0000000 magnetization 
 augmentation part    92.0000000 magnetization 

 Free energy of the ion-electron system (eV)
  ---------------------------------------------------
  alpha Z        PSCENC =        -7.38312591
  Ewald energy   TEWEN  =     -2184.10012402
  -1/2 Hartree   DENC   =       -20.92751465
  -exchange  EXHF       =         0.00000000
  -V(xc)+E(xc)   XCENC  =      -796.42595717
  PAW double counting   =      1078.21717227     -108.50372521
  entropy T*S    EENTRO =         0.03617592
  eigenvalues    EBANDS =       311.83784925
  atomic energy  EATOM  =      1629.13144109
  ---------------------------------------------------
  free energy    TOTEN  =       -98.11780843 eV

  energy without entropy =      -98.15398434  energy(sigma->0) =      -98.12986707


--------------------------------------------------------------------------------------------------------




----------------------------------------- Iteration    1(  10)  ---------------------------------------


    EDDIAG:  cpu time    2.05: real time    1.50
  RMM-DIIS:  cpu time   25.79: real time    7.48
    ORTHCH:  cpu time    0.16: real time    0.04
       DOS:  cpu time    0.00: real time    0.00
    --------------------------------------------
      LOOP:  cpu time   28.03: real time    9.03

 eigenvalue-minimisations  :   149
 total energy-change (2. order) :-0.1675240E+00  (-0.1398837E+00)
 number of electron   92.0000000 magnetization 
 augmentation part    92.0000000 magnetization 

 Free energy of the ion-electron system (eV)
  ---------------------------------------------------
  alpha Z        PSCENC =        -7.38312591
  Ewald energy   TEWEN  =     -2184.10012402
  -1/2 Hartree   DENC   =       -20.92751465
  -exchange  EXHF       =         0.00000000
  -V(xc)+E(xc)   XCENC  =      -796.42595717
  PAW double counting   =      1078.21717227     -108.50372521
  entropy T*S    EENTRO =         0.01300212
  eigenvalues    EBANDS =       311.69349907
  atomic energy  EATOM  =      1629.13144109
  ---------------------------------------------------
  free energy    TOTEN  =       -98.28533241 eV

  energy without entropy =      -98.29833453  energy(sigma->0) =      -98.28966645


--------------------------------------------------------------------------------------------------------




----------------------------------------- Iteration    1(  11)  ---------------------------------------


    EDDIAG:  cpu time    2.02: real time    1.50
  RMM-DIIS:  cpu time   20.10: real time    5.96
    ORTHCH:  cpu time    0.17: real time    0.04
       DOS:  cpu time    0.00: real time    0.00
    --------------------------------------------
      LOOP:  cpu time   22.33: real time    7.51

 eigenvalue-minimisations  :   112
 total energy-change (2. order) :-0.1208131E-01  (-0.6148796E-02)
 number of electron   92.0000000 magnetization 
 augmentation part    92.0000000 magnetization 

 Free energy of the ion-electron system (eV)
  ---------------------------------------------------
  alpha Z        PSCENC =        -7.38312591
  Ewald energy   TEWEN  =     -2184.10012402
  -1/2 Hartree   DENC   =       -20.92751465
  -exchange  EXHF       =         0.00000000
  -V(xc)+E(xc)   XCENC  =      -796.42595717
  PAW double counting   =      1078.21717227     -108.50372521
  entropy T*S    EENTRO =         0.01151351
  eigenvalues    EBANDS =       311.68290637
  atomic energy  EATOM  =      1629.13144109
  ---------------------------------------------------
  free energy    TOTEN  =       -98.29741372 eV

  energy without entropy =      -98.30892723  energy(sigma->0) =      -98.30125155


--------------------------------------------------------------------------------------------------------




----------------------------------------- Iteration    1(  12)  ---------------------------------------


    EDDIAG:  cpu time    2.05: real time    1.50
  RMM-DIIS:  cpu time   17.74: real time    5.24
    ORTHCH:  cpu time    0.16: real time    0.04
       DOS:  cpu time    0.00: real time    0.00
    CHARGE:  cpu time    1.12: real time    1.03
    MIXING:  cpu time    0.05: real time    0.05
    --------------------------------------------
      LOOP:  cpu time   21.15: real time    7.86

 eigenvalue-minimisations  :    93
 total energy-change (2. order) :-0.5415310E-03  (-0.3791899E-03)
 number of electron   91.9999996 magnetization 
 augmentation part    -0.9212164 magnetization 

 Broyden mixing:
  rms(total) = 0.65102E+00    rms(broyden)= 0.65100E+00
  rms(prec ) = 0.11881E+01
  weight for this iteration     100.00

 Free energy of the ion-electron system (eV)
  ---------------------------------------------------
  alpha Z        PSCENC =        -7.38312591
  Ewald energy   TEWEN  =     -2184.10012402
  -1/2 Hartree   DENC   =       -20.92751465
  -exchange  EXHF       =         0.00000000
  -V(xc)+E(xc)   XCENC  =      -796.42595717
  PAW double counting   =      1078.21717227     -108.50372521
  entropy T*S    EENTRO =         0.01108047
  eigenvalues    EBANDS =       311.68279788
  atomic energy  EATOM  =      1629.13144109
  ---------------------------------------------------
  free energy    TOTEN  =       -98.29795525 eV

  energy without entropy =      -98.30903572  energy(sigma->0) =      -98.30164874


--------------------------------------------------------------------------------------------------------




----------------------------------------- Iteration    1(  13)  ---------------------------------------


    POTLOK:  cpu time    1.75: real time    1.76
    SETDIJ:  cpu time    0.15: real time    0.15
    EDDIAG:  cpu time    1.99: real time    1.50
  RMM-DIIS:  cpu time   21.05: real time    6.38
    ORTHCH:  cpu time    0.17: real time    0.04
       DOS:  cpu time    0.00: real time    0.00
    CHARGE:  cpu time    1.12: real time    1.02
    MIXING:  cpu time    0.05: real time    0.05
    --------------------------------------------
      LOOP:  cpu time   26.28: real time   10.91

 eigenvalue-minimisations  :   126
 total energy-change (2. order) : 0.1066269E+01  (-0.3465736E+00)
 number of electron   91.9999996 magnetization 
 augmentation part    -0.9305620 magnetization 

 Broyden mixing:
  rms(total) = 0.39289E+00    rms(broyden)= 0.39289E+00
  rms(prec ) = 0.59219E+00
  weight for this iteration     100.00

 eigenvalues of (default mixing * dielectric matrix)
  average eigenvalue GAMMA=   2.0430
  2.0430

 Free energy of the ion-electron system (eV)
  ---------------------------------------------------
  alpha Z        PSCENC =        -7.38312591
  Ewald energy   TEWEN  =     -2184.10012402
  -1/2 Hartree   DENC   =       -23.50131432
  -exchange  EXHF       =         0.00000000
  -V(xc)+E(xc)   XCENC  =      -795.16377580
  PAW double counting   =      1078.36768226     -108.72623195
  entropy T*S    EENTRO =        -0.08030219
  eigenvalues    EBANDS =       314.22406446
  atomic energy  EATOM  =      1629.13144109
  ---------------------------------------------------
  free energy    TOTEN  =       -97.23168637 eV

  energy without entropy =      -97.15138418  energy(sigma->0) =      -97.20491898


--------------------------------------------------------------------------------------------------------




----------------------------------------- Iteration    1(  14)  ---------------------------------------


    POTLOK:  cpu time    1.75: real time    1.75
    SETDIJ:  cpu time    0.15: real time    0.15
    EDDIAG:  cpu time    2.02: real time    1.51
  RMM-DIIS:  cpu time   21.72: real time    6.54
    ORTHCH:  cpu time    0.16: real time    0.04
       DOS:  cpu time    0.00: real time    0.00
    CHARGE:  cpu time    1.12: real time    1.02
    MIXING:  cpu time    0.06: real time    0.05
    --------------------------------------------
      LOOP:  cpu time   26.98: real time   11.07

 eigenvalue-minimisations  :   129
 total energy-change (2. order) : 0.2566921E+00  (-0.3146974E-01)
 number of electron   91.9999996 magnetization 
 augmentation part    -0.9415307 magnetization 

 Broyden mixing:
  rms(total) = 0.22327E+00    rms(broyden)= 0.22327E+00
  rms(prec ) = 0.32963E+00
  weight for this iteration     100.00

 eigenvalues of (default mixing * dielectric matrix)
  average eigenvalue GAMMA=   1.7281
  2.5350  0.9212

 Free energy of the ion-electron system (eV)
  ---------------------------------------------------
  alpha Z        PSCENC =        -7.38312591
  Ewald energy   TEWEN  =     -2184.10012402
  -1/2 Hartree   DENC   =       -24.23405770
  -exchange  EXHF       =         0.00000000
  -V(xc)+E(xc)   XCENC  =      -794.11902708
  PAW double counting   =      1078.23445297     -108.66524370
  entropy T*S    EENTRO =        -0.09432113
  eigenvalues    EBANDS =       314.25501122
  atomic energy  EATOM  =      1629.13144109
  ---------------------------------------------------
  free energy    TOTEN  =       -96.97499425 eV

  energy without entropy =      -96.88067311  energy(sigma->0) =      -96.94355387


--------------------------------------------------------------------------------------------------------




----------------------------------------- Iteration    1(  15)  ---------------------------------------


    POTLOK:  cpu time    1.76: real time    1.74
    SETDIJ:  cpu time    0.15: real time    0.15
    EDDIAG:  cpu time    2.03: real time    1.51
  RMM-DIIS:  cpu time   20.73: real time    6.32
    ORTHCH:  cpu time    0.16: real time    0.04
       DOS:  cpu time    0.00: real time    0.00
    CHARGE:  cpu time    1.12: real time    1.02
    MIXING:  cpu time    0.07: real time    0.06
    --------------------------------------------
      LOOP:  cpu time   26.04: real time   10.85

 eigenvalue-minimisations  :   124
 total energy-change (2. order) : 0.1127543E+00  (-0.1414359E-01)
 number of electron   91.9999996 magnetization 
 augmentation part    -0.9544295 magnetization 

 Broyden mixing:
  rms(total) = 0.43027E-01    rms(broyden)= 0.43026E-01
  rms(prec ) = 0.84942E-01
  weight for this iteration     100.00

 eigenvalues of (default mixing * dielectric matrix)
  average eigenvalue GAMMA=   1.4963
  2.6077  0.9406  0.9406

 Free energy of the ion-electron system (eV)
  ---------------------------------------------------
  alpha Z        PSCENC =        -7.38312591
  Ewald energy   TEWEN  =     -2184.10012402
  -1/2 Hartree   DENC   =       -25.67589004
  -exchange  EXHF       =         0.00000000
  -V(xc)+E(xc)   XCENC  =      -792.76094220
  PAW double counting   =      1078.06308031     -108.59767622
  entropy T*S    EENTRO =        -0.08243952
  eigenvalues    EBANDS =       314.54343652
  atomic energy  EATOM  =      1629.13144109
  ---------------------------------------------------
  free energy    TOTEN  =       -96.86223999 eV

  energy without entropy =      -96.77980047  energy(sigma->0) =      -96.83476015


--------------------------------------------------------------------------------------------------------




----------------------------------------- Iteration    1(  16)  ---------------------------------------


    POTLOK:  cpu time    1.79: real time    1.74
    SETDIJ:  cpu time    0.15: real time    0.15
    EDDIAG:  cpu time    2.02: real time    1.51
  RMM-DIIS:  cpu time   22.65: real time    6.79
    ORTHCH:  cpu time    0.16: real time    0.04
       DOS:  cpu time    0.00: real time    0.00
    CHARGE:  cpu time    1.12: real time    1.02
    MIXING:  cpu time    0.08: real time    0.06
    --------------------------------------------
      LOOP:  cpu time   27.99: real time   11.32

 eigenvalue-minimisations  :   135
 total energy-change (2. order) : 0.6615300E-02  (-0.1845237E-02)
 number of electron   91.9999996 magnetization 
 augmentation part    -0.9582387 magnetization 

 Broyden mixing:
  rms(total) = 0.16097E-01    rms(broyden)= 0.16097E-01
  rms(prec ) = 0.28880E-01
  weight for this iteration     100.00

 eigenvalues of (default mixing * dielectric matrix)
  average eigenvalue GAMMA=   1.5294
  2.6232  1.8077  0.8433  0.8433

 Free energy of the ion-electron system (eV)
  ---------------------------------------------------
  alpha Z        PSCENC =        -7.38312591
  Ewald energy   TEWEN  =     -2184.10012402
  -1/2 Hartree   DENC   =       -26.01584399
  -exchange  EXHF       =         0.00000000
  -V(xc)+E(xc)   XCENC  =      -792.50838994
  PAW double counting   =      1078.15968317     -108.72247018
  entropy T*S    EENTRO =        -0.08699859
  eigenvalues    EBANDS =       314.67020367
  atomic energy  EATOM  =      1629.13144109
  ---------------------------------------------------
  free energy    TOTEN  =       -96.85562469 eV

  energy without entropy =      -96.76862610  energy(sigma->0) =      -96.82662516


--------------------------------------------------------------------------------------------------------




----------------------------------------- Iteration    1(  17)  ---------------------------------------


    POTLOK:  cpu time    1.75: real time    1.75
    SETDIJ:  cpu time    0.15: real time    0.15
    EDDIAG:  cpu time    1.96: real time    1.49
  RMM-DIIS:  cpu time   22.95: real time    6.83
    ORTHCH:  cpu time    0.16: real time    0.04
       DOS:  cpu time    0.00: real time    0.00
    CHARGE:  cpu time    1.12: real time    1.02
    MIXING:  cpu time    0.09: real time    0.06
    --------------------------------------------
      LOOP:  cpu time   28.26: real time   11.46

 eigenvalue-minimisations  :   135
 total energy-change (2. order) : 0.7534782E-03  (-0.6225149E-03)
 number of electron   91.9999996 magnetization 
 augmentation part    -0.9595655 magnetization 

 Broyden mixing:
  rms(total) = 0.65133E-02    rms(broyden)= 0.65133E-02
  rms(prec ) = 0.16409E-01
  weight for this iteration     100.00

 eigenvalues of (default mixing * dielectric matrix)
  average eigenvalue GAMMA=   1.4783
  2.6415  2.1025  0.9422  0.9422  0.7630

 Free energy of the ion-electron system (eV)
  ---------------------------------------------------
  alpha Z        PSCENC =        -7.38312591
  Ewald energy   TEWEN  =     -2184.10012402
  -1/2 Hartree   DENC   =       -26.04646932
  -exchange  EXHF       =         0.00000000
  -V(xc)+E(xc)   XCENC  =      -792.44620408
  PAW double counting   =      1078.33178276     -108.91421010
  entropy T*S    EENTRO =        -0.08878884
  eigenvalues    EBANDS =       314.66082721
  atomic energy  EATOM  =      1629.13144109
  ---------------------------------------------------
  free energy    TOTEN  =       -96.85487121 eV

  energy without entropy =      -96.76608238  energy(sigma->0) =      -96.82527493


--------------------------------------------------------------------------------------------------------




----------------------------------------- Iteration    1(  18)  ---------------------------------------


    POTLOK:  cpu time    1.95: real time    1.88
    SETDIJ:  cpu time    0.15: real time    0.15
    EDDIAG:  cpu time    1.96: real time    1.50
  RMM-DIIS:  cpu time   19.81: real time    5.99
    ORTHCH:  cpu time    0.17: real time    0.04
       DOS:  cpu time    0.00: real time    0.00
    CHARGE:  cpu time    1.12: real time    1.02
    MIXING:  cpu time    0.09: real time    0.06
    --------------------------------------------
      LOOP:  cpu time   25.26: real time   10.65

 eigenvalue-minimisations  :   117
 total energy-change (2. order) : 0.1979678E-03  (-0.1391836E-03)
 number of electron   91.9999996 magnetization 
 augmentation part    -0.9600825 magnetization 

 Broyden mixing:
  rms(total) = 0.22359E-02    rms(broyden)= 0.22359E-02
  rms(prec ) = 0.41622E-02
  weight for this iteration     100.00

 eigenvalues of (default mixing * dielectric matrix)
  average eigenvalue GAMMA=   1.4335
  2.6635  2.1662  1.1380  0.9357  0.9357  0.7617

 Free energy of the ion-electron system (eV)
  ---------------------------------------------------
  alpha Z        PSCENC =        -7.38312591
  Ewald energy   TEWEN  =     -2184.10012402
  -1/2 Hartree   DENC   =       -26.01653872
  -exchange  EXHF       =         0.00000000
  -V(xc)+E(xc)   XCENC  =      -792.42561711
  PAW double counting   =      1078.39972557     -108.99069173
  entropy T*S    EENTRO =        -0.08806187
  eigenvalues    EBANDS =       314.61831944
  atomic energy  EATOM  =      1629.13144109
  ---------------------------------------------------
  free energy    TOTEN  =       -96.85467324 eV

  energy without entropy =      -96.76661137  energy(sigma->0) =      -96.82531929


--------------------------------------------------------------------------------------------------------




----------------------------------------- Iteration    1(  19)  ---------------------------------------


    POTLOK:  cpu time    1.94: real time    1.88
    SETDIJ:  cpu time    0.15: real time    0.15
    EDDIAG:  cpu time    1.96: real time    1.50
  RMM-DIIS:  cpu time   14.18: real time    4.45
    ORTHCH:  cpu time    0.17: real time    0.04
       DOS:  cpu time    0.00: real time    0.00
    --------------------------------------------
      LOOP:  cpu time   18.41: real time    8.02

 eigenvalue-minimisations  :    83
 total energy-change (2. order) :-0.6901204E-05  (-0.7105576E-05)
 number of electron   91.9999996 magnetization 
 augmentation part    -0.9600825 magnetization 

 Free energy of the ion-electron system (eV)
  ---------------------------------------------------
  alpha Z        PSCENC =        -7.38312591
  Ewald energy   TEWEN  =     -2184.10012402
  -1/2 Hartree   DENC   =       -26.02073331
  -exchange  EXHF       =         0.00000000
  -V(xc)+E(xc)   XCENC  =      -792.41952446
  PAW double counting   =      1078.42056171     -109.01443786
  entropy T*S    EENTRO =        -0.08801548
  eigenvalues    EBANDS =       314.61927810
  atomic energy  EATOM  =      1629.13144109
  ---------------------------------------------------
  free energy    TOTEN  =       -96.85468014 eV

  energy without entropy =      -96.76666466  energy(sigma->0) =      -96.82534165


--------------------------------------------------------------------------------------------------------




 average (electrostatic) potential at core
  the test charge radii are     1.0714  1.0406
  (the norm of the test charge is              1.0000)
       1 -50.6591       2 -73.1024       3 -73.1669       4 -73.2435       5 -73.2435
       6 -72.8448       7 -72.8448       8 -73.1074       9 -73.0272      10 -72.8430
      11 -73.2435      12 -73.2435      13 -73.2570      14 -73.2571      15 -73.1074
      16 -73.0272      17 -72.8448      18 -72.8448      19 -73.0272      20 -73.1074
      21 -73.1667      22 -73.1027      23 -73.2435      24 -73.2435      25 -73.2570
      26 -73.2571      27 -73.0272      28 -73.1074      29 -72.8428      30 -73.2435
      31 -73.2435
 
 
 
 E-fermi :   7.9026     XC(G=0): -10.0121     alpha+bet :-14.3073
   add alpha+bet to get absolut eigen values

 k-point   1 :       0.0000    0.0000    0.0000
  band No.  band energies     occupation 
      1      -3.3254      2.00000
      2      -1.1951      2.00000
      3      -1.1918      2.00000
      4      -1.1770      2.00000
      5      -1.1676      2.00000
      6      -0.9580      2.00000
      7      -0.7805      2.00000
      8       0.9687      2.00000
      9       0.9847      2.00000
     10       1.0017      2.00000
     11       1.0027      2.00000
     12       1.0261      2.00000
     13       1.0689      2.00000
     14       1.0703      2.00000
     15       1.1403      2.00000
     16       1.1487      2.00000
     17       1.2072      2.00000
     18       1.7680      2.00000
     19       1.8727      2.00000
     20       3.1306      2.00000
     21       3.1934      2.00000
     22       3.2702      2.00000
     23       3.2804      2.00000
     24       3.2990      2.00000
     25       3.3585      2.00000
     26       3.8451      2.00000
     27       3.9243      2.00000
     28       4.9210      2.00000
     29       4.9400      2.00000
     30       4.9636      2.00000
     31       6.1056      2.00000
     32       6.3343      2.00000
     33       6.4057      2.00000
     34       6.7622      2.00000
     35       6.7915      2.00000
     36       6.8070      2.00000
     37       6.8330      2.00000
     38       6.8882      2.00000
     39       6.9594      2.00000
     40       7.0100      2.00000
     41       7.0364      2.00000
     42       7.0871      2.00000
     43       7.1633      2.00000
     44       7.2932      2.00014
     45       7.3232      2.00033
     46       7.8729      1.24831
     47       7.9690      0.47104
     48       8.0313      0.12298
     49       8.0439      0.07584
     50       8.0480      0.06215
     51       8.0629      0.01921
     52       8.6068     -0.00001
     53       8.7577      0.00000
     54       8.7790      0.00000
     55       8.8455      0.00000
     56       8.8829      0.00000
     57       8.9197      0.00000
     58       8.9727      0.00000
     59       8.9972      0.00000
     60       9.2149      0.00000
     61       9.2338      0.00000
     62       9.3235      0.00000


--------------------------------------------------------------------------------------------------------


 soft charge-density along one line, spin component           1
         0         1         2         3         4         5         6         7         8         9
 total charge-density along one line
 
 pseudopotential strength for first ion, spin component:           1
  3.590  -0.048   0.000   0.000   0.000   0.000   0.000   0.000
 -0.048   0.000   0.000   0.000   0.000   0.000   0.000   0.000
  0.000   0.000   0.750   0.000   0.000  -0.044   0.000   0.000
  0.000   0.000   0.000   0.749   0.000   0.000  -0.044   0.000
  0.000   0.000   0.000   0.000   0.749   0.000   0.000  -0.044
  0.000   0.000  -0.044   0.000   0.000  -0.031   0.000   0.000
  0.000   0.000   0.000  -0.044   0.000   0.000  -0.031   0.000
  0.000   0.000   0.000   0.000  -0.044   0.000   0.000  -0.031
 total augmentation occupancy for first ion, spin component:           1
  1.209  -0.051   0.000   0.000   0.000   0.000   0.000   0.000
 -0.051   0.004   0.000   0.000   0.000   0.000   0.000   0.000
  0.000   0.000   1.637   0.000   0.000   0.079   0.000   0.000
  0.000   0.000   0.000   0.770  -0.355   0.000   0.046  -0.014
  0.000   0.000   0.000  -0.355   0.770   0.000  -0.014   0.046
  0.000   0.000   0.079   0.000   0.000   0.004   0.000   0.000
  0.000   0.000   0.000   0.046  -0.014   0.000   0.003  -0.001
  0.000   0.000   0.000  -0.014   0.046   0.000  -0.001   0.003


------------------------ aborting loop because EDIFF is reached ----------------------------------------




--------------------------------------------------------------------------------------------------------



  FREE ENERGIE OF THE ION-ELECTRON SYSTEM (eV)
  ---------------------------------------------------
  free  energy   TOTEN  =       -96.854680 eV

  energy  without entropy=      -96.766665  energy(sigma->0) =      -96.825342
 
    CHARGE:  cpu time    1.03: real time    1.03
    FORLOC:  cpu time    0.74: real time    0.74
    FORNL :  cpu time    3.10: real time    3.10
    STRESS:  cpu time   17.28: real time    4.98
    FORCOR:  cpu time    2.57: real time    2.58
    FORHAR:  cpu time    1.16: real time    1.16
    MIXING:  cpu time    0.10: real time    0.06

  FORCE on cell =-STRESS in cart. coord.  units (eV):
  Direction    XX          YY          ZZ          XY          YZ          ZX
  --------------------------------------------------------------------------------------
  Alpha Z    -7.38313    -7.38313    -7.38313
  Ewald    -729.16581  -725.77738  -729.16581     0.00000     0.00000    -3.47361
  Hartree    11.13376     3.78369    11.13376     0.00000     0.00000     2.11016
  E(xc)    -259.87491  -260.35823  -259.87491     0.00000     0.00000     0.24665
  Local     -10.50999    -2.83090   -10.50999     0.00000     0.00000     1.97363
  n-local   549.50780   553.47623   549.51002    -0.00080     0.00030    -2.31357
  augment   -25.72036   -25.80018   -25.72036     0.00000    -0.00001     0.10996
  Kinetic   466.34949   469.23802   466.34272     0.00286     0.00007    -0.78128
  Fock        0.00000     0.00000     0.00000     0.00000     0.00000     0.00000
  -------------------------------------------------------------------------------------
  Total      -5.66543     4.34813    -5.66543     0.00000     0.00000    -2.12808
  in kB     -17.16216    13.17171   -17.16216     0.00000     0.00000    -6.44655
  external pressure =       -7.05 kB  Pullay stress =        0.00 kB


 VOLUME and BASIS-vectors are now :
 -----------------------------------------------------------------------------
  energy-cutoff  :      300.00
  volume of cell :      528.90
      direct lattice vectors                 reciprocal lattice vectors
     8.087054000  0.000000000  0.000000000     0.123654423  0.000000000  0.000000000
     0.000000000  8.087054000  0.000000000     0.000000000  0.123654423  0.000000000
     0.000000000  0.000000000  8.087054000     0.000000000  0.000000000  0.123654423

  length of vectors
     8.087054000  8.087054000  8.087054000     0.123654423  0.123654423  0.123654423


 FORCES acting on ions
    electron-ion (+dipol)            ewald-force                    non-local-force                 convergence-correction
 -----------------------------------------------------------------------------------------------
   -.115E-02 -.296E-13 -.115E-02   0.705E-03 0.286E-14 0.705E-03   0.115E-03 0.000E+00 0.115E-03   0.180E-03 0.297E-14 0.180E-03
   -.239E+01 0.227E-13 -.239E+01   0.190E+01 0.488E-14 0.190E+01   0.252E+00 0.000E+00 0.252E+00   -.668E-03 -.286E-14 -.668E-03
   -.149E+01 0.162E-13 -.149E+01   0.133E+01 0.555E-16 0.133E+01   0.224E+00 0.000E+00 0.224E+00   0.391E-03 -.126E-15 0.392E-03
   -.103E+01 -.872E+01 -.620E+01   0.917E+00 0.872E+01 0.628E+01   0.665E-01 -.760E-01 -.196E+00   -.346E-03 0.839E-02 0.111E-02
   -.620E+01 -.872E+01 -.103E+01   0.628E+01 0.872E+01 0.917E+00   -.196E+00 -.760E-01 0.665E-01   0.111E-02 0.840E-02 -.345E-03
   0.120E+01 -.150E-13 -.153E+01   -.130E+01 0.783E-14 0.134E+01   0.386E+00 0.000E+00 0.296E+00   0.122E-02 -.188E-14 0.293E-03
   0.153E+01 0.517E-14 -.120E+01   -.134E+01 -.876E-12 0.130E+01   -.296E+00 -.136E-19 -.386E+00   -.411E-03 -.514E-14 -.110E-02
   0.132E+01 -.384E+01 -.132E+01   -.132E+01 0.339E+01 0.132E+01   -.732E-01 0.991E-01 0.729E-01   -.318E-04 0.563E-02 -.579E-04
   0.430E+01 -.741E+01 -.430E+01   -.455E+01 0.846E+01 0.455E+01   0.949E+00 -.226E+01 -.948E+00   -.786E-03 0.774E-02 0.114E-02
   -.692E+01 -.252E-13 -.692E+01   0.703E+01 -.178E-14 0.703E+01   -.229E+00 0.000E+00 -.229E+00   0.189E-02 0.307E-14 0.189E-02
   -.103E+01 0.872E+01 -.620E+01   0.917E+00 -.872E+01 0.628E+01   0.665E-01 0.760E-01 -.196E+00   -.346E-03 -.839E-02 0.111E-02
   -.620E+01 0.872E+01 -.103E+01   0.628E+01 -.872E+01 0.917E+00   -.196E+00 0.760E-01 0.665E-01   0.111E-02 -.840E-02 -.345E-03
   0.684E+01 0.134E-12 -.398E+01   -.660E+01 -.867E-12 0.426E+01   -.139E+00 0.271E-19 -.257E-01   -.182E-02 0.330E-14 -.480E-03
   0.399E+01 0.161E-13 -.684E+01   -.427E+01 0.890E-12 0.660E+01   0.245E-01 -.508E-20 0.140E+00   0.173E-03 0.593E-14 0.211E-02
   0.132E+01 0.384E+01 -.132E+01   -.132E+01 -.339E+01 0.132E+01   -.732E-01 -.991E-01 0.729E-01   -.318E-04 -.563E-02 -.579E-04
   0.430E+01 0.741E+01 -.430E+01   -.455E+01 -.846E+01 0.455E+01   0.949E+00 0.226E+01 -.948E+00   -.786E-03 -.774E-02 0.114E-02
   -.153E+01 -.940E-14 0.120E+01   0.134E+01 -.933E-14 -.130E+01   0.296E+00 0.000E+00 0.386E+00   0.293E-03 -.608E-14 0.122E-02
   -.120E+01 -.795E-13 0.153E+01   0.130E+01 0.433E-14 -.134E+01   -.386E+00 0.136E-19 -.296E+00   -.110E-02 -.621E-14 -.412E-03
   -.430E+01 -.741E+01 0.430E+01   0.455E+01 0.846E+01 -.455E+01   -.948E+00 -.226E+01 0.949E+00   0.114E-02 0.774E-02 -.787E-03
   -.132E+01 -.384E+01 0.132E+01   0.132E+01 0.339E+01 -.132E+01   0.729E-01 0.991E-01 -.732E-01   -.584E-04 0.563E-02 -.323E-04
   0.149E+01 0.592E-13 0.149E+01   -.133E+01 0.101E-13 -.133E+01   -.224E+00 0.000E+00 -.224E+00   -.304E-03 -.889E-14 -.304E-03
   0.239E+01 0.716E-13 0.239E+01   -.190E+01 -.749E-13 -.190E+01   -.251E+00 0.000E+00 -.251E+00   0.608E-03 -.801E-14 0.607E-03
   0.620E+01 -.872E+01 0.103E+01   -.628E+01 0.872E+01 -.917E+00   0.195E+00 -.760E-01 -.669E-01   -.137E-02 0.854E-02 0.356E-03
   0.103E+01 -.872E+01 0.620E+01   -.917E+00 0.872E+01 -.628E+01   -.669E-01 -.760E-01 0.195E+00   0.357E-03 0.854E-02 -.137E-02
   -.398E+01 0.282E-13 0.684E+01   0.426E+01 -.877E-12 -.660E+01   -.257E-01 -.136E-19 -.139E+00   -.481E-03 0.576E-14 -.182E-02
   -.684E+01 -.183E-13 0.399E+01   0.660E+01 0.893E-12 -.427E+01   0.140E+00 0.000E+00 0.245E-01   0.211E-02 0.650E-14 0.172E-03
   -.430E+01 0.741E+01 0.430E+01   0.455E+01 -.846E+01 -.455E+01   -.948E+00 0.226E+01 0.949E+00   0.114E-02 -.774E-02 -.787E-03
   -.132E+01 0.384E+01 0.132E+01   0.132E+01 -.339E+01 -.132E+01   0.729E-01 -.991E-01 -.732E-01   -.584E-04 -.563E-02 -.323E-04
   0.692E+01 -.887E-13 0.692E+01   -.703E+01 -.117E-14 -.703E+01   0.229E+00 0.000E+00 0.229E+00   -.212E-02 0.890E-14 -.212E-02
   0.620E+01 0.872E+01 0.103E+01   -.628E+01 -.872E+01 -.917E+00   0.195E+00 0.760E-01 -.669E-01   -.137E-02 -.854E-02 0.356E-03
   0.103E+01 0.872E+01 0.620E+01   -.917E+00 -.872E+01 -.628E+01   -.669E-01 0.760E-01 0.195E+00   0.357E-03 -.854E-02 -.137E-02
 -----------------------------------------------------------------------------------------------
   0.128E-02 -.138E-12 0.128E-02   -.207E-13 0.195E-13 0.293E-13   -.171E-02 -.444E-15 -.171E-02   -.969E-05 -.767E-14 -.969E-05
 
 
 POSITION                                       TOTAL-FORCE (eV/Angst)
 -----------------------------------------------------------------------------------
      3.03261      4.04353      3.03261        -0.000131      0.000000     -0.000131
      8.08114      0.00000      8.08114        -0.239891      0.000000     -0.239891
      2.01148      0.00000      2.01148         0.063403      0.000000      0.063403
      2.02813      2.03837      0.02360        -0.048088     -0.069250     -0.113505
      0.02360      2.03837      2.02813        -0.113505     -0.069250     -0.048088
      4.04248      0.00000      8.05795         0.280205      0.000000      0.108317
      6.09437      0.00000      2.02282        -0.108116      0.000000     -0.280335
      6.07748      2.01437      8.07487        -0.074594     -0.344122      0.074589
      4.06259      2.00201      2.00268         0.696267     -1.202120     -0.696340
      0.01410      4.04353      0.01410        -0.122933      0.000000     -0.122933
      2.02813      6.04868      0.02360        -0.048088      0.069250     -0.113505
      0.02360      6.04868      2.02813        -0.113505      0.069250     -0.048088
      4.04821      4.04353      0.00243         0.101202      0.000000      0.254824
      6.06290      4.04353      2.01705        -0.254598      0.000000     -0.101341
      6.07748      6.07268      8.07487        -0.074594      0.344122      0.074589
      4.06259      6.08505      2.00268         0.696267      1.202120     -0.696340
      8.05795      0.00000      4.04248         0.108317      0.000000      0.280205
      2.02282      0.00000      6.09437        -0.280335      0.000000     -0.108116
      2.00268      2.00201      4.06259        -0.696340     -1.202120      0.696267
      8.07487      2.01437      6.07748         0.074589     -0.344122     -0.074594
      4.05381      0.00000      4.05381        -0.063408      0.000000     -0.063408
      6.07119      0.00000      6.07119         0.239744      0.000000      0.239744
      6.04171      2.03837      4.03718         0.113533     -0.069373      0.048209
      4.03718      2.03837      6.04171         0.048209     -0.069373      0.113533
      0.00243      4.04353      4.04821         0.254824      0.000000      0.101202
      2.01705      4.04353      6.06290        -0.101341      0.000000     -0.254598
      2.00268      6.08505      4.06259        -0.696340      1.202120      0.696267
      8.07487      6.07268      6.07748         0.074589      0.344122     -0.074594
      6.05120      4.04353      6.05120         0.122915      0.000000      0.122915
      6.04171      6.04869      4.03718         0.113533      0.069373      0.048209
      4.03718      6.04869      6.04171         0.048209      0.069373      0.113533
 -----------------------------------------------------------------------------------
    total drift:                               -0.000443      0.000000     -0.000443


--------------------------------------------------------------------------------------------------------


    POTLOK:  cpu time    2.10: real time    2.04


--------------------------------------------------------------------------------------------------------


 NEB: the previous image is higher in energy: F
 NEB: the next image is higher in energy    : F
 NEB: image is at an extrema
 NEB: diff energy (min, max):    96.854680   96.854680

 NEB: Tangent
 ----------------------------------------------
      0.70417      0.00000      0.70417
     -0.00194      0.00000     -0.00194
      0.00298      0.00000      0.00298
      0.00462      0.01479      0.01566
      0.01566      0.01479      0.00462
      0.00146      0.00000      0.00145
      0.00142      0.00000      0.00147
     -0.00343      0.00002     -0.00342
     -0.01339      0.00004     -0.01337
      0.01628      0.00000      0.01628
      0.00462     -0.01479      0.01566
      0.01566     -0.01479      0.00462
     -0.01148      0.00000      0.01766
      0.01759      0.00000     -0.01145
     -0.00343     -0.00002     -0.00342
     -0.01339     -0.00004     -0.01337
      0.00145      0.00000      0.00146
      0.00147      0.00000      0.00142
     -0.01337      0.00004     -0.01339
     -0.00342      0.00002     -0.00343
      0.00300      0.00000      0.00300
     -0.00196      0.00000     -0.00196
      0.01563     -0.01477      0.00462
      0.00462     -0.01477      0.01563
      0.01766      0.00000     -0.01148
     -0.01145      0.00000      0.01759
     -0.01337     -0.00004     -0.01339
     -0.00342     -0.00002     -0.00343
      0.01628      0.00000      0.01628
      0.01563      0.01477      0.00462
      0.00462      0.01477      0.01563

 NEB: forces: par spring, perp REAL, dneb     0.000054    3.362365    0.000000
 NEB: distance to prev, next image, angle between     1.311539    1.311550  179.998263
 NEB: projections on to tangent (spring, REAL)     0.000054   -0.000426

  FORCES: max atom, RMS     1.553953    0.603899
  FORCE total and by dimension    3.362365    1.202120
 Quasi-Newton relaxation of ions (Broydens 2nd method)
  g(Force)  = 0.545E+00   g(Stress)= 0.000E+00

 Reset! Starting new Quasi-Newton update for ions 


--------------------------------------------------------------------------------------------------------


    WAVPRE:  cpu time    0.87: real time    0.87
    FEWALD:  cpu time    0.01: real time    0.01
    ORTHCH:  cpu time    2.01: real time    0.52
     LOOP+:  cpu time  414.88: real time  168.09
   RESPFUN:  cpu time    0.01: real time    0.00


----------------------------------------- Iteration    2(   1)  ---------------------------------------


    POTLOK:  cpu time    1.97: real time    1.88
    SETDIJ:  cpu time    0.15: real time    0.15
    EDDIAG:  cpu time    1.96: real time    1.50
  RMM-DIIS:  cpu time   20.87: real time    6.41
    ORTHCH:  cpu time    0.17: real time    0.04
       DOS:  cpu time    0.00: real time    0.00
    CHARGE:  cpu time    1.12: real time    1.03
    MIXING:  cpu time    0.06: real time    0.06
    --------------------------------------------
      LOOP:  cpu time   26.32: real time   11.08

 eigenvalue-minimisations  :   124
 total energy-change (2. order) :-0.5241839E+00  (-0.3993403E+00)
 number of electron   91.9999996 magnetization 
 augmentation part    -0.9616678 magnetization 

 Broyden mixing:
  rms(total) = 0.77138E-01    rms(broyden)= 0.77134E-01
  rms(prec ) = 0.21654E+00
  weight for this iteration     100.00

 Free energy of the ion-electron system (eV)
  ---------------------------------------------------
  alpha Z        PSCENC =        -7.38312591
  Ewald energy   TEWEN  =     -2179.29198266
  -1/2 Hartree   DENC   =       -30.44942922
  -exchange  EXHF       =         0.00000000
  -V(xc)+E(xc)   XCENC  =      -792.31837069
  PAW double counting   =      1078.42802518     -109.02386464
  entropy T*S    EENTRO =         0.02854381
  eigenvalues    EBANDS =       313.49990593
  atomic energy  EATOM  =      1629.13144109
  ---------------------------------------------------
  free energy    TOTEN  =       -97.37885711 eV

  energy without entropy =      -97.40740092  energy(sigma->0) =      -97.38837171


--------------------------------------------------------------------------------------------------------




----------------------------------------- Iteration    2(   2)  ---------------------------------------


    POTLOK:  cpu time    1.74: real time    1.74
    SETDIJ:  cpu time    0.15: real time    0.15
    EDDIAG:  cpu time    1.97: real time    1.49
  RMM-DIIS:  cpu time   20.70: real time    6.29
    ORTHCH:  cpu time    0.16: real time    0.04
       DOS:  cpu time    0.00: real time    0.00
    CHARGE:  cpu time    1.12: real time    1.03
    MIXING:  cpu time    0.05: real time    0.05
    --------------------------------------------
      LOOP:  cpu time   25.92: real time   10.80

 eigenvalue-minimisations  :   124
 total energy-change (2. order) : 0.5463436E-01  (-0.1687444E-01)
 number of electron   91.9999996 magnetization 
 augmentation part    -0.9596079 magnetization 

 Broyden mixing:
  rms(total) = 0.24647E-01    rms(broyden)= 0.24646E-01
  rms(prec ) = 0.56413E-01
  weight for this iteration     100.00

 eigenvalues of (default mixing * dielectric matrix)
  average eigenvalue GAMMA=   1.1723
  1.1723

 Free energy of the ion-electron system (eV)
  ---------------------------------------------------
  alpha Z        PSCENC =        -7.38312591
  Ewald energy   TEWEN  =     -2179.29198266
  -1/2 Hartree   DENC   =       -31.09817849
  -exchange  EXHF       =         0.00000000
  -V(xc)+E(xc)   XCENC  =      -792.31591952
  PAW double counting   =      1078.40388710     -108.99256894
  entropy T*S    EENTRO =        -0.01113948
  eigenvalues    EBANDS =       314.23336405
  atomic energy  EATOM  =      1629.13144109
  ---------------------------------------------------
  free energy    TOTEN  =       -97.32422276 eV

  energy without entropy =      -97.31308327  energy(sigma->0) =      -97.32050960


--------------------------------------------------------------------------------------------------------




----------------------------------------- Iteration    2(   3)  ---------------------------------------


    POTLOK:  cpu time    1.74: real time    1.74
    SETDIJ:  cpu time    0.15: real time    0.15
    EDDIAG:  cpu time    2.05: real time    1.52
  RMM-DIIS:  cpu time   21.80: real time    6.56
    ORTHCH:  cpu time    0.16: real time    0.04
       DOS:  cpu time    0.00: real time    0.00
    CHARGE:  cpu time    1.12: real time    1.03
    MIXING:  cpu time    0.06: real time    0.05
    --------------------------------------------
      LOOP:  cpu time   27.09: real time   11.09

 eigenvalue-minimisations  :   130
 total energy-change (2. order) : 0.2825113E-02  (-0.1929895E-02)
 number of electron   91.9999996 magnetization 
 augmentation part    -0.9593097 magnetization 

 Broyden mixing:
  rms(total) = 0.11752E-01    rms(broyden)= 0.11752E-01
  rms(prec ) = 0.21558E-01
  weight for this iteration     100.00

 eigenvalues of (default mixing * dielectric matrix)
  average eigenvalue GAMMA=   1.2168
  1.5162  0.9174

 Free energy of the ion-electron system (eV)
  ---------------------------------------------------
  alpha Z        PSCENC =        -7.38312591
  Ewald energy   TEWEN  =     -2179.29198266
  -1/2 Hartree   DENC   =       -31.16703529
  -exchange  EXHF       =         0.00000000
  -V(xc)+E(xc)   XCENC  =      -792.31619413
  PAW double counting   =      1078.38850414     -108.97453357
  entropy T*S    EENTRO =        -0.02072455
  eigenvalues    EBANDS =       314.31225324
  atomic energy  EATOM  =      1629.13144109
  ---------------------------------------------------
  free energy    TOTEN  =       -97.32139764 eV

  energy without entropy =      -97.30067309  energy(sigma->0) =      -97.31448946


--------------------------------------------------------------------------------------------------------




----------------------------------------- Iteration    2(   4)  ---------------------------------------


    POTLOK:  cpu time    1.76: real time    1.74
    SETDIJ:  cpu time    0.15: real time    0.15
    EDDIAG:  cpu time    1.99: real time    1.50
  RMM-DIIS:  cpu time   21.59: real time    6.46
[...]


--------------------------------------------------------------------------------------------------------




----------------------------------------- Iteration    6(   4)  ---------------------------------------


    POTLOK:  cpu time    1.78: real time    1.75
    SETDIJ:  cpu time    0.15: real time    0.15
    EDDIAG:  cpu time    2.01: real time    1.51
  RMM-DIIS:  cpu time   12.37: real time    3.95
    ORTHCH:  cpu time    0.16: real time    0.04
       DOS:  cpu time    0.00: real time    0.00
    --------------------------------------------
      LOOP:  cpu time   16.48: real time    7.42

 eigenvalue-minimisations  :    75
 total energy-change (2. order) : 0.6594780E-05  (-0.1405221E-04)
 number of electron   91.9999998 magnetization 
 augmentation part    -0.9556528 magnetization 

 Free energy of the ion-electron system (eV)
  ---------------------------------------------------
  alpha Z        PSCENC =        -7.38312591
  Ewald energy   TEWEN  =     -2151.72361488
  -1/2 Hartree   DENC   =       -57.57661096
  -exchange  EXHF       =         0.00000000
  -V(xc)+E(xc)   XCENC  =      -791.81602353
  PAW double counting   =      1079.84420927     -110.47938301
  entropy T*S    EENTRO =         0.10095142
  eigenvalues    EBANDS =       311.91498565
  atomic energy  EATOM  =      1629.13144109
  ---------------------------------------------------
  free energy    TOTEN  =       -97.98717085 eV

  energy without entropy =      -98.08812227  energy(sigma->0) =      -98.02082132


--------------------------------------------------------------------------------------------------------




 average (electrostatic) potential at core
  the test charge radii are     1.0714  1.0406
  (the norm of the test charge is              1.0000)
       1 -51.1801       2 -72.8282       3 -73.1050       4 -73.2990       5 -73.2990
       6 -72.6132       7 -72.6132       8 -72.9871       9 -73.0843      10 -72.7461
      11 -73.2990      12 -73.2990      13 -73.3556      14 -73.3557      15 -72.9871
      16 -73.0843      17 -72.6132      18 -72.6132      19 -73.0843      20 -72.9871
      21 -73.1049      22 -72.8282      23 -73.2989      24 -73.2989      25 -73.3556
      26 -73.3557      27 -73.0843      28 -72.9871      29 -72.7459      30 -73.2989
      31 -73.2989
 
 
 
 E-fermi :   7.8100     XC(G=0):  -9.9955     alpha+bet :-14.3073
   add alpha+bet to get absolut eigen values

 k-point   1 :       0.0000    0.0000    0.0000
  band No.  band energies     occupation 
      1      -3.4163      2.00000
      2      -1.4275      2.00000
      3      -1.2816      2.00000
      4      -1.2029      2.00000
      5      -1.2021      2.00000
      6      -0.8521      2.00000
      7      -0.8447      2.00000
      8       0.7726      2.00000
      9       0.7805      2.00000
     10       0.9160      2.00000
     11       0.9351      2.00000
     12       1.0468      2.00000
     13       1.0542      2.00000
     14       1.1243      2.00000
     15       1.1470      2.00000
     16       1.1665      2.00000
     17       1.2596      2.00000
     18       1.7807      2.00000
     19       1.9808      2.00000
     20       3.1743      2.00000
     21       3.2120      2.00000
     22       3.2809      2.00000
     23       3.2978      2.00000
     24       3.3149      2.00000
     25       3.3982      2.00000
     26       3.9571      2.00000
     27       4.1169      2.00000
     28       4.8505      2.00000
     29       4.8588      2.00000
     30       4.8904      2.00000
     31       6.0120      2.00000
     32       6.2689      2.00000
     33       6.3509      2.00000
     34       6.6294      2.00000
     35       6.7480      2.00000
     36       6.7546      2.00000
     37       6.7700      2.00000
     38       6.8016      2.00000
     39       6.8149      2.00000
     40       6.9723      2.00000
     41       7.0929      2.00000
     42       7.1295      2.00002
     43       7.3053      2.00209
     44       7.3133      2.00249
     45       7.4147      2.01726
     46       7.5175      2.05860
     47       7.9430      0.10571
     48       8.0057     -0.04555
     49       8.0193     -0.05860
     50       8.0388     -0.06868
     51       8.2210     -0.01333
     52       8.5465      0.00000
     53       8.6105      0.00000
     54       8.7199      0.00000
     55       8.7246      0.00000
     56       8.8356      0.00000
     57       8.9425      0.00000
     58       8.9610      0.00000
     59       9.0681      0.00000
     60       9.1524      0.00000
     61       9.2014      0.00000
     62       9.2476      0.00000


--------------------------------------------------------------------------------------------------------


 soft charge-density along one line, spin component           1
         0         1         2         3         4         5         6         7         8         9
 total charge-density along one line
 
 pseudopotential strength for first ion, spin component:           1
  3.569  -0.038   0.000   0.000   0.000   0.000   0.000   0.000
 -0.038  -0.003   0.000   0.000   0.000   0.000   0.000   0.000
  0.000   0.000   0.738   0.000   0.000  -0.040   0.000   0.000
  0.000   0.000   0.000   0.738   0.000   0.000  -0.040   0.000
  0.000   0.000   0.000   0.000   0.738   0.000   0.000  -0.040
  0.000   0.000  -0.040   0.000   0.000  -0.032   0.000   0.000
  0.000   0.000   0.000  -0.040   0.000   0.000  -0.032   0.000
  0.000   0.000   0.000   0.000  -0.040   0.000   0.000  -0.032
 total augmentation occupancy for first ion, spin component:           1
  1.132  -0.050   0.000   0.000   0.000   0.000   0.000   0.000
 -0.050   0.004   0.000   0.000   0.000   0.000   0.000   0.000
  0.000   0.000   1.043   0.000   0.000   0.031   0.000   0.000
  0.000   0.000   0.000   0.542  -0.165   0.000   0.025  -0.005
  0.000   0.000   0.000  -0.165   0.542   0.000  -0.005   0.025
  0.000   0.000   0.031   0.000   0.000   0.001   0.000   0.000
  0.000   0.000   0.000   0.025  -0.005   0.000   0.001   0.000
  0.000   0.000   0.000  -0.005   0.025   0.000   0.000   0.001


------------------------ aborting loop because EDIFF is reached ----------------------------------------




--------------------------------------------------------------------------------------------------------



  FREE ENERGIE OF THE ION-ELECTRON SYSTEM (eV)
  ---------------------------------------------------
  free  energy   TOTEN  =       -97.987171 eV

  energy  without entropy=      -98.088122  energy(sigma->0) =      -98.020821
 
    CHARGE:  cpu time    1.03: real time    1.03
    FORLOC:  cpu time    0.74: real time    0.74
    FORNL :  cpu time    3.10: real time    3.10
    STRESS:  cpu time   17.27: real time    4.98
    FORCOR:  cpu time    2.57: real time    2.57
    FORHAR:  cpu time    1.16: real time    1.16
    MIXING:  cpu time    0.07: real time    0.06

  FORCE on cell =-STRESS in cart. coord.  units (eV):
  Direction    XX          YY          ZZ          XY          YZ          ZX
  --------------------------------------------------------------------------------------
  Alpha Z    -7.38313    -7.38313    -7.38313
  Ewald    -708.07504  -735.58178  -708.07504     0.00000     0.00000     1.75147
  Hartree    27.54927     2.46026    27.54927     0.00000     0.00000     3.51787
  E(xc)    -260.83121  -260.74331  -260.83121     0.00000     0.00000     0.15794
  Local     -50.13109     8.83713   -50.13109     0.00000     0.00000    -4.97877
  n-local   552.89963   549.82772   552.89889     0.00006     0.00013    -1.43923
  augment   -25.70208   -25.28289   -25.70208     0.00000    -0.00001     0.08317
  Kinetic   467.36595   473.85024   467.36779     0.00045    -0.00059    -1.19486
  Fock        0.00000     0.00000     0.00000     0.00000     0.00000     0.00000
  -------------------------------------------------------------------------------------
  Total      -4.30715     5.98425    -4.30715     0.00000     0.00000    -2.10242
  in kB     -13.04757    18.12798   -13.04757     0.00000     0.00000    -6.36881
  external pressure =       -2.66 kB  Pullay stress =        0.00 kB


 VOLUME and BASIS-vectors are now :
 -----------------------------------------------------------------------------
  energy-cutoff  :      300.00
  volume of cell :      528.90
      direct lattice vectors                 reciprocal lattice vectors
     8.087054000  0.000000000  0.000000000     0.123654423  0.000000000  0.000000000
     0.000000000  8.087054000  0.000000000     0.000000000  0.123654423  0.000000000
     0.000000000  0.000000000  8.087054000     0.000000000  0.000000000  0.123654423

  length of vectors
     8.087054000  8.087054000  8.087054000     0.123654423  0.123654423  0.123654423


 FORCES acting on ions
    electron-ion (+dipol)            ewald-force                    non-local-force                 convergence-correction
 -----------------------------------------------------------------------------------------------
   0.733E-03 -.874E-13 0.733E-03   -.476E-03 0.339E-14 -.476E-03   -.321E-04 0.000E+00 -.321E-04   -.165E-03 -.642E-13 -.165E-03
   -.937E+01 -.243E-13 -.937E+01   0.758E+01 -.383E-14 0.758E+01   0.184E+01 0.000E+00 0.184E+01   -.940E-04 -.105E-13 -.933E-04
   0.131E+01 -.314E-13 0.131E+01   -.631E+00 0.250E-14 -.631E+00   -.697E+00 0.000E+00 -.697E+00   -.136E-02 0.826E-13 -.136E-02
   -.285E+01 -.154E+02 -.108E+02   0.243E+01 0.148E+02 0.103E+02   0.373E+00 0.586E+00 0.530E+00   -.470E-03 -.463E-02 -.373E-03
   -.108E+02 -.154E+02 -.285E+01   0.103E+02 0.148E+02 0.243E+01   0.530E+00 0.586E+00 0.373E+00   -.374E-03 -.463E-02 -.469E-03
   0.602E+01 0.115E-13 -.275E+00   -.571E+01 0.444E-15 -.136E-01   -.306E+00 0.000E+00 0.220E+00   -.235E-03 0.118E-13 0.111E-02
   0.272E+00 0.520E-13 -.602E+01   0.151E-01 0.233E-14 0.571E+01   -.219E+00 0.169E-20 0.305E+00   -.686E-03 0.127E-12 -.172E-03
   0.228E+01 -.120E+02 -.228E+01   -.225E+01 0.105E+02 0.226E+01   -.185E-01 0.150E+01 0.191E-01   0.172E-02 -.321E-02 -.134E-02
   0.109E+02 -.202E+02 -.109E+02   -.982E+01 0.185E+02 0.982E+01   -.106E+01 0.168E+01 0.106E+01   0.380E-03 -.552E-02 -.592E-03
   -.117E+02 -.491E-13 -.117E+02   0.109E+02 0.239E-14 0.109E+02   0.826E+00 0.000E+00 0.826E+00   -.198E-02 0.531E-14 -.198E-02
   -.285E+01 0.154E+02 -.108E+02   0.243E+01 -.148E+02 0.103E+02   0.373E+00 -.586E+00 0.530E+00   -.470E-03 0.463E-02 -.373E-03
   -.108E+02 0.154E+02 -.285E+01   0.103E+02 -.148E+02 0.243E+01   0.530E+00 -.586E+00 0.373E+00   -.374E-03 0.463E-02 -.469E-03
   0.136E+02 -.173E-12 -.451E+01   -.119E+02 0.566E-14 0.550E+01   -.163E+01 0.000E+00 -.107E+01   -.251E-03 -.212E-13 -.206E-02
   0.450E+01 0.131E-13 -.136E+02   -.550E+01 -.588E-14 0.119E+02   0.107E+01 -.169E-20 0.162E+01   0.234E-02 -.110E-12 -.454E-04
   0.228E+01 0.120E+02 -.228E+01   -.225E+01 -.105E+02 0.226E+01   -.185E-01 -.150E+01 0.191E-01   0.172E-02 0.321E-02 -.134E-02
   0.109E+02 0.202E+02 -.109E+02   -.982E+01 -.185E+02 0.982E+01   -.106E+01 -.168E+01 0.106E+01   0.380E-03 0.552E-02 -.592E-03
   -.275E+00 -.511E-13 0.602E+01   -.136E-01 0.394E-14 -.571E+01   0.220E+00 0.000E+00 -.306E+00   0.111E-02 0.881E-13 -.236E-03
   -.602E+01 -.380E-13 0.272E+00   0.571E+01 -.944E-15 0.151E-01   0.305E+00 -.847E-21 -.219E+00   -.173E-03 0.148E-13 -.686E-03
   -.109E+02 -.202E+02 0.109E+02   0.982E+01 0.185E+02 -.982E+01   0.106E+01 0.168E+01 -.106E+01   -.593E-03 -.552E-02 0.379E-03
   -.228E+01 -.120E+02 0.228E+01   0.226E+01 0.105E+02 -.225E+01   0.191E-01 0.150E+01 -.185E-01   -.134E-02 -.321E-02 0.171E-02
   -.131E+01 -.196E-13 -.131E+01   0.631E+00 0.102E-13 0.631E+00   0.696E+00 0.000E+00 0.696E+00   0.101E-02 0.913E-13 0.101E-02
   0.937E+01 -.118E-13 0.937E+01   -.758E+01 0.355E-14 -.758E+01   -.184E+01 0.000E+00 -.184E+01   0.496E-03 -.376E-13 0.496E-03
   0.108E+02 -.154E+02 0.285E+01   -.103E+02 0.148E+02 -.243E+01   -.530E+00 0.586E+00 -.373E+00   0.574E-03 -.447E-02 0.209E-03
   0.285E+01 -.154E+02 0.108E+02   -.243E+01 0.148E+02 -.103E+02   -.373E+00 0.586E+00 -.530E+00   0.210E-03 -.447E-02 0.573E-03
   -.451E+01 -.394E-13 0.136E+02   0.550E+01 -.755E-14 -.119E+02   -.107E+01 0.159E-20 -.163E+01   -.206E-02 -.825E-13 -.253E-03
   -.136E+02 -.439E-13 0.450E+01   0.119E+02 0.872E-14 -.550E+01   0.162E+01 0.000E+00 0.107E+01   -.468E-04 -.155E-13 0.234E-02
   -.109E+02 0.202E+02 0.109E+02   0.982E+01 -.185E+02 -.982E+01   0.106E+01 -.168E+01 -.106E+01   -.593E-03 0.552E-02 0.379E-03
   -.228E+01 0.120E+02 0.228E+01   0.226E+01 -.105E+02 -.225E+01   0.191E-01 -.150E+01 -.185E-01   -.134E-02 0.321E-02 0.171E-02
   0.117E+02 0.820E-13 0.117E+02   -.109E+02 -.117E-14 -.109E+02   -.827E+00 0.000E+00 -.827E+00   0.212E-02 0.474E-13 0.212E-02
   0.108E+02 0.154E+02 0.285E+01   -.103E+02 -.148E+02 -.243E+01   -.530E+00 -.586E+00 -.373E+00   0.574E-03 0.447E-02 0.209E-03
   0.285E+01 0.154E+02 0.108E+02   -.243E+01 -.148E+02 -.103E+02   -.373E+00 -.586E+00 -.530E+00   0.210E-03 0.447E-02 0.573E-03
 -----------------------------------------------------------------------------------------------
   0.917E-03 -.957E-12 0.917E-03   0.222E-14 0.124E-13 -.711E-13   -.134E-02 -.111E-14 -.134E-02   0.226E-03 0.166E-12 0.226E-03
 
 
 POSITION                                       TOTAL-FORCE (eV/Angst)
 -----------------------------------------------------------------------------------
      3.03269      4.04353      3.03269         0.000066      0.000000      0.000066
      8.01596      0.00000      8.01596         0.039806      0.000000      0.039806
      2.04416      0.00000      2.04416        -0.014004      0.000000     -0.014004
      2.00967      2.00741     -0.01198        -0.045132      0.017714      0.003835
     -0.01198      2.00741      2.00967         0.003835      0.017714     -0.045132
      4.07339      0.00000      7.99607         0.009411      0.000000     -0.067322
      6.15625      0.00000      1.99192         0.067352      0.000000     -0.009390
      6.09136      1.93299      8.06095         0.009148     -0.019744     -0.009181
      4.17472      1.77249      1.89058         0.013068     -0.086370     -0.013056
     -0.05240      4.04353     -0.05240         0.013155      0.000000      0.013155
      2.00967      6.07964     -0.01198        -0.045132     -0.017714      0.003835
     -0.01198      6.07964      2.00967         0.003835     -0.017714     -0.045132
      4.10776      4.04353      0.04660         0.050940      0.000000     -0.080916
      6.01866      4.04353      1.95757         0.080763      0.000000     -0.050756
      6.09136      6.15406      8.06095         0.009148      0.019744     -0.009181
      4.17472      6.31456      1.89058         0.013068      0.086370     -0.013056
      7.99607      0.00000      4.07339        -0.067322      0.000000      0.009411
      1.99192      0.00000      6.15625        -0.009390      0.000000      0.067352
      1.89058      1.77249      4.17472        -0.013056     -0.086370      0.013068
      8.06095      1.93299      6.09136        -0.009181     -0.019744      0.009148
      4.02114      0.00000      4.02114         0.014040      0.000000      0.014040
      6.13638      0.00000      6.13638        -0.039859      0.000000     -0.039859
      6.07730      2.00741      4.05561        -0.003867      0.017767      0.045138
      4.05561      2.00741      6.07730         0.045138      0.017767     -0.003867
      0.04660      4.04353      4.10776        -0.080916      0.000000      0.050940
      1.95757      4.04353      6.01866        -0.050756      0.000000      0.080763
      1.89058      6.31456      4.17472        -0.013056      0.086370      0.013068
      8.06095      6.15406      6.09136        -0.009181      0.019744      0.009148
      6.11772      4.04353      6.11772        -0.013192      0.000000     -0.013192
      6.07730      6.07965      4.05561        -0.003867     -0.017767      0.045138
      4.05561      6.07965      6.07730         0.045138     -0.017767     -0.003867
 -----------------------------------------------------------------------------------
    total drift:                               -0.000199      0.000000     -0.000199
 d Force = 0.1532955E-01[ 0.125E-01, 0.182E-01]  d Energy = 0.1528696E-01 0.426E-04
 d Force =-0.2117329E+01[-0.216E+01,-0.207E+01]  d Ewald  =-0.2117346E+01 0.168E-04


--------------------------------------------------------------------------------------------------------


    POTLOK:  cpu time    2.07: real time    2.03


--------------------------------------------------------------------------------------------------------


 NEB: the previous image is higher in energy: F
 NEB: the next image is higher in energy    : F
 NEB: image is at an extrema
 NEB: diff energy (min, max):    97.987171   97.987171

 NEB: Tangent
 ----------------------------------------------
      0.70417      0.00000      0.70417
     -0.00194      0.00000     -0.00194
      0.00298      0.00000      0.00298
      0.00462      0.01479      0.01566
      0.01566      0.01479      0.00462
      0.00146      0.00000      0.00145
      0.00142      0.00000      0.00147
     -0.00343      0.00002     -0.00342
     -0.01339      0.00004     -0.01337
      0.01628      0.00000      0.01628
      0.00462     -0.01479      0.01566
      0.01566     -0.01479      0.00462
     -0.01148      0.00000      0.01766
      0.01759      0.00000     -0.01145
     -0.00343     -0.00002     -0.00342
     -0.01339     -0.00004     -0.01337
      0.00145      0.00000      0.00146
      0.00147      0.00000      0.00142
     -0.01337      0.00004     -0.01339
     -0.00342      0.00002     -0.00343
      0.00300      0.00000      0.00300
     -0.00196      0.00000     -0.00196
      0.01563     -0.01477      0.00462
      0.00462     -0.01477      0.01563
      0.01766      0.00000     -0.01148
     -0.01145      0.00000      0.01759
     -0.01337     -0.00004     -0.01339
     -0.00342     -0.00002     -0.00343
      0.01628      0.00000      0.01628
      0.01563      0.01477      0.00462
      0.00462      0.01477      0.01563

 NEB: forces: par spring, perp REAL, dneb     0.000306    0.339366    0.000000
 NEB: distance to prev, next image, angle between     1.469743    1.469682  126.348072
 NEB: projections on to tangent (spring, REAL)    -0.000306    0.000049

  FORCES: max atom, RMS     0.095617    0.060952
  FORCE total and by dimension    0.339366    0.086370
 Quasi-Newton relaxation of ions (Broydens 2nd method)
  g(Force)  = 0.556E-02   g(Stress)= 0.000E+00

 retain information from N=  2 steps
 eigenvalues of (default step * inverse Hessian matrix)
  average eigenvalue of G=   5.8711
 eigenvalue spectrum of G is  5.8711  5.8711


--------------------------------------------------------------------------------------------------------


  
 reached required accuracy - stopping structural energy minimisation
     LOOP+:  cpu time  121.29: real time   55.25
    4ORBIT:  cpu time    0.00: real time    0.00

 total amount of memory used by VASP on root node 125895. kBytes
========================================================================

   base      :    30000. kBytes
   nonl-proj :     3890. kBytes
   fftplans  :    30736. kBytes
   grid      :    54743. kBytes
   one-center:       95. kBytes
   wavefun   :     6431. kBytes
 
  
  
 General timing and accounting informations for this job:
 ========================================================
  
                  Total CPU time used (sec):     1172.201
                            User time (sec):     1166.287
                          System time (sec):        5.914
                         Elapsed time (sec):      504.140
  
                   Maximum memory used (kb):           0.
                   Average memory used (kb):           0.
  
                          Minor page faults:       491756
                          Major page faults:            0
                 Voluntary context switches:         7796
