<?xml version="1.0" encoding="ISO-8859-1"?>
<modeling>
 <generator>
  <i name="program" type="string">vasp </i>
  <i name="version" type="string">5.2.2  </i>
  <i name="subversion" type="string">15Apr09 complex  parallel </i>
  <i name="platform" type="string">LinuxIFC </i>
  <i name="date" type="string">2013 11 25 </i>
  <i name="time" type="string">22:21:42 </i>
 </generator>
 <incar>
  <i type="string" name="PREC">normal</i>
  <i type="int" name="ISPIN">     2</i>
  <i type="int" name="IBRION">     2</i>
  <i type="int" name="NSW">   100</i>
  <i name="ENCUT">    313.00000000</i>
  <i name="NELECT">     62.00000000</i>
  <i type="logical" name="LWAVE"> F  </i>
  <i type="logical" name="LCHARG"> F  </i>
  <i type="logical" name="LPEAD"> F  </i>
  <i type="logical" name="LCALCPOL"> F  </i>
  <i type="logical" name="LCALCEPS"> F  </i>
  <v name="EFIELD_PEAD">      0.00000000      0.00000000      0.00000000</v>
  <i type="logical" name="LEFG"> F  </i>
 </incar>
 <kpoints>
  <generation param="Monkhorst-Pack">
   <v type="int" name="divisions">       2        2        2 </v>
   <v name="usershift">      0.00000000       0.00000000       0.00000000 </v>
   <v name="genvec1">      0.50000000       0.00000000       0.00000000 </v>
   <v name="genvec2">      0.00000000       0.50000000       0.00000000 </v>
   <v name="genvec3">      0.00000000       0.00000000       0.50000000 </v>
   <v name="shift">      0.50000000       0.50000000       0.50000000 </v>
  </generation>
  <varray name="kpointlist" >
   <v>       0.25000000       0.25000000       0.25000000 </v>
  </varray>
  <varray name="weights" >
   <v>       1.00000000 </v>
  </varray>
 </kpoints>
 <parameters>
  <separator name="general" >
   <i type="string" name="SYSTEM">unknown system</i>
   <i type="logical" name="LCOMPAT"> F  </i>
  </separator>
  <separator name="electronic" >
   <i type="string" name="PREC">normal</i>
   <i name="ENMAX">    313.00000000</i>
   <i name="ENAUG">    490.69000000</i>
   <i name="EDIFF">      0.00010000</i>
   <i type="int" name="IALGO">    38</i>
   <i type="int" name="IWAVPR">    11</i>
   <i type="int" name="NBANDS">    41</i>
   <i name="NELECT">     62.00000000</i>
   <separator name="electronic smearing" >
    <i type="int" name="ISMEAR">     1</i>
    <i name="SIGMA">      0.20000000</i>
   </separator>
   <separator name="electronic projectors" >
    <i type="logical" name="LREAL"> F  </i>
    <v name="ROPT">      0.00000000      0.00000000</v>
    <i type="int" name="LMAXPAW">  -100</i>
    <i type="int" name="LMAXMIX">     2</i>
   </separator>
   <separator name="electronic startup" >
    <i type="int" name="ISTART">     0</i>
    <i type="int" name="ICHARG">     2</i>
    <i type="int" name="INIWAV">     1</i>
   </separator>
   <separator name="electronic spin" >
    <i type="int" name="ISPIN">     2</i>
    <i type="logical" name="LNONCOLLINEAR"> F  </i>
    <v name="MAGMOM">      1.00000000      1.00000000      1.00000000      1.00000000      1.00000000      1.00000000      1.00000000</v>
    <i name="NUPDOWN">     -1.00000000</i>
    <i type="logical" name="LSORBIT"> F  </i>
    <v name="SAXIS">      0.00000000      0.00000000      1.00000000</v>
    <i type="logical" name="LSPIRAL"> F  </i>
    <v name="QSPIRAL">      0.00000000      0.00000000      0.00000000</v>
    <i type="logical" name="LZEROZ"> F  </i>
   </separator>
   <separator name="electronic exchange-correlation" >
    <i type="logical" name="LASPH"> F  </i>
    <i type="logical" name="LMETAGGA"> F  </i>
   </separator>
   <separator name="electronic convergence" >
    <i type="int" name="NELM">    60</i>
    <i type="int" name="NELMDL">    -5</i>
    <i type="int" name="NELMIN">     2</i>
    <i name="ENINI">    313.00000000</i>
    <separator name="electronic convergence detail" >
     <i type="logical" name="LDIAG"> T  </i>
     <i name="WEIMIN">      0.00100000</i>
     <i name="EBREAK">      0.00000061</i>
     <i name="DEPER">      0.30000000</i>
     <i type="int" name="NRMM">     4</i>
     <i name="TIME">      0.40000000</i>
    </separator>
   </separator>
   <separator name="electronic mixer" >
    <i name="AMIX">      0.40000000</i>
    <i name="BMIX">      1.00000000</i>
    <i name="AMIN">      0.10000000</i>
    <i name="AMIX_MAG">      1.60000000</i>
    <i name="BMIX_MAG">      1.00000000</i>
    <separator name="electronic mixer details" >
     <i type="int" name="IMIX">     4</i>
     <i type="int" name="MAXMIX">   -45</i>
     <i name="WC">    100.00000000</i>
     <i type="int" name="INIMIX">     1</i>
     <i type="int" name="MIXPRE">     1</i>
     <i type="int" name="MREMOVE">     5</i>
    </separator>
   </separator>
   <separator name="electronic dipolcorrection" >
    <i type="logical" name="LDIPOL"> F  </i>
    <i type="logical" name="LMONO"> F  </i>
    <i type="int" name="IDIPOL">     0</i>
    <i name="EPSILON">      1.00000000</i>
    <v name="DIPOL">   -100.00000000   -100.00000000   -100.00000000</v>
    <i name="EFIELD">      0.00000000</i>
   </separator>
  </separator>
  <separator name="grids" >
   <i type="int" name="NGX">    24</i>
   <i type="int" name="NGY">    24</i>
   <i type="int" name="NGZ">    24</i>
   <i type="int" name="NGXF">    48</i>
   <i type="int" name="NGYF">    48</i>
   <i type="int" name="NGZF">    48</i>
   <i type="logical" name="ADDGRID"> F  </i>
  </separator>
  <separator name="ionic" >
   <i type="int" name="NSW">   100</i>
   <i type="int" name="IBRION">     2</i>
   <i type="int" name="ISIF">     2</i>
   <i name="PSTRESS">      0.00000000</i>
   <i name="EDIFFG">      0.00100000</i>
   <i type="int" name="NFREE">     1</i>
   <i name="POTIM">      0.50000000</i>
   <i name="SMASS">     -3.00000000</i>
  </separator>
  <separator name="ionic md" >
   <i name="TEBEG">      0.00010000</i>
   <i name="TEEND">      0.00010000</i>
   <i type="int" name="NBLOCK">     1</i>
   <i type="int" name="KBLOCK">   100</i>
   <i type="int" name="NPACO">   256</i>
   <i name="APACO">     16.00000000</i>
  </separator>
  <separator name="symmetry" >
   <i type="int" name="ISYM">     2</i>
   <i name="SYMPREC">      0.00001000</i>
  </separator>
  <separator name="dos" >
   <i type="logical" name="LORBIT"> F  </i>
   <v name="RWIGS">     -1.00000000     -1.00000000</v>
   <i type="int" name="NEDOS">   301</i>
   <i name="EMIN">     10.00000000</i>
   <i name="EMAX">    -10.00000000</i>
   <i name="EFERMI">      0.00000000</i>
  </separator>
  <separator name="writing" >
   <i type="int" name="NWRITE">     2</i>
   <i type="logical" name="LWAVE"> F  </i>
   <i type="logical" name="LCHARG"> F  </i>
   <i type="logical" name="LPARD"> F  </i>
   <i type="logical" name="LVTOT"> F  </i>
   <i type="logical" name="LELF"> F  </i>
   <i type="logical" name="LOPTICS"> F  </i>
   <v name="STM">      0.00000000      0.00000000      0.00000000      0.00000000      0.00000000</v>
  </separator>
  <separator name="performance" >
   <i type="int" name="NPAR">     1</i>
   <i type="int" name="NSIM">     4</i>
   <i type="int" name="NBLK">    32</i>
   <i type="logical" name="LPLANE"> T  </i>
   <i type="logical" name="LSCALAPACK"> F  </i>
   <i type="logical" name="LSCAAWARE"> F  </i>
   <i type="logical" name="LSCALU"> F  </i>
   <i type="logical" name="LASYNC"> F  </i>
  </separator>
  <separator name="miscellaneous" >
   <i type="int" name="IDIOT">     3</i>
   <i type="logical" name="LMUSIC"> F  </i>
   <v name="POMASS">     69.72300000     74.92200000</v>
   <i type="logical" name="LCORR"> T  </i>
  </separator>
  <i type="logical" name="LREAL_COMPAT"> F  </i>
  <i type="logical" name="GGA_COMPAT"> T  </i>
  <i type="logical" name="LBERRY"> F  </i>
  <i type="int" name="ICORELEVEL">     0</i>
  <i type="logical" name="LDAU"> F  </i>
  <i type="int" name="I_CONSTRAINED_M">     0</i>
  <separator name="electronic exchange-correlation" >
   <i type="string" name="GGA">--</i>
   <i type="int" name="VOSKOWN">     0</i>
   <i type="logical" name="LHFCALC"> F  </i>
   <i type="logical" name="LHFONE"> F  </i>
   <i type="logical" name="LRHFCALC"> F  </i>
   <i type="logical" name="LTHOMAS"> F  </i>
   <i type="logical" name="LMODELHF"> F  </i>
   <i name="ENCUTFOCK">      0.00000000</i>
   <i name="ENCUT4O">     -1.00000000</i>
   <i type="int" name="EXXOEP">     0</i>
   <i type="int" name="FOURORBIT">     0</i>
   <i name="AEXX">      0.00000000</i>
   <i name="HFALPHA">      0.00000000</i>
   <i name="ALDAX">      1.00000000</i>
   <i name="AGGAX">      1.00000000</i>
   <i name="ALDAC">      1.00000000</i>
   <i name="AGGAC">      1.00000000</i>
   <i type="int" name="NKREDX">     1</i>
   <i type="int" name="NKREDY">     1</i>
   <i type="int" name="NKREDZ">     1</i>
   <i type="logical" name="SHIFTRED"> F  </i>
   <i type="logical" name="ODDONLY"> F  </i>
   <i type="logical" name="EVENONLY"> F  </i>
   <i type="int" name="LMAXFOCK">     0</i>
   <i type="int" name="NMAXFOCKAE">     0</i>
   <i name="HFSCREEN">      0.00000000</i>
   <i name="HFSCREENC">      0.00000000</i>
  </separator>
  <separator name="model GW" >
   <i type="int" name="MODEL_GW">     0</i>
   <i name="MODEL_EPS0">     15.26832290</i>
   <i name="MODEL_ALPHA">      1.00000000</i>
  </separator>
  <separator name="linear response parameters" >
   <i type="logical" name="LEPSILON"> F  </i>
   <i type="logical" name="LRPA"> F  </i>
   <i type="logical" name="LNABLA"> F  </i>
   <i type="logical" name="LVEL"> F  </i>
   <i type="int" name="KINTER">     0</i>
   <i name="CSHIFT">      0.10000000</i>
   <i name="OMEGAMAX">     -1.00000000</i>
  </separator>
  <separator name="orbital magnetization" >
   <i type="logical" name="ORBITALMAG"> F  </i>
   <i type="logical" name="LMAGBLOCH"> F  </i>
   <i type="logical" name="LCHIMAG"> F  </i>
   <i type="logical" name="LGAUGE"> T  </i>
   <i type="int" name="MAGATOM">     0</i>
   <v name="MAGDIPOL">      0.00000000      0.00000000      0.00000000</v>
   <v name="AVECCONST">      0.00000000      0.00000000      0.00000000</v>
  </separator>
  <separator name="response functions" >
   <i type="logical" name="LRPA"> T  </i>
   <i type="logical" name="LTCTE"> F  </i>
   <i type="logical" name="LTETE"> F  </i>
   <i type="logical" name="L2ORDER"> F  </i>
   <i type="logical" name="LGWLF"> F  </i>
   <i name="ENCUTGW">    208.66666667</i>
   <i name="ENCUTGWSOFT">     -2.00000000</i>
   <i name="ENCUTLF">     -1.00000000</i>
   <i type="int" name="LMAXMP2">    -1</i>
   <i name="SCISSOR">      0.00000000</i>
   <i type="int" name="NOMEGA">     0</i>
   <i type="int" name="NOMEGAR">     0</i>
   <i type="int" name="NBANDSGW">    -1</i>
   <i type="int" name="NBANDSLF">    -1</i>
   <i type="int" name="NELM">     1</i>
   <i type="int" name="DIM">     3</i>
   <i type="int" name="ANTIRES">     0</i>
   <i type="logical" name="LUSEW"> F  </i>
   <i name="OMEGAMAX">    -30.00000000</i>
   <i name="OMEGATL">   -200.00000000</i>
   <i type="int" name="OMEGAGRID">     0</i>
   <i name="CSHIFT">     -0.10000000</i>
   <i type="logical" name="SELFENERGY"> F  </i>
   <i type="logical" name="LSPECTRAL"> F  </i>
   <i type="logical" name="ODDONLYGW"> F  </i>
   <i type="logical" name="EVENONLYGW"> F  </i>
   <i type="int" name="NKREDLFX">     1</i>
   <i type="int" name="NKREDLFY">     1</i>
   <i type="int" name="NKREDLFZ">     1</i>
   <i type="int" name="MAXMEM">  1024</i>
   <i type="int" name="TELESCOPE">     0</i>
  </separator>
 </parameters>
 <atominfo>
  <atoms>       7 </atoms>
  <types>       2 </types>
  <array name="atoms" >
   <dimension dim="1">ion</dimension>
   <field type="string">element</field>
   <field type="int">atomtype</field>
   <set>
    <rc><c>Ga</c><c>   1</c></rc>
    <rc><c>Ga</c><c>   1</c></rc>
    <rc><c>Ga</c><c>   1</c></rc>
    <rc><c>As</c><c>   2</c></rc>
    <rc><c>As</c><c>   2</c></rc>
    <rc><c>As</c><c>   2</c></rc>
    <rc><c>As</c><c>   2</c></rc>
   </set>
  </array>
  <array name="atomtypes" >
   <dimension dim="1">type</dimension>
   <field type="int">atomspertype</field>
   <field type="string">element</field>
   <field>mass</field>
   <field>valence</field>
   <field type="string">pseudopotential</field>
   <set>
    <rc><c>   3</c><c>Ga</c><c>     69.72300000</c><c>     13.00000000</c><c> PAW_PBE Ga_d 06Sep2000                 </c></rc>
    <rc><c>   4</c><c>As</c><c>     74.92200000</c><c>      5.00000000</c><c> PAW_PBE As 06Sep2000                   </c></rc>
   </set>
  </array>
 </atominfo>
 <structure name="initialpos" >
  <crystal>
   <varray name="basis" >
    <v>       5.62660000       0.00000000       0.00000000 </v>
    <v>       0.00000000       5.62660000       0.00000000 </v>
    <v>       0.00000000       0.00000000       5.62660000 </v>
   </varray>
   <i name="volume">    178.13043383 </i>
   <varray name="rec_basis" >
    <v>       0.17772722       0.00000000       0.00000000 </v>
    <v>       0.00000000       0.17772722       0.00000000 </v>
    <v>       0.00000000       0.00000000       0.17772722 </v>
   </varray>
  </crystal>
  <varray name="positions" >
   <v>       0.50000000       0.50000000       0.00000000 </v>
   <v>       0.00000000       0.50000000       0.50000000 </v>
   <v>       0.50000000       0.00000000       0.50000000 </v>
   <v>       0.25000000       0.25000000       0.25000000 </v>
   <v>       0.75000000       0.75000000       0.25000000 </v>
   <v>       0.25000000       0.75000000       0.75000000 </v>
   <v>       0.75000000       0.25000000       0.75000000 </v>
  </varray>
 </structure>
 <calculation>
  <scstep>
   <time name="dav">    4.99    1.26</time>
   <time name="total">    5.69    1.87</time>
   <energy>
    <i name="alphaZ">    204.23112898 </i>
    <i name="ewald">  -3583.47555494 </i>
    <i name="hartreedc">  -2490.52185602 </i>
    <i name="XCdc">    141.24592053 </i>
    <i name="pawpsdc">   4537.24972380 </i>
    <i name="pawaedc">  -5510.40829286 </i>
    <i name="eentropy">      0.00604877 </i>
    <i name="bandstr">     22.22056442 </i>
    <i name="atom">   7127.40138498 </i>
    <i name="e_fr_energy">    447.94906765 </i>
    <i name="e_wo_entrp">    447.94301888 </i>
    <i name="e_0_energy">    447.94705139 </i>
   </energy>
  </scstep>
  <scstep>
   <time name="dav">    4.70    1.17</time>
   <time name="total">    4.71    1.18</time>
   <energy>
    <i name="e_fr_energy">     50.32588067 </i>
    <i name="e_wo_entrp">     50.31695741 </i>
    <i name="e_0_energy">     50.32290625 </i>
   </energy>
  </scstep>
  <scstep>
   <time name="dav">    5.35    1.36</time>
   <time name="total">    5.36    1.36</time>
   <energy>
    <i name="e_fr_energy">    -15.91088362 </i>
    <i name="e_wo_entrp">    -15.92361071 </i>
    <i name="e_0_energy">    -15.91512598 </i>
   </energy>
  </scstep>
  <scstep>
   <time name="dav">    5.39    1.37</time>
   <time name="total">    5.40    1.37</time>
   <energy>
    <i name="e_fr_energy">    -19.17859540 </i>
    <i name="e_wo_entrp">    -19.19019279 </i>
    <i name="e_0_energy">    -19.18246119 </i>
   </energy>
  </scstep>
  <scstep>
   <time name="dav">    5.24    1.32</time>
   <time name="total">    5.48    1.46</time>
   <energy>
    <i name="e_fr_energy">    -19.23636572 </i>
    <i name="e_wo_entrp">    -19.24796154 </i>
    <i name="e_0_energy">    -19.24023100 </i>
   </energy>
  </scstep>
  <scstep>
   <time name="dav">    5.67    1.45</time>
   <time name="total">    6.52    2.20</time>
   <energy>
    <i name="e_fr_energy">    -19.13814643 </i>
    <i name="e_wo_entrp">    -19.16340446 </i>
    <i name="e_0_energy">    -19.14656577 </i>
   </energy>
  </scstep>
  <scstep>
   <time name="dav">    5.67    1.45</time>
   <time name="total">    6.52    2.20</time>
   <energy>
    <i name="e_fr_energy">    -19.21878301 </i>
    <i name="e_wo_entrp">    -19.24204115 </i>
    <i name="e_0_energy">    -19.22653572 </i>
   </energy>
  </scstep>
  <scstep>
   <time name="dav">    5.04    1.28</time>
   <time name="total">    5.93    2.03</time>
   <energy>
    <i name="e_fr_energy">    -19.20301231 </i>
    <i name="e_wo_entrp">    -19.22620802 </i>
    <i name="e_0_energy">    -19.21074421 </i>
   </energy>
  </scstep>
  <scstep>
   <time name="dav">    4.89    1.24</time>
   <time name="total">    5.82    1.99</time>
   <energy>
    <i name="e_fr_energy">    -19.20930846 </i>
    <i name="e_wo_entrp">    -19.23250357 </i>
    <i name="e_0_energy">    -19.21704016 </i>
   </energy>
  </scstep>
  <scstep>
   <time name="dav">    5.50    1.41</time>
   <time name="total">    6.46    2.16</time>
   <energy>
    <i name="e_fr_energy">    -19.21137648 </i>
    <i name="e_wo_entrp">    -19.23456847 </i>
    <i name="e_0_energy">    -19.21910714 </i>
   </energy>
  </scstep>
  <scstep>
   <time name="dav">    5.04    1.28</time>
   <time name="total">    5.99    2.03</time>
   <energy>
    <i name="e_fr_energy">    -19.21174829 </i>
    <i name="e_wo_entrp">    -19.23494010 </i>
    <i name="e_0_energy">    -19.21947889 </i>
   </energy>
  </scstep>
  <scstep>
   <time name="dav">    4.40    1.12</time>
   <time name="total">    5.35    1.87</time>
   <energy>
    <i name="e_fr_energy">    -19.21195978 </i>
    <i name="e_wo_entrp">    -19.23515142 </i>
    <i name="e_0_energy">    -19.21969033 </i>
   </energy>
  </scstep>
  <scstep>
   <time name="dav">    3.78    0.96</time>
   <time name="total">    4.47    1.56</time>
   <energy>
    <i name="alphaZ">    204.23112898 </i>
    <i name="ewald">  -3583.47555494 </i>
    <i name="hartreedc">  -2478.41063404 </i>
    <i name="XCdc">    149.88060386 </i>
    <i name="pawpsdc">   4831.42085547 </i>
    <i name="pawaedc">  -5817.40163191 </i>
    <i name="eentropy">      0.02319162 </i>
    <i name="bandstr">   -452.88134483 </i>
    <i name="atom">   7127.40138498 </i>
    <i name="e_fr_energy">    -19.21200081 </i>
    <i name="e_wo_entrp">    -19.23519243 </i>
    <i name="e_0_energy">    -19.21973135 </i>
   </energy>
  </scstep>
  <structure>
   <crystal>
    <varray name="basis" >
     <v>       5.62660000       0.00000000       0.00000000 </v>
     <v>       0.00000000       5.62660000       0.00000000 </v>
     <v>       0.00000000       0.00000000       5.62660000 </v>
    </varray>
    <i name="volume">    178.13043383 </i>
    <varray name="rec_basis" >
     <v>       0.17772722       0.00000000       0.00000000 </v>
     <v>       0.00000000       0.17772722       0.00000000 </v>
     <v>       0.00000000       0.00000000       0.17772722 </v>
    </varray>
   </crystal>
   <varray name="positions" >
    <v>       0.50000000       0.50000000       0.00000000 </v>
    <v>       0.00000000       0.50000000       0.50000000 </v>
    <v>       0.50000000       0.00000000       0.50000000 </v>
    <v>       0.25000000       0.25000000       0.25000000 </v>
    <v>       0.75000000       0.75000000       0.25000000 </v>
    <v>       0.25000000       0.75000000       0.75000000 </v>
    <v>       0.75000000       0.25000000       0.75000000 </v>
   </varray>
  </structure>
  <varray name="forces" >
   <v>       0.00000000       0.00000000       0.00000000 </v>
   <v>       0.00000000       0.00000000       0.00000000 </v>
   <v>       0.00000000       0.00000000       0.00000000 </v>
   <v>      -0.74619445      -0.74619445      -0.74619445 </v>
   <v>       0.74619445       0.74619445      -0.74619445 </v>
   <v>      -0.74619445       0.74619445       0.74619445 </v>
   <v>       0.74619445      -0.74619445       0.74619445 </v>
  </varray>
  <varray name="stress" >
   <v>     223.67034150       0.00000000       0.00000000 </v>
   <v>       0.00000000     223.67034150       0.00000000 </v>
   <v>       0.00000000       0.00000000     223.67034150 </v>
  </varray>
  <energy>
   <i name="e_fr_energy">    -19.21200081 </i>
   <i name="e_wo_entrp">    -19.21973135 </i>
   <i name="e_0_energy">      0.02319162 </i>
  </energy>
  <time name="totalsc">   78.85   26.42</time>
 </calculation>
 <calculation>
  <scstep>
   <time name="dav">    5.27    1.35</time>
   <time name="total">    6.20    2.08</time>
   <energy>
    <i name="alphaZ">    204.23112898 </i>
    <i name="ewald">  -3613.39075264 </i>
    <i name="hartreedc">  -2451.86411308 </i>
    <i name="XCdc">    149.57476800 </i>
    <i name="pawpsdc">   4831.35704139 </i>
    <i name="pawaedc">  -5817.34739409 </i>
    <i name="eentropy">      0.02319163 </i>
    <i name="bandstr">   -449.43840289 </i>
    <i name="atom">   7127.40138498 </i>
    <i name="e_fr_energy">    -19.45314771 </i>
    <i name="e_wo_entrp">    -19.47633934 </i>
    <i name="e_0_energy">    -19.46087826 </i>
   </energy>
  </scstep>
  <scstep>
   <time name="dav">    5.35    1.37</time>
   <time name="total">    6.20    2.12</time>
   <energy>
    <i name="e_fr_energy">    -19.48570796 </i>
    <i name="e_wo_entrp">    -19.50889959 </i>
    <i name="e_0_energy">    -19.49343851 </i>
   </energy>
  </scstep>
  <scstep>
   <time name="dav">    5.03    1.27</time>
   <time name="total">    5.89    2.02</time>
   <energy>
    <i name="e_fr_energy">    -19.48471637 </i>
    <i name="e_wo_entrp">    -19.50790799 </i>
    <i name="e_0_energy">    -19.49244691 </i>
   </energy>
  </scstep>
  <scstep>
   <time name="dav">    5.02    1.29</time>
   <time name="total">    5.91    2.04</time>
   <energy>
    <i name="e_fr_energy">    -19.48450204 </i>
    <i name="e_wo_entrp">    -19.50769366 </i>
    <i name="e_0_energy">    -19.49223258 </i>
   </energy>
  </scstep>
  <scstep>
   <time name="dav">    4.73    1.20</time>
   <time name="total">    5.41    1.81</time>
   <energy>
    <i name="alphaZ">    204.23112898 </i>
    <i name="ewald">  -3613.39075264 </i>
    <i name="hartreedc">  -2452.57306319 </i>
    <i name="XCdc">    149.64317331 </i>
    <i name="pawpsdc">   4818.58632924 </i>
    <i name="pawaedc">  -5804.15902242 </i>
    <i name="eentropy">      0.02319162 </i>
    <i name="bandstr">   -449.24689147 </i>
    <i name="atom">   7127.40138498 </i>
    <i name="e_fr_energy">    -19.48452158 </i>
    <i name="e_wo_entrp">    -19.50771320 </i>
    <i name="e_0_energy">    -19.49225212 </i>
   </energy>
  </scstep>
  <structure>
   <crystal>
    <varray name="basis" >
     <v>       5.62660000       0.00000000       0.00000000 </v>
     <v>       0.00000000       5.62660000       0.00000000 </v>
     <v>       0.00000000       0.00000000       5.62660000 </v>
    </varray>
    <i name="volume">    178.13043383 </i>
    <varray name="rec_basis" >
     <v>       0.17772722       0.00000000       0.00000000 </v>
     <v>       0.00000000       0.17772722       0.00000000 </v>
     <v>       0.00000000       0.00000000       0.17772722 </v>
    </varray>
   </crystal>
   <varray name="positions" >
    <v>       0.50000000       0.50000000       0.00000000 </v>
    <v>       0.00000000       0.50000000       0.50000000 </v>
    <v>       0.50000000       0.00000000       0.50000000 </v>
    <v>       0.24360210       0.24360210       0.24360210 </v>
    <v>       0.75639790       0.75639790       0.24360210 </v>
    <v>       0.24360210       0.75639790       0.75639790 </v>
    <v>       0.75639790       0.24360210       0.75639790 </v>
   </varray>
  </structure>
  <varray name="forces" >
   <v>       0.00000000       0.00000000       0.00000000 </v>
   <v>       0.00000000       0.00000000       0.00000000 </v>
   <v>       0.00000000       0.00000000       0.00000000 </v>
   <v>      -0.51378559      -0.51378559      -0.51378559 </v>
   <v>       0.51378559       0.51378559      -0.51378559 </v>
   <v>      -0.51378559       0.51378559       0.51378559 </v>
   <v>       0.51378559      -0.51378559       0.51378559 </v>
  </varray>
  <varray name="stress" >
   <v>     209.89008107       0.00000000       0.00000000 </v>
   <v>       0.00000000     209.89008107       0.00000000 </v>
   <v>       0.00000000       0.00000000     209.89008107 </v>
  </varray>
  <energy>
   <i name="e_fr_energy">    -19.48452158 </i>
   <i name="e_wo_entrp">    -19.49225212 </i>
   <i name="e_0_energy">      0.02319162 </i>
  </energy>
  <time name="totalsc">   34.78   13.30</time>
 </calculation>
 <calculation>
  <scstep>
   <time name="dav">    5.58    1.43</time>
   <time name="total">    6.53    2.18</time>
   <energy>
    <i name="alphaZ">    204.23112898 </i>
    <i name="ewald">  -3677.39032453 </i>
    <i name="hartreedc">  -2395.56741015 </i>
    <i name="XCdc">    148.93429530 </i>
    <i name="pawpsdc">   4818.19620510 </i>
    <i name="pawaedc">  -5803.72444094 </i>
    <i name="eentropy">      0.02319186 </i>
    <i name="bandstr">   -441.64355252 </i>
    <i name="atom">   7127.40138498 </i>
    <i name="e_fr_energy">    -19.53952194 </i>
    <i name="e_wo_entrp">    -19.56271380 </i>
    <i name="e_0_energy">    -19.54725256 </i>
   </energy>
  </scstep>
  <scstep>
   <time name="dav">    5.34    1.36</time>
   <time name="total">    6.20    2.12</time>
   <energy>
    <i name="e_fr_energy">    -19.72837112 </i>
    <i name="e_wo_entrp">    -19.75156275 </i>
    <i name="e_0_energy">    -19.73610166 </i>
   </energy>
  </scstep>
  <scstep>
   <time name="dav">    5.32    1.35</time>
   <time name="total">    6.17    2.10</time>
   <energy>
    <i name="e_fr_energy">    -19.72332941 </i>
    <i name="e_wo_entrp">    -19.74652103 </i>
    <i name="e_0_energy">    -19.73105995 </i>
   </energy>
  </scstep>
  <scstep>
   <time name="dav">    5.31    1.36</time>
   <time name="total">    6.20    2.11</time>
   <energy>
    <i name="e_fr_energy">    -19.72199577 </i>
    <i name="e_wo_entrp">    -19.74518739 </i>
    <i name="e_0_energy">    -19.72972631 </i>
   </energy>
  </scstep>
  <scstep>
   <time name="dav">    4.69    1.18</time>
   <time name="total">    5.62    1.94</time>
   <energy>
    <i name="e_fr_energy">    -19.72211129 </i>
    <i name="e_wo_entrp">    -19.74530291 </i>
    <i name="e_0_energy">    -19.72984183 </i>
   </energy>
  </scstep>
  <scstep>
   <time name="dav">    3.94    1.01</time>
   <time name="total">    4.65    1.63</time>
   <energy>
    <i name="alphaZ">    204.23112898 </i>
    <i name="ewald">  -3677.39032453 </i>
    <i name="hartreedc">  -2396.38321168 </i>
    <i name="XCdc">    149.09870282 </i>
    <i name="pawpsdc">   4787.11207456 </i>
    <i name="pawaedc">  -5771.62247096 </i>
    <i name="eentropy">      0.02319162 </i>
    <i name="bandstr">   -442.19258642 </i>
    <i name="atom">   7127.40138498 </i>
    <i name="e_fr_energy">    -19.72211064 </i>
    <i name="e_wo_entrp">    -19.74530226 </i>
    <i name="e_0_energy">    -19.72984118 </i>
   </energy>
  </scstep>
  <structure>
   <crystal>
    <varray name="basis" >
     <v>       5.62660000       0.00000000       0.00000000 </v>
     <v>       0.00000000       5.62660000       0.00000000 </v>
     <v>       0.00000000       0.00000000       5.62660000 </v>
    </varray>
    <i name="volume">    178.13043383 </i>
    <varray name="rec_basis" >
     <v>       0.17772722       0.00000000       0.00000000 </v>
     <v>       0.00000000       0.17772722       0.00000000 </v>
     <v>       0.00000000       0.00000000       0.17772722 </v>
    </varray>
   </crystal>
   <varray name="positions" >
    <v>       0.50000000       0.50000000       0.00000000 </v>
    <v>       0.00000000       0.50000000       0.50000000 </v>
    <v>       0.50000000       0.00000000       0.50000000 </v>
    <v>       0.22945829       0.22945829       0.22945829 </v>
    <v>       0.77054171       0.77054171       0.22945829 </v>
    <v>       0.22945829       0.77054171       0.77054171 </v>
    <v>       0.77054171       0.22945829       0.77054171 </v>
   </varray>
  </structure>
  <varray name="forces" >
   <v>       0.00000000       0.00000000       0.00000000 </v>
   <v>       0.00000000       0.00000000       0.00000000 </v>
   <v>       0.00000000       0.00000000       0.00000000 </v>
   <v>       0.01397845       0.01397845       0.01397845 </v>
   <v>      -0.01397845      -0.01397845       0.01397845 </v>
   <v>       0.01397845      -0.01397845      -0.01397845 </v>
   <v>      -0.01397845       0.01397845      -0.01397845 </v>
  </varray>
  <varray name="stress" >
   <v>     190.58630086       0.00000000       0.00000000 </v>
   <v>       0.00000000     190.58630086       0.00000000 </v>
   <v>       0.00000000       0.00000000     190.58630086 </v>
  </varray>
  <energy>
   <i name="e_fr_energy">    -19.72211064 </i>
   <i name="e_wo_entrp">    -19.72984118 </i>
   <i name="e_0_energy">      0.02319162 </i>
  </energy>
  <time name="totalsc">   40.18   15.06</time>
  <eigenvalues>
   <array>
    <dimension dim="1">band</dimension>
    <dimension dim="2">kpoint</dimension>
    <dimension dim="3">spin</dimension>
    <field>eigene</field>
    <field>occ</field>
    <set>
     <set comment="spin 1">
      <set comment="kpoint 1">
       <r>  -12.5108    1.0000 </r>
       <r>  -12.4860    1.0000 </r>
       <r>  -12.4860    1.0000 </r>
       <r>  -12.4598    1.0000 </r>
       <r>  -12.4369    1.0000 </r>
       <r>  -12.4369    1.0000 </r>
       <r>  -12.4152    1.0000 </r>
       <r>  -12.4152    1.0000 </r>
       <r>  -12.4101    1.0000 </r>
       <r>  -12.3990    1.0000 </r>
       <r>  -12.3990    1.0000 </r>
       <r>  -12.3893    1.0000 </r>
       <r>  -12.3859    1.0000 </r>
       <r>  -12.3756    1.0000 </r>
       <r>  -12.3756    1.0000 </r>
       <r>   -9.0799    1.0000 </r>
       <r>   -7.8361    1.0000 </r>
       <r>   -7.8361    1.0000 </r>
       <r>   -7.5371    1.0000 </r>
       <r>   -3.6617    1.0000 </r>
       <r>   -3.6617    1.0000 </r>
       <r>   -2.2194    1.0000 </r>
       <r>   -0.6617    1.0000 </r>
       <r>   -0.6617    1.0000 </r>
       <r>   -0.4687    1.0000 </r>
       <r>    0.5221    1.0000 </r>
       <r>    0.6688    1.0000 </r>
       <r>    1.2789    1.0000 </r>
       <r>    1.2789    1.0000 </r>
       <r>    2.5798    1.0000 </r>
       <r>    2.5798    1.0000 </r>
       <r>    4.3108    0.0000 </r>
       <r>    4.5962    0.0000 </r>
       <r>    4.5962    0.0000 </r>
       <r>    5.9276    0.0000 </r>
       <r>    7.0069    0.0000 </r>
       <r>    7.0069    0.0000 </r>
       <r>    7.4865    0.0000 </r>
       <r>    7.4865    0.0000 </r>
       <r>    8.2640    0.0000 </r>
       <r>    8.7482    0.0000 </r>
      </set>
     </set>
     <set comment="spin 2">
      <set comment="kpoint 1">
       <r>  -12.5107    1.0000 </r>
       <r>  -12.4859    1.0000 </r>
       <r>  -12.4859    1.0000 </r>
       <r>  -12.4598    1.0000 </r>
       <r>  -12.4368    1.0000 </r>
       <r>  -12.4368    1.0000 </r>
       <r>  -12.4151    1.0000 </r>
       <r>  -12.4151    1.0000 </r>
       <r>  -12.4100    1.0000 </r>
       <r>  -12.3989    1.0000 </r>
       <r>  -12.3989    1.0000 </r>
       <r>  -12.3892    1.0000 </r>
       <r>  -12.3858    1.0000 </r>
       <r>  -12.3755    1.0000 </r>
       <r>  -12.3755    1.0000 </r>
       <r>   -9.0799    1.0000 </r>
       <r>   -7.8361    1.0000 </r>
       <r>   -7.8361    1.0000 </r>
       <r>   -7.5371    1.0000 </r>
       <r>   -3.6617    1.0000 </r>
       <r>   -3.6617    1.0000 </r>
       <r>   -2.2194    1.0000 </r>
       <r>   -0.6617    1.0000 </r>
       <r>   -0.6617    1.0000 </r>
       <r>   -0.4687    1.0000 </r>
       <r>    0.5222    1.0000 </r>
       <r>    0.6688    1.0000 </r>
       <r>    1.2789    1.0000 </r>
       <r>    1.2789    1.0000 </r>
       <r>    2.5798    1.0000 </r>
       <r>    2.5798    1.0000 </r>
       <r>    4.3108    0.0000 </r>
       <r>    4.5962    0.0000 </r>
       <r>    4.5962    0.0000 </r>
       <r>    5.9277    0.0000 </r>
       <r>    7.0069    0.0000 </r>
       <r>    7.0069    0.0000 </r>
       <r>    7.4866    0.0000 </r>
       <r>    7.4866    0.0000 </r>
       <r>    8.2640    0.0000 </r>
       <r>    8.7483    0.0000 </r>
      </set>
     </set>
    </set>
   </array>
  </eigenvalues>
  <separator name="orbital magnetization" >
   <v name="MAGDIPOLOUT">      0.00000000      0.00000000      0.00000000</v>
  </separator>
  <dos>
   <i name="efermi">      2.74817799 </i>
   <total>
    <array>
     <dimension dim="1">gridpoints</dimension>
     <dimension dim="2">spin</dimension>
     <field>energy</field>
     <field>total</field>
     <field>integrated</field>
     <set>
      <set comment="spin 1">
       <r> -14.5108   0.0000   0.0000 </r>
       <r> -14.4266   0.0000   0.0000 </r>
       <r> -14.3424   0.0000   0.0000 </r>
       <r> -14.2582   0.0000   0.0000 </r>
       <r> -14.1740   0.0000   0.0000 </r>
       <r> -14.0898   0.0000   0.0000 </r>
       <r> -14.0056   0.0000   0.0000 </r>
       <r> -13.9214   0.0000   0.0000 </r>
       <r> -13.8372   0.0000   0.0000 </r>
       <r> -13.7530   0.0000   0.0000 </r>
       <r> -13.6688   0.0000   0.0000 </r>
       <r> -13.5846   0.0000   0.0000 </r>
       <r> -13.5004   0.0000   0.0000 </r>
       <r> -13.4162   0.0000   0.0000 </r>
       <r> -13.3320   0.0000   0.0000 </r>
       <r> -13.2478   0.0000   0.0000 </r>
       <r> -13.1636  -0.0006   0.0000 </r>
       <r> -13.0794  -0.0068  -0.0006 </r>
       <r> -12.9952  -0.0580  -0.0055 </r>
       <r> -12.9110  -0.3320  -0.0335 </r>
       <r> -12.8268  -1.2205  -0.1362 </r>
       <r> -12.7426  -2.4689  -0.3441 </r>
       <r> -12.6584  -0.3834  -0.3764 </r>
       <r> -12.5742  12.6281   0.6869 </r>
       <r> -12.4900  37.4461   3.8397 </r>
       <r> -12.4058  56.7246   8.6157 </r>
       <r> -12.3216  50.7899  12.8921 </r>
       <r> -12.2374  25.7428  15.0595 </r>
       <r> -12.1533   4.6932  15.4547 </r>
       <r> -12.0691  -2.4946  15.2446 </r>
       <r> -11.9849  -2.0458  15.0724 </r>
       <r> -11.9007  -0.6970  15.0137 </r>
       <r> -11.8165  -0.1421  15.0017 </r>
       <r> -11.7323  -0.0188  15.0002 </r>
       <r> -11.6481  -0.0017  15.0000 </r>
       <r> -11.5639  -0.0001  15.0000 </r>
       <r> -11.4797   0.0000  15.0000 </r>
       <r> -11.3955   0.0000  15.0000 </r>
       <r> -11.3113   0.0000  15.0000 </r>
       <r> -11.2271   0.0000  15.0000 </r>
       <r> -11.1429   0.0000  15.0000 </r>
       <r> -11.0587   0.0000  15.0000 </r>
       <r> -10.9745   0.0000  15.0000 </r>
       <r> -10.8903   0.0000  15.0000 </r>
       <r> -10.8061   0.0000  15.0000 </r>
       <r> -10.7219   0.0000  15.0000 </r>
       <r> -10.6377   0.0000  15.0000 </r>
       <r> -10.5535   0.0000  15.0000 </r>
       <r> -10.4693   0.0000  15.0000 </r>
       <r> -10.3851   0.0000  15.0000 </r>
       <r> -10.3009   0.0000  15.0000 </r>
       <r> -10.2167   0.0000  15.0000 </r>
       <r> -10.1325   0.0000  15.0000 </r>
       <r> -10.0483   0.0000  15.0000 </r>
       <r>  -9.9641   0.0000  15.0000 </r>
       <r>  -9.8799   0.0000  15.0000 </r>
       <r>  -9.7957   0.0000  15.0000 </r>
       <r>  -9.7115  -0.0004  15.0000 </r>
       <r>  -9.6273  -0.0040  14.9996 </r>
       <r>  -9.5432  -0.0256  14.9975 </r>
       <r>  -9.4590  -0.1012  14.9890 </r>
       <r>  -9.3748  -0.2106  14.9712 </r>
       <r>  -9.2906  -0.0122  14.9702 </r>
       <r>  -9.2064   1.1382  15.0660 </r>
       <r>  -9.1222   3.0822  15.3255 </r>
       <r>  -9.0380   4.1292  15.6732 </r>
       <r>  -8.9538   3.0893  15.9333 </r>
       <r>  -8.8696   1.1448  16.0297 </r>
       <r>  -8.7854  -0.0099  16.0289 </r>
       <r>  -8.7012  -0.2108  16.0111 </r>
       <r>  -8.6170  -0.1016  16.0025 </r>
       <r>  -8.5328  -0.0258  16.0004 </r>
       <r>  -8.4486  -0.0055  15.9999 </r>
       <r>  -8.3644  -0.0132  15.9988 </r>
       <r>  -8.2802  -0.0732  15.9926 </r>
       <r>  -8.1960  -0.2561  15.9711 </r>
       <r>  -8.1118  -0.4314  15.9347 </r>
       <r>  -8.0276   0.2803  15.9583 </r>
       <r>  -7.9434   3.0361  16.2140 </r>
       <r>  -7.8592   6.7652  16.7836 </r>
       <r>  -7.7750   7.9886  17.4562 </r>
       <r>  -7.6908   5.9371  17.9561 </r>
       <r>  -7.6066   4.0079  18.2935 </r>
       <r>  -7.5224   3.7706  18.6110 </r>
       <r>  -7.4382   3.2371  18.8835 </r>
       <r>  -7.3540   1.5897  19.0174 </r>
       <r>  -7.2698   0.2005  19.0343 </r>
       <r>  -7.1856  -0.2151  19.0162 </r>
       <r>  -7.1014  -0.1408  19.0043 </r>
       <r>  -7.0173  -0.0425  19.0007 </r>
       <r>  -6.9331  -0.0077  19.0001 </r>
       <r>  -6.8489  -0.0009  19.0000 </r>
       <r>  -6.7647  -0.0001  19.0000 </r>
       <r>  -6.6805   0.0000  19.0000 </r>
       <r>  -6.5963   0.0000  19.0000 </r>
       <r>  -6.5121   0.0000  19.0000 </r>
       <r>  -6.4279   0.0000  19.0000 </r>
       <r>  -6.3437   0.0000  19.0000 </r>
       <r>  -6.2595   0.0000  19.0000 </r>
       <r>  -6.1753   0.0000  19.0000 </r>
       <r>  -6.0911   0.0000  19.0000 </r>
       <r>  -6.0069   0.0000  19.0000 </r>
       <r>  -5.9227   0.0000  19.0000 </r>
       <r>  -5.8385   0.0000  19.0000 </r>
       <r>  -5.7543   0.0000  19.0000 </r>
       <r>  -5.6701   0.0000  19.0000 </r>
       <r>  -5.5859   0.0000  19.0000 </r>
       <r>  -5.5017   0.0000  19.0000 </r>
       <r>  -5.4175   0.0000  19.0000 </r>
       <r>  -5.3333   0.0000  19.0000 </r>
       <r>  -5.2491   0.0000  19.0000 </r>
       <r>  -5.1649   0.0000  19.0000 </r>
       <r>  -5.0807   0.0000  19.0000 </r>
       <r>  -4.9965   0.0000  19.0000 </r>
       <r>  -4.9123   0.0000  19.0000 </r>
       <r>  -4.8281   0.0000  19.0000 </r>
       <r>  -4.7439   0.0000  19.0000 </r>
       <r>  -4.6597   0.0000  19.0000 </r>
       <r>  -4.5755   0.0000  19.0000 </r>
       <r>  -4.4914   0.0000  19.0000 </r>
       <r>  -4.4072   0.0000  19.0000 </r>
       <r>  -4.3230  -0.0003  19.0000 </r>
       <r>  -4.2388  -0.0038  18.9997 </r>
       <r>  -4.1546  -0.0281  18.9973 </r>
       <r>  -4.0704  -0.1325  18.9861 </r>
       <r>  -3.9862  -0.3588  18.9559 </r>
       <r>  -3.9020  -0.3166  18.9293 </r>
       <r>  -3.8178   1.2006  19.0303 </r>
       <r>  -3.7336   4.7849  19.4332 </r>
       <r>  -3.6494   7.9693  20.1042 </r>
       <r>  -3.5652   7.3241  20.7209 </r>
       <r>  -3.4810   3.6008  21.0241 </r>
       <r>  -3.3968   0.5248  21.0682 </r>
       <r>  -3.3126  -0.4160  21.0332 </r>
       <r>  -3.2284  -0.2876  21.0090 </r>
       <r>  -3.1442  -0.0884  21.0016 </r>
       <r>  -3.0600  -0.0163  21.0002 </r>
       <r>  -2.9758  -0.0020  21.0000 </r>
       <r>  -2.8916  -0.0003  21.0000 </r>
       <r>  -2.8074  -0.0014  20.9999 </r>
       <r>  -2.7232  -0.0111  20.9989 </r>
       <r>  -2.6390  -0.0557  20.9942 </r>
       <r>  -2.5548  -0.1640  20.9804 </r>
       <r>  -2.4706  -0.1871  20.9647 </r>
       <r>  -2.3864   0.4376  21.0015 </r>
       <r>  -2.3022   2.1280  21.1807 </r>
       <r>  -2.2180   3.8622  21.5059 </r>
       <r>  -2.1338   3.8257  21.8280 </r>
       <r>  -2.0496   2.0611  22.0015 </r>
       <r>  -1.9654   0.3995  22.0352 </r>
       <r>  -1.8813  -0.1926  22.0189 </r>
       <r>  -1.7971  -0.1600  22.0055 </r>
       <r>  -1.7129  -0.0532  22.0010 </r>
       <r>  -1.6287  -0.0104  22.0001 </r>
       <r>  -1.5445  -0.0013  22.0000 </r>
       <r>  -1.4603  -0.0001  22.0000 </r>
       <r>  -1.3761  -0.0001  22.0000 </r>
       <r>  -1.2919  -0.0009  21.9999 </r>
       <r>  -1.2077  -0.0084  21.9992 </r>
       <r>  -1.1235  -0.0528  21.9948 </r>
       <r>  -1.0393  -0.2086  21.9772 </r>
       <r>  -0.9551  -0.4392  21.9402 </r>
       <r>  -0.8709  -0.0767  21.9338 </r>
       <r>  -0.7867   2.1494  22.1147 </r>
       <r>  -0.7025   6.0938  22.6278 </r>
       <r>  -0.6183   8.9642  23.3826 </r>
       <r>  -0.5341   8.6619  24.1119 </r>
       <r>  -0.4499   6.2695  24.6398 </r>
       <r>  -0.3657   3.5110  24.9354 </r>
       <r>  -0.2815   1.2294  25.0389 </r>
       <r>  -0.1973  -0.0087  25.0382 </r>
       <r>  -0.1131  -0.2633  25.0160 </r>
       <r>  -0.0289  -0.1457  25.0037 </r>
       <r>   0.0553  -0.0648  24.9983 </r>
       <r>   0.1395  -0.1097  24.9890 </r>
       <r>   0.2237  -0.2448  24.9684 </r>
       <r>   0.3079  -0.1627  24.9547 </r>
       <r>   0.3921   0.8500  25.0263 </r>
       <r>   0.4763   3.1387  25.2905 </r>
       <r>   0.5605   5.6547  25.7667 </r>
       <r>   0.6446   6.6206  26.3241 </r>
       <r>   0.7288   5.2886  26.7694 </r>
       <r>   0.8130   2.6428  26.9919 </r>
       <r>   0.8972   0.3902  27.0247 </r>
       <r>   0.9814  -0.6372  26.9711 </r>
       <r>   1.0656  -0.2813  26.9474 </r>
       <r>   1.1498   2.0871  27.1231 </r>
       <r>   1.2340   6.0303  27.6309 </r>
       <r>   1.3182   8.2532  28.3258 </r>
       <r>   1.4024   6.2918  28.8555 </r>
       <r>   1.4866   2.3975  29.0574 </r>
       <r>   1.5708   0.0174  29.0588 </r>
       <r>   1.6550  -0.4247  29.0231 </r>
       <r>   1.7392  -0.2102  29.0054 </r>
       <r>   1.8234  -0.0541  29.0008 </r>
       <r>   1.9076  -0.0089  29.0001 </r>
       <r>   1.9918  -0.0037  28.9997 </r>
       <r>   2.0760  -0.0222  28.9979 </r>
       <r>   2.1602  -0.1114  28.9885 </r>
       <r>   2.2444  -0.3280  28.9609 </r>
       <r>   2.3286  -0.3742  28.9294 </r>
       <r>   2.4128   0.8750  29.0030 </r>
       <r>   2.4970   4.2557  29.3614 </r>
       <r>   2.5812   7.7242  30.0117 </r>
       <r>   2.6654   7.6515  30.6559 </r>
       <r>   2.7496   4.1224  31.0030 </r>
       <r>   2.8338   0.7992  31.0703 </r>
       <r>   2.9180  -0.3852  31.0379 </r>
       <r>   3.0022  -0.3199  31.0110 </r>
       <r>   3.0864  -0.1064  31.0020 </r>
       <r>   3.1706  -0.0209  31.0002 </r>
       <r>   3.2547  -0.0026  31.0000 </r>
       <r>   3.3389  -0.0002  31.0000 </r>
       <r>   3.4231   0.0000  31.0000 </r>
       <r>   3.5073   0.0000  31.0000 </r>
       <r>   3.5915   0.0000  31.0000 </r>
       <r>   3.6757  -0.0004  31.0000 </r>
       <r>   3.7599  -0.0037  30.9997 </r>
       <r>   3.8441  -0.0239  30.9976 </r>
       <r>   3.9283  -0.0970  30.9895 </r>
       <r>   4.0125  -0.2114  30.9717 </r>
       <r>   4.0967  -0.0593  30.9667 </r>
       <r>   4.1809   0.9495  31.0466 </r>
       <r>   4.2651   2.6657  31.2711 </r>
       <r>   4.3493   3.7726  31.5887 </r>
       <r>   4.4335   4.1615  31.9391 </r>
       <r>   4.5177   5.6791  32.4173 </r>
       <r>   4.6019   7.8434  33.0777 </r>
       <r>   4.6861   7.3176  33.6938 </r>
       <r>   4.7703   3.8102  34.0146 </r>
       <r>   4.8545   0.6592  34.0701 </r>
       <r>   4.9387  -0.4040  34.0361 </r>
       <r>   5.0229  -0.3078  34.0102 </r>
       <r>   5.1071  -0.0991  34.0018 </r>
       <r>   5.1913  -0.0190  34.0002 </r>
       <r>   5.2755  -0.0026  34.0000 </r>
       <r>   5.3597  -0.0026  33.9998 </r>
       <r>   5.4439  -0.0170  33.9983 </r>
       <r>   5.5281  -0.0760  33.9920 </r>
       <r>   5.6123  -0.1910  33.9759 </r>
       <r>   5.6965  -0.1250  33.9653 </r>
       <r>   5.7806   0.7501  34.0285 </r>
       <r>   5.8648   2.6096  34.2482 </r>
       <r>   5.9490   4.0587  34.5899 </r>
       <r>   6.0332   3.5050  34.8851 </r>
       <r>   6.1174   1.5906  35.0190 </r>
       <r>   6.2016   0.1643  35.0328 </r>
       <r>   6.2858  -0.2142  35.0148 </r>
       <r>   6.3700  -0.1311  35.0037 </r>
       <r>   6.4542  -0.0448  35.0000 </r>
       <r>   6.5384  -0.0528  34.9955 </r>
       <r>   6.6226  -0.1895  34.9796 </r>
       <r>   6.7068  -0.4137  34.9447 </r>
       <r>   6.7910  -0.0926  34.9369 </r>
       <r>   6.8752   2.0655  35.1108 </r>
       <r>   6.9594   5.9187  35.6092 </r>
       <r>   7.0436   8.1741  36.2974 </r>
       <r>   7.1278   6.1441  36.8147 </r>
       <r>   7.2120   2.0783  36.9897 </r>
       <r>   7.2962   0.3740  37.0212 </r>
       <r>   7.3804   2.7289  37.2510 </r>
       <r>   7.4646   6.7723  37.8212 </r>
       <r>   7.5488   8.0678  38.5004 </r>
       <r>   7.6330   5.2360  38.9413 </r>
       <r>   7.7172   1.5143  39.0688 </r>
       <r>   7.8014  -0.2714  39.0460 </r>
       <r>   7.8856  -0.4854  39.0051 </r>
       <r>   7.9698  -0.3642  38.9744 </r>
       <r>   8.0540  -0.0421  38.9709 </r>
       <r>   8.1382   1.1457  39.0673 </r>
       <r>   8.2224   3.0890  39.3274 </r>
       <r>   8.3065   4.0909  39.6719 </r>
       <r>   8.3907   2.9437  39.9197 </r>
       <r>   8.4749   0.9178  39.9970 </r>
       <r>   8.5591   0.1570  40.0102 </r>
       <r>   8.6433   1.3961  40.1278 </r>
       <r>   8.7275   3.4170  40.4155 </r>
       <r>   8.8117   4.0284  40.7546 </r>
       <r>   8.8959   2.5890  40.9726 </r>
       <r>   8.9801   0.7377  41.0347 </r>
       <r>   9.0643  -0.1280  41.0240 </r>
       <r>   9.1485  -0.1902  41.0080 </r>
       <r>   9.2327  -0.0752  41.0016 </r>
       <r>   9.3169  -0.0167  41.0002 </r>
       <r>   9.4011  -0.0024  41.0000 </r>
       <r>   9.4853  -0.0002  41.0000 </r>
       <r>   9.5695   0.0000  41.0000 </r>
       <r>   9.6537   0.0000  41.0000 </r>
       <r>   9.7379   0.0000  41.0000 </r>
       <r>   9.8221   0.0000  41.0000 </r>
       <r>   9.9063   0.0000  41.0000 </r>
       <r>   9.9905   0.0000  41.0000 </r>
       <r>  10.0747   0.0000  41.0000 </r>
       <r>  10.1589   0.0000  41.0000 </r>
       <r>  10.2431   0.0000  41.0000 </r>
       <r>  10.3273   0.0000  41.0000 </r>
       <r>  10.4115   0.0000  41.0000 </r>
       <r>  10.4957   0.0000  41.0000 </r>
       <r>  10.5799   0.0000  41.0000 </r>
       <r>  10.6641   0.0000  41.0000 </r>
       <r>  10.7483   0.0000  41.0000 </r>
      </set>
      <set comment="spin 2">
       <r> -14.5108   0.0000   0.0000 </r>
       <r> -14.4266   0.0000   0.0000 </r>
       <r> -14.3424   0.0000   0.0000 </r>
       <r> -14.2582   0.0000   0.0000 </r>
       <r> -14.1740   0.0000   0.0000 </r>
       <r> -14.0898   0.0000   0.0000 </r>
       <r> -14.0056   0.0000   0.0000 </r>
       <r> -13.9214   0.0000   0.0000 </r>
       <r> -13.8372   0.0000   0.0000 </r>
       <r> -13.7530   0.0000   0.0000 </r>
       <r> -13.6688   0.0000   0.0000 </r>
       <r> -13.5846   0.0000   0.0000 </r>
       <r> -13.5004   0.0000   0.0000 </r>
       <r> -13.4162   0.0000   0.0000 </r>
       <r> -13.3320   0.0000   0.0000 </r>
       <r> -13.2478   0.0000   0.0000 </r>
       <r> -13.1636  -0.0006   0.0000 </r>
       <r> -13.0794  -0.0068  -0.0006 </r>
       <r> -12.9952  -0.0579  -0.0055 </r>
       <r> -12.9110  -0.3316  -0.0334 </r>
       <r> -12.8268  -1.2193  -0.1361 </r>
       <r> -12.7426  -2.4683  -0.3439 </r>
       <r> -12.6584  -0.3892  -0.3767 </r>
       <r> -12.5742  12.6094   0.6850 </r>
       <r> -12.4900  37.4219   3.8358 </r>
       <r> -12.4058  56.7168   8.6112 </r>
       <r> -12.3216  50.8074  12.8890 </r>
       <r> -12.2374  25.7673  15.0585 </r>
       <r> -12.1533   4.7061  15.4548 </r>
       <r> -12.0691  -2.4929  15.2449 </r>
       <r> -11.9849  -2.0473  15.0725 </r>
       <r> -11.9007  -0.6979  15.0137 </r>
       <r> -11.8165  -0.1423  15.0017 </r>
       <r> -11.7323  -0.0189  15.0002 </r>
       <r> -11.6481  -0.0017  15.0000 </r>
       <r> -11.5639  -0.0001  15.0000 </r>
       <r> -11.4797   0.0000  15.0000 </r>
       <r> -11.3955   0.0000  15.0000 </r>
       <r> -11.3113   0.0000  15.0000 </r>
       <r> -11.2271   0.0000  15.0000 </r>
       <r> -11.1429   0.0000  15.0000 </r>
       <r> -11.0587   0.0000  15.0000 </r>
       <r> -10.9745   0.0000  15.0000 </r>
       <r> -10.8903   0.0000  15.0000 </r>
       <r> -10.8061   0.0000  15.0000 </r>
       <r> -10.7219   0.0000  15.0000 </r>
       <r> -10.6377   0.0000  15.0000 </r>
       <r> -10.5535   0.0000  15.0000 </r>
       <r> -10.4693   0.0000  15.0000 </r>
       <r> -10.3851   0.0000  15.0000 </r>
       <r> -10.3009   0.0000  15.0000 </r>
       <r> -10.2167   0.0000  15.0000 </r>
       <r> -10.1325   0.0000  15.0000 </r>
       <r> -10.0483   0.0000  15.0000 </r>
       <r>  -9.9641   0.0000  15.0000 </r>
       <r>  -9.8799   0.0000  15.0000 </r>
       <r>  -9.7957   0.0000  15.0000 </r>
       <r>  -9.7115  -0.0004  15.0000 </r>
       <r>  -9.6273  -0.0040  14.9996 </r>
       <r>  -9.5432  -0.0256  14.9975 </r>
       <r>  -9.4590  -0.1012  14.9890 </r>
       <r>  -9.3748  -0.2106  14.9712 </r>
       <r>  -9.2906  -0.0123  14.9702 </r>
       <r>  -9.2064   1.1379  15.0660 </r>
       <r>  -9.1222   3.0818  15.3255 </r>
       <r>  -9.0380   4.1292  15.6731 </r>
       <r>  -8.9538   3.0896  15.9333 </r>
       <r>  -8.8696   1.1451  16.0297 </r>
       <r>  -8.7854  -0.0098  16.0289 </r>
       <r>  -8.7012  -0.2108  16.0111 </r>
       <r>  -8.6170  -0.1016  16.0025 </r>
       <r>  -8.5328  -0.0259  16.0004 </r>
       <r>  -8.4486  -0.0055  15.9999 </r>
       <r>  -8.3644  -0.0132  15.9988 </r>
       <r>  -8.2802  -0.0732  15.9926 </r>
       <r>  -8.1960  -0.2561  15.9711 </r>
       <r>  -8.1118  -0.4314  15.9347 </r>
       <r>  -8.0276   0.2800  15.9583 </r>
       <r>  -7.9434   3.0355  16.2139 </r>
       <r>  -7.8592   6.7647  16.7835 </r>
       <r>  -7.7750   7.9887  17.4561 </r>
       <r>  -7.6908   5.9376  17.9560 </r>
       <r>  -7.6066   4.0080  18.2935 </r>
       <r>  -7.5224   3.7706  18.6110 </r>
       <r>  -7.4382   3.2373  18.8835 </r>
       <r>  -7.3540   1.5899  19.0174 </r>
       <r>  -7.2698   0.2007  19.0343 </r>
       <r>  -7.1856  -0.2151  19.0162 </r>
       <r>  -7.1014  -0.1408  19.0043 </r>
       <r>  -7.0173  -0.0425  19.0007 </r>
       <r>  -6.9331  -0.0077  19.0001 </r>
       <r>  -6.8489  -0.0009  19.0000 </r>
       <r>  -6.7647  -0.0001  19.0000 </r>
       <r>  -6.6805   0.0000  19.0000 </r>
       <r>  -6.5963   0.0000  19.0000 </r>
       <r>  -6.5121   0.0000  19.0000 </r>
       <r>  -6.4279   0.0000  19.0000 </r>
       <r>  -6.3437   0.0000  19.0000 </r>
       <r>  -6.2595   0.0000  19.0000 </r>
       <r>  -6.1753   0.0000  19.0000 </r>
       <r>  -6.0911   0.0000  19.0000 </r>
       <r>  -6.0069   0.0000  19.0000 </r>
       <r>  -5.9227   0.0000  19.0000 </r>
       <r>  -5.8385   0.0000  19.0000 </r>
       <r>  -5.7543   0.0000  19.0000 </r>
       <r>  -5.6701   0.0000  19.0000 </r>
       <r>  -5.5859   0.0000  19.0000 </r>
       <r>  -5.5017   0.0000  19.0000 </r>
       <r>  -5.4175   0.0000  19.0000 </r>
       <r>  -5.3333   0.0000  19.0000 </r>
       <r>  -5.2491   0.0000  19.0000 </r>
       <r>  -5.1649   0.0000  19.0000 </r>
       <r>  -5.0807   0.0000  19.0000 </r>
       <r>  -4.9965   0.0000  19.0000 </r>
       <r>  -4.9123   0.0000  19.0000 </r>
       <r>  -4.8281   0.0000  19.0000 </r>
       <r>  -4.7439   0.0000  19.0000 </r>
       <r>  -4.6597   0.0000  19.0000 </r>
       <r>  -4.5755   0.0000  19.0000 </r>
       <r>  -4.4914   0.0000  19.0000 </r>
       <r>  -4.4072   0.0000  19.0000 </r>
       <r>  -4.3230  -0.0003  19.0000 </r>
       <r>  -4.2388  -0.0038  18.9997 </r>
       <r>  -4.1546  -0.0281  18.9973 </r>
       <r>  -4.0704  -0.1325  18.9861 </r>
       <r>  -3.9862  -0.3587  18.9559 </r>
       <r>  -3.9020  -0.3168  18.9293 </r>
       <r>  -3.8178   1.1998  19.0303 </r>
       <r>  -3.7336   4.7836  19.4330 </r>
       <r>  -3.6494   7.9687  20.1040 </r>
       <r>  -3.5652   7.3250  20.7207 </r>
       <r>  -3.4810   3.6021  21.0240 </r>
       <r>  -3.3968   0.5254  21.0682 </r>
       <r>  -3.3126  -0.4160  21.0332 </r>
       <r>  -3.2284  -0.2876  21.0090 </r>
       <r>  -3.1442  -0.0885  21.0016 </r>
       <r>  -3.0600  -0.0163  21.0002 </r>
       <r>  -2.9758  -0.0020  21.0000 </r>
       <r>  -2.8916  -0.0003  21.0000 </r>
       <r>  -2.8074  -0.0014  20.9999 </r>
       <r>  -2.7232  -0.0111  20.9989 </r>
       <r>  -2.6390  -0.0557  20.9943 </r>
       <r>  -2.5548  -0.1640  20.9804 </r>
       <r>  -2.4706  -0.1871  20.9647 </r>
       <r>  -2.3864   0.4372  21.0015 </r>
       <r>  -2.3022   2.1274  21.1806 </r>
       <r>  -2.2180   3.8619  21.5058 </r>
       <r>  -2.1338   3.8260  21.8279 </r>
       <r>  -2.0496   2.0616  22.0015 </r>
       <r>  -1.9654   0.3998  22.0352 </r>
       <r>  -1.8813  -0.1926  22.0190 </r>
       <r>  -1.7971  -0.1600  22.0055 </r>
       <r>  -1.7129  -0.0532  22.0010 </r>
       <r>  -1.6287  -0.0104  22.0001 </r>
       <r>  -1.5445  -0.0013  22.0000 </r>
       <r>  -1.4603  -0.0001  22.0000 </r>
       <r>  -1.3761  -0.0001  22.0000 </r>
       <r>  -1.2919  -0.0009  21.9999 </r>
       <r>  -1.2077  -0.0083  21.9992 </r>
       <r>  -1.1235  -0.0528  21.9948 </r>
       <r>  -1.0393  -0.2085  21.9772 </r>
       <r>  -0.9551  -0.4391  21.9402 </r>
       <r>  -0.8709  -0.0771  21.9338 </r>
       <r>  -0.7867   2.1483  22.1146 </r>
       <r>  -0.7025   6.0925  22.6276 </r>
       <r>  -0.6183   8.9639  23.3823 </r>
       <r>  -0.5341   8.6626  24.1117 </r>
       <r>  -0.4499   6.2705  24.6397 </r>
       <r>  -0.3657   3.5118  24.9353 </r>
       <r>  -0.2815   1.2299  25.0389 </r>
       <r>  -0.1973  -0.0086  25.0382 </r>
       <r>  -0.1131  -0.2634  25.0160 </r>
       <r>  -0.0289  -0.1458  25.0037 </r>
       <r>   0.0553  -0.0648  24.9983 </r>
       <r>   0.1395  -0.1097  24.9890 </r>
       <r>   0.2237  -0.2447  24.9684 </r>
       <r>   0.3079  -0.1629  24.9547 </r>
       <r>   0.3921   0.8494  25.0262 </r>
       <r>   0.4763   3.1378  25.2904 </r>
       <r>   0.5605   5.6541  25.7665 </r>
       <r>   0.6446   6.6208  26.3239 </r>
       <r>   0.7288   5.2893  26.7693 </r>
       <r>   0.8130   2.6436  26.9918 </r>
       <r>   0.8972   0.3907  27.0247 </r>
       <r>   0.9814  -0.6371  26.9711 </r>
       <r>   1.0656  -0.2817  26.9474 </r>
       <r>   1.1498   2.0859  27.1230 </r>
       <r>   1.2340   6.0291  27.6306 </r>
       <r>   1.3182   8.2531  28.3255 </r>
       <r>   1.4024   6.2930  28.8554 </r>
       <r>   1.4866   2.3987  29.0573 </r>
       <r>   1.5708   0.0178  29.0588 </r>
       <r>   1.6550  -0.4247  29.0231 </r>
       <r>   1.7392  -0.2103  29.0054 </r>
       <r>   1.8234  -0.0542  29.0008 </r>
       <r>   1.9076  -0.0089  29.0001 </r>
       <r>   1.9918  -0.0037  28.9997 </r>
       <r>   2.0760  -0.0222  28.9979 </r>
       <r>   2.1602  -0.1113  28.9885 </r>
       <r>   2.2444  -0.3279  28.9609 </r>
       <r>   2.3286  -0.3743  28.9294 </r>
       <r>   2.4128   0.8743  29.0030 </r>
       <r>   2.4970   4.2545  29.3612 </r>
       <r>   2.5812   7.7236  30.0115 </r>
       <r>   2.6654   7.6522  30.6558 </r>
       <r>   2.7496   4.1236  31.0030 </r>
       <r>   2.8338   0.7998  31.0703 </r>
       <r>   2.9180  -0.3851  31.0379 </r>
       <r>   3.0022  -0.3200  31.0110 </r>
       <r>   3.0864  -0.1065  31.0020 </r>
       <r>   3.1706  -0.0209  31.0002 </r>
       <r>   3.2547  -0.0026  31.0000 </r>
       <r>   3.3389  -0.0002  31.0000 </r>
       <r>   3.4231   0.0000  31.0000 </r>
       <r>   3.5073   0.0000  31.0000 </r>
       <r>   3.5915   0.0000  31.0000 </r>
       <r>   3.6757  -0.0004  31.0000 </r>
       <r>   3.7599  -0.0037  30.9997 </r>
       <r>   3.8441  -0.0239  30.9976 </r>
       <r>   3.9283  -0.0969  30.9895 </r>
       <r>   4.0125  -0.2114  30.9717 </r>
       <r>   4.0967  -0.0595  30.9667 </r>
       <r>   4.1809   0.9491  31.0466 </r>
       <r>   4.2651   2.6653  31.2710 </r>
       <r>   4.3493   3.7725  31.5886 </r>
       <r>   4.4335   4.1612  31.9390 </r>
       <r>   4.5177   5.6783  32.4171 </r>
       <r>   4.6019   7.8429  33.0774 </r>
       <r>   4.6861   7.3185  33.6936 </r>
       <r>   4.7703   3.8115  34.0145 </r>
       <r>   4.8545   0.6599  34.0701 </r>
       <r>   4.9387  -0.4039  34.0361 </r>
       <r>   5.0229  -0.3078  34.0102 </r>
       <r>   5.1071  -0.0991  34.0018 </r>
       <r>   5.1913  -0.0190  34.0002 </r>
       <r>   5.2755  -0.0026  34.0000 </r>
       <r>   5.3597  -0.0026  33.9998 </r>
       <r>   5.4439  -0.0170  33.9984 </r>
       <r>   5.5281  -0.0759  33.9920 </r>
       <r>   5.6123  -0.1910  33.9759 </r>
       <r>   5.6965  -0.1251  33.9653 </r>
       <r>   5.7806   0.7497  34.0285 </r>
       <r>   5.8648   2.6090  34.2481 </r>
       <r>   5.9490   4.0585  34.5898 </r>
       <r>   6.0332   3.5055  34.8850 </r>
       <r>   6.1174   1.5912  35.0190 </r>
       <r>   6.2016   0.1645  35.0328 </r>
       <r>   6.2858  -0.2142  35.0148 </r>
       <r>   6.3700  -0.1312  35.0037 </r>
       <r>   6.4542  -0.0448  35.0000 </r>
       <r>   6.5384  -0.0528  34.9955 </r>
       <r>   6.6226  -0.1894  34.9796 </r>
       <r>   6.7068  -0.4136  34.9447 </r>
       <r>   6.7910  -0.0930  34.9369 </r>
       <r>   6.8752   2.0642  35.1107 </r>
       <r>   6.9594   5.9173  35.6089 </r>
       <r>   7.0436   8.1740  36.2972 </r>
       <r>   7.1278   6.1455  36.8146 </r>
       <r>   7.2120   2.0796  36.9897 </r>
       <r>   7.2962   0.3739  37.0212 </r>
       <r>   7.3804   2.7275  37.2508 </r>
       <r>   7.4646   6.7712  37.8209 </r>
       <r>   7.5488   8.0681  38.5002 </r>
       <r>   7.6330   5.2374  38.9412 </r>
       <r>   7.7172   1.5154  39.0688 </r>
       <r>   7.8014  -0.2711  39.0460 </r>
       <r>   7.8856  -0.4855  39.0051 </r>
       <r>   7.9698  -0.3643  38.9744 </r>
       <r>   8.0540  -0.0423  38.9709 </r>
       <r>   8.1382   1.1451  39.0673 </r>
       <r>   8.2224   3.0884  39.3273 </r>
       <r>   8.3065   4.0909  39.6718 </r>
       <r>   8.3907   2.9443  39.9197 </r>
       <r>   8.4749   0.9184  39.9970 </r>
       <r>   8.5591   0.1569  40.0102 </r>
       <r>   8.6433   1.3955  40.1277 </r>
       <r>   8.7275   3.4165  40.4154 </r>
       <r>   8.8117   4.0286  40.7546 </r>
       <r>   8.8959   2.5897  40.9726 </r>
       <r>   8.9801   0.7381  41.0347 </r>
       <r>   9.0643  -0.1279  41.0240 </r>
       <r>   9.1485  -0.1902  41.0080 </r>
       <r>   9.2327  -0.0752  41.0016 </r>
       <r>   9.3169  -0.0167  41.0002 </r>
       <r>   9.4011  -0.0024  41.0000 </r>
       <r>   9.4853  -0.0002  41.0000 </r>
       <r>   9.5695   0.0000  41.0000 </r>
       <r>   9.6537   0.0000  41.0000 </r>
       <r>   9.7379   0.0000  41.0000 </r>
       <r>   9.8221   0.0000  41.0000 </r>
       <r>   9.9063   0.0000  41.0000 </r>
       <r>   9.9905   0.0000  41.0000 </r>
       <r>  10.0747   0.0000  41.0000 </r>
       <r>  10.1589   0.0000  41.0000 </r>
       <r>  10.2431   0.0000  41.0000 </r>
       <r>  10.3273   0.0000  41.0000 </r>
       <r>  10.4115   0.0000  41.0000 </r>
       <r>  10.4957   0.0000  41.0000 </r>
       <r>  10.5799   0.0000  41.0000 </r>
       <r>  10.6641   0.0000  41.0000 </r>
       <r>  10.7483   0.0000  41.0000 </r>
      </set>
     </set>
    </array>
   </total>
  </dos>
 </calculation>
 <structure name="finalpos" >
  <crystal>
   <varray name="basis" >
    <v>       5.62660000       0.00000000       0.00000000 </v>
    <v>       0.00000000       5.62660000       0.00000000 </v>
    <v>       0.00000000       0.00000000       5.62660000 </v>
   </varray>
   <i name="volume">    178.13043383 </i>
   <varray name="rec_basis" >
    <v>       0.17772722       0.00000000       0.00000000 </v>
    <v>       0.00000000       0.17772722       0.00000000 </v>
    <v>       0.00000000       0.00000000       0.17772722 </v>
   </varray>
  </crystal>
  <varray name="positions" >
   <v>       0.50000000       0.50000000       0.00000000 </v>
   <v>       0.00000000       0.50000000       0.50000000 </v>
   <v>       0.50000000       0.00000000       0.50000000 </v>
   <v>       0.22945829       0.22945829       0.22945829 </v>
   <v>       0.77054171       0.77054171       0.22945829 </v>
   <v>       0.22945829       0.77054171       0.77054171 </v>
   <v>       0.77054171       0.22945829       0.77054171 </v>
  </varray>
 </structure>
</modeling>
