  31  31   0   0
  0.1706119E+02  0.8087054E-09  0.8087054E-09  0.8087054E-09  0.5000000E-15
  1.000000000000000E-004
  CAR 
 unknown system                          
     12.96772379     -4.93742109  301      7.87417738      1.00000000
     -4.937  0.0000E+00  0.0000E+00
     -4.878  0.0000E+00  0.0000E+00
     -4.818  0.0000E+00  0.0000E+00
     -4.758  0.0000E+00  0.0000E+00
     -4.699  0.0000E+00  0.0000E+00
     -4.639  0.0000E+00  0.0000E+00
     -4.579 -0.4113E-27 -0.2455E-28
     -4.520 -0.4829E-25 -0.2907E-26
     -4.460 -0.4770E-23 -0.2876E-24
     -4.400 -0.3936E-21 -0.2378E-22
     -4.341 -0.2712E-19 -0.1643E-20
     -4.281 -0.1561E-17 -0.9479E-19
     -4.221 -0.7495E-16 -0.4568E-17
     -4.162 -0.3004E-14 -0.1838E-15
     -4.102 -0.9669E-13 -0.5955E-14
     -4.042 -0.2708E-11 -0.1676E-12
     -3.982 -0.6266E-10 -0.3907E-11
     -3.923 -0.1206E-08 -0.7591E-10
     -3.863 -0.1931E-07 -0.1229E-08
     -3.803 -0.2567E-06 -0.1655E-07
     -3.744 -0.2829E-05 -0.1854E-06
     -3.684 -0.2580E-04 -0.1725E-05
     -3.624 -0.1941E-03 -0.1331E-04
     -3.565 -0.1200E-02 -0.8495E-04
     -3.505 -0.6067E-02 -0.4470E-03
     -3.445 -0.2484E-01 -0.1930E-02
     -3.386 -0.8125E-01 -0.6779E-02
     -3.326 -0.2065E+00 -0.1911E-01
     -3.266 -0.3834E+00 -0.4199E-01
     -3.207 -0.4200E+00 -0.6705E-01
     -3.147  0.1369E+00 -0.5888E-01
     -3.087  0.1788E+01  0.4781E-01
     -3.028  0.4484E+01  0.3154E+00
     -2.968  0.7186E+01  0.7443E+00
     -2.908  0.8359E+01  0.1243E+01
     -2.848  0.7241E+01  0.1675E+01
     -2.789  0.4560E+01  0.1947E+01
     -2.729  0.1846E+01  0.2058E+01
     -2.669  0.1641E+00  0.2067E+01
     -2.610 -0.4156E+00  0.2043E+01
     -2.550 -0.3883E+00  0.2019E+01
     -2.490 -0.2154E+00  0.2007E+01
     -2.431 -0.1036E+00  0.2000E+01
     -2.371 -0.9653E-01  0.1995E+01
     -2.311 -0.2047E+00  0.1982E+01
     -2.252 -0.4291E+00  0.1957E+01
     -2.192 -0.6547E+00  0.1918E+01
     -2.132 -0.4901E+00  0.1889E+01
     -2.073  0.7244E+00  0.1932E+01
     -2.013  0.3536E+01  0.2143E+01
     -1.953  0.7811E+01  0.2609E+01
     -1.894  0.1256E+02  0.3359E+01
     -1.834  0.1638E+02  0.4336E+01
     -1.774  0.1810E+02  0.5417E+01
     -1.714  0.1714E+02  0.6440E+01
     -1.655  0.1371E+02  0.7258E+01
     -1.595  0.8901E+01  0.7790E+01
     -1.535  0.4289E+01  0.8046E+01
     -1.476  0.1108E+01  0.8112E+01
     -1.416 -0.3725E+00  0.8090E+01
     -1.356 -0.6731E+00  0.8049E+01
     -1.297 -0.4993E+00  0.8020E+01
     -1.237 -0.3195E+00  0.8000E+01
     -1.177 -0.3194E+00  0.7981E+01
     -1.118 -0.5021E+00  0.7951E+01
     -1.058 -0.6759E+00  0.7911E+01
     -0.998 -0.3428E+00  0.7891E+01
     -0.939  0.1219E+01  0.7963E+01
     -0.879  0.4430E+01  0.8228E+01
     -0.819  0.8763E+01  0.8751E+01
     -0.760  0.1278E+02  0.9514E+01
     -0.700  0.1512E+02  0.1042E+02
     -0.640  0.1541E+02  0.1134E+02
     -0.581  0.1420E+02  0.1218E+02
     -0.521  0.1208E+02  0.1290E+02
     -0.461  0.9316E+01  0.1346E+02
     -0.401  0.6156E+01  0.1383E+02
     -0.342  0.3162E+01  0.1402E+02
     -0.282  0.9712E+00  0.1407E+02
     -0.222 -0.1682E+00  0.1406E+02
     -0.163 -0.5131E+00  0.1403E+02
     -0.103 -0.5458E+00  0.1400E+02
     -0.043 -0.6440E+00  0.1396E+02
      0.016 -0.8813E+00  0.1391E+02
      0.076 -0.8886E+00  0.1386E+02
      0.136  0.1857E+00  0.1387E+02
      0.195  0.3315E+01  0.1407E+02
      0.255  0.8742E+01  0.1459E+02
      0.315  0.1527E+02  0.1550E+02
      0.374  0.2061E+02  0.1673E+02
      0.434  0.2282E+02  0.1809E+02
      0.494  0.2153E+02  0.1938E+02
      0.553  0.1781E+02  0.2044E+02
      0.613  0.1311E+02  0.2122E+02
      0.673  0.8451E+01  0.2173E+02
      0.733  0.4467E+01  0.2199E+02
      0.792  0.1591E+01  0.2209E+02
      0.852 -0.9646E-02  0.2209E+02
      0.912 -0.5871E+00  0.2205E+02
      0.971 -0.6824E+00  0.2201E+02
      1.031 -0.8173E+00  0.2196E+02
      1.091 -0.1225E+01  0.2189E+02
      1.150 -0.1573E+01  0.2179E+02
      1.210 -0.6917E+00  0.2175E+02
      1.270  0.3176E+01  0.2194E+02
      1.329  0.1104E+02  0.2260E+02
      1.389  0.2141E+02  0.2388E+02
      1.449  0.3011E+02  0.2568E+02
      1.508  0.3288E+02  0.2764E+02
      1.568  0.2870E+02  0.2935E+02
      1.628  0.2059E+02  0.3058E+02
      1.687  0.1315E+02  0.3137E+02
      1.747  0.9229E+01  0.3192E+02
      1.807  0.8575E+01  0.3243E+02
      1.867  0.8966E+01  0.3296E+02
      1.926  0.8321E+01  0.3346E+02
      1.986  0.6106E+01  0.3383E+02
      2.046  0.3225E+01  0.3402E+02
      2.105  0.8812E+00  0.3407E+02
      2.165 -0.4134E+00  0.3405E+02
      2.225 -0.9059E+00  0.3399E+02
      2.284 -0.9875E+00  0.3393E+02
      2.344 -0.6199E+00  0.3390E+02
      2.404  0.7355E+00  0.3394E+02
      2.463  0.3645E+01  0.3416E+02
      2.523  0.8025E+01  0.3464E+02
      2.583  0.1285E+02  0.3540E+02
      2.642  0.1654E+02  0.3639E+02
      2.702  0.1786E+02  0.3746E+02
      2.762  0.1646E+02  0.3844E+02
      2.821  0.1296E+02  0.3921E+02
      2.881  0.8552E+01  0.3972E+02
      2.941  0.4471E+01  0.3999E+02
      3.001  0.1541E+01  0.4008E+02
      3.060 -0.4877E-01  0.4008E+02
      3.120 -0.6591E+00  0.4004E+02
      3.180 -0.8848E+00  0.3999E+02
      3.239 -0.1169E+01  0.3992E+02
      3.299 -0.1456E+01  0.3983E+02
      3.359 -0.9359E+00  0.3977E+02
      3.418  0.1837E+01  0.3988E+02
      3.478  0.8082E+01  0.4037E+02
      3.538  0.1742E+02  0.4141E+02
      3.597  0.2722E+02  0.4303E+02
      3.657  0.3366E+02  0.4504E+02
      3.717  0.3405E+02  0.4707E+02
      3.776  0.2861E+02  0.4878E+02
      3.836  0.2017E+02  0.4998E+02
      3.896  0.1220E+02  0.5071E+02
      3.955  0.6932E+01  0.5112E+02
      4.015  0.4541E+01  0.5140E+02
      4.075  0.3773E+01  0.5162E+02
      4.135  0.3150E+01  0.5181E+02
      4.194  0.1926E+01  0.5192E+02
      4.254  0.2529E+00  0.5194E+02
      4.314 -0.1197E+01  0.5187E+02
      4.373 -0.1461E+01  0.5178E+02
      4.433  0.7613E+00  0.5183E+02
      4.493  0.6733E+01  0.5223E+02
      4.552  0.1651E+02  0.5321E+02
      4.612  0.2794E+02  0.5488E+02
      4.672  0.3710E+02  0.5710E+02
      4.731  0.4046E+02  0.5951E+02
      4.791  0.3722E+02  0.6173E+02
      4.851  0.3002E+02  0.6352E+02
      4.910  0.2311E+02  0.6490E+02
      4.970  0.1934E+02  0.6606E+02
      5.030  0.1835E+02  0.6715E+02
      5.089  0.1764E+02  0.6820E+02
      5.149  0.1503E+02  0.6910E+02
      5.209  0.1037E+02  0.6972E+02
      5.269  0.5249E+01  0.7003E+02
      5.328  0.1353E+01  0.7011E+02
      5.388 -0.7180E+00  0.7007E+02
      5.448 -0.1341E+01  0.6999E+02
      5.507 -0.9798E+00  0.6993E+02
      5.567  0.4065E+00  0.6996E+02
      5.627  0.3106E+01  0.7014E+02
      5.686  0.6896E+01  0.7055E+02
      5.746  0.1066E+02  0.7119E+02
      5.806  0.1288E+02  0.7196E+02
      5.865  0.1268E+02  0.7272E+02
      5.925  0.1052E+02  0.7334E+02
      5.985  0.7994E+01  0.7382E+02
      6.044  0.6755E+01  0.7422E+02
      6.104  0.7138E+01  0.7465E+02
      6.164  0.7884E+01  0.7512E+02
      6.223  0.7379E+01  0.7556E+02
      6.283  0.5215E+01  0.7587E+02
      6.343  0.2351E+01  0.7601E+02
      6.403 -0.3508E-01  0.7601E+02
      6.462 -0.1425E+01  0.7593E+02
      6.522 -0.1660E+01  0.7583E+02
      6.582 -0.1713E+00  0.7582E+02
      6.641  0.4044E+01  0.7606E+02
      6.701  0.1143E+02  0.7674E+02
      6.761  0.2087E+02  0.7799E+02
      6.820  0.2983E+02  0.7977E+02
      6.880  0.3574E+02  0.8190E+02
      6.940  0.3723E+02  0.8412E+02
      6.999  0.3429E+02  0.8617E+02
      7.059  0.2795E+02  0.8784E+02
      7.119  0.1986E+02  0.8902E+02
      7.178  0.1188E+02  0.8973E+02
      7.238  0.5520E+01  0.9006E+02
      7.298  0.1463E+01  0.9015E+02
      7.357 -0.5058E+00  0.9012E+02
      7.417 -0.1158E+01  0.9005E+02
      7.477 -0.1313E+01  0.8997E+02
      7.536 -0.1357E+01  0.8989E+02
      7.596 -0.9612E+00  0.8983E+02
      7.656  0.8148E+00  0.8988E+02
      7.716  0.4942E+01  0.9017E+02
      7.775  0.1153E+02  0.9086E+02
      7.835  0.1930E+02  0.9201E+02
      7.895  0.2604E+02  0.9357E+02
      7.954  0.3006E+02  0.9536E+02
      8.014  0.3137E+02  0.9723E+02
      8.074  0.3148E+02  0.9911E+02
      8.133  0.3167E+02  0.1010E+03
      8.193  0.3146E+02  0.1029E+03
      8.253  0.2915E+02  0.1046E+03
      8.312  0.2387E+02  0.1060E+03
      8.372  0.1678E+02  0.1070E+03
      8.432  0.1003E+02  0.1076E+03
      8.491  0.5037E+01  0.1079E+03
      8.551  0.1967E+01  0.1081E+03
      8.611  0.3132E+00  0.1081E+03
      8.670 -0.4638E+00  0.1081E+03
      8.730 -0.8124E+00  0.1080E+03
      8.790 -0.1075E+01  0.1079E+03
      8.850 -0.1280E+01  0.1079E+03
      8.909 -0.8546E+00  0.1078E+03
      8.969  0.1322E+01  0.1079E+03
      9.029  0.6211E+01  0.1083E+03
      9.088  0.1355E+02  0.1091E+03
      9.148  0.2148E+02  0.1104E+03
      9.208  0.2755E+02  0.1120E+03
      9.267  0.3019E+02  0.1138E+03
      9.327  0.2928E+02  0.1155E+03
      9.387  0.2559E+02  0.1171E+03
      9.446  0.2024E+02  0.1183E+03
      9.506  0.1436E+02  0.1191E+03
      9.566  0.8889E+01  0.1197E+03
      9.625  0.4400E+01  0.1199E+03
      9.685  0.1256E+01  0.1200E+03
      9.745 -0.1544E+00  0.1200E+03
      9.804  0.5687E+00  0.1200E+03
      9.864  0.3437E+01  0.1202E+03
      9.924  0.7519E+01  0.1207E+03
      9.984  0.1091E+02  0.1213E+03
     10.043  0.1173E+02  0.1220E+03
     10.103  0.9554E+01  0.1226E+03
     10.163  0.5715E+01  0.1230E+03
     10.222  0.2187E+01  0.1231E+03
     10.282  0.1181E+00  0.1231E+03
     10.342 -0.5565E+00  0.1231E+03
     10.401 -0.5008E+00  0.1230E+03
     10.461 -0.2827E+00  0.1230E+03
     10.521 -0.1497E+00  0.1230E+03
     10.580 -0.1390E+00  0.1230E+03
     10.640 -0.2020E+00  0.1230E+03
     10.700 -0.2098E+00  0.1230E+03
     10.759  0.8018E-01  0.1230E+03
     10.819  0.9197E+00  0.1230E+03
     10.879  0.2275E+01  0.1232E+03
     10.938  0.3617E+01  0.1234E+03
     10.998  0.4180E+01  0.1236E+03
     11.058  0.3596E+01  0.1238E+03
     11.118  0.2246E+01  0.1240E+03
     11.177  0.8972E+00  0.1240E+03
     11.237  0.6998E-01  0.1240E+03
     11.297 -0.2097E+00  0.1240E+03
     11.356 -0.1919E+00  0.1240E+03
     11.416 -0.1035E+00  0.1240E+03
     11.476 -0.4075E-01  0.1240E+03
     11.535 -0.1247E-01  0.1240E+03
     11.595 -0.3047E-02  0.1240E+03
     11.655 -0.6032E-03  0.1240E+03
     11.714 -0.9761E-04  0.1240E+03
     11.774 -0.1298E-04  0.1240E+03
     11.834 -0.1424E-05  0.1240E+03
     11.893 -0.1293E-06  0.1240E+03
     11.953 -0.9733E-08  0.1240E+03
     12.013 -0.6083E-09  0.1240E+03
     12.072 -0.3161E-10  0.1240E+03
     12.132 -0.1365E-11  0.1240E+03
     12.192 -0.5208E-13  0.1240E+03
     12.252  0.0000E+00  0.1240E+03
     12.311  0.0000E+00  0.1240E+03
     12.371  0.0000E+00  0.1240E+03
     12.431  0.0000E+00  0.1240E+03
     12.490  0.0000E+00  0.1240E+03
     12.550  0.0000E+00  0.1240E+03
     12.610  0.0000E+00  0.1240E+03
     12.669  0.0000E+00  0.1240E+03
     12.729  0.0000E+00  0.1240E+03
     12.789  0.0000E+00  0.1240E+03
     12.848  0.0000E+00  0.1240E+03
     12.908  0.0000E+00  0.1240E+03
     12.968  0.0000E+00  0.1240E+03
