   31   31    1    1
  0.1706119E+02  0.8087054E-09  0.8087054E-09  0.8087054E-09  0.5000000E-15
  1.000000000000000E-004
  CAR 
 unknown system                          
   93    2   62
 
  0.2500000E+00  0.2500000E+00  0.2500000E+00  0.5000000E+00
   1       -2.937068
   2       -1.905458
   3       -1.820915
   4       -1.663016
   5       -0.774743
   6       -0.714923
   7       -0.468909
   8        0.314842
   9        0.366264
  10        0.416827
  11        0.628154
  12        1.405890
  13        1.427715
  14        1.463565
  15        1.526487
  16        1.731810
  17        1.854991
  18        2.588342
  19        2.658031
  20        2.745545
  21        3.547081
  22        3.595937
  23        3.647546
  24        3.695175
  25        3.730923
  26        4.072483
  27        4.593926
  28        4.614130
  29        4.663650
  30        4.744915
  31        4.750826
  32        4.774103
  33        4.904053
  34        5.071460
  35        5.097088
  36        5.754617
  37        5.845336
  38        6.162467
  39        6.755216
  40        6.823176
  41        6.839373
  42        6.913083
  43        6.978298
  44        7.000281
  45        7.139338
  46        7.791574
  47        7.914326
  48        7.917910
  49        7.948869
  50        8.027004
  51        8.119624
  52        8.208623
  53        8.245577
  54        8.431323
  55        9.096458
  56        9.192118
  57        9.239947
  58        9.340498
  59        9.347838
  60        9.459383
  61       10.005512
  62       10.967724
 
 -0.2500000E+00  0.2500000E+00  0.2500000E+00  0.5000000E+00
   1       -2.937421
   2       -1.915003
   3       -1.741087
   4       -1.739803
   5       -0.792037
   6       -0.627896
   7       -0.553529
   8        0.305402
   9        0.427135
  10        0.476756
  11        0.563813
  12        1.413129
  13        1.452706
  14        1.456038
  15        1.550402
  16        1.562923
  17        1.898841
  18        2.543948
  19        2.698755
  20        2.838659
  21        3.569768
  22        3.603222
  23        3.688826
  24        3.695265
  25        3.776128
  26        3.873382
  27        4.566616
  28        4.649726
  29        4.659595
  30        4.707822
  31        4.771011
  32        4.788642
  33        4.968147
  34        5.011118
  35        5.144254
  36        5.722196
  37        5.907087
  38        6.152658
  39        6.732407
  40        6.803994
  41        6.836773
  42        6.909678
  43        6.974572
  44        6.996284
  45        7.084792
  46        7.811045
  47        7.866219
  48        7.963604
  49        8.023710
  50        8.123986
  51        8.152567
  52        8.227786
  53        8.233280
  54        8.302310
  55        9.131240
  56        9.176049
  57        9.187143
  58        9.323506
  59        9.356586
  60        9.539629
  61        9.949520
  62       10.036300
