<?xml version="1.0" encoding="ISO-8859-1"?>
<modeling>
 <generator>
  <i name="program" type="string">vasp </i>
  <i name="version" type="string">5.2.2  </i>
  <i name="subversion" type="string">15Apr09 complex  parallel </i>
  <i name="platform" type="string">LinuxIFC </i>
  <i name="date" type="string">2014 04 24 </i>
  <i name="time" type="string">10:58:24 </i>
 </generator>
 <incar>
  <i type="string" name="PREC">accurate</i>
  <i type="int" name="IALGO">    48</i>
  <i type="int" name="IBRION">    -1</i>
  <i name="EDIFFG">      0.05000000</i>
  <i type="int" name="NSW">     0</i>
  <i type="int" name="ISIF">     2</i>
  <i name="ENCUT">    300.00000000</i>
  <i name="NELECT">     93.00000000</i>
  <i type="int" name="ISMEAR">     1</i>
  <i name="SIGMA">      0.20000000</i>
  <i type="logical" name="LWAVE"> F  </i>
  <i type="logical" name="LCHARG"> F  </i>
  <i type="logical" name="LPEAD"> F  </i>
  <i type="logical" name="LCALCPOL"> F  </i>
  <i type="logical" name="LCALCEPS"> F  </i>
  <v name="EFIELD_PEAD">      0.00000000      0.00000000      0.00000000</v>
  <i type="logical" name="LEFG"> F  </i>
 </incar>
 <kpoints>
  <generation param="Monkhorst-Pack">
   <v type="int" name="divisions">       2        2        2 </v>
   <v name="usershift">      0.00000000       0.00000000       0.00000000 </v>
   <v name="genvec1">      0.50000000       0.00000000       0.00000000 </v>
   <v name="genvec2">      0.00000000       0.50000000       0.00000000 </v>
   <v name="genvec3">      0.00000000       0.00000000       0.50000000 </v>
   <v name="shift">      0.50000000       0.50000000       0.50000000 </v>
  </generation>
  <varray name="kpointlist" >
   <v>       0.25000000       0.25000000       0.25000000 </v>
   <v>      -0.25000000       0.25000000       0.25000000 </v>
  </varray>
  <varray name="weights" >
   <v>       0.50000000 </v>
   <v>       0.50000000 </v>
  </varray>
 </kpoints>
 <parameters>
  <separator name="general" >
   <i type="string" name="SYSTEM">unknown system</i>
   <i type="logical" name="LCOMPAT"> F  </i>
  </separator>
  <separator name="electronic" >
   <i type="string" name="PREC">accura</i>
   <i name="ENMAX">    300.00000000</i>
   <i name="ENAUG">    291.05200000</i>
   <i name="EDIFF">      0.00010000</i>
   <i type="int" name="IALGO">    48</i>
   <i type="int" name="IWAVPR">    10</i>
   <i type="int" name="NBANDS">    62</i>
   <i name="NELECT">     93.00000000</i>
   <separator name="electronic smearing" >
    <i type="int" name="ISMEAR">     1</i>
    <i name="SIGMA">      0.20000000</i>
   </separator>
   <separator name="electronic projectors" >
    <i type="logical" name="LREAL"> F  </i>
    <v name="ROPT">      0.00000000</v>
    <i type="int" name="LMAXPAW">  -100</i>
    <i type="int" name="LMAXMIX">     2</i>
   </separator>
   <separator name="electronic startup" >
    <i type="int" name="ISTART">     0</i>
    <i type="int" name="ICHARG">     2</i>
    <i type="int" name="INIWAV">     1</i>
   </separator>
   <separator name="electronic spin" >
    <i type="int" name="ISPIN">     1</i>
    <i type="logical" name="LNONCOLLINEAR"> F  </i>
    <v name="MAGMOM">      1.00000000      1.00000000      1.00000000      1.00000000      1.00000000      1.00000000      1.00000000      1.00000000      1.00000000      1.00000000      1.00000000      1.00000000      1.00000000      1.00000000      1.00000000      1.00000000      1.00000000      1.00000000      1.00000000      1.00000000
      1.00000000      1.00000000      1.00000000      1.00000000      1.00000000      1.00000000      1.00000000      1.00000000      1.00000000      1.00000000      1.00000000</v>
    <i name="NUPDOWN">     -1.00000000</i>
    <i type="logical" name="LSORBIT"> F  </i>
    <v name="SAXIS">      0.00000000      0.00000000      1.00000000</v>
    <i type="logical" name="LSPIRAL"> F  </i>
    <v name="QSPIRAL">      0.00000000      0.00000000      0.00000000</v>
    <i type="logical" name="LZEROZ"> F  </i>
   </separator>
   <separator name="electronic exchange-correlation" >
    <i type="logical" name="LASPH"> F  </i>
    <i type="logical" name="LMETAGGA"> F  </i>
   </separator>
   <separator name="electronic convergence" >
    <i type="int" name="NELM">    60</i>
    <i type="int" name="NELMDL">   -12</i>
    <i type="int" name="NELMIN">     2</i>
    <i name="ENINI">    300.00000000</i>
    <separator name="electronic convergence detail" >
     <i type="logical" name="LDIAG"> T  </i>
     <i name="WEIMIN">      0.00000000</i>
     <i name="EBREAK">      0.00000040</i>
     <i name="DEPER">      0.30000000</i>
     <i type="int" name="NRMM">     4</i>
     <i name="TIME">      0.40000000</i>
    </separator>
   </separator>
   <separator name="electronic mixer" >
    <i name="AMIX">      0.40000000</i>
    <i name="BMIX">      1.00000000</i>
    <i name="AMIN">      0.10000000</i>
    <i name="AMIX_MAG">      1.60000000</i>
    <i name="BMIX_MAG">      1.00000000</i>
    <separator name="electronic mixer details" >
     <i type="int" name="IMIX">     4</i>
     <i type="int" name="MAXMIX">   -45</i>
     <i name="WC">    100.00000000</i>
     <i type="int" name="INIMIX">     1</i>
     <i type="int" name="MIXPRE">     1</i>
     <i type="int" name="MREMOVE">     5</i>
    </separator>
   </separator>
   <separator name="electronic dipolcorrection" >
    <i type="logical" name="LDIPOL"> F  </i>
    <i type="logical" name="LMONO"> F  </i>
    <i type="int" name="IDIPOL">     0</i>
    <i name="EPSILON">      1.00000000</i>
    <v name="DIPOL">   -100.00000000   -100.00000000   -100.00000000</v>
    <i name="EFIELD">      0.00000000</i>
   </separator>
  </separator>
  <separator name="grids" >
   <i type="int" name="NGX">    48</i>
   <i type="int" name="NGY">    48</i>
   <i type="int" name="NGZ">    48</i>
   <i type="int" name="NGXF">    96</i>
   <i type="int" name="NGYF">    96</i>
   <i type="int" name="NGZF">    96</i>
   <i type="logical" name="ADDGRID"> F  </i>
  </separator>
  <separator name="ionic" >
   <i type="int" name="NSW">     0</i>
   <i type="int" name="IBRION">    -1</i>
   <i type="int" name="ISIF">     2</i>
   <i name="PSTRESS">      0.00000000</i>
   <i name="EDIFFG">      0.05000000</i>
   <i type="int" name="NFREE">     0</i>
   <i name="POTIM">      0.50000000</i>
   <i name="SMASS">     -3.00000000</i>
  </separator>
  <separator name="ionic md" >
   <i name="TEBEG">      0.00010000</i>
   <i name="TEEND">      0.00010000</i>
   <i type="int" name="NBLOCK">     1</i>
   <i type="int" name="KBLOCK">     1</i>
   <i type="int" name="NPACO">   256</i>
   <i name="APACO">     16.00000000</i>
  </separator>
  <separator name="symmetry" >
   <i type="int" name="ISYM">     2</i>
   <i name="SYMPREC">      0.00001000</i>
  </separator>
  <separator name="dos" >
   <i type="logical" name="LORBIT"> F  </i>
   <v name="RWIGS">     -1.00000000</v>
   <i type="int" name="NEDOS">   301</i>
   <i name="EMIN">     10.00000000</i>
   <i name="EMAX">    -10.00000000</i>
   <i name="EFERMI">      0.00000000</i>
  </separator>
  <separator name="writing" >
   <i type="int" name="NWRITE">     2</i>
   <i type="logical" name="LWAVE"> F  </i>
   <i type="logical" name="LCHARG"> F  </i>
   <i type="logical" name="LPARD"> F  </i>
   <i type="logical" name="LVTOT"> F  </i>
   <i type="logical" name="LELF"> F  </i>
   <i type="logical" name="LOPTICS"> F  </i>
   <v name="STM">      0.00000000      0.00000000      0.00000000      0.00000000      0.00000000</v>
  </separator>
  <separator name="performance" >
   <i type="int" name="NPAR">     1</i>
   <i type="int" name="NSIM">     4</i>
   <i type="int" name="NBLK">    32</i>
   <i type="logical" name="LPLANE"> T  </i>
   <i type="logical" name="LSCALAPACK"> F  </i>
   <i type="logical" name="LSCAAWARE"> F  </i>
   <i type="logical" name="LSCALU"> F  </i>
   <i type="logical" name="LASYNC"> F  </i>
  </separator>
  <separator name="miscellaneous" >
   <i type="int" name="IDIOT">     3</i>
   <i type="logical" name="LMUSIC"> F  </i>
   <v name="POMASS">     26.98200000</v>
   <i type="logical" name="LCORR"> T  </i>
  </separator>
  <i type="logical" name="LREAL_COMPAT"> F  </i>
  <i type="logical" name="GGA_COMPAT"> T  </i>
  <i type="logical" name="LBERRY"> F  </i>
  <i type="int" name="ICORELEVEL">     0</i>
  <i type="logical" name="LDAU"> F  </i>
  <i type="int" name="I_CONSTRAINED_M">     0</i>
  <separator name="electronic exchange-correlation" >
   <i type="string" name="GGA">--</i>
   <i type="int" name="VOSKOWN">     0</i>
   <i type="logical" name="LHFCALC"> F  </i>
   <i type="logical" name="LHFONE"> F  </i>
   <i type="logical" name="LRHFCALC"> F  </i>
   <i type="logical" name="LTHOMAS"> F  </i>
   <i type="logical" name="LMODELHF"> F  </i>
   <i name="ENCUTFOCK">      0.00000000</i>
   <i name="ENCUT4O">     -1.00000000</i>
   <i type="int" name="EXXOEP">     0</i>
   <i type="int" name="FOURORBIT">     0</i>
   <i name="AEXX">      0.00000000</i>
   <i name="HFALPHA">      0.00000000</i>
   <i name="ALDAX">      1.00000000</i>
   <i name="AGGAX">      1.00000000</i>
   <i name="ALDAC">      1.00000000</i>
   <i name="AGGAC">      1.00000000</i>
   <i type="int" name="NKREDX">     1</i>
   <i type="int" name="NKREDY">     1</i>
   <i type="int" name="NKREDZ">     1</i>
   <i type="logical" name="SHIFTRED"> F  </i>
   <i type="logical" name="ODDONLY"> F  </i>
   <i type="logical" name="EVENONLY"> F  </i>
   <i type="int" name="LMAXFOCK">     0</i>
   <i type="int" name="NMAXFOCKAE">     0</i>
   <i name="HFSCREEN">      0.00000000</i>
   <i name="HFSCREENC">      0.00000000</i>
  </separator>
  <separator name="model GW" >
   <i type="int" name="MODEL_GW">     0</i>
   <i name="MODEL_EPS0">     10.23671437</i>
   <i name="MODEL_ALPHA">      1.00000000</i>
  </separator>
  <separator name="linear response parameters" >
   <i type="logical" name="LEPSILON"> F  </i>
   <i type="logical" name="LRPA"> F  </i>
   <i type="logical" name="LNABLA"> F  </i>
   <i type="logical" name="LVEL"> F  </i>
   <i type="int" name="KINTER">     0</i>
   <i name="CSHIFT">      0.10000000</i>
   <i name="OMEGAMAX">     -1.00000000</i>
  </separator>
  <separator name="orbital magnetization" >
   <i type="logical" name="ORBITALMAG"> F  </i>
   <i type="logical" name="LMAGBLOCH"> F  </i>
   <i type="logical" name="LCHIMAG"> F  </i>
   <i type="logical" name="LGAUGE"> T  </i>
   <i type="int" name="MAGATOM">     0</i>
   <v name="MAGDIPOL">      0.00000000      0.00000000      0.00000000</v>
   <v name="AVECCONST">      0.00000000      0.00000000      0.00000000</v>
  </separator>
  <separator name="response functions" >
   <i type="logical" name="LRPA"> T  </i>
   <i type="logical" name="LTCTE"> F  </i>
   <i type="logical" name="LTETE"> F  </i>
   <i type="logical" name="L2ORDER"> F  </i>
   <i type="logical" name="LGWLF"> F  </i>
   <i name="ENCUTGW">    200.00000000</i>
   <i name="ENCUTGWSOFT">     -2.00000000</i>
   <i name="ENCUTLF">     -1.00000000</i>
   <i type="int" name="LMAXMP2">    -1</i>
   <i name="SCISSOR">      0.00000000</i>
   <i type="int" name="NOMEGA">     0</i>
   <i type="int" name="NOMEGAR">     0</i>
   <i type="int" name="NBANDSGW">    -1</i>
   <i type="int" name="NBANDSLF">    -1</i>
   <i type="int" name="NELM">     1</i>
   <i type="int" name="DIM">     3</i>
   <i type="int" name="ANTIRES">     0</i>
   <i type="logical" name="LUSEW"> F  </i>
   <i name="OMEGAMAX">    -30.00000000</i>
   <i name="OMEGATL">   -200.00000000</i>
   <i type="int" name="OMEGAGRID">     0</i>
   <i name="CSHIFT">     -0.10000000</i>
   <i type="logical" name="SELFENERGY"> F  </i>
   <i type="logical" name="LSPECTRAL"> F  </i>
   <i type="logical" name="ODDONLYGW"> F  </i>
   <i type="logical" name="EVENONLYGW"> F  </i>
   <i type="int" name="NKREDLFX">     1</i>
   <i type="int" name="NKREDLFY">     1</i>
   <i type="int" name="NKREDLFZ">     1</i>
   <i type="int" name="MAXMEM">  1024</i>
   <i type="int" name="TELESCOPE">     0</i>
  </separator>
 </parameters>
 <atominfo>
  <atoms>      31 </atoms>
  <types>       1 </types>
  <array name="atoms" >
   <dimension dim="1">ion</dimension>
   <field type="string">element</field>
   <field type="int">atomtype</field>
   <set>
    <rc><c>Al</c><c>   1</c></rc>
    <rc><c>Al</c><c>   1</c></rc>
    <rc><c>Al</c><c>   1</c></rc>
    <rc><c>Al</c><c>   1</c></rc>
    <rc><c>Al</c><c>   1</c></rc>
    <rc><c>Al</c><c>   1</c></rc>
    <rc><c>Al</c><c>   1</c></rc>
    <rc><c>Al</c><c>   1</c></rc>
    <rc><c>Al</c><c>   1</c></rc>
    <rc><c>Al</c><c>   1</c></rc>
    <rc><c>Al</c><c>   1</c></rc>
    <rc><c>Al</c><c>   1</c></rc>
    <rc><c>Al</c><c>   1</c></rc>
    <rc><c>Al</c><c>   1</c></rc>
    <rc><c>Al</c><c>   1</c></rc>
    <rc><c>Al</c><c>   1</c></rc>
    <rc><c>Al</c><c>   1</c></rc>
    <rc><c>Al</c><c>   1</c></rc>
    <rc><c>Al</c><c>   1</c></rc>
    <rc><c>Al</c><c>   1</c></rc>
    <rc><c>Al</c><c>   1</c></rc>
    <rc><c>Al</c><c>   1</c></rc>
    <rc><c>Al</c><c>   1</c></rc>
    <rc><c>Al</c><c>   1</c></rc>
    <rc><c>Al</c><c>   1</c></rc>
    <rc><c>Al</c><c>   1</c></rc>
    <rc><c>Al</c><c>   1</c></rc>
    <rc><c>Al</c><c>   1</c></rc>
    <rc><c>Al</c><c>   1</c></rc>
    <rc><c>Al</c><c>   1</c></rc>
    <rc><c>Al</c><c>   1</c></rc>
   </set>
  </array>
  <array name="atomtypes" >
   <dimension dim="1">type</dimension>
   <field type="int">atomspertype</field>
   <field type="string">element</field>
   <field>mass</field>
   <field>valence</field>
   <field type="string">pseudopotential</field>
   <set>
    <rc><c>  31</c><c>Al</c><c>     26.98200000</c><c>      3.00000000</c><c> PAW_PBE Al 04Jan2001                   </c></rc>
   </set>
  </array>
 </atominfo>
 <structure name="initialpos" >
  <crystal>
   <varray name="basis" >
    <v>       8.08705400       0.00000000       0.00000000 </v>
    <v>       0.00000000       8.08705400       0.00000000 </v>
    <v>       0.00000000       0.00000000       8.08705400 </v>
   </varray>
   <i name="volume">    528.89690930 </i>
   <varray name="rec_basis" >
    <v>       0.12365442       0.00000000       0.00000000 </v>
    <v>       0.00000000       0.12365442       0.00000000 </v>
    <v>       0.00000000       0.00000000       0.12365442 </v>
   </varray>
  </crystal>
  <varray name="positions" >
   <v>       0.37500000       0.50000000       0.37500000 </v>
   <v>       0.99970200       0.00000000       0.99970200 </v>
   <v>       0.24846500       0.00000000       0.24846500 </v>
   <v>       0.24812200       0.25335500       0.00238100 </v>
   <v>       0.00238100       0.25335500       0.24812200 </v>
   <v>       0.50052700       0.00000000       0.99307700 </v>
   <v>       0.75692300       0.00000000       0.24947300 </v>
   <v>       0.75133900       0.25081000       0.99866100 </v>
   <v>       0.50655600       0.23697100       0.24344400 </v>
   <v>       0.00091800       0.50000000       0.00091800 </v>
   <v>       0.24812200       0.74664500       0.00238100 </v>
   <v>       0.00238100       0.74664500       0.24812200 </v>
   <v>       0.49482700       0.50000000       0.00541200 </v>
   <v>       0.74460000       0.50000000       0.25516700 </v>
   <v>       0.75133900       0.74919000       0.99866100 </v>
   <v>       0.50655600       0.76302900       0.24344400 </v>
   <v>       0.99307700       0.00000000       0.50052700 </v>
   <v>       0.24947300       0.00000000       0.75692300 </v>
   <v>       0.24344400       0.23697100       0.50655600 </v>
   <v>       0.99866100       0.25081000       0.75133900 </v>
   <v>       0.50153400       0.00000000       0.50153400 </v>
   <v>       0.75030200       0.00000000       0.75030200 </v>
   <v>       0.74762400       0.25335400       0.50187700 </v>
   <v>       0.50187700       0.25335400       0.74762400 </v>
   <v>       0.00541200       0.50000000       0.49482700 </v>
   <v>       0.25516700       0.50000000       0.74460000 </v>
   <v>       0.24344400       0.76302900       0.50655600 </v>
   <v>       0.99866100       0.74919000       0.75133900 </v>
   <v>       0.74908800       0.50000000       0.74908800 </v>
   <v>       0.74762400       0.74664600       0.50187700 </v>
   <v>       0.50187700       0.74664600       0.74762400 </v>
  </varray>
 </structure>
 <calculation>
  <scstep>
   <time name="diag">    4.67    2.96</time>
   <time name="diis">   21.53    6.82</time>
   <time name="orth">    0.33    0.08</time>
   <time name="total">   28.45   11.74</time>
   <energy>
    <i name="alphaZ">     -6.10292531 </i>
    <i name="ewald">  -2233.44441945 </i>
    <i name="hartreedc">    -14.87570434 </i>
    <i name="XCdc">   -814.89410781 </i>
    <i name="pawpsdc">   1102.18190231 </i>
    <i name="pawaedc">   -111.56847430 </i>
    <i name="eentropy">     -0.05384555 </i>
    <i name="bandstr">    726.10416239 </i>
    <i name="atom">   1659.66634407 </i>
    <i name="e_fr_energy">    307.01293201 </i>
    <i name="e_wo_entrp">    307.06677756 </i>
    <i name="e_0_energy">    307.03088053 </i>
   </energy>
  </scstep>
  <scstep>
   <time name="diag">    4.52    2.94</time>
   <time name="diis">   21.42    6.79</time>
   <time name="orth">    0.34    0.08</time>
   <time name="total">   26.30    9.81</time>
   <energy>
    <i name="e_fr_energy">    -11.50163819 </i>
    <i name="e_wo_entrp">    -11.43787773 </i>
    <i name="e_0_energy">    -11.48038470 </i>
   </energy>
  </scstep>
  <scstep>
   <time name="diag">    4.54    2.94</time>
   <time name="diis">   21.34    6.79</time>
   <time name="orth">    0.34    0.08</time>
   <time name="total">   26.22    9.81</time>
   <energy>
    <i name="e_fr_energy">    -87.44572624 </i>
    <i name="e_wo_entrp">    -87.42968993 </i>
    <i name="e_0_energy">    -87.44038080 </i>
   </energy>
  </scstep>
  <scstep>
   <time name="diag">    4.56    2.94</time>
   <time name="diis">   21.26    6.79</time>
   <time name="orth">    0.34    0.08</time>
   <time name="total">   26.17    9.82</time>
   <energy>
    <i name="e_fr_energy">   -103.80541634 </i>
    <i name="e_wo_entrp">   -103.83323940 </i>
    <i name="e_0_energy">   -103.81469069 </i>
   </energy>
  </scstep>
  <scstep>
   <time name="diag">    4.59    2.94</time>
   <time name="diis">   21.73    6.82</time>
   <time name="orth">    0.34    0.08</time>
   <time name="total">   26.67    9.85</time>
   <energy>
    <i name="e_fr_energy">   -110.25778559 </i>
    <i name="e_wo_entrp">   -110.21576576 </i>
    <i name="e_0_energy">   -110.24377898 </i>
   </energy>
  </scstep>
  <scstep>
   <time name="diag">    4.59    2.95</time>
   <time name="diis">   21.61    6.81</time>
   <time name="orth">    0.34    0.08</time>
   <time name="total">   26.55    9.84</time>
   <energy>
    <i name="e_fr_energy">   -112.85164707 </i>
    <i name="e_wo_entrp">   -112.80441531 </i>
    <i name="e_0_energy">   -112.83590315 </i>
   </energy>
  </scstep>
  <scstep>
   <time name="diag">    4.69    2.96</time>
   <time name="diis">   21.53    6.82</time>
   <time name="orth">    0.34    0.08</time>
   <time name="total">   26.57    9.87</time>
   <energy>
    <i name="e_fr_energy">   -113.95581853 </i>
    <i name="e_wo_entrp">   -113.91122307 </i>
    <i name="e_0_energy">   -113.94095338 </i>
   </energy>
  </scstep>
  <scstep>
   <time name="diag">    4.52    2.93</time>
   <time name="diis">   21.39    6.79</time>
   <time name="orth">    0.34    0.08</time>
   <time name="total">   26.26    9.81</time>
   <energy>
    <i name="e_fr_energy">   -114.45566951 </i>
    <i name="e_wo_entrp">   -114.41688007 </i>
    <i name="e_0_energy">   -114.44273969 </i>
   </energy>
  </scstep>
  <scstep>
   <time name="diag">    4.52    2.94</time>
   <time name="diis">   55.09   15.31</time>
   <time name="orth">    0.34    0.08</time>
   <time name="total">   59.97   18.34</time>
   <energy>
    <i name="e_fr_energy">   -114.84836720 </i>
    <i name="e_wo_entrp">   -114.80738028 </i>
    <i name="e_0_energy">   -114.83470489 </i>
   </energy>
  </scstep>
  <scstep>
   <time name="diag">    4.43    2.94</time>
   <time name="diis">   48.72   13.67</time>
   <time name="orth">    0.34    0.08</time>
   <time name="total">   53.60   16.73</time>
   <energy>
    <i name="e_fr_energy">   -114.91344628 </i>
    <i name="e_wo_entrp">   -114.86182313 </i>
    <i name="e_0_energy">   -114.89623856 </i>
   </energy>
  </scstep>
  <scstep>
   <time name="diag">    4.52    2.94</time>
   <time name="diis">   42.56   11.96</time>
   <time name="orth">    0.34    0.08</time>
   <time name="total">   47.43   14.98</time>
   <energy>
    <i name="e_fr_energy">   -114.91552885 </i>
    <i name="e_wo_entrp">   -114.86365836 </i>
    <i name="e_0_energy">   -114.89823869 </i>
   </energy>
  </scstep>
  <scstep>
   <time name="diag">    4.52    2.94</time>
   <time name="diis">   35.48   10.04</time>
   <time name="orth">    0.34    0.08</time>
   <time name="total">   42.13   14.75</time>
   <energy>
    <i name="e_fr_energy">   -114.91555427 </i>
    <i name="e_wo_entrp">   -114.86368528 </i>
    <i name="e_0_energy">   -114.89826461 </i>
   </energy>
  </scstep>
  <scstep>
   <time name="diag">    4.66    2.96</time>
   <time name="diis">   45.71   13.21</time>
   <time name="orth">    0.34    0.08</time>
   <time name="total">   54.39   19.84</time>
   <energy>
    <i name="e_fr_energy">   -114.31546208 </i>
    <i name="e_wo_entrp">   -114.24076221 </i>
    <i name="e_0_energy">   -114.29056212 </i>
   </energy>
  </scstep>
  <scstep>
   <time name="diag">    4.75    3.04</time>
   <time name="diis">   47.56   13.60</time>
   <time name="orth">    0.34    0.08</time>
   <time name="total">   56.33   20.30</time>
   <energy>
    <i name="e_fr_energy">   -114.04921277 </i>
    <i name="e_wo_entrp">   -113.97147686 </i>
    <i name="e_0_energy">   -114.02330080 </i>
   </energy>
  </scstep>
  <scstep>
   <time name="diag">    4.76    3.04</time>
   <time name="diis">   49.60   14.06</time>
   <time name="orth">    0.34    0.08</time>
   <time name="total">   58.42   20.73</time>
   <energy>
    <i name="e_fr_energy">   -114.01711719 </i>
    <i name="e_wo_entrp">   -113.94130271 </i>
    <i name="e_0_energy">   -113.99184570 </i>
   </energy>
  </scstep>
  <scstep>
   <time name="diag">    4.66    2.96</time>
   <time name="diis">   48.72   13.90</time>
   <time name="orth">    0.34    0.08</time>
   <time name="total">   57.53   20.54</time>
   <energy>
    <i name="e_fr_energy">   -114.01589938 </i>
    <i name="e_wo_entrp">   -113.94039962 </i>
    <i name="e_0_energy">   -113.99073279 </i>
   </energy>
  </scstep>
  <scstep>
   <time name="diag">    4.66    2.96</time>
   <time name="diis">   40.81   11.64</time>
   <time name="orth">    0.34    0.08</time>
   <time name="total">   47.83   16.58</time>
   <energy>
    <i name="alphaZ">     -6.10292531 </i>
    <i name="ewald">  -2233.44441945 </i>
    <i name="hartreedc">    -17.30303234 </i>
    <i name="XCdc">   -811.45466776 </i>
    <i name="pawpsdc">   1107.93957868 </i>
    <i name="pawaedc">   -117.79137095 </i>
    <i name="eentropy">     -0.07524855 </i>
    <i name="bandstr">    304.54987439 </i>
    <i name="atom">   1659.66634407 </i>
    <i name="e_fr_energy">   -114.01586723 </i>
    <i name="e_wo_entrp">   -113.94061867 </i>
    <i name="e_0_energy">   -113.99078438 </i>
   </energy>
  </scstep>
  <structure>
   <crystal>
    <varray name="basis" >
     <v>       8.08705400       0.00000000       0.00000000 </v>
     <v>       0.00000000       8.08705400       0.00000000 </v>
     <v>       0.00000000       0.00000000       8.08705400 </v>
    </varray>
    <i name="volume">    528.89690930 </i>
    <varray name="rec_basis" >
     <v>       0.12365442       0.00000000       0.00000000 </v>
     <v>       0.00000000       0.12365442       0.00000000 </v>
     <v>       0.00000000       0.00000000       0.12365442 </v>
    </varray>
   </crystal>
   <varray name="positions" >
    <v>       0.37500000       0.50000000       0.37500000 </v>
    <v>       0.99970200       0.00000000       0.99970200 </v>
    <v>       0.24846500       0.00000000       0.24846500 </v>
    <v>       0.24812200       0.25335500       0.00238100 </v>
    <v>       0.00238100       0.25335500       0.24812200 </v>
    <v>       0.50052700       0.00000000       0.99307700 </v>
    <v>       0.75692300       0.00000000       0.24947300 </v>
    <v>       0.75133900       0.25081000       0.99866100 </v>
    <v>       0.50655600       0.23697100       0.24344400 </v>
    <v>       0.00091800       0.50000000       0.00091800 </v>
    <v>       0.24812200       0.74664500       0.00238100 </v>
    <v>       0.00238100       0.74664500       0.24812200 </v>
    <v>       0.49482700       0.50000000       0.00541200 </v>
    <v>       0.74460000       0.50000000       0.25516700 </v>
    <v>       0.75133900       0.74919000       0.99866100 </v>
    <v>       0.50655600       0.76302900       0.24344400 </v>
    <v>       0.99307700       0.00000000       0.50052700 </v>
    <v>       0.24947300       0.00000000       0.75692300 </v>
    <v>       0.24344400       0.23697100       0.50655600 </v>
    <v>       0.99866100       0.25081000       0.75133900 </v>
    <v>       0.50153400       0.00000000       0.50153400 </v>
    <v>       0.75030200       0.00000000       0.75030200 </v>
    <v>       0.74762400       0.25335400       0.50187700 </v>
    <v>       0.50187700       0.25335400       0.74762400 </v>
    <v>       0.00541200       0.50000000       0.49482700 </v>
    <v>       0.25516700       0.50000000       0.74460000 </v>
    <v>       0.24344400       0.76302900       0.50655600 </v>
    <v>       0.99866100       0.74919000       0.75133900 </v>
    <v>       0.74908800       0.50000000       0.74908800 </v>
    <v>       0.74762400       0.74664600       0.50187700 </v>
    <v>       0.50187700       0.74664600       0.74762400 </v>
   </varray>
  </structure>
  <varray name="forces" >
   <v>      -0.00001323       0.00000000      -0.00001323 </v>
   <v>       0.00572988       0.00000000       0.00572988 </v>
   <v>      -0.00913821       0.00000000      -0.00913821 </v>
   <v>      -0.00290825       0.05055512       0.03920363 </v>
   <v>       0.03920363       0.05055512      -0.00290825 </v>
   <v>       0.02771553       0.00000000      -0.03940321 </v>
   <v>       0.03940704       0.00000000      -0.02769814 </v>
   <v>      -0.02051099       0.03905291       0.02050983 </v>
   <v>       0.02051055      -0.05484981      -0.02040411 </v>
   <v>      -0.00192007       0.00000000      -0.00192007 </v>
   <v>      -0.00290825      -0.05055512       0.03920363 </v>
   <v>       0.03920363      -0.05055512      -0.00290825 </v>
   <v>       0.00371730       0.00000000       0.02219415 </v>
   <v>      -0.02229845       0.00000000      -0.00357543 </v>
   <v>      -0.02051099      -0.03905291       0.02050983 </v>
   <v>       0.02051055       0.05484981      -0.02040411 </v>
   <v>      -0.03940321       0.00000000       0.02771553 </v>
   <v>      -0.02769814       0.00000000       0.03940704 </v>
   <v>      -0.02040411      -0.05484981       0.02051055 </v>
   <v>       0.02050983       0.03905291      -0.02051099 </v>
   <v>       0.00918803       0.00000000       0.00918803 </v>
   <v>      -0.00587934       0.00000000      -0.00587934 </v>
   <v>      -0.03929010       0.05060902       0.00297428 </v>
   <v>       0.00297428       0.05060902      -0.03929010 </v>
   <v>       0.02219415       0.00000000       0.00371730 </v>
   <v>      -0.00357543       0.00000000      -0.02229845 </v>
   <v>      -0.02040411       0.05484981       0.02051055 </v>
   <v>       0.02050983      -0.03905291      -0.02051099 </v>
   <v>       0.00180446       0.00000000       0.00180446 </v>
   <v>      -0.03929010      -0.05060902       0.00297428 </v>
   <v>       0.00297428      -0.05060902      -0.03929010 </v>
  </varray>
  <varray name="stress" >
   <v>      -4.51333233       0.00000000      -3.75555127 </v>
   <v>       0.00000000       5.37870589       0.00000000 </v>
   <v>      -3.75555127       0.00000000      -4.51333233 </v>
  </varray>
  <energy>
   <i name="e_fr_energy">   -114.01586723 </i>
   <i name="e_wo_entrp">   -113.99078438 </i>
   <i name="e_0_energy">     -0.07524855 </i>
  </energy>
  <time name="totalsc">  742.50  267.08</time>
  <eigenvalues>
   <array>
    <dimension dim="1">band</dimension>
    <dimension dim="2">kpoint</dimension>
    <dimension dim="3">spin</dimension>
    <field>eigene</field>
    <field>occ</field>
    <set>
     <set comment="spin 1">
      <set comment="kpoint 1">
       <r>   -2.9371    1.0000 </r>
       <r>   -1.9055    1.0000 </r>
       <r>   -1.8209    1.0000 </r>
       <r>   -1.6630    1.0000 </r>
       <r>   -0.7747    1.0000 </r>
       <r>   -0.7149    1.0000 </r>
       <r>   -0.4689    1.0000 </r>
       <r>    0.3148    1.0000 </r>
       <r>    0.3663    1.0000 </r>
       <r>    0.4168    1.0000 </r>
       <r>    0.6282    1.0000 </r>
       <r>    1.4059    1.0000 </r>
       <r>    1.4277    1.0000 </r>
       <r>    1.4636    1.0000 </r>
       <r>    1.5265    1.0000 </r>
       <r>    1.7318    1.0000 </r>
       <r>    1.8550    1.0000 </r>
       <r>    2.5883    1.0000 </r>
       <r>    2.6580    1.0000 </r>
       <r>    2.7455    1.0000 </r>
       <r>    3.5471    1.0000 </r>
       <r>    3.5959    1.0000 </r>
       <r>    3.6475    1.0000 </r>
       <r>    3.6952    1.0000 </r>
       <r>    3.7309    1.0000 </r>
       <r>    4.0725    1.0000 </r>
       <r>    4.5939    1.0000 </r>
       <r>    4.6141    1.0000 </r>
       <r>    4.6637    1.0000 </r>
       <r>    4.7449    1.0000 </r>
       <r>    4.7508    1.0000 </r>
       <r>    4.7741    1.0000 </r>
       <r>    4.9041    1.0000 </r>
       <r>    5.0715    1.0000 </r>
       <r>    5.0971    1.0000 </r>
       <r>    5.7546    1.0000 </r>
       <r>    5.8453    1.0000 </r>
       <r>    6.1625    1.0000 </r>
       <r>    6.7552    1.0000 </r>
       <r>    6.8232    1.0000 </r>
       <r>    6.8394    1.0000 </r>
       <r>    6.9131    1.0000 </r>
       <r>    6.9783    1.0000 </r>
       <r>    7.0003    1.0000 </r>
       <r>    7.1393    1.0000 </r>
       <r>    7.7916    0.8187 </r>
       <r>    7.9143    0.3339 </r>
       <r>    7.9179    0.3198 </r>
       <r>    7.9489    0.2071 </r>
       <r>    8.0270    0.0197 </r>
       <r>    8.1196   -0.0355 </r>
       <r>    8.2086   -0.0198 </r>
       <r>    8.2456   -0.0123 </r>
       <r>    8.4313   -0.0003 </r>
       <r>    9.0965    0.0000 </r>
       <r>    9.1921    0.0000 </r>
       <r>    9.2399    0.0000 </r>
       <r>    9.3405    0.0000 </r>
       <r>    9.3478    0.0000 </r>
       <r>    9.4594    0.0000 </r>
       <r>   10.0055    0.0000 </r>
       <r>   10.9677    0.0000 </r>
      </set>
      <set comment="kpoint 2">
       <r>   -2.9374    1.0000 </r>
       <r>   -1.9150    1.0000 </r>
       <r>   -1.7411    1.0000 </r>
       <r>   -1.7398    1.0000 </r>
       <r>   -0.7920    1.0000 </r>
       <r>   -0.6279    1.0000 </r>
       <r>   -0.5535    1.0000 </r>
       <r>    0.3054    1.0000 </r>
       <r>    0.4271    1.0000 </r>
       <r>    0.4768    1.0000 </r>
       <r>    0.5638    1.0000 </r>
       <r>    1.4131    1.0000 </r>
       <r>    1.4527    1.0000 </r>
       <r>    1.4560    1.0000 </r>
       <r>    1.5504    1.0000 </r>
       <r>    1.5629    1.0000 </r>
       <r>    1.8988    1.0000 </r>
       <r>    2.5439    1.0000 </r>
       <r>    2.6988    1.0000 </r>
       <r>    2.8387    1.0000 </r>
       <r>    3.5698    1.0000 </r>
       <r>    3.6032    1.0000 </r>
       <r>    3.6888    1.0000 </r>
       <r>    3.6953    1.0000 </r>
       <r>    3.7761    1.0000 </r>
       <r>    3.8734    1.0000 </r>
       <r>    4.5666    1.0000 </r>
       <r>    4.6497    1.0000 </r>
       <r>    4.6596    1.0000 </r>
       <r>    4.7078    1.0000 </r>
       <r>    4.7710    1.0000 </r>
       <r>    4.7886    1.0000 </r>
       <r>    4.9681    1.0000 </r>
       <r>    5.0111    1.0000 </r>
       <r>    5.1443    1.0000 </r>
       <r>    5.7222    1.0000 </r>
       <r>    5.9071    1.0000 </r>
       <r>    6.1527    1.0000 </r>
       <r>    6.7324    1.0000 </r>
       <r>    6.8040    1.0000 </r>
       <r>    6.8368    1.0000 </r>
       <r>    6.9097    1.0000 </r>
       <r>    6.9746    1.0000 </r>
       <r>    6.9963    1.0000 </r>
       <r>    7.0848    1.0000 </r>
       <r>    7.8110    0.7530 </r>
       <r>    7.8662    0.5336 </r>
       <r>    7.9636    0.1603 </r>
       <r>    8.0237    0.0246 </r>
       <r>    8.1240   -0.0354 </r>
       <r>    8.1526   -0.0321 </r>
       <r>    8.2278   -0.0157 </r>
       <r>    8.2333   -0.0146 </r>
       <r>    8.3023   -0.0049 </r>
       <r>    9.1312    0.0000 </r>
       <r>    9.1760    0.0000 </r>
       <r>    9.1871    0.0000 </r>
       <r>    9.3235    0.0000 </r>
       <r>    9.3566    0.0000 </r>
       <r>    9.5396    0.0000 </r>
       <r>    9.9495    0.0000 </r>
       <r>   10.0363    0.0000 </r>
      </set>
     </set>
    </set>
   </array>
  </eigenvalues>
  <separator name="orbital magnetization" >
   <v name="MAGDIPOLOUT">      0.00000000      0.00000000      0.00000000</v>
  </separator>
  <dos>
   <i name="efermi">      7.87417738 </i>
   <total>
    <array>
     <dimension dim="1">gridpoints</dimension>
     <dimension dim="2">spin</dimension>
     <field>energy</field>
     <field>total</field>
     <field>integrated</field>
     <set>
      <set comment="spin 1">
       <r>  -4.9374   0.0000   0.0000 </r>
       <r>  -4.8777   0.0000   0.0000 </r>
       <r>  -4.8181   0.0000   0.0000 </r>
       <r>  -4.7584   0.0000   0.0000 </r>
       <r>  -4.6987   0.0000   0.0000 </r>
       <r>  -4.6390   0.0000   0.0000 </r>
       <r>  -4.5793   0.0000   0.0000 </r>
       <r>  -4.5196   0.0000   0.0000 </r>
       <r>  -4.4600   0.0000   0.0000 </r>
       <r>  -4.4003   0.0000   0.0000 </r>
       <r>  -4.3406   0.0000   0.0000 </r>
       <r>  -4.2809   0.0000   0.0000 </r>
       <r>  -4.2212   0.0000   0.0000 </r>
       <r>  -4.1615   0.0000   0.0000 </r>
       <r>  -4.1018   0.0000   0.0000 </r>
       <r>  -4.0422   0.0000   0.0000 </r>
       <r>  -3.9825   0.0000   0.0000 </r>
       <r>  -3.9228   0.0000   0.0000 </r>
       <r>  -3.8631   0.0000   0.0000 </r>
       <r>  -3.8034   0.0000   0.0000 </r>
       <r>  -3.7437   0.0000   0.0000 </r>
       <r>  -3.6841   0.0000   0.0000 </r>
       <r>  -3.6244  -0.0002   0.0000 </r>
       <r>  -3.5647  -0.0012  -0.0001 </r>
       <r>  -3.5050  -0.0061  -0.0004 </r>
       <r>  -3.4453  -0.0248  -0.0019 </r>
       <r>  -3.3856  -0.0812  -0.0068 </r>
       <r>  -3.3260  -0.2065  -0.0191 </r>
       <r>  -3.2663  -0.3834  -0.0420 </r>
       <r>  -3.2066  -0.4200  -0.0671 </r>
       <r>  -3.1469   0.1369  -0.0589 </r>
       <r>  -3.0872   1.7877   0.0478 </r>
       <r>  -3.0275   4.4837   0.3154 </r>
       <r>  -2.9679   7.1857   0.7443 </r>
       <r>  -2.9082   8.3589   1.2432 </r>
       <r>  -2.8485   7.2411   1.6754 </r>
       <r>  -2.7888   4.5597   1.9475 </r>
       <r>  -2.7291   1.8463   2.0577 </r>
       <r>  -2.6694   0.1641   2.0675 </r>
       <r>  -2.6098  -0.4156   2.0427 </r>
       <r>  -2.5501  -0.3883   2.0195 </r>
       <r>  -2.4904  -0.2154   2.0066 </r>
       <r>  -2.4307  -0.1036   2.0005 </r>
       <r>  -2.3710  -0.0965   1.9947 </r>
       <r>  -2.3113  -0.2047   1.9825 </r>
       <r>  -2.2516  -0.4291   1.9569 </r>
       <r>  -2.1920  -0.6547   1.9178 </r>
       <r>  -2.1323  -0.4901   1.8885 </r>
       <r>  -2.0726   0.7244   1.9318 </r>
       <r>  -2.0129   3.5356   2.1428 </r>
       <r>  -1.9532   7.8110   2.6090 </r>
       <r>  -1.8935  12.5590   3.3586 </r>
       <r>  -1.8339  16.3808   4.3362 </r>
       <r>  -1.7742  18.1032   5.4167 </r>
       <r>  -1.7145  17.1441   6.4399 </r>
       <r>  -1.6548  13.7134   7.2584 </r>
       <r>  -1.5951   8.9005   7.7896 </r>
       <r>  -1.5354   4.2895   8.0456 </r>
       <r>  -1.4758   1.1081   8.1118 </r>
       <r>  -1.4161  -0.3725   8.0895 </r>
       <r>  -1.3564  -0.6731   8.0493 </r>
       <r>  -1.2967  -0.4993   8.0195 </r>
       <r>  -1.2370  -0.3195   8.0005 </r>
       <r>  -1.1773  -0.3194   7.9814 </r>
       <r>  -1.1177  -0.5021   7.9514 </r>
       <r>  -1.0580  -0.6759   7.9111 </r>
       <r>  -0.9983  -0.3428   7.8906 </r>
       <r>  -0.9386   1.2187   7.9634 </r>
       <r>  -0.8789   4.4296   8.2277 </r>
       <r>  -0.8192   8.7628   8.7507 </r>
       <r>  -0.7596  12.7828   9.5137 </r>
       <r>  -0.6999  15.1184  10.4160 </r>
       <r>  -0.6402  15.4094  11.3357 </r>
       <r>  -0.5805  14.1955  12.1829 </r>
       <r>  -0.5208  12.0787  12.9038 </r>
       <r>  -0.4611   9.3161  13.4599 </r>
       <r>  -0.4015   6.1560  13.8273 </r>
       <r>  -0.3418   3.1619  14.0160 </r>
       <r>  -0.2821   0.9712  14.0739 </r>
       <r>  -0.2224  -0.1682  14.0639 </r>
       <r>  -0.1627  -0.5131  14.0333 </r>
       <r>  -0.1030  -0.5458  14.0007 </r>
       <r>  -0.0433  -0.6440  13.9623 </r>
       <r>   0.0163  -0.8813  13.9097 </r>
       <r>   0.0760  -0.8886  13.8566 </r>
       <r>   0.1357   0.1857  13.8677 </r>
       <r>   0.1954   3.3149  14.0656 </r>
       <r>   0.2551   8.7419  14.5873 </r>
       <r>   0.3148  15.2676  15.4985 </r>
       <r>   0.3744  20.6095  16.7286 </r>
       <r>   0.4341  22.8240  18.0908 </r>
       <r>   0.4938  21.5315  19.3759 </r>
       <r>   0.5535  17.8090  20.4388 </r>
       <r>   0.6132  13.1058  21.2210 </r>
       <r>   0.6729   8.4511  21.7254 </r>
       <r>   0.7325   4.4671  21.9920 </r>
       <r>   0.7922   1.5910  22.0870 </r>
       <r>   0.8519  -0.0096  22.0864 </r>
       <r>   0.9116  -0.5871  22.0514 </r>
       <r>   0.9713  -0.6824  22.0106 </r>
       <r>   1.0310  -0.8173  21.9619 </r>
       <r>   1.0906  -1.2247  21.8888 </r>
       <r>   1.1503  -1.5725  21.7949 </r>
       <r>   1.2100  -0.6917  21.7536 </r>
       <r>   1.2697   3.1764  21.9432 </r>
       <r>   1.3294  11.0436  22.6023 </r>
       <r>   1.3891  21.4107  23.8802 </r>
       <r>   1.4487  30.1126  25.6774 </r>
       <r>   1.5084  32.8839  27.6401 </r>
       <r>   1.5681  28.6980  29.3529 </r>
       <r>   1.6278  20.5878  30.5816 </r>
       <r>   1.6875  13.1497  31.3665 </r>
       <r>   1.7472   9.2286  31.9173 </r>
       <r>   1.8069   8.5750  32.4290 </r>
       <r>   1.8665   8.9658  32.9642 </r>
       <r>   1.9262   8.3212  33.4608 </r>
       <r>   1.9859   6.1057  33.8252 </r>
       <r>   2.0456   3.2246  34.0177 </r>
       <r>   2.1053   0.8812  34.0703 </r>
       <r>   2.1650  -0.4134  34.0456 </r>
       <r>   2.2246  -0.9059  33.9915 </r>
       <r>   2.2843  -0.9875  33.9326 </r>
       <r>   2.3440  -0.6199  33.8956 </r>
       <r>   2.4037   0.7355  33.9395 </r>
       <r>   2.4634   3.6448  34.1570 </r>
       <r>   2.5231   8.0255  34.6360 </r>
       <r>   2.5827  12.8459  35.4027 </r>
       <r>   2.6424  16.5436  36.3901 </r>
       <r>   2.7021  17.8621  37.4562 </r>
       <r>   2.7618  16.4605  38.4386 </r>
       <r>   2.8215  12.9598  39.2121 </r>
       <r>   2.8812   8.5523  39.7225 </r>
       <r>   2.9408   4.4714  39.9894 </r>
       <r>   3.0005   1.5409  40.0813 </r>
       <r>   3.0602  -0.0488  40.0784 </r>
       <r>   3.1199  -0.6591  40.0391 </r>
       <r>   3.1796  -0.8848  39.9863 </r>
       <r>   3.2393  -1.1689  39.9165 </r>
       <r>   3.2989  -1.4558  39.8296 </r>
       <r>   3.3586  -0.9359  39.7738 </r>
       <r>   3.4183   1.8373  39.8834 </r>
       <r>   3.4780   8.0816  40.3658 </r>
       <r>   3.5377  17.4222  41.4056 </r>
       <r>   3.5974  27.2211  43.0303 </r>
       <r>   3.6570  33.6558  45.0390 </r>
       <r>   3.7167  34.0509  47.0712 </r>
       <r>   3.7764  28.6148  48.7791 </r>
       <r>   3.8361  20.1656  49.9826 </r>
       <r>   3.8958  12.2015  50.7109 </r>
       <r>   3.9555   6.9324  51.1246 </r>
       <r>   4.0152   4.5409  51.3956 </r>
       <r>   4.0748   3.7729  51.6208 </r>
       <r>   4.1345   3.1499  51.8088 </r>
       <r>   4.1942   1.9256  51.9238 </r>
       <r>   4.2539   0.2529  51.9388 </r>
       <r>   4.3136  -1.1970  51.8674 </r>
       <r>   4.3733  -1.4613  51.7802 </r>
       <r>   4.4329   0.7613  51.8256 </r>
       <r>   4.4926   6.7328  52.2275 </r>
       <r>   4.5523  16.5149  53.2131 </r>
       <r>   4.6120  27.9445  54.8810 </r>
       <r>   4.6717  37.1038  57.0955 </r>
       <r>   4.7314  40.4573  59.5101 </r>
       <r>   4.7910  37.2164  61.7313 </r>
       <r>   4.8507  30.0182  63.5229 </r>
       <r>   4.9104  23.1147  64.9025 </r>
       <r>   4.9701  19.3353  66.0565 </r>
       <r>   5.0298  18.3509  67.1518 </r>
       <r>   5.0895  17.6422  68.2047 </r>
       <r>   5.1491  15.0260  69.1015 </r>
       <r>   5.2088  10.3686  69.7204 </r>
       <r>   5.2685   5.2489  70.0336 </r>
       <r>   5.3282   1.3529  70.1144 </r>
       <r>   5.3879  -0.7180  70.0715 </r>
       <r>   5.4476  -1.3408  69.9915 </r>
       <r>   5.5072  -0.9798  69.9330 </r>
       <r>   5.5669   0.4065  69.9573 </r>
       <r>   5.6266   3.1057  70.1427 </r>
       <r>   5.6863   6.8961  70.5542 </r>
       <r>   5.7460  10.6602  71.1905 </r>
       <r>   5.8057  12.8845  71.9595 </r>
       <r>   5.8653  12.6847  72.7165 </r>
       <r>   5.9250  10.5183  73.3443 </r>
       <r>   5.9847   7.9942  73.8214 </r>
       <r>   6.0444   6.7545  74.2246 </r>
       <r>   6.1041   7.1384  74.6506 </r>
       <r>   6.1638   7.8839  75.1212 </r>
       <r>   6.2235   7.3793  75.5616 </r>
       <r>   6.2831   5.2153  75.8729 </r>
       <r>   6.3428   2.3510  76.0132 </r>
       <r>   6.4025  -0.0351  76.0111 </r>
       <r>   6.4622  -1.4249  75.9260 </r>
       <r>   6.5219  -1.6598  75.8270 </r>
       <r>   6.5816  -0.1713  75.8168 </r>
       <r>   6.6412   4.0440  76.0581 </r>
       <r>   6.7009  11.4324  76.7405 </r>
       <r>   6.7606  20.8666  77.9858 </r>
       <r>   6.8203  29.8250  79.7659 </r>
       <r>   6.8800  35.7412  81.8991 </r>
       <r>   6.9397  37.2269  84.1209 </r>
       <r>   6.9993  34.2901  86.1675 </r>
       <r>   7.0590  27.9494  87.8356 </r>
       <r>   7.1187  19.8559  89.0207 </r>
       <r>   7.1784  11.8775  89.7296 </r>
       <r>   7.2381   5.5201  90.0591 </r>
       <r>   7.2978   1.4625  90.1463 </r>
       <r>   7.3574  -0.5058  90.1162 </r>
       <r>   7.4171  -1.1578  90.0471 </r>
       <r>   7.4768  -1.3133  89.9687 </r>
       <r>   7.5365  -1.3565  89.8877 </r>
       <r>   7.5962  -0.9612  89.8303 </r>
       <r>   7.6559   0.8148  89.8790 </r>
       <r>   7.7155   4.9420  90.1739 </r>
       <r>   7.7752  11.5306  90.8621 </r>
       <r>   7.8349  19.2968  92.0138 </r>
       <r>   7.8946  26.0442  93.5682 </r>
       <r>   7.9543  30.0639  95.3626 </r>
       <r>   8.0140  31.3698  97.2348 </r>
       <r>   8.0737  31.4783  99.1136 </r>
       <r>   8.1333  31.6686 101.0037 </r>
       <r>   8.1930  31.4613 102.8814 </r>
       <r>   8.2527  29.1493 104.6212 </r>
       <r>   8.3124  23.8731 106.0460 </r>
       <r>   8.3721  16.7816 107.0476 </r>
       <r>   8.4318  10.0266 107.6460 </r>
       <r>   8.4914   5.0369 107.9466 </r>
       <r>   8.5511   1.9666 108.0640 </r>
       <r>   8.6108   0.3132 108.0827 </r>
       <r>   8.6705  -0.4638 108.0550 </r>
       <r>   8.7302  -0.8124 108.0065 </r>
       <r>   8.7899  -1.0755 107.9423 </r>
       <r>   8.8495  -1.2799 107.8660 </r>
       <r>   8.9092  -0.8546 107.8149 </r>
       <r>   8.9689   1.3216 107.8938 </r>
       <r>   9.0286   6.2106 108.2645 </r>
       <r>   9.0883  13.5487 109.0731 </r>
       <r>   9.1480  21.4785 110.3551 </r>
       <r>   9.2076  27.5455 111.9991 </r>
       <r>   9.2673  30.1873 113.8008 </r>
       <r>   9.3270  29.2751 115.5480 </r>
       <r>   9.3867  25.5933 117.0755 </r>
       <r>   9.4464  20.2430 118.2837 </r>
       <r>   9.5061  14.3626 119.1409 </r>
       <r>   9.5657   8.8892 119.6715 </r>
       <r>   9.6254   4.4003 119.9341 </r>
       <r>   9.6851   1.2565 120.0091 </r>
       <r>   9.7448  -0.1544 119.9999 </r>
       <r>   9.8045   0.5687 120.0338 </r>
       <r>   9.8642   3.4367 120.2389 </r>
       <r>   9.9238   7.5190 120.6877 </r>
       <r>   9.9835  10.9101 121.3388 </r>
       <r>  10.0432  11.7348 122.0392 </r>
       <r>  10.1029   9.5541 122.6094 </r>
       <r>  10.1626   5.7147 122.9505 </r>
       <r>  10.2223   2.1867 123.0810 </r>
       <r>  10.2820   0.1181 123.0881 </r>
       <r>  10.3416  -0.5565 123.0549 </r>
       <r>  10.4013  -0.5008 123.0250 </r>
       <r>  10.4610  -0.2827 123.0081 </r>
       <r>  10.5207  -0.1497 122.9992 </r>
       <r>  10.5804  -0.1390 122.9909 </r>
       <r>  10.6401  -0.2020 122.9788 </r>
       <r>  10.6997  -0.2098 122.9663 </r>
       <r>  10.7594   0.0802 122.9711 </r>
       <r>  10.8191   0.9197 123.0260 </r>
       <r>  10.8788   2.2755 123.1618 </r>
       <r>  10.9385   3.6174 123.3777 </r>
       <r>  10.9982   4.1795 123.6271 </r>
       <r>  11.0578   3.5961 123.8418 </r>
       <r>  11.1175   2.2462 123.9758 </r>
       <r>  11.1772   0.8972 124.0294 </r>
       <r>  11.2369   0.0700 124.0336 </r>
       <r>  11.2966  -0.2097 124.0210 </r>
       <r>  11.3563  -0.1919 124.0096 </r>
       <r>  11.4159  -0.1035 124.0034 </r>
       <r>  11.4756  -0.0408 124.0010 </r>
       <r>  11.5353  -0.0125 124.0002 </r>
       <r>  11.5950  -0.0030 124.0000 </r>
       <r>  11.6547  -0.0006 124.0000 </r>
       <r>  11.7144  -0.0001 124.0000 </r>
       <r>  11.7740   0.0000 124.0000 </r>
       <r>  11.8337   0.0000 124.0000 </r>
       <r>  11.8934   0.0000 124.0000 </r>
       <r>  11.9531   0.0000 124.0000 </r>
       <r>  12.0128   0.0000 124.0000 </r>
       <r>  12.0725   0.0000 124.0000 </r>
       <r>  12.1322   0.0000 124.0000 </r>
       <r>  12.1918   0.0000 124.0000 </r>
       <r>  12.2515   0.0000 124.0000 </r>
       <r>  12.3112   0.0000 124.0000 </r>
       <r>  12.3709   0.0000 124.0000 </r>
       <r>  12.4306   0.0000 124.0000 </r>
       <r>  12.4903   0.0000 124.0000 </r>
       <r>  12.5499   0.0000 124.0000 </r>
       <r>  12.6096   0.0000 124.0000 </r>
       <r>  12.6693   0.0000 124.0000 </r>
       <r>  12.7290   0.0000 124.0000 </r>
       <r>  12.7887   0.0000 124.0000 </r>
       <r>  12.8484   0.0000 124.0000 </r>
       <r>  12.9080   0.0000 124.0000 </r>
       <r>  12.9677   0.0000 124.0000 </r>
      </set>
     </set>
    </array>
   </total>
  </dos>
 </calculation>
 <structure name="finalpos" >
  <crystal>
   <varray name="basis" >
    <v>       8.08705400       0.00000000       0.00000000 </v>
    <v>       0.00000000       8.08705400       0.00000000 </v>
    <v>       0.00000000       0.00000000       8.08705400 </v>
   </varray>
   <i name="volume">    528.89690930 </i>
   <varray name="rec_basis" >
    <v>       0.12365442       0.00000000       0.00000000 </v>
    <v>       0.00000000       0.12365442       0.00000000 </v>
    <v>       0.00000000       0.00000000       0.12365442 </v>
   </varray>
  </crystal>
  <varray name="positions" >
   <v>       0.37500000       0.50000000       0.37500000 </v>
   <v>       0.99970200       0.00000000       0.99970200 </v>
   <v>       0.24846500       0.00000000       0.24846500 </v>
   <v>       0.24812200       0.25335500       0.00238100 </v>
   <v>       0.00238100       0.25335500       0.24812200 </v>
   <v>       0.50052700       0.00000000       0.99307700 </v>
   <v>       0.75692300       0.00000000       0.24947300 </v>
   <v>       0.75133900       0.25081000       0.99866100 </v>
   <v>       0.50655600       0.23697100       0.24344400 </v>
   <v>       0.00091800       0.50000000       0.00091800 </v>
   <v>       0.24812200       0.74664500       0.00238100 </v>
   <v>       0.00238100       0.74664500       0.24812200 </v>
   <v>       0.49482700       0.50000000       0.00541200 </v>
   <v>       0.74460000       0.50000000       0.25516700 </v>
   <v>       0.75133900       0.74919000       0.99866100 </v>
   <v>       0.50655600       0.76302900       0.24344400 </v>
   <v>       0.99307700       0.00000000       0.50052700 </v>
   <v>       0.24947300       0.00000000       0.75692300 </v>
   <v>       0.24344400       0.23697100       0.50655600 </v>
   <v>       0.99866100       0.25081000       0.75133900 </v>
   <v>       0.50153400       0.00000000       0.50153400 </v>
   <v>       0.75030200       0.00000000       0.75030200 </v>
   <v>       0.74762400       0.25335400       0.50187700 </v>
   <v>       0.50187700       0.25335400       0.74762400 </v>
   <v>       0.00541200       0.50000000       0.49482700 </v>
   <v>       0.25516700       0.50000000       0.74460000 </v>
   <v>       0.24344400       0.76302900       0.50655600 </v>
   <v>       0.99866100       0.74919000       0.75133900 </v>
   <v>       0.74908800       0.50000000       0.74908800 </v>
   <v>       0.74762400       0.74664600       0.50187700 </v>
   <v>       0.50187700       0.74664600       0.74762400 </v>
  </varray>
 </structure>
</modeling>
