  31  31   0   0
  0.1706119E+02  0.8087054E-09  0.8087054E-09  0.8087054E-09  0.5000000E-15
  1.000000000000000E-004
  CAR 
 unknown system                          
     11.23855571     -5.45533103  301      7.71832893      1.00000000
     -5.455  0.0000E+00  0.0000E+00
     -5.400  0.0000E+00  0.0000E+00
     -5.344  0.0000E+00  0.0000E+00
     -5.288  0.0000E+00  0.0000E+00
     -5.233  0.0000E+00  0.0000E+00
     -5.177  0.0000E+00  0.0000E+00
     -5.121  0.0000E+00  0.0000E+00
     -5.066 -0.2957E-28 -0.1646E-29
     -5.010 -0.2304E-26 -0.1298E-27
     -4.955 -0.1552E-24 -0.8765E-26
     -4.899 -0.8937E-23 -0.5061E-24
     -4.843 -0.4400E-21 -0.2499E-22
     -4.788 -0.1852E-19 -0.1056E-20
     -4.732 -0.6661E-18 -0.3812E-19
     -4.676 -0.2046E-16 -0.1177E-17
     -4.621 -0.5161E-15 -0.2990E-16
     -4.565 -0.1164E-13 -0.6778E-15
     -4.509 -0.2218E-12 -0.1302E-13
     -4.454 -0.3602E-11 -0.2134E-12
     -4.398 -0.4981E-10 -0.2985E-11
     -4.342 -0.5863E-09 -0.3561E-10
     -4.287 -0.5864E-08 -0.3619E-09
     -4.231 -0.4978E-07 -0.3132E-08
     -4.175 -0.3579E-06 -0.2305E-07
     -4.120 -0.2173E-05 -0.1440E-06
     -4.064 -0.1111E-04 -0.7621E-06
     -4.009 -0.4753E-04 -0.3407E-05
     -3.953 -0.1689E-03 -0.1280E-04
     -3.897 -0.4917E-03 -0.4017E-04
     -3.842 -0.1145E-02 -0.1039E-03
     -3.786 -0.2017E-02 -0.2161E-03
     -3.730 -0.2261E-02 -0.3419E-03
     -3.675  0.3511E-04 -0.3400E-03
     -3.619  0.7126E-02  0.5657E-04
     -3.563  0.1943E-01  0.1138E-02
     -3.508  0.3348E-01  0.3001E-02
     -3.452  0.4276E-01  0.5380E-02
     -3.396  0.4213E-01  0.7725E-02
     -3.341  0.3194E-01  0.9502E-02
     -3.285  0.1779E-01  0.1049E-01
     -3.229  0.6001E-02  0.1083E-01
     -3.174 -0.4457E-03  0.1080E-01
     -3.118 -0.2319E-02  0.1067E-01
     -3.063 -0.1921E-02  0.1057E-01
     -3.007 -0.1050E-02  0.1051E-01
     -2.951 -0.4385E-03  0.1048E-01
     -2.896 -0.1470E-03  0.1047E-01
     -2.840 -0.4045E-04  0.1047E-01
     -2.784 -0.9256E-05  0.1047E-01
     -2.729 -0.1774E-05  0.1047E-01
     -2.673 -0.2864E-06  0.1047E-01
     -2.617 -0.3906E-07  0.1047E-01
     -2.562 -0.4513E-08  0.1047E-01
     -2.506 -0.4426E-09  0.1047E-01
     -2.450 -0.3698E-10  0.1047E-01
     -2.395 -0.4047E-11  0.1047E-01
     -2.339 -0.2195E-10  0.1047E-01
     -2.283 -0.2832E-09  0.1047E-01
     -2.228 -0.3134E-08  0.1047E-01
     -2.172 -0.2949E-07  0.1047E-01
     -2.117 -0.2358E-06  0.1047E-01
     -2.061 -0.1599E-05  0.1047E-01
     -2.005 -0.9170E-05  0.1047E-01
     -1.950 -0.4436E-04  0.1047E-01
     -1.894 -0.1801E-03  0.1046E-01
     -1.838 -0.6093E-03  0.1042E-01
     -1.783 -0.1696E-02  0.1033E-01
     -1.727 -0.3797E-02  0.1012E-01
     -1.671 -0.6484E-02  0.9758E-02
     -1.616 -0.7137E-02  0.9361E-02
     -1.560 -0.7391E-04  0.9356E-02
     -1.504  0.2150E-01  0.1055E-01
     -1.449  0.5979E-01  0.1388E-01
     -1.393  0.1067E+00  0.1982E-01
     -1.338  0.1449E+00  0.2788E-01
     -1.282  0.1579E+00  0.3666E-01
     -1.226  0.1424E+00  0.4459E-01
     -1.171  0.1101E+00  0.5072E-01
     -1.115  0.7749E-01  0.5503E-01
     -1.059  0.5384E-01  0.5803E-01
     -1.004  0.3863E-01  0.6018E-01
     -0.948  0.2853E-01  0.6176E-01
     -0.892  0.2365E-01  0.6308E-01
     -0.837  0.2602E-01  0.6453E-01
     -0.781  0.3389E-01  0.6641E-01
     -0.725  0.4052E-01  0.6867E-01
     -0.670  0.3931E-01  0.7086E-01
     -0.614  0.2946E-01  0.7249E-01
     -0.558  0.1602E-01  0.7339E-01
     -0.503  0.5010E-02  0.7366E-01
     -0.447 -0.8208E-03  0.7362E-01
     -0.392 -0.2355E-02  0.7349E-01
     -0.336 -0.1848E-02  0.7339E-01
     -0.280 -0.9822E-03  0.7333E-01
     -0.225 -0.4017E-03  0.7331E-01
     -0.169 -0.1322E-03  0.7330E-01
     -0.113 -0.3579E-04  0.7330E-01
     -0.058 -0.8078E-05  0.7330E-01
     -0.002 -0.1677E-05  0.7330E-01
      0.054 -0.1295E-05  0.7330E-01
      0.109 -0.6071E-05  0.7330E-01
      0.165 -0.2937E-04  0.7330E-01
      0.221 -0.1208E-03  0.7329E-01
      0.276 -0.4184E-03  0.7327E-01
      0.332 -0.1210E-02  0.7320E-01
      0.388 -0.2882E-02  0.7304E-01
      0.443 -0.5478E-02  0.7273E-01
      0.499 -0.7668E-02  0.7231E-01
      0.554 -0.5535E-02  0.7200E-01
      0.610  0.7311E-02  0.7241E-01
      0.666  0.3669E-01  0.7445E-01
      0.721  0.8252E-01  0.7904E-01
      0.777  0.1357E+00  0.8659E-01
      0.833  0.1814E+00  0.9668E-01
      0.888  0.2084E+00  0.1083E+00
      0.944  0.2154E+00  0.1203E+00
      1.000  0.2083E+00  0.1319E+00
      1.055  0.1937E+00  0.1426E+00
      1.111  0.1748E+00  0.1524E+00
      1.167  0.1522E+00  0.1608E+00
      1.222  0.1257E+00  0.1678E+00
      1.278  0.9466E-01  0.1731E+00
      1.334  0.6083E-01  0.1765E+00
      1.389  0.2953E-01  0.1781E+00
      1.445  0.8030E-02  0.1786E+00
      1.500  0.1094E-02  0.1786E+00
      1.556  0.8093E-02  0.1791E+00
      1.612  0.2296E-01  0.1803E+00
      1.667  0.3655E-01  0.1824E+00
      1.723  0.4099E-01  0.1847E+00
      1.779  0.3437E-01  0.1866E+00
      1.834  0.2224E-01  0.1878E+00
      1.890  0.1379E-01  0.1886E+00
      1.946  0.1533E-01  0.1894E+00
      2.001  0.2580E-01  0.1909E+00
      2.057  0.3764E-01  0.1930E+00
      2.113  0.4233E-01  0.1953E+00
      2.168  0.3645E-01  0.1973E+00
      2.224  0.2353E-01  0.1987E+00
      2.280  0.1031E-01  0.1992E+00
      2.335  0.1580E-02  0.1993E+00
      2.391 -0.1951E-02  0.1992E+00
      2.446 -0.2236E-02  0.1991E+00
      2.502 -0.1451E-02  0.1990E+00
      2.558 -0.8180E-03  0.1990E+00
      2.613 -0.7366E-03  0.1989E+00
      2.669 -0.1284E-02  0.1988E+00
      2.725 -0.2358E-02  0.1987E+00
      2.780 -0.3346E-02  0.1985E+00
      2.836 -0.2733E-02  0.1984E+00
      2.892  0.1660E-02  0.1985E+00
      2.947  0.1164E-01  0.1991E+00
      3.003  0.2781E-01  0.2007E+00
      3.059  0.5020E-01  0.2035E+00
      3.114  0.7911E-01  0.2079E+00
      3.170  0.1136E+00  0.2142E+00
      3.225  0.1481E+00  0.2224E+00
      3.281  0.1718E+00  0.2320E+00
      3.337  0.1742E+00  0.2417E+00
      3.392  0.1522E+00  0.2501E+00
      3.448  0.1125E+00  0.2564E+00
      3.504  0.6788E-01  0.2602E+00
      3.559  0.3148E-01  0.2619E+00
      3.615  0.1179E-01  0.2626E+00
      3.671  0.1040E-01  0.2632E+00
      3.726  0.2161E-01  0.2644E+00
      3.782  0.3509E-01  0.2663E+00
      3.838  0.4113E-01  0.2686E+00
      3.893  0.3596E-01  0.2706E+00
      3.949  0.2300E-01  0.2719E+00
      4.005  0.9071E-02  0.2724E+00
      4.060 -0.5447E-03  0.2724E+00
      4.116 -0.3845E-02  0.2721E+00
      4.171 -0.5588E-03  0.2721E+00
      4.227  0.9078E-02  0.2726E+00
      4.283  0.2312E-01  0.2739E+00
      4.338  0.3638E-01  0.2759E+00
      4.394  0.4197E-01  0.2783E+00
      4.450  0.3612E-01  0.2803E+00
      4.505  0.2190E-01  0.2815E+00
      4.561  0.8492E-02  0.2820E+00
      4.617  0.6700E-02  0.2823E+00
      4.672  0.2350E-01  0.2836E+00
      4.728  0.5730E-01  0.2868E+00
      4.784  0.9599E-01  0.2922E+00
      4.839  0.1215E+00  0.2989E+00
      4.895  0.1203E+00  0.3056E+00
      4.951  0.9327E-01  0.3108E+00
      5.006  0.5457E-01  0.3139E+00
      5.062  0.2087E-01  0.3150E+00
      5.117  0.1062E-02  0.3151E+00
      5.173 -0.5821E-02  0.3148E+00
      5.229 -0.5562E-02  0.3144E+00
      5.284 -0.3302E-02  0.3143E+00
      5.340 -0.1480E-02  0.3142E+00
      5.396 -0.5359E-03  0.3141E+00
      5.451 -0.1817E-03  0.3141E+00
      5.507 -0.1372E-03  0.3141E+00
      5.563 -0.3244E-03  0.3141E+00
      5.618 -0.8238E-03  0.3141E+00
      5.674 -0.1682E-02  0.3140E+00
      5.730 -0.2499E-02  0.3138E+00
      5.785 -0.1953E-02  0.3137E+00
      5.841  0.2098E-02  0.3138E+00
      5.897  0.1125E-01  0.3145E+00
      5.952  0.2458E-01  0.3158E+00
      6.008  0.3834E-01  0.3180E+00
      6.063  0.4852E-01  0.3207E+00
      6.119  0.5409E-01  0.3237E+00
      6.175  0.5705E-01  0.3269E+00
      6.230  0.5927E-01  0.3302E+00
      6.286  0.6014E-01  0.3335E+00
      6.342  0.5799E-01  0.3367E+00
      6.397  0.5393E-01  0.3397E+00
      6.453  0.5404E-01  0.3427E+00
      6.509  0.6703E-01  0.3465E+00
      6.564  0.9782E-01  0.3519E+00
      6.620  0.1417E+00  0.3598E+00
      6.676  0.1848E+00  0.3701E+00
      6.731  0.2107E+00  0.3818E+00
      6.787  0.2109E+00  0.3935E+00
      6.842  0.1890E+00  0.4041E+00
      6.898  0.1575E+00  0.4128E+00
      6.954  0.1276E+00  0.4199E+00
      7.009  0.1040E+00  0.4257E+00
      7.065  0.8597E-01  0.4305E+00
      7.121  0.7437E-01  0.4346E+00
      7.176  0.7244E-01  0.4387E+00
      7.232  0.8182E-01  0.4432E+00
      7.288  0.9784E-01  0.4487E+00
      7.343  0.1108E+00  0.4548E+00
      7.399  0.1129E+00  0.4611E+00
      7.455  0.1029E+00  0.4668E+00
      7.510  0.8547E-01  0.4716E+00
      7.566  0.6585E-01  0.4753E+00
      7.622  0.4819E-01  0.4779E+00
      7.677  0.3786E-01  0.4800E+00
      7.733  0.4155E-01  0.4824E+00
      7.788  0.6196E-01  0.4858E+00
      7.844  0.9253E-01  0.4909E+00
      7.900  0.1200E+00  0.4976E+00
      7.955  0.1339E+00  0.5051E+00
      8.011  0.1330E+00  0.5125E+00
      8.067  0.1222E+00  0.5193E+00
      8.122  0.1050E+00  0.5251E+00
      8.178  0.8160E-01  0.5297E+00
      8.234  0.5311E-01  0.5326E+00
      8.289  0.2397E-01  0.5339E+00
      8.345  0.1602E-04  0.5339E+00
      8.401 -0.1414E-01  0.5332E+00
      8.456 -0.1366E-01  0.5324E+00
      8.512  0.8731E-02  0.5329E+00
      8.568  0.5924E-01  0.5362E+00
      8.623  0.1335E+00  0.5436E+00
      8.679  0.2109E+00  0.5553E+00
      8.734  0.2631E+00  0.5700E+00
      8.790  0.2706E+00  0.5850E+00
      8.846  0.2347E+00  0.5981E+00
      8.901  0.1744E+00  0.6078E+00
      8.957  0.1152E+00  0.6142E+00
      9.013  0.7804E-01  0.6186E+00
      9.068  0.7147E-01  0.6225E+00
      9.124  0.8803E-01  0.6274E+00
      9.180  0.1082E+00  0.6335E+00
      9.235  0.1124E+00  0.6397E+00
      9.291  0.9380E-01  0.6449E+00
      9.347  0.6054E-01  0.6483E+00
      9.402  0.2754E-01  0.6498E+00
      9.458  0.5390E-02  0.6501E+00
      9.514 -0.4218E-02  0.6499E+00
      9.569 -0.5583E-02  0.6496E+00
      9.625 -0.3801E-02  0.6494E+00
      9.680 -0.1889E-02  0.6493E+00
      9.736 -0.7428E-03  0.6492E+00
      9.792 -0.2389E-03  0.6492E+00
      9.847 -0.6383E-04  0.6492E+00
      9.903 -0.1430E-04  0.6492E+00
      9.959 -0.2701E-05  0.6492E+00
     10.014 -0.4319E-06  0.6492E+00
     10.070 -0.5858E-07  0.6492E+00
     10.126 -0.6755E-08  0.6492E+00
     10.181 -0.6630E-09  0.6492E+00
     10.237 -0.5545E-10  0.6492E+00
     10.293 -0.3955E-11  0.6492E+00
     10.348 -0.2408E-12  0.6492E+00
     10.404 -0.1245E-13  0.6492E+00
     10.460 -0.5432E-15  0.6492E+00
     10.515 -0.4178E-16  0.6492E+00
     10.571  0.0000E+00  0.6492E+00
     10.626  0.0000E+00  0.6492E+00
     10.682  0.0000E+00  0.6492E+00
     10.738  0.0000E+00  0.6492E+00
     10.793  0.0000E+00  0.6492E+00
     10.849  0.0000E+00  0.6492E+00
     10.905  0.0000E+00  0.6492E+00
     10.960  0.0000E+00  0.6492E+00
     11.016  0.0000E+00  0.6492E+00
     11.072  0.0000E+00  0.6492E+00
     11.127  0.0000E+00  0.6492E+00
     11.183  0.0000E+00  0.6492E+00
     11.239  0.0000E+00  0.6492E+00
