   31   31  191    1
  0.1706119E+02  0.8087054E-09  0.8087054E-09  0.8087054E-09  0.5000000E-15
  1.000000000000000E-004
  CAR 
 unknown system                          
   92    1   62
 
  0.0000000E+00  0.0000000E+00  0.0000000E+00  0.1000000E+01
   1       -3.455331
   2       -1.365461
   3       -1.361300
   4       -1.290920
   5       -1.250247
   6       -1.048712
   7       -0.733566
   8        0.744720
   9        0.817929
  10        0.850632
  11        0.860520
  12        0.929993
  13        1.039247
  14        1.042735
  15        1.063833
  16        1.213508
  17        1.242643
  18        1.687417
  19        2.077042
  20        3.057220
  21        3.206749
  22        3.269588
  23        3.271988
  24        3.354139
  25        3.427723
  26        3.803192
  27        4.373092
  28        4.786664
  29        4.850135
  30        4.868424
  31        6.029170
  32        6.227691
  33        6.384366
  34        6.605904
  35        6.612420
  36        6.701764
  37        6.759768
  38        6.764415
  39        6.779627
  40        6.932236
  41        6.973458
  42        7.114385
  43        7.304843
  44        7.317713
  45        7.435756
  46        7.580957
  47        7.852334
  48        7.884768
  49        7.952217
  50        8.080240
  51        8.145118
  52        8.666848
  53        8.687787
  54        8.703001
  55        8.719846
  56        8.732468
  57        8.811802
  58        8.850075
  59        8.907099
  60        9.129561
  61        9.191228
  62        9.238556
