       N       E                     dE             d eps       ncg     rms          rms(c)
RMM:   1     0.304880467460E+03    0.30488E+03   -0.16893E+04    62   0.644E+02
RMM:   2    -0.330056276238E+01   -0.30818E+03   -0.30328E+03    62   0.136E+02
RMM:   3    -0.673209008963E+02   -0.64020E+02   -0.67545E+02    62   0.451E+01
RMM:   4    -0.841197793466E+02   -0.16799E+02   -0.16029E+02    62   0.261E+01
RMM:   5    -0.912867697191E+02   -0.71670E+01   -0.58364E+01    62   0.145E+01
RMM:   6    -0.946418251701E+02   -0.33551E+01   -0.27645E+01    62   0.922E+00
RMM:   7    -0.964578710779E+02   -0.18160E+01   -0.15574E+01    62   0.612E+00
RMM:   8    -0.975669041088E+02   -0.11090E+01   -0.99201E+00    62   0.445E+00
RMM:   9    -0.991215309531E+02   -0.15546E+01   -0.15098E+01   163   0.320E+00
RMM:  10    -0.992985160183E+02   -0.17699E+00   -0.14822E+00   133   0.638E-01
RMM:  11    -0.993138568850E+02   -0.15341E-01   -0.61760E-02   120   0.159E-01
RMM:  12    -0.993149988328E+02   -0.11419E-02   -0.50076E-03   104   0.473E-02    0.652E+00
RMM:  13    -0.981477354627E+02    0.11673E+01   -0.44134E+00   126   0.261E+00    0.387E+00
RMM:  14    -0.979027922079E+02    0.24494E+00   -0.33000E-01   130   0.103E+00    0.227E+00
RMM:  15    -0.977886635593E+02    0.11413E+00   -0.12812E-01   124   0.788E-01    0.492E-01
RMM:  16    -0.977815947156E+02    0.70688E-02   -0.20142E-02   134   0.233E-01    0.152E-01
RMM:  17    -0.977808689997E+02    0.72572E-03   -0.65359E-03   134   0.126E-01    0.541E-02
RMM:  18    -0.977807363981E+02    0.13260E-03   -0.74704E-04   112   0.444E-02    0.243E-02
RMM:  19    -0.977807513862E+02   -0.14988E-04   -0.21280E-04    89   0.244E-02
   1 F= -.97780751E+02 E0= -.97751396E+02  d E =-.977808E+02
       N       E                     dE             d eps       ncg     rms          rms(c)
RMM:   1    -0.978847800679E+02   -0.10404E+00   -0.71871E-01   124   0.229E+00    0.344E-01
RMM:   2    -0.978724021490E+02    0.12378E-01   -0.37742E-02   124   0.391E-01    0.814E-02
RMM:   3    -0.978722507086E+02    0.15144E-03   -0.25954E-03   134   0.976E-02    0.450E-02
RMM:   4    -0.978722240437E+02    0.26665E-04   -0.21044E-04    79   0.326E-02
   2 F= -.97872224E+02 E0= -.97850048E+02  d E =-.914727E-01
       N       E                     dE             d eps       ncg     rms          rms(c)
RMM:   1    -0.981582472230E+02   -0.28600E+00   -0.64330E+00   124   0.684E+00    0.885E-01
RMM:   2    -0.980733189653E+02    0.84928E-01   -0.30319E-01   125   0.112E+00    0.295E-01
RMM:   3    -0.980691252373E+02    0.41937E-02   -0.29396E-02   133   0.327E-01    0.146E-01
RMM:   4    -0.980687736989E+02    0.35154E-03   -0.35445E-03   127   0.114E-01    0.770E-02
RMM:   5    -0.980687761608E+02   -0.24619E-05   -0.43140E-04    98   0.432E-02
   3 F= -.98068776E+02 E0= -.98068740E+02  d E =-.288025E+00
       N       E                     dE             d eps       ncg     rms          rms(c)
RMM:   1    -0.982324879110E+02   -0.16371E+00   -0.25042E+01   124   0.135E+01    0.150E+00
RMM:   2    -0.980104837617E+02    0.22200E+00   -0.11912E+00   126   0.217E+00    0.620E-01
RMM:   3    -0.979846873799E+02    0.25796E-01   -0.13522E-01   128   0.702E-01    0.325E-01
RMM:   4    -0.979816691392E+02    0.30182E-02   -0.32726E-02   126   0.310E-01    0.142E-01
RMM:   5    -0.979816100132E+02    0.59126E-04   -0.29749E-03   131   0.984E-02    0.877E-02
RMM:   6    -0.979817050869E+02   -0.95074E-04   -0.46099E-04   101   0.482E-02
   4 F= -.97981705E+02 E0= -.98023627E+02  d E =-.200954E+00
       N       E                     dE             d eps       ncg     rms          rms(c)
RMM:   1    -0.981748700314E+02   -0.19326E+00   -0.26981E+00   124   0.428E+00    0.400E-01
RMM:   2    -0.981643560850E+02    0.10514E-01   -0.76697E-02   130   0.598E-01    0.189E-01
RMM:   3    -0.981620372574E+02    0.23188E-02   -0.81217E-03   129   0.184E-01    0.914E-02
RMM:   4    -0.981617408201E+02    0.29644E-03   -0.19796E-03   129   0.783E-02    0.379E-02
RMM:   5    -0.981617205125E+02    0.20308E-04   -0.25379E-04    90   0.300E-02
   5 F= -.98161721E+02 E0= -.98195900E+02  d E =-.180015E+00
       N       E                     dE             d eps       ncg     rms          rms(c)
RMM:   1    -0.981943815152E+02   -0.32641E-01   -0.10216E+00   124   0.263E+00    0.246E-01
RMM:   2    -0.981906159405E+02    0.37656E-02   -0.27608E-02   130   0.368E-01    0.119E-01
RMM:   3    -0.981897451674E+02    0.87077E-03   -0.32424E-03   129   0.115E-01    0.572E-02
RMM:   4    -0.981896511022E+02    0.94065E-04   -0.76793E-04   110   0.485E-02
   6 F= -.98189651E+02 E0= -.98217300E+02  d E =-.207946E+00
