 vasp.5.2.2 15Apr09 complex 
 executed on             LinuxIFC date 2014.04.24  09:35:19
 running on    1 nodes
 distr:  one band on    1 nodes,    1 groups


--------------------------------------------------------------------------------------------------------


 INCAR:
 POTCAR:   PAW_PBE Mg 05Jan2001                   
 POTCAR:   PAW_PBE Al 04Jan2001                   
 POTCAR:   PAW_PBE Mg 05Jan2001                   
   VRHFIN =Mg: s2p0                                                             
   LEXCH  = PE                                                                  
   EATOM  =    23.0029 eV,    1.6907 Ry                                         
                                                                                
   TITEL  = PAW_PBE Mg 05Jan2001                                                
   LULTRA =        F    use ultrasoft PP ?                                      
   IUNSCR =        1    unscreen: 0-lin 1-nonlin 2-no                           
   RPACOR =    2.000    partial core radius                                     
   POMASS =   24.305; ZVAL   =    2.000    mass and valenz                      
   RCORE  =    2.000    outmost cutoff radius                                   
   RWIGS  =    2.880; RWIGS  =    1.524    wigner-seitz radius (au A)           
   ENMAX  =  210.012; ENMIN  =  157.509 eV                                      
   ICORE  =        2    local potential                                         
   LCOR   =        T    correct aug charges                                     
   LPAW   =        T    paw PP                                                  
   EAUG   =  274.554                                                            
   DEXC   =    -.136                                                            
   RMAX   =    3.182    core radius for proj-oper                               
   RAUG   =    1.300    factor for augmentation sphere                          
   RDEP   =    2.025    radius for radial grids                                 
   QCUT   =   -3.929; QGAM   =    7.858    optimization parameters              
                                                                                
   Description                                                                  
     l     E      TYP  RCUT    TYP  RCUT                                        
     0   .000     23  2.000                                                     
     0  2.000     23  2.000                                                     
     1   .000     23  2.000                                                     
     1  2.000     23  2.000                                                     
     2   .000     23  2.000                                                     
  local pseudopotential read in
  partial core-charges read in
  atomic valenz-charges read in
  non local Contribution for L=           0  read in
    real space projection operators read in
  non local Contribution for L=           0  read in
    real space projection operators read in
  non local Contribution for L=           1  read in
    real space projection operators read in
  non local Contribution for L=           1  read in
    real space projection operators read in
    PAW grid and wavefunctions read in
 
   number of l-projection  operators is LMAX  =           4
   number of lm-projection operators is LMMAX =           8
 
 POTCAR:   PAW_PBE Al 04Jan2001                   
   VRHFIN =Al: s2p1                                                             
   LEXCH  = PE                                                                  
   EATOM  =    53.5387 eV,    3.9350 Ry                                         
                                                                                
   TITEL  = PAW_PBE Al 04Jan2001                                                
   LULTRA =        F    use ultrasoft PP ?                                      
   IUNSCR =        1    unscreen: 0-lin 1-nonlin 2-no                           
   RPACOR =    1.500    partial core radius                                     
   POMASS =   26.982; ZVAL   =    3.000    mass and valenz                      
   RCORE  =    1.900    outmost cutoff radius                                   
   RWIGS  =    2.650; RWIGS  =    1.402    wigner-seitz radius (au A)           
   ENMAX  =  240.300; ENMIN  =  180.225 eV                                      
   ICORE  =        2    local potential                                         
   LCOR   =        T    correct aug charges                                     
   LPAW   =        T    paw PP                                                  
   EAUG   =  291.052                                                            
   DEXC   =    -.041                                                            
   RMAX   =    2.974    core radius for proj-oper                               
   RAUG   =    1.300    factor for augmentation sphere                          
   RDEP   =    1.966    radius for radial grids                                 
   QCUT   =   -4.203; QGAM   =    8.405    optimization parameters              
                                                                                
   Description                                                                  
     l     E      TYP  RCUT    TYP  RCUT                                        
     0   .000     23  1.900                                                     
     0   .000     23  1.900                                                     
     1   .000     23  1.900                                                     
     1  1.000     23  1.900                                                     
     2   .000      7  1.900                                                     
  local pseudopotential read in
  partial core-charges read in
  atomic valenz-charges read in
  non local Contribution for L=           0  read in
    real space projection operators read in
  non local Contribution for L=           0  read in
    real space projection operators read in
  non local Contribution for L=           1  read in
    real space projection operators read in
  non local Contribution for L=           1  read in
    real space projection operators read in
    PAW grid and wavefunctions read in
 
   number of l-projection  operators is LMAX  =           4
   number of lm-projection operators is LMMAX =           8
 

 ----------------------------------------------------------------------------- 
|                                                                             |
|  ADVICE TO THIS USER RUNNING 'VASP/VAMP'   (HEAR YOUR MASTER'S VOICE ...):  |
|                                                                             |
|      You have a (more or less) 'large supercell' and for larger cells       |
|      it might be more efficient to use real space projection operators      |
|      So try LREAL= Auto  in the INCAR   file.                               |
|      Mind: If you want to do a very accurate calculations keep the          |
|      reciprocal projection scheme          (i.e. LREAL=.FALSE.)             |
|                                                                             |
 ----------------------------------------------------------------------------- 

 PAW_PBE Mg 05Jan2001                   :
 energy of atom  1       EATOM=  -23.0029
 kinetic energy error for atom=    0.0002 (will be added to EATOM!!)
 PAW_PBE Al 04Jan2001                   :
 energy of atom  2       EATOM=  -53.5387
 kinetic energy error for atom=    0.0011 (will be added to EATOM!!)
 
 
 POSCAR: Mg1 Al30                                
  positions in direct lattice
  No initial velocities read in
 exchange correlation table for  LEXCH =        8
   RHO(1)=    0.500       N(1)  =     2000
   RHO(2)=  100.500       N(2)  =     4000

 VTST: version 2.03d, (02/18/09)

 CHAIN: initializing optimizer
 
 OPT: Using VASP Conjugate-Gradient optimizer
 CHAIN: Read ICHAIN            0
 


--------------------------------------------------------------------------------------------------------


 ion  position               nearest neighbor table
   1  0.250  0.500  0.250-   4 2.86   5 2.86   9 2.86  10 2.86  11 2.86  12 2.86  13 2.86  16 2.86
                            19 2.86  25 2.86  27 2.86
   2  0.000  0.000  0.000-   3 2.86   4 2.86   5 2.86   7 2.86   8 2.86  11 2.86  12 2.86  15 2.86
                            18 2.86  20 2.86  22 2.86  28 2.86
   3  0.250  0.000  0.250-   2 2.86   4 2.86   5 2.86   6 2.86   9 2.86  11 2.86  12 2.86  16 2.86
                            17 2.86  19 2.86  21 2.86  27 2.86
   4  0.250  0.250  0.000-   1 2.86   2 2.86   3 2.86   5 2.86   6 2.86   9 2.86  10 2.86  13 2.86
                            18 2.86  20 2.86  24 2.86  26 2.86
   5  0.000  0.250  0.250-   1 2.86   2 2.86   3 2.86   4 2.86   7 2.86   8 2.86  10 2.86  14 2.86
                            17 2.86  19 2.86  23 2.86  25 2.86
   6  0.500  0.000  0.000-   3 2.86   4 2.86   7 2.86   8 2.86   9 2.86  11 2.86  15 2.86  16 2.86
                            18 2.86  22 2.86  24 2.86  31 2.86
   7  0.750  0.000  0.250-   2 2.86   5 2.86   6 2.86   8 2.86   9 2.86  12 2.86  15 2.86  16 2.86
                            17 2.86  21 2.86  23 2.86  30 2.86
   8  0.750  0.250  0.000-   2 2.86   5 2.86   6 2.86   7 2.86   9 2.86  10 2.86  13 2.86  14 2.86
                            20 2.86  22 2.86  24 2.86  29 2.86
   9  0.500  0.250  0.250-   1 2.86   3 2.86   4 2.86   6 2.86   7 2.86   8 2.86  13 2.86  14 2.86
                            19 2.86  21 2.86  23 2.86
  10  0.000  0.500  0.000-   1 2.86   4 2.86   5 2.86   8 2.86  11 2.86  12 2.86  14 2.86  15 2.86
                            20 2.86  26 2.86  28 2.86  29 2.86
  11  0.250  0.750  0.000-   1 2.86   2 2.86   3 2.86   6 2.86  10 2.86  12 2.86  13 2.86  16 2.86
                            18 2.86  26 2.86  28 2.86  31 2.86
  12  0.000  0.750  0.250-   1 2.86   2 2.86   3 2.86   7 2.86  10 2.86  11 2.86  14 2.86  15 2.86
                            17 2.86  25 2.86  27 2.86  30 2.86
  13  0.500  0.500  0.000-   1 2.86   4 2.86   8 2.86   9 2.86  11 2.86  14 2.86  15 2.86  16 2.86
                            24 2.86  26 2.86  29 2.86  31 2.86
  14  0.750  0.500  0.250-   5 2.86   8 2.86   9 2.86  10 2.86  12 2.86  13 2.86  15 2.86  16 2.86
                            23 2.86  25 2.86  30 2.86
  15  0.750  0.750  0.000-   2 2.86   6 2.86   7 2.86  10 2.86  12 2.86  13 2.86  14 2.86  16 2.86
                            22 2.86  28 2.86  29 2.86  31 2.86
  16  0.500  0.750  0.250-   1 2.86   3 2.86   6 2.86   7 2.86  11 2.86  13 2.86  14 2.86  15 2.86
                            21 2.86  27 2.86  30 2.86
  17  0.000  0.000  0.500-   3 2.86   5 2.86   7 2.86  12 2.86  18 2.86  19 2.86  20 2.86  22 2.86
                            23 2.86  27 2.86  28 2.86  30 2.86
  18  0.250  0.000  0.750-   2 2.86   4 2.86   6 2.86  11 2.86  17 2.86  19 2.86  20 2.86  21 2.86
                            24 2.86  27 2.86  28 2.86  31 2.86
  19  0.250  0.250  0.500-   1 2.86   3 2.86   5 2.86   9 2.86  17 2.86  18 2.86  20 2.86  21 2.86
                            24 2.86  25 2.86  26 2.86
  20  0.000  0.250  0.750-   2 2.86   4 2.86   8 2.86  10 2.86  17 2.86  18 2.86  19 2.86  22 2.86
                            23 2.86  25 2.86  26 2.86  29 2.86
  21  0.500  0.000  0.500-   3 2.86   7 2.86   9 2.86  16 2.86  18 2.86  19 2.86  22 2.86  23 2.86
                            24 2.86  27 2.86  30 2.86  31 2.86
  22  0.750  0.000  0.750-   2 2.86   6 2.86   8 2.86  15 2.86  17 2.86  20 2.86  21 2.86  23 2.86
                            24 2.86  28 2.86  30 2.86  31 2.86
  23  0.750  0.250  0.500-   5 2.86   7 2.86   9 2.86  14 2.86  17 2.86  20 2.86  21 2.86  22 2.86
                            24 2.86  25 2.86  29 2.86
  24  0.500  0.250  0.750-   4 2.86   6 2.86   8 2.86  13 2.86  18 2.86  19 2.86  21 2.86  22 2.86
                            23 2.86  26 2.86  29 2.86
  25  0.000  0.500  0.500-   1 2.86   5 2.86  12 2.86  14 2.86  19 2.86  20 2.86  23 2.86  26 2.86
                            27 2.86  28 2.86  29 2.86  30 2.86
  26  0.250  0.500  0.750-   4 2.86  10 2.86  11 2.86  13 2.86  19 2.86  20 2.86  24 2.86  25 2.86
                            27 2.86  28 2.86  31 2.86
  27  0.250  0.750  0.500-   1 2.86   3 2.86  12 2.86  16 2.86  17 2.86  18 2.86  21 2.86  25 2.86
                            26 2.86  28 2.86  31 2.86
  28  0.000  0.750  0.750-   2 2.86  10 2.86  11 2.86  15 2.86  17 2.86  18 2.86  22 2.86  25 2.86
                            26 2.86  27 2.86  29 2.86  30 2.86
  29  0.750  0.500  0.750-   8 2.86  10 2.86  13 2.86  15 2.86  20 2.86  23 2.86  24 2.86  25 2.86
                            28 2.86  30 2.86  31 2.86
  30  0.750  0.750  0.500-   7 2.86  12 2.86  14 2.86  16 2.86  17 2.86  21 2.86  22 2.86  25 2.86
                            28 2.86  29 2.86  31 2.86
  31  0.500  0.750  0.750-   6 2.86  11 2.86  13 2.86  15 2.86  18 2.86  21 2.86  22 2.86  26 2.86
                            27 2.86  29 2.86  30 2.86
 
  LATTYP: Found a simple cubic cell.
 ALAT       =     8.0870540000
  
  Lattice vectors:
  
 A1 = (   8.0870540000,   0.0000000000,   0.0000000000)
 A2 = (   0.0000000000,   8.0870540000,   0.0000000000)
 A3 = (   0.0000000000,   0.0000000000,   8.0870540000)
 Subroutine PRICEL returns:
 Original cell was already a primitive cell.
 

Analysis of symmetry for initial positions (statically):

 Routine SETGRP: Setting up the symmetry group for a 
 simple cubic supercell.


 Subroutine GETGRP returns: Found  4 space group operations
 (whereof  4 operations were pure point group operations)
 out of a pool of 48 trial point group operations.


The static configuration has the point symmetry C_2v.

Analysis of symmetry for dynamics (positions and initial velocities):

 Subroutine DYNSYM returns: Found  4 space group operations
 (whereof  4 operations were pure point group operations)
 out of a pool of  4 trial space group operations
 (whereof  4 operations were pure point group operations)
 and found also     1 'primitive' translations


The dynamic configuration has the point symmetry C_2v.
 
 
 KPOINTS: Automatic kpoint scheme                 

Automatic generation of k-mesh.
 
 Subroutine IBZKPT returns following result:
 ===========================================
 
 Found      1 irreducible k-points:
 
 Following reciprocal coordinates:
            Coordinates               Weight
  0.000000  0.000000  0.000000      1.000000
 
 Following cartesian coordinates:
            Coordinates               Weight
  0.000000  0.000000  0.000000      1.000000
 


--------------------------------------------------------------------------------------------------------




 Dimension of arrays:
   k-points           NKPTS =      1   k-points in BZ     NKDIM =      1   number of bands    NBANDS=     62
   number of dos      NEDOS =    301   number of ions     NIONS =     31
   non local maximal  LDIM  =      4   non local SUM 2l+1 LMDIM =      8
   total plane-waves  NPLWV = 110592
   max r-space proj   IRMAX =      1   max aug-charges    IRDMAX=   9081
   dimension x,y,z NGX =    48 NGY =   48 NGZ =   48
   dimension x,y,z NGXF=    96 NGYF=   96 NGZF=   96
   support grid    NGXF=    96 NGYF=   96 NGZF=   96
   ions per type =               1  30
 NGX,Y,Z   is equivalent  to a cutoff of   9.87,  9.87,  9.87 a.u.
 NGXF,Y,Z  is equivalent  to a cutoff of  19.73, 19.73, 19.73 a.u.


 I would recommend the setting:
   dimension x,y,z NGX =    46 NGY =   46 NGZ =   46
 SYSTEM =  unknown system                          
 POSCAR =  Mg1 Al30                                

 Startparameter for this run:
   NWRITE =      2    write-flag & timer
   PREC   = accura    medium, high low
   ISTART =      0    job   : 0-new  1-cont  2-samecut
   ICHARG =      2    charge: 1-file 2-atom 10-const
   ISPIN  =      1    spin polarized calculation?
   LNONCOLLINEAR =      F non collinear calculations
   LSORBIT =      F    spin-orbit coupling
   INIWAV =      1    electr: 0-lowe 1-rand  2-diag
   LASPH  =      F    aspherical Exc in radial PAW
   METAGGA=      F    non-selfconsistent MetaGGA calc.

 Electronic Relaxation 1
   ENCUT  =  300.0 eV  22.05 Ry    4.70 a.u.  11.42 11.42 11.42*2*pi/ulx,y,z
   ENINI  =  300.0     initial cutoff
   ENAUG  =  291.1 eV  augmentation charge cutoff
   NELM   =     60;   NELMIN=  2; NELMDL=-12     # of ELM steps 
   EDIFF  = 0.1E-03   stopping-criterion for ELM
   LREAL  =      F    real-space projection
   LCOMPAT=      F    compatible to vasp.4.4
   LREAL_COMPAT= F    compatible to vasp.4.5.1-3
   GGA_COMPAT  = T    GGA compatible to vasp.4.4-vasp.4.6
   LMAXPAW     = -100 max onsite density
   LMAXMIX     =    2 max onsite mixed and CHGCAR
   VOSKOWN=      0    Vosko Wilk Nusair interpolation
   ROPT   =    0.00000   0.00000
 Ionic relaxation
   EDIFFG = 0.5E-01   stopping-criterion for IOM
   NSW    =    191    number of steps for IOM
   NBLOCK =      1;   KBLOCK =    191    inner block; outer block 
   IBRION =      2    ionic relax: 0-MD 1-quasi-New 2-CG
   NFREE  =      1    steps in history (QN), initial steepest desc. (CG)
   ISIF   =      2    stress and relaxation
   IWAVPR =     11    prediction:  0-non 1-charg 2-wave 3-comb
   ISYM   =      2    0-nonsym 1-usesym 2-fastsym
   LCORR  =      T    Harris-Foulkes like correction to forces

   POTIM  = 0.5000    time-step for ionic-motion
   TEIN   =    0.0    initial temperature
   TEBEG  =    0.0;   TEEND  =   0.0 temperature during run
   SMASS  =  -3.00    Nose mass-parameter (am)
   estimated Nose-frequenzy (Omega)   =  0.10E-29 period in steps =****** mass=  -0.149E-26a.u.
   NPACO  =    256;   APACO  = 16.0  distance and # of slots for P.C.
   PSTRESS=    0.0 pullay stress

  Mass of Ions in am
   POMASS =  24.30 26.98
  Ionic Valenz
   ZVAL   =   2.00  3.00
  Atomic Wigner-Seitz radii
   RWIGS  =  -1.00 -1.00
   NELECT =      92.0000    total number of electrons
   NUPDOWN=      -1.0000    fix difference up-down

 DOS related values:
   EMIN   =  10.00;   EMAX   =-10.00  energy-range for DOS
   EFERMI =   0.00
   ISMEAR =     1;   SIGMA  =   0.20  broadening in eV -4-tet -1-fermi 0-gaus

 Electronic relaxation 2 (details)
   IALGO  =     48    algorithm
   LDIAG  =      T    sub-space diagonalisation
   IMIX   =      4    mixing-type and parameters
     AMIX     =   0.40;   BMIX     =  1.00
     AMIX_MAG =   1.60;   BMIX_MAG =  1.00
     AMIN     =   0.10
     WC   =   100.;   INIMIX=   1;  MIXPRE=   1

 Intra band minimization:
   WEIMIN = 0.0010     energy-eigenvalue tresh-hold
   EBREAK =  0.40E-06  absolut break condition
   DEPER  =   0.30     relativ break condition  

   TIME   =   0.40     timestep for ELM

  volume/ion in A,a.u.               =      17.06       115.13
  Fermi-wavevector in a.u.,A,eV,Ry     =   0.913862  1.726948 11.362811  0.835143
  Thomas-Fermi vector in A             =   2.038422
 
 Write flags
   LWAVE  =      F    write WAVECAR
   LCHARG =      F    write CHGCAR
   LVTOT  =      F    write LOCPOT, local potential
   LELF   =      F    write electronic localiz. function (ELF)
   LORBIT =      0    0 simple, 1 ext, 2 COOP (PROOUT)


 Dipole corrections
   LMONO  =      F    monopole corrections only (constant potential shift)
   LDIPOL =      F    correct potential (dipole corrections)
   IDIPOL =      0    1-x, 2-y, 3-z, 4-all directions 
   EPSILON=  1.0000000 bulk dielectric constant

 Exchange correlation treatment:
   GGA     =    --    GGA type
   LEXCH   =     8    internal setting for exchange type
   VOSKOWN=      0    Vosko Wilk Nusair interpolation
   LHFCALC =     F    Hartree Fock is set to
   LHFONE  =     F    Hartree Fock one center treatment
   AEXX    =    0.0000 exact exchange contribution

 Linear response parameters
   LEPSILON=     F    determine dielectric tensor
   LRPA    =     F    only Hartree local field effects (RPA)
   LNABLA  =     F    use nabla operator in PAW spheres
   LVEL    =     F    velocity operator in full k-point grid
   LINTERFAST=   F  fast interpolation
   KINTER  =     0    interpolate to denser k-point grid
   CSHIFT  =0.1000    complex shift for real part using Kramers Kronig
   OMEGAMAX=  -1.0    maximum frequency

 Orbital magnetization related:
   ORBITALMAG=     F  switch on orbital magnetization
   LCHIMAG   =     F  perturbation theory with respect to B field



--------------------------------------------------------------------------------------------------------


 conjugate gradient relaxation of ions
 charge density and potential will be updated during run
 non-spin polarized calculation
 RMM-DIIS sequential band-by-band
 perform sub-space diagonalisation
    before iterative eigenvector-optimisation
 modified Broyden-mixing scheme, WC =      100.0
 initial mixing is a Kerker type mixing with AMIX =  0.4000 and BMIX =      1.0000
 Hartree-type preconditioning will be used
 using additional bands           16
 reciprocal scheme for non local part
 use partial core corrections
 calculate Harris-corrections to forces 
   (improved forces if not selfconsistent)
 use gradient corrections 
 use of overlap-Matrix (Vanderbilt PP)
 Methfessel and Paxton  Order N= 1 SIGMA  =   0.20


--------------------------------------------------------------------------------------------------------


  energy-cutoff  :      300.00
  volume of cell :      528.90
      direct lattice vectors                 reciprocal lattice vectors
     8.087054000  0.000000000  0.000000000     0.123654423  0.000000000  0.000000000
     0.000000000  8.087054000  0.000000000     0.000000000  0.123654423  0.000000000
     0.000000000  0.000000000  8.087054000     0.000000000  0.000000000  0.123654423

  length of vectors
     8.087054000  8.087054000  8.087054000     0.123654423  0.123654423  0.123654423


 
 k-points in units of 2pi/SCALE and weight: Automatic kpoint scheme                 
   0.00000000  0.00000000  0.00000000       1.000
 
 k-points in reciprocal lattice and weights: Automatic kpoint scheme                 
   0.00000000  0.00000000  0.00000000       1.000
 
 position of ions in fractional coordinates (direct lattice) 
   0.25000000  0.50000000  0.25000000
   0.00000000  0.00000000  0.00000000
   0.25000000  0.00000000  0.25000000
   0.25000000  0.25000000  0.00000000
   0.00000000  0.25000000  0.25000000
   0.50000000  0.00000000  0.00000000
   0.75000000  0.00000000  0.25000000
   0.75000000  0.25000000  0.00000000
   0.50000000  0.25000000  0.25000000
   0.00000000  0.50000000  0.00000000
   0.25000000  0.75000000  0.00000000
   0.00000000  0.75000000  0.25000000
   0.50000000  0.50000000  0.00000000
   0.75000000  0.50000000  0.25000000
   0.75000000  0.75000000  0.00000000
   0.50000000  0.75000000  0.25000000
   0.00000000  0.00000000  0.50000000
   0.25000000  0.00000000  0.75000000
   0.25000000  0.25000000  0.50000000
   0.00000000  0.25000000  0.75000000
   0.50000000  0.00000000  0.50000000
   0.75000000  0.00000000  0.75000000
   0.75000000  0.25000000  0.50000000
   0.50000000  0.25000000  0.75000000
   0.00000000  0.50000000  0.50000000
   0.25000000  0.50000000  0.75000000
   0.25000000  0.75000000  0.50000000
   0.00000000  0.75000000  0.75000000
   0.75000000  0.50000000  0.75000000
   0.75000000  0.75000000  0.50000000
   0.50000000  0.75000000  0.75000000
 
 position of ions in cartesian coordinates  (Angst):
   2.02176350  4.04352700  2.02176350
   0.00000000  0.00000000  0.00000000
   2.02176350  0.00000000  2.02176350
   2.02176350  2.02176350  0.00000000
   0.00000000  2.02176350  2.02176350
   4.04352700  0.00000000  0.00000000
   6.06529050  0.00000000  2.02176350
   6.06529050  2.02176350  0.00000000
   4.04352700  2.02176350  2.02176350
   0.00000000  4.04352700  0.00000000
   2.02176350  6.06529050  0.00000000
   0.00000000  6.06529050  2.02176350
   4.04352700  4.04352700  0.00000000
   6.06529050  4.04352700  2.02176350
   6.06529050  6.06529050  0.00000000
   4.04352700  6.06529050  2.02176350
   0.00000000  0.00000000  4.04352700
   2.02176350  0.00000000  6.06529050
   2.02176350  2.02176350  4.04352700
   0.00000000  2.02176350  6.06529050
   4.04352700  0.00000000  4.04352700
   6.06529050  0.00000000  6.06529050
   6.06529050  2.02176350  4.04352700
   4.04352700  2.02176350  6.06529050
   0.00000000  4.04352700  4.04352700
   2.02176350  4.04352700  6.06529050
   2.02176350  6.06529050  4.04352700
   0.00000000  6.06529050  6.06529050
   6.06529050  4.04352700  6.06529050
   6.06529050  6.06529050  4.04352700
   4.04352700  6.06529050  6.06529050
 


--------------------------------------------------------------------------------------------------------


 k-point  1 :  0.00000.00000.0000  plane waves:    6235

 maximum and minimum number of plane-waves per node :    6235   6235

 maximum number of plane-waves:    6235
 maximal index in each direction: 
   IXMAX= 11   IYMAX= 11   IZMAX= 11
   IXMIN=-11   IYMIN=-11   IZMIN=-11

 NGX is ok and might be reduce to  46
 NGY is ok and might be reduce to  46
 NGZ is ok and might be reduce to  46

 serial   3D FFT for wavefunctions
 parallel 3D FFT for charge:
    minimum data exchange during FFTs selected (reduces bandwidth)


 total amount of memory used by VASP on root node 125895. kBytes
========================================================================

   base      :    30000. kBytes
   nonl-proj :     3890. kBytes
   fftplans  :    30736. kBytes
   grid      :    54743. kBytes
   one-center:       95. kBytes
   wavefun   :     6431. kBytes
 
 Broyden mixing: mesh for mixing (old mesh)
   NGX = 23   NGY = 23   NGZ = 23
  (NGX  = 96   NGY  = 96   NGZ  = 96)
  gives a total of  12167 points

 initial charge density was supplied:
 charge density of overlapping atoms calculated
 number of electron   92.0000000 magnetization 
 keeping initial charge density in first step


--------------------------------------------------------------------------------------------------------


 Maximum index for augmentation-charges         8601 (set IRDMAX)


--------------------------------------------------------------------------------------------------------


 First call to EWALD:  gamma=   0.219
 Maximum number of real-space cells 3x 3x 3
 Maximum number of reciprocal cells 3x 3x 3

    FEWALD:  cpu time    0.07: real time    0.02
   RESPFUN:  cpu time    0.00: real time    0.00


----------------------------------------- Iteration    1(   1)  ---------------------------------------


    POTLOK:  cpu time    1.92: real time    1.88
    SETDIJ:  cpu time    0.15: real time    0.15
    EDDIAG:  cpu time    1.95: real time    1.49
  RMM-DIIS:  cpu time   10.44: real time    3.53
    ORTHCH:  cpu time    0.16: real time    0.04
       DOS:  cpu time    0.00: real time    0.00
    --------------------------------------------
      LOOP:  cpu time   14.64: real time    7.10

 eigenvalue-minimisations  :    62
 total energy-change (2. order) : 0.3048805E+03  (-0.1689288E+04)
 number of electron   92.0000000 magnetization 
 augmentation part    92.0000000 magnetization 

 Free energy of the ion-electron system (eV)
  ---------------------------------------------------
  alpha Z        PSCENC =        -7.38312591
  Ewald energy   TEWEN  =     -2179.22324318
  -1/2 Hartree   DENC   =       -25.65026546
  -exchange  EXHF       =         0.00000000
  -V(xc)+E(xc)   XCENC  =      -796.30847292
  PAW double counting   =      1078.21717227     -108.50372521
  entropy T*S    EENTRO =        -0.08545652
  eigenvalues    EBANDS =       714.68614330
  atomic energy  EATOM  =      1629.13144109
  ---------------------------------------------------
  free energy    TOTEN  =       304.88046746 eV

  energy without entropy =      304.96592398  energy(sigma->0) =      304.90895297


--------------------------------------------------------------------------------------------------------




----------------------------------------- Iteration    1(   2)  ---------------------------------------


    EDDIAG:  cpu time    1.99: real time    1.49
  RMM-DIIS:  cpu time   10.43: real time    3.53
    ORTHCH:  cpu time    0.16: real time    0.04
       DOS:  cpu time    0.00: real time    0.00
    --------------------------------------------
      LOOP:  cpu time   12.64: real time    5.08

 eigenvalue-minimisations  :    62
 total energy-change (2. order) :-0.3081810E+03  (-0.3032781E+03)
 number of electron   92.0000000 magnetization 
 augmentation part    92.0000000 magnetization 

 Free energy of the ion-electron system (eV)
  ---------------------------------------------------
  alpha Z        PSCENC =        -7.38312591
  Ewald energy   TEWEN  =     -2179.22324318
  -1/2 Hartree   DENC   =       -25.65026546
  -exchange  EXHF       =         0.00000000
  -V(xc)+E(xc)   XCENC  =      -796.30847292
  PAW double counting   =      1078.21717227     -108.50372521
  entropy T*S    EENTRO =        -0.08050270
  eigenvalues    EBANDS =       406.50015926
  atomic energy  EATOM  =      1629.13144109
  ---------------------------------------------------
  free energy    TOTEN  =        -3.30056276 eV

  energy without entropy =       -3.22006006  energy(sigma->0) =       -3.27372853


--------------------------------------------------------------------------------------------------------




----------------------------------------- Iteration    1(   3)  ---------------------------------------


    EDDIAG:  cpu time    1.98: real time    1.49
  RMM-DIIS:  cpu time   10.42: real time    3.53
    ORTHCH:  cpu time    0.16: real time    0.04
       DOS:  cpu time    0.00: real time    0.00
    --------------------------------------------
      LOOP:  cpu time   12.67: real time    5.11

 eigenvalue-minimisations  :    62
 total energy-change (2. order) :-0.6402034E+02  (-0.6754549E+02)
 number of electron   92.0000000 magnetization 
 augmentation part    92.0000000 magnetization 

 Free energy of the ion-electron system (eV)
  ---------------------------------------------------
  alpha Z        PSCENC =        -7.38312591
  Ewald energy   TEWEN  =     -2179.22324318
  -1/2 Hartree   DENC   =       -25.65026546
  -exchange  EXHF       =         0.00000000
  -V(xc)+E(xc)   XCENC  =      -796.30847292
  PAW double counting   =      1078.21717227     -108.50372521
  entropy T*S    EENTRO =         0.00414059
  eigenvalues    EBANDS =       342.39517784
  atomic energy  EATOM  =      1629.13144109
  ---------------------------------------------------
  free energy    TOTEN  =       -67.32090090 eV

  energy without entropy =      -67.32504148  energy(sigma->0) =      -67.32228109


--------------------------------------------------------------------------------------------------------




----------------------------------------- Iteration    1(   4)  ---------------------------------------


    EDDIAG:  cpu time    1.96: real time    1.49
  RMM-DIIS:  cpu time   10.43: real time    3.53
    ORTHCH:  cpu time    0.16: real time    0.04
       DOS:  cpu time    0.00: real time    0.00
    --------------------------------------------
      LOOP:  cpu time   12.64: real time    5.09

 eigenvalue-minimisations  :    62
 total energy-change (2. order) :-0.1679888E+02  (-0.1602934E+02)
 number of electron   92.0000000 magnetization 
 augmentation part    92.0000000 magnetization 

 Free energy of the ion-electron system (eV)
  ---------------------------------------------------
  alpha Z        PSCENC =        -7.38312591
  Ewald energy   TEWEN  =     -2179.22324318
  -1/2 Hartree   DENC   =       -25.65026546
  -exchange  EXHF       =         0.00000000
  -V(xc)+E(xc)   XCENC  =      -796.30847292
  PAW double counting   =      1078.21717227     -108.50372521
  entropy T*S    EENTRO =        -0.05914049
  eigenvalues    EBANDS =       325.65958046
  atomic energy  EATOM  =      1629.13144109
  ---------------------------------------------------
  free energy    TOTEN  =       -84.11977935 eV

  energy without entropy =      -84.06063886  energy(sigma->0) =      -84.10006585


--------------------------------------------------------------------------------------------------------




----------------------------------------- Iteration    1(   5)  ---------------------------------------


    EDDIAG:  cpu time    1.99: real time    1.49
  RMM-DIIS:  cpu time   10.43: real time    3.53
    ORTHCH:  cpu time    0.16: real time    0.04
       DOS:  cpu time    0.00: real time    0.00
    --------------------------------------------
      LOOP:  cpu time   12.64: real time    5.08

 eigenvalue-minimisations  :    62
 total energy-change (2. order) :-0.7166990E+01  (-0.5836352E+01)
 number of electron   92.0000000 magnetization 
 augmentation part    92.0000000 magnetization 

 Free energy of the ion-electron system (eV)
  ---------------------------------------------------
  alpha Z        PSCENC =        -7.38312591
  Ewald energy   TEWEN  =     -2179.22324318
  -1/2 Hartree   DENC   =       -25.65026546
  -exchange  EXHF       =         0.00000000
  -V(xc)+E(xc)   XCENC  =      -796.30847292
  PAW double counting   =      1078.21717227     -108.50372521
  entropy T*S    EENTRO =        -0.09753870
  eigenvalues    EBANDS =       318.53098830
  atomic energy  EATOM  =      1629.13144109
  ---------------------------------------------------
  free energy    TOTEN  =       -91.28676972 eV

  energy without entropy =      -91.18923102  energy(sigma->0) =      -91.25425682


--------------------------------------------------------------------------------------------------------




----------------------------------------- Iteration    1(   6)  ---------------------------------------


    EDDIAG:  cpu time    1.98: real time    1.49
  RMM-DIIS:  cpu time   10.43: real time    3.53
    ORTHCH:  cpu time    0.16: real time    0.04
       DOS:  cpu time    0.00: real time    0.00
    --------------------------------------------
      LOOP:  cpu time   12.65: real time    5.08

 eigenvalue-minimisations  :    62
 total energy-change (2. order) :-0.3355055E+01  (-0.2764475E+01)
 number of electron   92.0000000 magnetization 
 augmentation part    92.0000000 magnetization 

 Free energy of the ion-electron system (eV)
  ---------------------------------------------------
  alpha Z        PSCENC =        -7.38312591
  Ewald energy   TEWEN  =     -2179.22324318
  -1/2 Hartree   DENC   =       -25.65026546
  -exchange  EXHF       =         0.00000000
  -V(xc)+E(xc)   XCENC  =      -796.30847292
  PAW double counting   =      1078.21717227     -108.50372521
  entropy T*S    EENTRO =        -0.03280039
  eigenvalues    EBANDS =       315.11119454
  atomic energy  EATOM  =      1629.13144109
  ---------------------------------------------------
  free energy    TOTEN  =       -94.64182517 eV

  energy without entropy =      -94.60902478  energy(sigma->0) =      -94.63089171


--------------------------------------------------------------------------------------------------------




----------------------------------------- Iteration    1(   7)  ---------------------------------------


    EDDIAG:  cpu time    2.04: real time    1.49
  RMM-DIIS:  cpu time   10.43: real time    3.53
    ORTHCH:  cpu time    0.16: real time    0.04
       DOS:  cpu time    0.00: real time    0.00
    --------------------------------------------
      LOOP:  cpu time   12.64: real time    5.06

 eigenvalue-minimisations  :    62
 total energy-change (2. order) :-0.1816046E+01  (-0.1557444E+01)
 number of electron   92.0000000 magnetization 
 augmentation part    92.0000000 magnetization 

 Free energy of the ion-electron system (eV)
  ---------------------------------------------------
  alpha Z        PSCENC =        -7.38312591
  Ewald energy   TEWEN  =     -2179.22324318
  -1/2 Hartree   DENC   =       -25.65026546
  -exchange  EXHF       =         0.00000000
  -V(xc)+E(xc)   XCENC  =      -796.30847292
  PAW double counting   =      1078.21717227     -108.50372521
  entropy T*S    EENTRO =         0.01868078
  eigenvalues    EBANDS =       313.24366746
  atomic energy  EATOM  =      1629.13144109
  ---------------------------------------------------
  free energy    TOTEN  =       -96.45787108 eV

  energy without entropy =      -96.47655186  energy(sigma->0) =      -96.46409801


--------------------------------------------------------------------------------------------------------




----------------------------------------- Iteration    1(   8)  ---------------------------------------


    EDDIAG:  cpu time    1.99: real time    1.50
  RMM-DIIS:  cpu time   10.43: real time    3.53
    ORTHCH:  cpu time    0.16: real time    0.04
       DOS:  cpu time    0.00: real time    0.00
    --------------------------------------------
      LOOP:  cpu time   12.69: real time    5.12

 eigenvalue-minimisations  :    62
 total energy-change (2. order) :-0.1109033E+01  (-0.9920116E+00)
 number of electron   92.0000000 magnetization 
 augmentation part    92.0000000 magnetization 

 Free energy of the ion-electron system (eV)
  ---------------------------------------------------
  alpha Z        PSCENC =        -7.38312591
  Ewald energy   TEWEN  =     -2179.22324318
  -1/2 Hartree   DENC   =       -25.65026546
  -exchange  EXHF       =         0.00000000
  -V(xc)+E(xc)   XCENC  =      -796.30847292
  PAW double counting   =      1078.21717227     -108.50372521
  entropy T*S    EENTRO =         0.01989262
  eigenvalues    EBANDS =       312.13342259
  atomic energy  EATOM  =      1629.13144109
  ---------------------------------------------------
  free energy    TOTEN  =       -97.56690411 eV

  energy without entropy =      -97.58679673  energy(sigma->0) =      -97.57353498


--------------------------------------------------------------------------------------------------------




----------------------------------------- Iteration    1(   9)  ---------------------------------------


    EDDIAG:  cpu time    2.05: real time    1.49
  RMM-DIIS:  cpu time   27.77: real time    8.15
    ORTHCH:  cpu time    0.16: real time    0.04
       DOS:  cpu time    0.00: real time    0.00
    --------------------------------------------
      LOOP:  cpu time   29.99: real time    9.68

 eigenvalue-minimisations  :   163
 total energy-change (2. order) :-0.1554627E+01  (-0.1509835E+01)
 number of electron   92.0000000 magnetization 
 augmentation part    92.0000000 magnetization 

 Free energy of the ion-electron system (eV)
  ---------------------------------------------------
  alpha Z        PSCENC =        -7.38312591
  Ewald energy   TEWEN  =     -2179.22324318
  -1/2 Hartree   DENC   =       -25.65026546
  -exchange  EXHF       =         0.00000000
  -V(xc)+E(xc)   XCENC  =      -796.30847292
  PAW double counting   =      1078.21717227     -108.50372521
  entropy T*S    EENTRO =         0.01893032
  eigenvalues    EBANDS =       310.57975804
  atomic energy  EATOM  =      1629.13144109
  ---------------------------------------------------
  free energy    TOTEN  =       -99.12153095 eV

  energy without entropy =      -99.14046128  energy(sigma->0) =      -99.12784106


--------------------------------------------------------------------------------------------------------




----------------------------------------- Iteration    1(  10)  ---------------------------------------


    EDDIAG:  cpu time    1.96: real time    1.49
  RMM-DIIS:  cpu time   22.87: real time    6.72
    ORTHCH:  cpu time    0.16: real time    0.04
       DOS:  cpu time    0.00: real time    0.00
    --------------------------------------------
      LOOP:  cpu time   25.10: real time    8.29

 eigenvalue-minimisations  :   133
 total energy-change (2. order) :-0.1769851E+00  (-0.1482214E+00)
 number of electron   92.0000000 magnetization 
 augmentation part    92.0000000 magnetization 

 Free energy of the ion-electron system (eV)
  ---------------------------------------------------
  alpha Z        PSCENC =        -7.38312591
  Ewald energy   TEWEN  =     -2179.22324318
  -1/2 Hartree   DENC   =       -25.65026546
  -exchange  EXHF       =         0.00000000
  -V(xc)+E(xc)   XCENC  =      -796.30847292
  PAW double counting   =      1078.21717227     -108.50372521
  entropy T*S    EENTRO =         0.02388771
  eigenvalues    EBANDS =       310.39781559
  atomic energy  EATOM  =      1629.13144109
  ---------------------------------------------------
  free energy    TOTEN  =       -99.29851602 eV

  energy without entropy =      -99.32240373  energy(sigma->0) =      -99.30647859


--------------------------------------------------------------------------------------------------------




----------------------------------------- Iteration    1(  11)  ---------------------------------------


    EDDIAG:  cpu time    2.04: real time    1.49
  RMM-DIIS:  cpu time   20.58: real time    6.15
    ORTHCH:  cpu time    0.16: real time    0.04
       DOS:  cpu time    0.00: real time    0.00
    --------------------------------------------
      LOOP:  cpu time   22.80: real time    7.68

 eigenvalue-minimisations  :   120
 total energy-change (2. order) :-0.1534087E-01  (-0.6176005E-02)
 number of electron   92.0000000 magnetization 
 augmentation part    92.0000000 magnetization 

 Free energy of the ion-electron system (eV)
  ---------------------------------------------------
  alpha Z        PSCENC =        -7.38312591
  Ewald energy   TEWEN  =     -2179.22324318
  -1/2 Hartree   DENC   =       -25.65026546
  -exchange  EXHF       =         0.00000000
  -V(xc)+E(xc)   XCENC  =      -796.30847292
  PAW double counting   =      1078.21717227     -108.50372521
  entropy T*S    EENTRO =         0.01312380
  eigenvalues    EBANDS =       310.39323864
  atomic energy  EATOM  =      1629.13144109
  ---------------------------------------------------
  free energy    TOTEN  =       -99.31385689 eV

  energy without entropy =      -99.32698068  energy(sigma->0) =      -99.31823148


--------------------------------------------------------------------------------------------------------




----------------------------------------- Iteration    1(  12)  ---------------------------------------


    EDDIAG:  cpu time    2.00: real time    1.50
  RMM-DIIS:  cpu time   18.50: real time    5.50
    ORTHCH:  cpu time    0.16: real time    0.04
       DOS:  cpu time    0.00: real time    0.00
    CHARGE:  cpu time    1.13: real time    1.03
    MIXING:  cpu time    0.05: real time    0.05
    --------------------------------------------
      LOOP:  cpu time   21.95: real time    8.21

 eigenvalue-minimisations  :   104
 total energy-change (2. order) :-0.1141948E-02  (-0.5007600E-03)
 number of electron   91.9999993 magnetization 
 augmentation part    -0.9157852 magnetization 

 Broyden mixing:
  rms(total) = 0.65233E+00    rms(broyden)= 0.65231E+00
  rms(prec ) = 0.12306E+01
  weight for this iteration     100.00

 Free energy of the ion-electron system (eV)
  ---------------------------------------------------
  alpha Z        PSCENC =        -7.38312591
  Ewald energy   TEWEN  =     -2179.22324318
  -1/2 Hartree   DENC   =       -25.65026546
  -exchange  EXHF       =         0.00000000
  -V(xc)+E(xc)   XCENC  =      -796.30847292
  PAW double counting   =      1078.21717227     -108.50372521
  entropy T*S    EENTRO =         0.01141350
  eigenvalues    EBANDS =       310.39380699
  atomic energy  EATOM  =      1629.13144109
  ---------------------------------------------------
  free energy    TOTEN  =       -99.31499883 eV

  energy without entropy =      -99.32641233  energy(sigma->0) =      -99.31880333


--------------------------------------------------------------------------------------------------------




----------------------------------------- Iteration    1(  13)  ---------------------------------------


    POTLOK:  cpu time    1.73: real time    1.73
    SETDIJ:  cpu time    0.15: real time    0.15
    EDDIAG:  cpu time    1.96: real time    1.49
  RMM-DIIS:  cpu time   20.91: real time    6.35
    ORTHCH:  cpu time    0.16: real time    0.04
       DOS:  cpu time    0.00: real time    0.00
    CHARGE:  cpu time    1.12: real time    1.03
    MIXING:  cpu time    0.05: real time    0.05
    --------------------------------------------
      LOOP:  cpu time   26.10: real time   10.89

 eigenvalue-minimisations  :   126
 total energy-change (2. order) : 0.1167263E+01  (-0.4413442E+00)
 number of electron   91.9999993 magnetization 
 augmentation part    -0.9281172 magnetization 

 Broyden mixing:
  rms(total) = 0.38742E+00    rms(broyden)= 0.38742E+00
  rms(prec ) = 0.58616E+00
  weight for this iteration     100.00

 eigenvalues of (default mixing * dielectric matrix)
  average eigenvalue GAMMA=   1.9222
  1.9222

 Free energy of the ion-electron system (eV)
  ---------------------------------------------------
  alpha Z        PSCENC =        -7.38312591
  Ewald energy   TEWEN  =     -2179.22324318
  -1/2 Hartree   DENC   =       -28.55521918
  -exchange  EXHF       =         0.00000000
  -V(xc)+E(xc)   XCENC  =      -795.06196082
  PAW double counting   =      1078.00319176     -108.33798903
  entropy T*S    EENTRO =        -0.08739316
  eigenvalues    EBANDS =       313.36656297
  atomic energy  EATOM  =      1629.13144109
  ---------------------------------------------------
  free energy    TOTEN  =       -98.14773546 eV

  energy without entropy =      -98.06034231  energy(sigma->0) =      -98.11860441


--------------------------------------------------------------------------------------------------------




----------------------------------------- Iteration    1(  14)  ---------------------------------------


    POTLOK:  cpu time    1.73: real time    1.73
    SETDIJ:  cpu time    0.15: real time    0.15
    EDDIAG:  cpu time    1.96: real time    1.49
  RMM-DIIS:  cpu time   21.80: real time    6.58
    ORTHCH:  cpu time    0.16: real time    0.04
       DOS:  cpu time    0.00: real time    0.00
    CHARGE:  cpu time    1.13: real time    1.03
    MIXING:  cpu time    0.06: real time    0.05
    --------------------------------------------
      LOOP:  cpu time   26.99: real time   11.11

 eigenvalue-minimisations  :   130
 total energy-change (2. order) : 0.2449433E+00  (-0.3300004E-01)
 number of electron   91.9999993 magnetization 
 augmentation part    -0.9380304 magnetization 

 Broyden mixing:
  rms(total) = 0.22722E+00    rms(broyden)= 0.22722E+00
  rms(prec ) = 0.33280E+00
  weight for this iteration     100.00

 eigenvalues of (default mixing * dielectric matrix)
  average eigenvalue GAMMA=   1.7271
  2.5373  0.9169

 Free energy of the ion-electron system (eV)
  ---------------------------------------------------
  alpha Z        PSCENC =        -7.38312591
  Ewald energy   TEWEN  =     -2179.22324318
  -1/2 Hartree   DENC   =       -29.17322432
  -exchange  EXHF       =         0.00000000
  -V(xc)+E(xc)   XCENC  =      -794.07445218
  PAW double counting   =      1077.66714403     -108.05293241
  entropy T*S    EENTRO =        -0.09783740
  eigenvalues    EBANDS =       313.30343808
  atomic energy  EATOM  =      1629.13144109
  ---------------------------------------------------
  free energy    TOTEN  =       -97.90279221 eV

  energy without entropy =      -97.80495481  energy(sigma->0) =      -97.87017974


--------------------------------------------------------------------------------------------------------




----------------------------------------- Iteration    1(  15)  ---------------------------------------


    POTLOK:  cpu time    1.77: real time    1.75
    SETDIJ:  cpu time    0.15: real time    0.15
    EDDIAG:  cpu time    1.98: real time    1.50
  RMM-DIIS:  cpu time   20.59: real time    6.29
    ORTHCH:  cpu time    0.16: real time    0.04
       DOS:  cpu time    0.00: real time    0.00
    CHARGE:  cpu time    1.12: real time    1.03
    MIXING:  cpu time    0.07: real time    0.05
    --------------------------------------------
      LOOP:  cpu time   25.88: real time   10.82

 eigenvalue-minimisations  :   124
 total energy-change (2. order) : 0.1141286E+00  (-0.1281238E-01)
 number of electron   91.9999993 magnetization 
 augmentation part    -0.9511590 magnetization 

 Broyden mixing:
  rms(total) = 0.49190E-01    rms(broyden)= 0.49189E-01
  rms(prec ) = 0.85718E-01
  weight for this iteration     100.00

 eigenvalues of (default mixing * dielectric matrix)
  average eigenvalue GAMMA=   1.4623
  2.6067  0.8901  0.8901

 Free energy of the ion-electron system (eV)
  ---------------------------------------------------
  alpha Z        PSCENC =        -7.38312591
  Ewald energy   TEWEN  =     -2179.22324318
  -1/2 Hartree   DENC   =       -30.43924350
  -exchange  EXHF       =         0.00000000
  -V(xc)+E(xc)   XCENC  =      -792.74705177
  PAW double counting   =      1077.30353317     -107.77471362
  entropy T*S    EENTRO =        -0.07570092
  eigenvalues    EBANDS =       313.41944109
  atomic energy  EATOM  =      1629.13144109
  ---------------------------------------------------
  free energy    TOTEN  =       -97.78866356 eV

  energy without entropy =      -97.71296264  energy(sigma->0) =      -97.76342992


--------------------------------------------------------------------------------------------------------




----------------------------------------- Iteration    1(  16)  ---------------------------------------


    POTLOK:  cpu time    1.93: real time    1.88
    SETDIJ:  cpu time    0.15: real time    0.15
    EDDIAG:  cpu time    1.95: real time    1.49
  RMM-DIIS:  cpu time   22.48: real time    6.74
    ORTHCH:  cpu time    0.16: real time    0.04
       DOS:  cpu time    0.00: real time    0.00
    CHARGE:  cpu time    1.12: real time    1.03
    MIXING:  cpu time    0.08: real time    0.06
    --------------------------------------------
      LOOP:  cpu time   27.89: real time   11.39

 eigenvalue-minimisations  :   134
 total energy-change (2. order) : 0.7068844E-02  (-0.2014152E-02)
 number of electron   91.9999993 magnetization 
 augmentation part    -0.9556001 magnetization 

 Broyden mixing:
  rms(total) = 0.15220E-01    rms(broyden)= 0.15220E-01
  rms(prec ) = 0.27969E-01
  weight for this iteration     100.00

 eigenvalues of (default mixing * dielectric matrix)
  average eigenvalue GAMMA=   1.5241
  2.6106  1.8236  0.8310  0.8310

 Free energy of the ion-electron system (eV)
  ---------------------------------------------------
  alpha Z        PSCENC =        -7.38312591
  Ewald energy   TEWEN  =     -2179.22324318
  -1/2 Hartree   DENC   =       -30.78472081
  -exchange  EXHF       =         0.00000000
  -V(xc)+E(xc)   XCENC  =      -792.44390772
  PAW double counting   =      1077.37640969     -107.87812279
  entropy T*S    EENTRO =        -0.08919280
  eigenvalues    EBANDS =       313.51286772
  atomic energy  EATOM  =      1629.13144109
  ---------------------------------------------------
  free energy    TOTEN  =       -97.78159472 eV

  energy without entropy =      -97.69240192  energy(sigma->0) =      -97.75186378


--------------------------------------------------------------------------------------------------------




----------------------------------------- Iteration    1(  17)  ---------------------------------------


    POTLOK:  cpu time    1.92: real time    1.88
    SETDIJ:  cpu time    0.15: real time    0.15
    EDDIAG:  cpu time    1.95: real time    1.49
  RMM-DIIS:  cpu time   22.59: real time    6.74
    ORTHCH:  cpu time    0.16: real time    0.04
       DOS:  cpu time    0.00: real time    0.00
    CHARGE:  cpu time    1.13: real time    1.03
    MIXING:  cpu time    0.09: real time    0.06
    --------------------------------------------
      LOOP:  cpu time   28.04: real time   11.40

 eigenvalue-minimisations  :   134
 total energy-change (2. order) : 0.7257159E-03  (-0.6535892E-03)
 number of electron   91.9999993 magnetization 
 augmentation part    -0.9571106 magnetization 

 Broyden mixing:
  rms(total) = 0.54075E-02    rms(broyden)= 0.54074E-02
  rms(prec ) = 0.14300E-01
  weight for this iteration     100.00

 eigenvalues of (default mixing * dielectric matrix)
  average eigenvalue GAMMA=   1.4658
  2.6357  2.0462  0.9526  0.9526  0.7416

 Free energy of the ion-electron system (eV)
  ---------------------------------------------------
  alpha Z        PSCENC =        -7.38312591
  Ewald energy   TEWEN  =     -2179.22324318
  -1/2 Hartree   DENC   =       -30.78822551
  -exchange  EXHF       =         0.00000000
  -V(xc)+E(xc)   XCENC  =      -792.37604782
  PAW double counting   =      1077.60052359     -108.12523186
  entropy T*S    EENTRO =        -0.08904200
  eigenvalues    EBANDS =       313.47208259
  atomic energy  EATOM  =      1629.13144109
  ---------------------------------------------------
  free energy    TOTEN  =       -97.78086900 eV

  energy without entropy =      -97.69182700  energy(sigma->0) =      -97.75118833


--------------------------------------------------------------------------------------------------------




----------------------------------------- Iteration    1(  18)  ---------------------------------------


    POTLOK:  cpu time    1.95: real time    1.88
    SETDIJ:  cpu time    0.15: real time    0.15
    EDDIAG:  cpu time    1.95: real time    1.49
  RMM-DIIS:  cpu time   18.92: real time    5.75
    ORTHCH:  cpu time    0.16: real time    0.04
       DOS:  cpu time    0.00: real time    0.00
    CHARGE:  cpu time    1.13: real time    1.03
    MIXING:  cpu time    0.09: real time    0.06
    --------------------------------------------
      LOOP:  cpu time   24.36: real time   10.40

 eigenvalue-minimisations  :   112
 total energy-change (2. order) : 0.1326016E-03  (-0.7470425E-04)
 number of electron   91.9999993 magnetization 
 augmentation part    -0.9575240 magnetization 

 Broyden mixing:
  rms(total) = 0.24295E-02    rms(broyden)= 0.24295E-02
  rms(prec ) = 0.44387E-02
  weight for this iteration     100.00

 eigenvalues of (default mixing * dielectric matrix)
  average eigenvalue GAMMA=   1.4651
  2.6600  2.1495  1.4123  0.9181  0.9181  0.7324

 Free energy of the ion-electron system (eV)
  ---------------------------------------------------
  alpha Z        PSCENC =        -7.38312591
  Ewald energy   TEWEN  =     -2179.22324318
  -1/2 Hartree   DENC   =       -30.76685500
  -exchange  EXHF       =         0.00000000
  -V(xc)+E(xc)   XCENC  =      -792.36039522
  PAW double counting   =      1077.65932143     -108.19065040
  entropy T*S    EENTRO =        -0.08835749
  eigenvalues    EBANDS =       313.44112829
  atomic energy  EATOM  =      1629.13144109
  ---------------------------------------------------
  free energy    TOTEN  =       -97.78073640 eV

  energy without entropy =      -97.69237891  energy(sigma->0) =      -97.75128390


--------------------------------------------------------------------------------------------------------




----------------------------------------- Iteration    1(  19)  ---------------------------------------


    POTLOK:  cpu time    1.94: real time    1.88
    SETDIJ:  cpu time    0.15: real time    0.15
    EDDIAG:  cpu time    1.95: real time    1.49
  RMM-DIIS:  cpu time   15.02: real time    4.67
    ORTHCH:  cpu time    0.16: real time    0.04
       DOS:  cpu time    0.00: real time    0.00
    --------------------------------------------
      LOOP:  cpu time   19.24: real time    8.24

 eigenvalue-minimisations  :    89
 total energy-change (2. order) :-0.1498813E-04  (-0.2128025E-04)
 number of electron   91.9999993 magnetization 
 augmentation part    -0.9575240 magnetization 

 Free energy of the ion-electron system (eV)
  ---------------------------------------------------
  alpha Z        PSCENC =        -7.38312591
  Ewald energy   TEWEN  =     -2179.22324318
  -1/2 Hartree   DENC   =       -30.76880006
  -exchange  EXHF       =         0.00000000
  -V(xc)+E(xc)   XCENC  =      -792.35332219
  PAW double counting   =      1077.68505989     -108.21989209
  entropy T*S    EENTRO =        -0.08806581
  eigenvalues    EBANDS =       313.43919687
  atomic energy  EATOM  =      1629.13144109
  ---------------------------------------------------
  free energy    TOTEN  =       -97.78075139 eV

  energy without entropy =      -97.69268558  energy(sigma->0) =      -97.75139612


--------------------------------------------------------------------------------------------------------




 average (electrostatic) potential at core
  the test charge radii are     1.0714  1.0406
  (the norm of the test charge is              1.0000)
       1 -50.5774       2 -73.0929       3 -73.1769       4 -73.1715       5 -73.1715
       6 -72.7512       7 -72.9977       8 -73.1219       9 -73.1679      10 -72.7009
      11 -73.1715      12 -73.1715      13 -73.2114      14 -73.2586      15 -73.1219
      16 -73.1679      17 -72.7512      18 -72.9977      19 -73.1679      20 -73.1219
      21 -73.2001      22 -73.0217      23 -73.2456      24 -73.2456      25 -73.2114
      26 -73.2586      27 -73.1679      28 -73.1219      29 -73.0220      30 -73.2456
      31 -73.2456
 
 
 
 E-fermi :   7.8831     XC(G=0): -10.0094     alpha+bet :-14.3073
   add alpha+bet to get absolut eigen values

 k-point   1 :       0.0000    0.0000    0.0000
  band No.  band energies     occupation 
      1      -3.3463      2.00000
      2      -1.2310      2.00000
      3      -1.2107      2.00000
      4      -1.1966      2.00000
      5      -1.1841      2.00000
      6      -1.0224      2.00000
      7      -0.7235      2.00000
      8       0.9296      2.00000
      9       0.9542      2.00000
     10       0.9656      2.00000
     11       0.9839      2.00000
     12       1.0003      2.00000
     13       1.0335      2.00000
     14       1.0476      2.00000
     15       1.1024      2.00000
     16       1.1938      2.00000
     17       1.2242      2.00000
     18       1.5963      2.00000
     19       2.0407      2.00000
     20       3.0800      2.00000
     21       3.2139      2.00000
     22       3.2851      2.00000
     23       3.2864      2.00000
     24       3.2873      2.00000
     25       3.3501      2.00000
     26       3.6551      2.00000
     27       4.1349      2.00000
     28       4.8946      2.00000
     29       4.9321      2.00000
     30       4.9432      2.00000
     31       6.1282      2.00000
     32       6.2890      2.00000
     33       6.4323      2.00000
     34       6.7468      2.00000
     35       6.7783      2.00000
     36       6.7942      2.00000
     37       6.8047      2.00000
     38       6.8411      2.00000
     39       6.9050      2.00000
     40       6.9092      2.00000
     41       6.9886      2.00000
     42       7.0644      2.00000
     43       7.2750      2.00015
     44       7.2962      2.00027
     45       7.3471      2.00100
     46       7.8584      1.20713
     47       7.9634      0.37683
     48       7.9823      0.26409
     49       7.9862      0.24280
     50       8.0676     -0.03019
     51       8.0973     -0.06207
     52       8.7309      0.00000
     53       8.7524      0.00000
     54       8.7753      0.00000
     55       8.8167      0.00000
     56       8.8515      0.00000
     57       8.9196      0.00000
     58       8.9386      0.00000
     59       8.9747      0.00000
     60       9.1222      0.00000
     61       9.2002      0.00000
     62       9.3534      0.00000


--------------------------------------------------------------------------------------------------------


 soft charge-density along one line, spin component           1
         0         1         2         3         4         5         6         7         8         9
 total charge-density along one line
 
 pseudopotential strength for first ion, spin component:           1
  3.576  -0.045   0.000   0.000   0.000   0.000   0.000   0.000
 -0.045  -0.001   0.000   0.000   0.000   0.000   0.000   0.000
  0.000   0.000   0.745   0.000   0.000  -0.043   0.000   0.000
  0.000   0.000   0.000   0.745   0.000   0.000  -0.043   0.000
  0.000   0.000   0.000   0.000   0.745   0.000   0.000  -0.043
  0.000   0.000  -0.043   0.000   0.000  -0.031   0.000   0.000
  0.000   0.000   0.000  -0.043   0.000   0.000  -0.031   0.000
  0.000   0.000   0.000   0.000  -0.043   0.000   0.000  -0.031
 total augmentation occupancy for first ion, spin component:           1
  0.992  -0.061   0.000  -0.003  -0.003   0.000   0.001   0.001
 -0.061   0.005   0.000   0.004   0.004   0.000   0.000   0.000
  0.000   0.000   1.079   0.000   0.000   0.052   0.000   0.000
 -0.003   0.004   0.000   0.976  -0.065   0.000   0.047  -0.004
 -0.003   0.004   0.000  -0.065   0.976   0.000  -0.004   0.047
  0.000   0.000   0.052   0.000   0.000   0.003   0.000   0.000
  0.001   0.000   0.000   0.047  -0.004   0.000   0.003   0.000
  0.001   0.000   0.000  -0.004   0.047   0.000   0.000   0.003


------------------------ aborting loop because EDIFF is reached ----------------------------------------




--------------------------------------------------------------------------------------------------------



  FREE ENERGIE OF THE ION-ELECTRON SYSTEM (eV)
  ---------------------------------------------------
  free  energy   TOTEN  =       -97.780751 eV

  energy  without entropy=      -97.692686  energy(sigma->0) =      -97.751396
 
    CHARGE:  cpu time    1.03: real time    1.03
    FORLOC:  cpu time    0.74: real time    0.74
    FORNL :  cpu time    3.10: real time    3.10
    STRESS:  cpu time   16.72: real time    4.84
    FORCOR:  cpu time    2.57: real time    2.58
    FORHAR:  cpu time    1.16: real time    1.16
    MIXING:  cpu time    0.10: real time    0.06

  FORCE on cell =-STRESS in cart. coord.  units (eV):
  Direction    XX          YY          ZZ          XY          YZ          ZX
  --------------------------------------------------------------------------------------
  Alpha Z    -7.38313    -7.38313    -7.38313
  Ewald    -723.40017  -732.43188  -723.40017     0.00000     0.00000     5.60503
  Hartree    12.26969     6.27977    12.26969     0.00000     0.00000     2.83404
  E(xc)    -259.89009  -259.89732  -259.89009     0.00000     0.00000     0.06056
  Local     -15.95119    -0.13314   -15.95119     0.00000     0.00000    -7.71557
  n-local   548.48002   548.15163   548.48241     0.00087     0.00018    -0.41959
  augment   -25.68595   -25.70150   -25.68596     0.00000     0.00001     0.03975
  Kinetic   466.32425   468.87948   466.31749    -0.00123    -0.00083    -1.08471
  Fock        0.00000     0.00000     0.00000     0.00000     0.00000     0.00000
  -------------------------------------------------------------------------------------
  Total      -5.23875    -2.23608    -5.23875     0.00000     0.00000    -0.68048
  in kB     -15.86966    -6.77370   -15.86966     0.00000     0.00000    -2.06136
  external pressure =      -12.84 kB  Pullay stress =        0.00 kB


 VOLUME and BASIS-vectors are now :
 -----------------------------------------------------------------------------
  energy-cutoff  :      300.00
  volume of cell :      528.90
      direct lattice vectors                 reciprocal lattice vectors
     8.087054000  0.000000000  0.000000000     0.123654423  0.000000000  0.000000000
     0.000000000  8.087054000  0.000000000     0.000000000  0.123654423  0.000000000
     0.000000000  0.000000000  8.087054000     0.000000000  0.000000000  0.123654423

  length of vectors
     8.087054000  8.087054000  8.087054000     0.123654423  0.123654423  0.123654423


 FORCES acting on ions
    electron-ion (+dipol)            ewald-force                    non-local-force                 convergence-correction
 -----------------------------------------------------------------------------------------------
   -.655E+01 0.207E-13 -.655E+01   0.624E+01 -.777E-15 0.624E+01   0.407E+00 0.000E+00 0.407E+00   0.487E-02 0.652E-14 0.487E-02
   -.736E+00 0.348E-14 -.736E+00   0.705E+00 0.266E-14 0.705E+00   -.763E-01 0.000E+00 -.763E-01   0.191E-02 -.572E-14 0.191E-02
   -.210E+01 -.629E-13 -.210E+01   0.211E+01 0.466E-14 0.211E+01   0.524E-01 0.000E+00 0.524E-01   0.380E-02 -.114E-13 0.380E-02
   -.224E+01 -.505E+01 -.300E+01   0.211E+01 0.523E+01 0.312E+01   0.121E+00 -.368E+00 -.331E+00   0.419E-02 0.600E-02 0.208E-02
   -.300E+01 -.505E+01 -.224E+01   0.312E+01 0.523E+01 0.211E+01   -.331E+00 -.368E+00 0.121E+00   0.208E-02 0.600E-02 0.419E-02
   0.603E+00 -.146E-12 -.737E+00   -.705E+00 -.322E-14 0.705E+00   0.147E+00 0.000E+00 -.535E-01   -.131E-02 -.852E-14 0.790E-03
   0.229E+01 -.799E-13 -.210E+01   -.211E+01 -.266E-14 0.211E+01   -.134E+00 0.000E+00 -.292E-01   -.391E-02 -.182E-13 0.451E-02
   0.226E+01 -.289E+01 -.704E+00   -.211E+01 0.282E+01 0.705E+00   -.651E-01 -.193E-01 -.104E+00   -.468E-02 0.583E-02 0.139E-02
   0.271E+01 -.124E+02 -.935E+01   -.312E+01 0.125E+02 0.936E+01   0.596E+00 -.489E+00 -.116E+00   -.179E-02 0.104E-01 0.839E-02
   -.306E+01 -.125E-13 -.306E+01   0.312E+01 -.289E-14 0.312E+01   -.379E+00 0.000E+00 -.379E+00   0.208E-02 0.455E-14 0.208E-02
   -.224E+01 0.505E+01 -.300E+01   0.211E+01 -.523E+01 0.312E+01   0.121E+00 0.368E+00 -.331E+00   0.419E-02 -.600E-02 0.208E-02
   -.300E+01 0.505E+01 -.224E+01   0.312E+01 -.523E+01 0.211E+01   -.331E+00 0.368E+00 0.121E+00   0.208E-02 -.600E-02 0.419E-02
   0.291E+01 0.138E-12 -.292E+01   -.312E+01 0.322E-14 0.312E+01   0.394E+00 0.000E+00 -.402E+00   -.154E-02 0.633E-14 0.178E-02
   0.957E+01 -.596E-13 -.961E+01   -.936E+01 -.444E-14 0.936E+01   -.740E-01 0.000E+00 0.804E-01   -.864E-02 0.160E-13 0.833E-02
   0.226E+01 0.289E+01 -.704E+00   -.211E+01 -.282E+01 0.705E+00   -.651E-01 0.193E-01 -.104E+00   -.468E-02 -.583E-02 0.139E-02
   0.271E+01 0.124E+02 -.935E+01   -.312E+01 -.125E+02 0.936E+01   0.596E+00 0.489E+00 -.116E+00   -.179E-02 -.104E-01 0.839E-02
   -.737E+00 -.903E-15 0.603E+00   0.705E+00 0.222E-14 -.705E+00   -.535E-01 0.000E+00 0.147E+00   0.789E-03 -.486E-14 -.131E-02
   -.210E+01 0.216E-13 0.229E+01   0.211E+01 0.389E-14 -.211E+01   -.292E-01 -.203E-19 -.134E+00   0.451E-02 0.283E-14 -.391E-02
   -.935E+01 -.124E+02 0.271E+01   0.936E+01 0.125E+02 -.312E+01   -.116E+00 -.489E+00 0.596E+00   0.839E-02 0.104E-01 -.179E-02
   -.704E+00 -.289E+01 0.226E+01   0.705E+00 0.282E+01 -.211E+01   -.104E+00 -.193E-01 -.651E-01   0.139E-02 0.583E-02 -.468E-02
   0.622E+00 -.349E-13 0.622E+00   -.705E+00 -.144E-14 -.705E+00   0.730E-01 0.000E+00 0.730E-01   -.616E-03 -.771E-14 -.616E-03
   0.228E+01 0.541E-13 0.228E+01   -.211E+01 -.322E-14 -.211E+01   -.142E+00 0.000E+00 -.142E+00   -.506E-02 0.570E-15 -.506E-02
   0.967E+01 -.102E+02 0.737E+00   -.936E+01 0.101E+02 -.705E+00   -.169E+00 -.501E-02 0.180E-01   -.859E-02 0.960E-02 -.106E-02
   0.737E+00 -.102E+02 0.967E+01   -.705E+00 0.101E+02 -.936E+01   0.180E-01 -.501E-02 -.169E+00   -.106E-02 0.959E-02 -.859E-02
   -.292E+01 -.739E-14 0.291E+01   0.312E+01 -.244E-14 -.312E+01   -.402E+00 0.169E-20 0.394E+00   0.178E-02 0.418E-14 -.155E-02
   -.961E+01 -.699E-13 0.957E+01   0.936E+01 -.389E-14 -.936E+01   0.804E-01 0.000E+00 -.740E-01   0.833E-02 -.343E-14 -.865E-02
   -.935E+01 0.124E+02 0.271E+01   0.936E+01 -.125E+02 -.312E+01   -.116E+00 0.489E+00 0.596E+00   0.839E-02 -.104E-01 -.179E-02
   -.704E+00 0.289E+01 0.226E+01   0.705E+00 -.282E+01 -.211E+01   -.104E+00 0.193E-01 -.651E-01   0.139E-02 -.583E-02 -.468E-02
   0.971E+01 0.601E-13 0.971E+01   -.936E+01 0.322E-14 -.936E+01   -.108E+00 0.000E+00 -.108E+00   -.877E-02 -.208E-14 -.877E-02
   0.967E+01 0.102E+02 0.737E+00   -.936E+01 -.101E+02 -.705E+00   -.169E+00 0.501E-02 0.180E-01   -.859E-02 -.960E-02 -.106E-02
   0.737E+00 0.102E+02 0.967E+01   -.705E+00 -.101E+02 -.936E+01   0.180E-01 0.501E-02 -.169E+00   -.106E-02 -.959E-02 -.859E-02
 -----------------------------------------------------------------------------------------------
   0.346E+00 0.234E-13 0.346E+00   0.173E-13 -.142E-13 0.213E-13   -.345E+00 -.104E-15 -.345E+00   -.191E-02 -.107E-13 -.191E-02
 
 
 POSITION                                       TOTAL-FORCE (eV/Angst)
 -----------------------------------------------------------------------------------
      2.02176      4.04353      2.02176         0.103446      0.000000      0.103446
      0.00000      0.00000      0.00000        -0.105379      0.000000     -0.105379
      2.02176      0.00000      2.02176         0.070650      0.000000      0.070650
      2.02176      2.02176      0.00000         0.002190     -0.177776     -0.205847
      0.00000      2.02176      2.02176        -0.205847     -0.177776      0.002190
      4.04353      0.00000      0.00000         0.044554      0.000000     -0.084971
      6.06529      0.00000      2.02176         0.038982      0.000000     -0.010284
      6.06529      2.02176      0.00000         0.075897     -0.084317     -0.101463
      4.04353      2.02176      2.02176         0.180406     -0.394000     -0.104691
      0.00000      4.04353      0.00000        -0.317212      0.000000     -0.317212
      2.02176      6.06529      0.00000         0.002190      0.177776     -0.205847
      0.00000      6.06529      2.02176        -0.205847      0.177776      0.002190
      4.04353      4.04353      0.00000         0.186619      0.000000     -0.199329
      6.06529      4.04353      2.02176         0.132629      0.000000     -0.164884
      6.06529      6.06529      0.00000         0.075897      0.084317     -0.101463
      4.04353      6.06529      2.02176         0.180406      0.394000     -0.104691
      0.00000      0.00000      4.04353        -0.084971      0.000000      0.044554
      2.02176      0.00000      6.06529        -0.010284      0.000000      0.038982
      2.02176      2.02176      4.04353        -0.104691     -0.394000      0.180406
      0.00000      2.02176      6.06529        -0.101463     -0.084317      0.075897
      4.04353      0.00000      4.04353        -0.010231      0.000000     -0.010231
      6.06529      0.00000      6.06529         0.015199      0.000000      0.015199
      6.06529      2.02176      4.04353         0.133978     -0.173906      0.049761
      4.04353      2.02176      6.06529         0.049761     -0.173906      0.133978
      0.00000      4.04353      4.04353        -0.199329      0.000000      0.186619
      2.02176      4.04353      6.06529        -0.164884      0.000000      0.132629
      2.02176      6.06529      4.04353        -0.104691      0.394000      0.180406
      0.00000      6.06529      6.06529        -0.101463      0.084317      0.075897
      6.06529      4.04353      6.06529         0.239750      0.000000      0.239750
      6.06529      6.06529      4.04353         0.133978      0.173906      0.049761
      4.04353      6.06529      6.06529         0.049761      0.173906      0.133978
 -----------------------------------------------------------------------------------
    total drift:                               -0.000502      0.000000     -0.000502


--------------------------------------------------------------------------------------------------------


    POTLOK:  cpu time    2.09: real time    2.04


--------------------------------------------------------------------------------------------------------


  FORCES: max atom, RMS     0.448606    0.255080
  FORCE total and by dimension    1.420226    0.394000


--------------------------------------------------------------------------------------------------------


    WAVPRE:  cpu time    0.86: real time    0.87
    FEWALD:  cpu time    0.01: real time    0.01
    ORTHCH:  cpu time    1.96: real time    0.51
     LOOP+:  cpu time  412.24: real time  168.03
   RESPFUN:  cpu time    0.00: real time    0.00


----------------------------------------- Iteration    2(   1)  ---------------------------------------


    POTLOK:  cpu time    1.98: real time    1.88
    SETDIJ:  cpu time    0.15: real time    0.15
    EDDIAG:  cpu time    1.95: real time    1.49
  RMM-DIIS:  cpu time   20.59: real time    6.28
    ORTHCH:  cpu time    0.16: real time    0.04
       DOS:  cpu time    0.00: real time    0.00
    CHARGE:  cpu time    1.12: real time    1.03
    MIXING:  cpu time    0.05: real time    0.05
    --------------------------------------------
      LOOP:  cpu time   26.01: real time   10.92

 eigenvalue-minimisations  :   124
 total energy-change (2. order) :-0.1040437E+00  (-0.7187109E-01)
 number of electron   91.9999994 magnetization 
 augmentation part    -0.9577002 magnetization 

 Broyden mixing:
  rms(total) = 0.34440E-01    rms(broyden)= 0.34439E-01
  rms(prec ) = 0.10817E+00
  weight for this iteration     100.00

 Free energy of the ion-electron system (eV)
  ---------------------------------------------------
  alpha Z        PSCENC =        -7.38312591
  Ewald energy   TEWEN  =     -2176.19091807
  -1/2 Hartree   DENC   =       -33.38205508
  -exchange  EXHF       =         0.00000000
  -V(xc)+E(xc)   XCENC  =      -792.29524511
  PAW double counting   =      1077.69793268     -108.23505129
  entropy T*S    EENTRO =        -0.04840336
  eigenvalues    EBANDS =       312.82064497
  atomic energy  EATOM  =      1629.13144109
  ---------------------------------------------------
  free energy    TOTEN  =       -97.88478007 eV

  energy without entropy =      -97.83637671  energy(sigma->0) =      -97.86864562


--------------------------------------------------------------------------------------------------------




----------------------------------------- Iteration    2(   2)  ---------------------------------------


    POTLOK:  cpu time    1.74: real time    1.74
    SETDIJ:  cpu time    0.15: real time    0.15
    EDDIAG:  cpu time    1.96: real time    1.49
  RMM-DIIS:  cpu time   20.47: real time    6.20
    ORTHCH:  cpu time    0.16: real time    0.04
       DOS:  cpu time    0.00: real time    0.00
    CHARGE:  cpu time    1.12: real time    1.02
    MIXING:  cpu time    0.05: real time    0.05
    --------------------------------------------
      LOOP:  cpu time   25.66: real time   10.70

 eigenvalue-minimisations  :   124
 total energy-change (2. order) : 0.1237792E-01  (-0.3774247E-02)
 number of electron   91.9999994 magnetization 
 augmentation part    -0.9572814 magnetization 

 Broyden mixing:
  rms(total) = 0.81409E-02    rms(broyden)= 0.81405E-02
  rms(prec ) = 0.18275E-01
  weight for this iteration     100.00

 eigenvalues of (default mixing * dielectric matrix)
  average eigenvalue GAMMA=   1.0643
  1.0643

 Free energy of the ion-electron system (eV)
  ---------------------------------------------------
  alpha Z        PSCENC =        -7.38312591
  Ewald energy   TEWEN  =     -2176.19091807
  -1/2 Hartree   DENC   =       -33.63551342
  -exchange  EXHF       =         0.00000000
  -V(xc)+E(xc)   XCENC  =      -792.29381332
  PAW double counting   =      1077.73232408     -108.26996885
  entropy T*S    EENTRO =        -0.06466157
  eigenvalues    EBANDS =       313.10183381
  atomic energy  EATOM  =      1629.13144109
  ---------------------------------------------------
  free energy    TOTEN  =       -97.87240215 eV

  energy without entropy =      -97.80774057  energy(sigma->0) =      -97.85084829


--------------------------------------------------------------------------------------------------------




----------------------------------------- Iteration    2(   3)  ---------------------------------------


    POTLOK:  cpu time    1.75: real time    1.75
    SETDIJ:  cpu time    0.15: real time    0.15
    EDDIAG:  cpu time    1.97: real time    1.49
  RMM-DIIS:  cpu time   22.54: real time    6.64
    ORTHCH:  cpu time    0.16: real time    0.04
       DOS:  cpu time    0.00: real time    0.00
    CHARGE:  cpu time    1.12: real time    1.02
    MIXING:  cpu time    0.06: real time    0.05
    --------------------------------------------
      LOOP:  cpu time   27.77: real time   11.16

 eigenvalue-minimisations  :   134
 total energy-change (2. order) : 0.1514404E-03  (-0.2595418E-03)
 number of electron   91.9999994 magnetization 
 augmentation part    -0.9572826 magnetization 

 Broyden mixing:
  rms(total) = 0.45030E-02    rms(broyden)= 0.45029E-02
  rms(prec ) = 0.78618E-02
  weight for this iteration     100.00

 eigenvalues of (default mixing * dielectric matrix)
  average eigenvalue GAMMA=   1.2567
  0.9450  1.5683

 Free energy of the ion-electron system (eV)
  ---------------------------------------------------
  alpha Z        PSCENC =        -7.38312591
  Ewald energy   TEWEN  =     -2176.19091807
  -1/2 Hartree   DENC   =       -33.66505023
  -exchange  EXHF       =         0.00000000
  -V(xc)+E(xc)   XCENC  =      -792.29336273
  PAW double counting   =      1077.74107280     -108.27925000
  entropy T*S    EENTRO =        -0.06645073
  eigenvalues    EBANDS =       313.13339306
  atomic energy  EATOM  =      1629.13144109
  ---------------------------------------------------
  free energy    TOTEN  =       -97.87225071 eV

  energy without entropy =      -97.80579998  energy(sigma->0) =      -97.85010047


--------------------------------------------------------------------------------------------------------




----------------------------------------- Iteration    2(   4)  ---------------------------------------


    POTLOK:  cpu time    1.77: real time    1.75
    SETDIJ:  cpu time    0.15: real time    0.15
    EDDIAG:  cpu time    2.01: real time    1.51
  RMM-DIIS:  cpu time   13.09: real time    4.16
    ORTHCH:  cpu time    0.16: real time    0.04
       DOS:  cpu time    0.00: real time    0.00
    --------------------------------------------
      LOOP:  cpu time   17.19: real time    7.60

 eigenvalue-minimisations  :    79
 total energy-change (2. order) : 0.2666490E-04  (-0.2104398E-04)
 number of electron   91.9999994 magnetization 
 augmentation part    -0.9572826 magnetization 

 Free energy of the ion-electron system (eV)
  ---------------------------------------------------
  alpha Z        PSCENC =        -7.38312591
  Ewald energy   TEWEN  =     -2176.19091807
  -1/2 Hartree   DENC   =       -33.68142455
  -exchange  EXHF       =         0.00000000
  -V(xc)+E(xc)   XCENC  =      -792.29309641
  PAW double counting   =      1077.74677621     -108.28531997
  entropy T*S    EENTRO =        -0.06652957
  eigenvalues    EBANDS =       313.14997314
  atomic energy  EATOM  =      1629.13144109
  ---------------------------------------------------
  free energy    TOTEN  =       -97.87222404 eV

  energy without entropy =      -97.80569448  energy(sigma->0) =      -97.85004752


--------------------------------------------------------------------------------------------------------




 average (electrostatic) potential at core
  the test charge radii are     1.0714  1.0406
  (the norm of the test charge is              1.0000)
       1 -50.6378       2 -73.0835       3 -73.1793       4 -73.1823       5 -73.1823
       6 -72.7236       7 -72.9745       8 -73.1040       9 -73.1839      10 -72.6869
      11 -73.1823      12 -73.1823      13 -73.2365      14 -73.2753      15 -73.1040
      16 -73.1839      17 -72.7236      18 -72.9745      19 -73.1839      20 -73.1040
      21 -73.1986      22 -72.9899      23 -73.2428      24 -73.2428      25 -73.2365
      26 -73.2753      27 -73.1839      28 -73.1040      29 -72.9982      30 -73.2428
      31 -73.2428
 
 
 
 E-fermi :   7.8703     XC(G=0): -10.0076     alpha+bet :-14.3073
   add alpha+bet to get absolut eigen values

 k-point   1 :       0.0000    0.0000    0.0000
  band No.  band energies     occupation 
      1      -3.3551      2.00000
      2      -1.2380      2.00000
      3      -1.2340      2.00000
      4      -1.2072      2.00000
      5      -1.1896      2.00000
      6      -1.0144      2.00000
      7      -0.7236      2.00000
[...]
  free energy    TOTEN  =       -98.19061594 eV

  energy without entropy =      -98.27163690  energy(sigma->0) =      -98.21762293


--------------------------------------------------------------------------------------------------------




----------------------------------------- Iteration    6(   3)  ---------------------------------------


    POTLOK:  cpu time    1.74: real time    1.74
    SETDIJ:  cpu time    0.15: real time    0.15
    EDDIAG:  cpu time    2.01: real time    1.50
  RMM-DIIS:  cpu time   21.41: real time    6.45
    ORTHCH:  cpu time    0.16: real time    0.04
       DOS:  cpu time    0.00: real time    0.00
    CHARGE:  cpu time    1.12: real time    1.02
    MIXING:  cpu time    0.06: real time    0.05
    --------------------------------------------
      LOOP:  cpu time   26.67: real time   10.97

 eigenvalue-minimisations  :   129
 total energy-change (2. order) : 0.8707730E-03  (-0.3242391E-03)
 number of electron   91.9999999 magnetization 
 augmentation part    -0.9521887 magnetization 

 Broyden mixing:
  rms(total) = 0.57235E-02    rms(broyden)= 0.57234E-02
  rms(prec ) = 0.10309E-01
  weight for this iteration     100.00

 eigenvalues of (default mixing * dielectric matrix)
  average eigenvalue GAMMA=   1.3145
  1.7090  0.9199

 Free energy of the ion-electron system (eV)
  ---------------------------------------------------
  alpha Z        PSCENC =        -7.38312591
  Ewald energy   TEWEN  =     -2141.88335956
  -1/2 Hartree   DENC   =       -65.54325836
  -exchange  EXHF       =         0.00000000
  -V(xc)+E(xc)   XCENC  =      -791.67361178
  PAW double counting   =      1079.61530086     -110.23520403
  entropy T*S    EENTRO =         0.08231190
  eigenvalues    EBANDS =       309.69976061
  atomic energy  EATOM  =      1629.13144109
  ---------------------------------------------------
  free energy    TOTEN  =       -98.18974517 eV

  energy without entropy =      -98.27205706  energy(sigma->0) =      -98.21718247


--------------------------------------------------------------------------------------------------------




----------------------------------------- Iteration    6(   4)  ---------------------------------------


    POTLOK:  cpu time    1.78: real time    1.76
    SETDIJ:  cpu time    0.15: real time    0.15
    EDDIAG:  cpu time    1.99: real time    1.50
  RMM-DIIS:  cpu time   18.36: real time    5.57
    ORTHCH:  cpu time    0.16: real time    0.04
       DOS:  cpu time    0.00: real time    0.00
    --------------------------------------------
      LOOP:  cpu time   22.45: real time    9.02

 eigenvalue-minimisations  :   110
 total energy-change (2. order) : 0.9406524E-04  (-0.7679304E-04)
 number of electron   91.9999999 magnetization 
 augmentation part    -0.9521887 magnetization 

 Free energy of the ion-electron system (eV)
  ---------------------------------------------------
  alpha Z        PSCENC =        -7.38312591
  Ewald energy   TEWEN  =     -2141.88335956
  -1/2 Hartree   DENC   =       -65.52642892
  -exchange  EXHF       =         0.00000000
  -V(xc)+E(xc)   XCENC  =      -791.67562443
  PAW double counting   =      1079.57864971     -110.19672129
  entropy T*S    EENTRO =         0.08294537
  eigenvalues    EBANDS =       309.68257285
  atomic energy  EATOM  =      1629.13144109
  ---------------------------------------------------
  free energy    TOTEN  =       -98.18965110 eV

  energy without entropy =      -98.27259647  energy(sigma->0) =      -98.21729956


--------------------------------------------------------------------------------------------------------




 average (electrostatic) potential at core
  the test charge radii are     1.0714  1.0406
  (the norm of the test charge is              1.0000)
       1 -51.0455       2 -72.9247       3 -73.2460       4 -73.2556       5 -73.2556
       6 -72.5447       7 -72.7936       8 -72.9744       9 -73.2603      10 -72.5908
      11 -73.2556      12 -73.2556      13 -73.3633      14 -73.3751      15 -72.9744
      16 -73.2603      17 -72.5447      18 -72.7936      19 -73.2603      20 -72.9744
      21 -73.2099      22 -72.7334      23 -73.2354      24 -73.2354      25 -73.3633
      26 -73.3751      27 -73.2603      28 -72.9744      29 -72.8394      30 -73.2354
      31 -73.2354
 
 
 
 E-fermi :   7.7183     XC(G=0):  -9.9875     alpha+bet :-14.3073
   add alpha+bet to get absolut eigen values

 k-point   1 :       0.0000    0.0000    0.0000
  band No.  band energies     occupation 
      1      -3.4553      2.00000
      2      -1.3655      2.00000
      3      -1.3613      2.00000
      4      -1.2909      2.00000
      5      -1.2502      2.00000
      6      -1.0487      2.00000
      7      -0.7336      2.00000
      8       0.7447      2.00000
      9       0.8179      2.00000
     10       0.8506      2.00000
     11       0.8605      2.00000
     12       0.9300      2.00000
     13       1.0392      2.00000
     14       1.0427      2.00000
     15       1.0638      2.00000
     16       1.2135      2.00000
     17       1.2426      2.00000
     18       1.6874      2.00000
     19       2.0770      2.00000
     20       3.0572      2.00000
     21       3.2067      2.00000
     22       3.2696      2.00000
     23       3.2720      2.00000
     24       3.3541      2.00000
     25       3.4277      2.00000
     26       3.8032      2.00000
     27       4.3731      2.00000
     28       4.7867      2.00000
     29       4.8501      2.00000
     30       4.8684      2.00000
     31       6.0292      2.00000
     32       6.2277      2.00000
     33       6.3844      2.00000
     34       6.6059      2.00000
     35       6.6124      2.00000
     36       6.7018      2.00000
     37       6.7598      2.00000
     38       6.7644      2.00000
     39       6.7796      2.00000
     40       6.9322      2.00000
     41       6.9735      2.00000
     42       7.1144      2.00017
     43       7.3048      2.01278
     44       7.3177      2.01583
     45       7.4358      2.06258
     46       7.5810      1.91040
     47       7.8523      0.10206
     48       7.8848      0.00434
     49       7.9522     -0.06990
     50       8.0802     -0.02813
     51       8.1451     -0.01013
     52       8.6668      0.00000
     53       8.6878      0.00000
     54       8.7030      0.00000
     55       8.7198      0.00000
     56       8.7325      0.00000
     57       8.8118      0.00000
     58       8.8501      0.00000
     59       8.9071      0.00000
     60       9.1296      0.00000
     61       9.1912      0.00000
     62       9.2386      0.00000


--------------------------------------------------------------------------------------------------------


 soft charge-density along one line, spin component           1
         0         1         2         3         4         5         6         7         8         9
 total charge-density along one line
 
 pseudopotential strength for first ion, spin component:           1
  3.566  -0.039   0.000   0.000   0.000   0.000   0.000   0.000
 -0.039  -0.003   0.000   0.000   0.000   0.000   0.000   0.000
  0.000   0.000   0.738   0.000   0.000  -0.040   0.000   0.000
  0.000   0.000   0.000   0.738   0.000   0.000  -0.040   0.000
  0.000   0.000   0.000   0.000   0.738   0.000   0.000  -0.040
  0.000   0.000  -0.040   0.000   0.000  -0.032   0.000   0.000
  0.000   0.000   0.000  -0.040   0.000   0.000  -0.032   0.000
  0.000   0.000   0.000   0.000  -0.040   0.000   0.000  -0.032
 total augmentation occupancy for first ion, spin component:           1
  1.000  -0.057   0.000   0.000   0.000   0.000  -0.001  -0.001
 -0.057   0.004   0.000   0.004   0.004   0.000   0.000   0.000
  0.000   0.000   0.871   0.000   0.000   0.028   0.000   0.000
  0.000   0.004   0.000   0.758  -0.034   0.000   0.025  -0.003
  0.000   0.004   0.000  -0.034   0.758   0.000  -0.003   0.025
  0.000   0.000   0.028   0.000   0.000   0.001   0.000   0.000
 -0.001   0.000   0.000   0.025  -0.003   0.000   0.001   0.000
 -0.001   0.000   0.000  -0.003   0.025   0.000   0.000   0.001


------------------------ aborting loop because EDIFF is reached ----------------------------------------




--------------------------------------------------------------------------------------------------------



  FREE ENERGIE OF THE ION-ELECTRON SYSTEM (eV)
  ---------------------------------------------------
  free  energy   TOTEN  =       -98.189651 eV

  energy  without entropy=      -98.272596  energy(sigma->0) =      -98.217300
 
    CHARGE:  cpu time    1.03: real time    1.03
    FORLOC:  cpu time    0.74: real time    0.74
    FORNL :  cpu time    3.10: real time    3.10
    STRESS:  cpu time   16.73: real time    4.84
    FORCOR:  cpu time    2.57: real time    2.57
    FORHAR:  cpu time    1.16: real time    1.16
    MIXING:  cpu time    0.07: real time    0.06

  FORCE on cell =-STRESS in cart. coord.  units (eV):
  Direction    XX          YY          ZZ          XY          YZ          ZX
  --------------------------------------------------------------------------------------
  Alpha Z    -7.38313    -7.38313    -7.38313
  Ewald    -703.51117  -734.86943  -703.51117     0.00000     0.00000     4.99881
  Hartree    29.38184     6.82086    29.38184     0.00000     0.00000     3.71944
  E(xc)    -260.91128  -260.84545  -260.91128     0.00000     0.00000     0.09647
  Local     -54.98668     0.80982   -54.98668     0.00000     0.00000    -8.39245
  n-local   551.38976   549.97750   551.38988    -0.00015     0.00009    -0.77913
  augment   -25.51610   -25.46307   -25.51611     0.00000     0.00001     0.05881
  Kinetic   468.51478   473.28802   468.51418     0.00032    -0.00054    -1.85464
  Fock        0.00000     0.00000     0.00000     0.00000     0.00000     0.00000
  -------------------------------------------------------------------------------------
  Total      -3.02223     2.33513    -3.02223     0.00000     0.00000    -2.15268
  in kB      -9.15517     7.07375    -9.15517     0.00000     0.00000    -6.52107
  external pressure =       -3.75 kB  Pullay stress =        0.00 kB


 VOLUME and BASIS-vectors are now :
 -----------------------------------------------------------------------------
  energy-cutoff  :      300.00
  volume of cell :      528.90
      direct lattice vectors                 reciprocal lattice vectors
     8.087054000  0.000000000  0.000000000     0.123654423  0.000000000  0.000000000
     0.000000000  8.087054000  0.000000000     0.000000000  0.123654423  0.000000000
     0.000000000  0.000000000  8.087054000     0.000000000  0.000000000  0.123654423

  length of vectors
     8.087054000  8.087054000  8.087054000     0.123654423  0.123654423  0.123654423


 FORCES acting on ions
    electron-ion (+dipol)            ewald-force                    non-local-force                 convergence-correction
 -----------------------------------------------------------------------------------------------
   -.731E+01 0.112E-13 -.731E+01   0.709E+01 -.219E-14 0.709E+01   0.317E+00 0.000E+00 0.317E+00   0.197E-02 -.224E-14 0.197E-02
   -.564E+01 -.399E-14 -.564E+01   0.475E+01 0.661E-14 0.475E+01   0.808E+00 0.000E+00 0.808E+00   -.622E-04 0.409E-13 -.614E-04
   -.195E+01 -.282E-13 -.195E+01   0.217E+01 0.161E-14 0.217E+01   -.140E+00 0.000E+00 -.140E+00   -.346E-02 0.110E-13 -.346E-02
   -.402E+01 -.139E+02 -.100E+02   0.368E+01 0.131E+02 0.898E+01   0.375E+00 0.938E+00 0.106E+01   -.535E-03 0.107E-01 0.333E-03
   -.100E+02 -.139E+02 -.402E+01   0.898E+01 0.131E+02 0.368E+01   0.106E+01 0.938E+00 0.375E+00   0.332E-03 0.107E-01 -.533E-03
   0.437E+01 0.103E-12 -.276E+01   -.436E+01 -.816E-14 0.241E+01   -.125E+00 -.678E-20 0.225E+00   -.226E-03 0.582E-13 0.199E-02
   0.328E+01 0.810E-13 -.493E+01   -.275E+01 0.572E-14 0.469E+01   -.400E+00 0.000E+00 0.288E+00   0.351E-02 0.890E-13 -.526E-02
   0.384E+01 -.801E+01 -.411E+01   -.357E+01 0.742E+01 0.376E+01   -.238E+00 0.586E+00 0.370E+00   0.312E-02 0.803E-02 0.302E-02
   0.943E+01 -.232E+02 -.124E+02   -.880E+01 0.215E+02 0.119E+02   -.678E+00 0.181E+01 0.532E+00   -.694E-03 0.176E-01 -.564E-03
   -.112E+02 -.233E-13 -.112E+02   0.999E+01 0.194E-14 0.999E+01   0.122E+01 0.000E+00 0.122E+01   -.208E-02 -.353E-13 -.208E-02
   -.402E+01 0.139E+02 -.100E+02   0.368E+01 -.131E+02 0.898E+01   0.375E+00 -.938E+00 0.106E+01   -.535E-03 -.107E-01 0.333E-03
   -.100E+02 0.139E+02 -.402E+01   0.898E+01 -.131E+02 0.368E+01   0.106E+01 -.938E+00 0.375E+00   0.332E-03 -.107E-01 -.533E-03
   0.127E+02 0.315E-12 -.847E+01   -.110E+02 0.111E-14 0.764E+01   -.167E+01 0.000E+00 0.862E+00   -.658E-02 -.435E-13 0.519E-02
   0.122E+02 -.909E-13 -.159E+02   -.115E+02 0.311E-14 0.142E+02   -.702E+00 0.000E+00 0.166E+01   -.318E-02 -.743E-13 0.483E-02
   0.384E+01 0.801E+01 -.411E+01   -.357E+01 -.742E+01 0.376E+01   -.238E+00 -.586E+00 0.370E+00   0.312E-02 -.803E-02 0.302E-02
   0.943E+01 0.232E+02 -.124E+02   -.880E+01 -.215E+02 0.119E+02   -.678E+00 -.181E+01 0.532E+00   -.694E-03 -.176E-01 -.564E-03
   -.276E+01 0.351E-15 0.437E+01   0.241E+01 -.123E-13 -.436E+01   0.225E+00 0.678E-20 -.125E+00   0.199E-02 0.165E-13 -.227E-03
   -.493E+01 -.519E-13 0.328E+01   0.469E+01 0.239E-14 -.275E+01   0.288E+00 -.169E-20 -.400E+00   -.526E-02 0.839E-14 0.351E-02
   -.124E+02 -.232E+02 0.943E+01   0.119E+02 0.215E+02 -.880E+01   0.532E+00 0.181E+01 -.678E+00   -.566E-03 0.176E-01 -.695E-03
   -.411E+01 -.801E+01 0.384E+01   0.376E+01 0.742E+01 -.357E+01   0.370E+00 0.586E+00 -.238E+00   0.302E-02 0.803E-02 0.311E-02
   0.216E+01 -.475E-13 0.216E+01   -.238E+01 0.655E-14 -.238E+01   0.887E-01 0.000E+00 0.887E-01   -.263E-02 -.486E-13 -.263E-02
   0.523E+01 -.585E-13 0.523E+01   -.458E+01 -.239E-14 -.458E+01   -.477E+00 0.000E+00 -.477E+00   0.607E-02 -.201E-13 0.606E-02
   0.139E+02 -.171E+02 0.519E+01   -.128E+02 0.164E+02 -.458E+01   -.110E+01 0.814E+00 -.704E+00   0.204E-02 0.148E-01 -.594E-02
   0.519E+01 -.171E+02 0.139E+02   -.458E+01 0.164E+02 -.128E+02   -.704E+00 0.814E+00 -.110E+01   -.594E-02 0.148E-01 0.204E-02
   -.847E+01 -.137E-13 0.127E+02   0.764E+01 -.361E-14 -.110E+02   0.862E+00 0.000E+00 -.167E+01   0.519E-02 -.194E-13 -.658E-02
   -.159E+02 -.436E-13 0.122E+02   0.142E+02 -.527E-14 -.115E+02   0.166E+01 0.000E+00 -.702E+00   0.482E-02 -.141E-13 -.318E-02
   -.124E+02 0.232E+02 0.943E+01   0.119E+02 -.215E+02 -.880E+01   0.532E+00 -.181E+01 -.678E+00   -.566E-03 -.176E-01 -.695E-03
   -.411E+01 0.801E+01 0.384E+01   0.376E+01 -.742E+01 -.357E+01   0.370E+00 -.586E+00 -.238E+00   0.302E-02 -.803E-02 0.311E-02
   0.148E+02 -.126E-12 0.148E+02   -.135E+02 -.200E-14 -.135E+02   -.121E+01 0.000E+00 -.121E+01   0.310E-02 0.967E-14 0.310E-02
   0.139E+02 0.171E+02 0.519E+01   -.128E+02 -.164E+02 -.458E+01   -.110E+01 -.814E+00 -.704E+00   0.204E-02 -.148E-01 -.594E-02
   0.519E+01 0.171E+02 0.139E+02   -.458E+01 -.164E+02 -.128E+02   -.704E+00 -.814E+00 -.110E+01   -.594E-02 -.148E-01 0.204E-02
 -----------------------------------------------------------------------------------------------
   0.591E-02 -.325E-12 0.591E-02   -.258E-13 -.355E-14 0.142E-13   -.994E-02 -.888E-15 -.994E-02   0.471E-02 -.292E-13 0.471E-02
 
 
 POSITION                                       TOTAL-FORCE (eV/Angst)
 -----------------------------------------------------------------------------------
      2.06888      4.04353      2.06888         0.098054      0.000000      0.098054
     -0.04485      0.00000     -0.04485        -0.079739      0.000000     -0.079739
      2.02481      0.00000      2.02481         0.072461      0.000000      0.072461
      2.00765      1.93925     -0.07352         0.030631      0.059830     -0.005264
     -0.07352      1.93925      2.00765        -0.005264      0.059830      0.030631
      4.07475      0.00000     -0.04220        -0.107368      0.000000     -0.120654
      6.10059      0.00000      1.99507         0.136719      0.000000      0.043840
      6.08724      1.96906     -0.03796         0.037235      0.003835      0.027752
      4.13400      1.84881      1.95538        -0.045534      0.068680      0.009275
     -0.08109      4.04353     -0.08109        -0.018607      0.000000     -0.018607
      2.00765      6.14781     -0.07352         0.030631     -0.059830     -0.005264
     -0.07352      6.14781      2.00765        -0.005264     -0.059830      0.030631
      4.15632      4.04353     -0.09233         0.099431      0.000000      0.038894
      6.11611      4.04353      1.93419        -0.072263      0.000000     -0.004367
      6.08724      6.11799     -0.03796         0.037235     -0.003835      0.027752
      4.13400      6.23824      1.95538        -0.045534     -0.068680      0.009275
     -0.04220      0.00000      4.07475        -0.120654      0.000000     -0.107368
      1.99507      0.00000      6.10059         0.043840      0.000000      0.136719
      1.95538      1.84881      4.13400         0.009275      0.068680     -0.045534
     -0.03796      1.96906      6.08724         0.027752      0.003835      0.037235
      4.05867      0.00000      4.05867        -0.132146      0.000000     -0.132146
      6.08281      0.00000      6.08281         0.171449      0.000000      0.171449
      6.10793      1.96038      4.08632        -0.045969      0.117634     -0.097523
      4.08632      1.96038      6.10793        -0.097523      0.117634     -0.045969
     -0.09233      4.04353      4.15632         0.038894      0.000000      0.099431
      1.93419      4.04353      6.11611        -0.004367      0.000000     -0.072263
      1.95538      6.23824      4.13400         0.009275     -0.068680     -0.045534
     -0.03796      6.11799      6.08724         0.027752     -0.003835      0.037235
      6.11533      4.04353      6.11533         0.053089      0.000000      0.053089
      6.10793      6.12668      4.08632        -0.045969     -0.117634     -0.097523
      4.08632      6.12668      6.10793        -0.097523     -0.117634     -0.045969
 -----------------------------------------------------------------------------------
    total drift:                                0.000685      0.000000      0.000684
 d Force = 0.2867995E-01[-0.701E-03, 0.581E-01]  d Energy = 0.2793059E-01 0.749E-03
 d Force = 0.2410957E+01[ 0.226E+01, 0.256E+01]  d Ewald  = 0.2410444E+01 0.513E-03


--------------------------------------------------------------------------------------------------------


    POTLOK:  cpu time    2.09: real time    2.04


--------------------------------------------------------------------------------------------------------


  FORCES: max atom, RMS     0.242466    0.117142
  FORCE total and by dimension    0.652219    0.171449


--------------------------------------------------------------------------------------------------------


  
 reached required accuracy - stopping structural energy minimisation
     LOOP+:  cpu time  129.94: real time   57.63
    4ORBIT:  cpu time    0.00: real time    0.00

 total amount of memory used by VASP on root node 125895. kBytes
========================================================================

   base      :    30000. kBytes
   nonl-proj :     3890. kBytes
   fftplans  :    30736. kBytes
   grid      :    54743. kBytes
   one-center:       95. kBytes
   wavefun   :     6431. kBytes
 
  
  
 General timing and accounting informations for this job:
 ========================================================
  
                  Total CPU time used (sec):     1171.275
                            User time (sec):     1166.094
                          System time (sec):        5.181
                         Elapsed time (sec):      505.069
  
                   Maximum memory used (kb):           0.
                   Average memory used (kb):           0.
  
                          Minor page faults:       497286
                          Major page faults:           35
                 Voluntary context switches:         7886
