<?xml version="1.0" encoding="ISO-8859-1"?>
<modeling>
 <generator>
  <i name="program" type="string">vasp </i>
  <i name="version" type="string">5.2.2  </i>
  <i name="subversion" type="string">15Apr09 complex  parallel </i>
  <i name="platform" type="string">LinuxIFC </i>
  <i name="date" type="string">2014 04 24 </i>
  <i name="time" type="string">09:35:19 </i>
 </generator>
 <incar>
  <i type="string" name="PREC">accurate</i>
  <i type="int" name="IALGO">    48</i>
  <i type="int" name="IBRION">     2</i>
  <i name="EDIFFG">      0.05000000</i>
  <i type="int" name="NSW">   191</i>
  <i type="int" name="ISIF">     2</i>
  <i name="ENCUT">    300.00000000</i>
  <i name="NELECT">     92.00000000</i>
  <i type="int" name="ISMEAR">     1</i>
  <i name="SIGMA">      0.20000000</i>
  <i type="logical" name="LWAVE"> F  </i>
  <i type="logical" name="LCHARG"> F  </i>
  <i type="logical" name="LPEAD"> F  </i>
  <i type="logical" name="LCALCPOL"> F  </i>
  <i type="logical" name="LCALCEPS"> F  </i>
  <v name="EFIELD_PEAD">      0.00000000      0.00000000      0.00000000</v>
  <i type="logical" name="LEFG"> F  </i>
 </incar>
 <kpoints>
  <generation param="Gamma">
   <v type="int" name="divisions">       1        1        1 </v>
   <v name="usershift">      0.00000000       0.00000000       0.00000000 </v>
   <v name="genvec1">      1.00000000       0.00000000       0.00000000 </v>
   <v name="genvec2">      0.00000000       1.00000000       0.00000000 </v>
   <v name="genvec3">      0.00000000       0.00000000       1.00000000 </v>
   <v name="shift">      0.00000000       0.00000000       0.00000000 </v>
  </generation>
  <varray name="kpointlist" >
   <v>       0.00000000       0.00000000       0.00000000 </v>
  </varray>
  <varray name="weights" >
   <v>       1.00000000 </v>
  </varray>
 </kpoints>
 <parameters>
  <separator name="general" >
   <i type="string" name="SYSTEM">unknown system</i>
   <i type="logical" name="LCOMPAT"> F  </i>
  </separator>
  <separator name="electronic" >
   <i type="string" name="PREC">accura</i>
   <i name="ENMAX">    300.00000000</i>
   <i name="ENAUG">    291.05200000</i>
   <i name="EDIFF">      0.00010000</i>
   <i type="int" name="IALGO">    48</i>
   <i type="int" name="IWAVPR">    11</i>
   <i type="int" name="NBANDS">    62</i>
   <i name="NELECT">     92.00000000</i>
   <separator name="electronic smearing" >
    <i type="int" name="ISMEAR">     1</i>
    <i name="SIGMA">      0.20000000</i>
   </separator>
   <separator name="electronic projectors" >
    <i type="logical" name="LREAL"> F  </i>
    <v name="ROPT">      0.00000000      0.00000000</v>
    <i type="int" name="LMAXPAW">  -100</i>
    <i type="int" name="LMAXMIX">     2</i>
   </separator>
   <separator name="electronic startup" >
    <i type="int" name="ISTART">     0</i>
    <i type="int" name="ICHARG">     2</i>
    <i type="int" name="INIWAV">     1</i>
   </separator>
   <separator name="electronic spin" >
    <i type="int" name="ISPIN">     1</i>
    <i type="logical" name="LNONCOLLINEAR"> F  </i>
    <v name="MAGMOM">      1.00000000      1.00000000      1.00000000      1.00000000      1.00000000      1.00000000      1.00000000      1.00000000      1.00000000      1.00000000      1.00000000      1.00000000      1.00000000      1.00000000      1.00000000      1.00000000      1.00000000      1.00000000      1.00000000      1.00000000
      1.00000000      1.00000000      1.00000000      1.00000000      1.00000000      1.00000000      1.00000000      1.00000000      1.00000000      1.00000000      1.00000000</v>
    <i name="NUPDOWN">     -1.00000000</i>
    <i type="logical" name="LSORBIT"> F  </i>
    <v name="SAXIS">      0.00000000      0.00000000      1.00000000</v>
    <i type="logical" name="LSPIRAL"> F  </i>
    <v name="QSPIRAL">      0.00000000      0.00000000      0.00000000</v>
    <i type="logical" name="LZEROZ"> F  </i>
   </separator>
   <separator name="electronic exchange-correlation" >
    <i type="logical" name="LASPH"> F  </i>
    <i type="logical" name="LMETAGGA"> F  </i>
   </separator>
   <separator name="electronic convergence" >
    <i type="int" name="NELM">    60</i>
    <i type="int" name="NELMDL">   -12</i>
    <i type="int" name="NELMIN">     2</i>
    <i name="ENINI">    300.00000000</i>
    <separator name="electronic convergence detail" >
     <i type="logical" name="LDIAG"> T  </i>
     <i name="WEIMIN">      0.00100000</i>
     <i name="EBREAK">      0.00000040</i>
     <i name="DEPER">      0.30000000</i>
     <i type="int" name="NRMM">     4</i>
     <i name="TIME">      0.40000000</i>
    </separator>
   </separator>
   <separator name="electronic mixer" >
    <i name="AMIX">      0.40000000</i>
    <i name="BMIX">      1.00000000</i>
    <i name="AMIN">      0.10000000</i>
    <i name="AMIX_MAG">      1.60000000</i>
    <i name="BMIX_MAG">      1.00000000</i>
    <separator name="electronic mixer details" >
     <i type="int" name="IMIX">     4</i>
     <i type="int" name="MAXMIX">   -45</i>
     <i name="WC">    100.00000000</i>
     <i type="int" name="INIMIX">     1</i>
     <i type="int" name="MIXPRE">     1</i>
     <i type="int" name="MREMOVE">     5</i>
    </separator>
   </separator>
   <separator name="electronic dipolcorrection" >
    <i type="logical" name="LDIPOL"> F  </i>
    <i type="logical" name="LMONO"> F  </i>
    <i type="int" name="IDIPOL">     0</i>
    <i name="EPSILON">      1.00000000</i>
    <v name="DIPOL">   -100.00000000   -100.00000000   -100.00000000</v>
    <i name="EFIELD">      0.00000000</i>
   </separator>
  </separator>
  <separator name="grids" >
   <i type="int" name="NGX">    48</i>
   <i type="int" name="NGY">    48</i>
   <i type="int" name="NGZ">    48</i>
   <i type="int" name="NGXF">    96</i>
   <i type="int" name="NGYF">    96</i>
   <i type="int" name="NGZF">    96</i>
   <i type="logical" name="ADDGRID"> F  </i>
  </separator>
  <separator name="ionic" >
   <i type="int" name="NSW">   191</i>
   <i type="int" name="IBRION">     2</i>
   <i type="int" name="ISIF">     2</i>
   <i name="PSTRESS">      0.00000000</i>
   <i name="EDIFFG">      0.05000000</i>
   <i type="int" name="NFREE">     1</i>
   <i name="POTIM">      0.50000000</i>
   <i name="SMASS">     -3.00000000</i>
  </separator>
  <separator name="ionic md" >
   <i name="TEBEG">      0.00010000</i>
   <i name="TEEND">      0.00010000</i>
   <i type="int" name="NBLOCK">     1</i>
   <i type="int" name="KBLOCK">   191</i>
   <i type="int" name="NPACO">   256</i>
   <i name="APACO">     16.00000000</i>
  </separator>
  <separator name="symmetry" >
   <i type="int" name="ISYM">     2</i>
   <i name="SYMPREC">      0.00001000</i>
  </separator>
  <separator name="dos" >
   <i type="logical" name="LORBIT"> F  </i>
   <v name="RWIGS">     -1.00000000     -1.00000000</v>
   <i type="int" name="NEDOS">   301</i>
   <i name="EMIN">     10.00000000</i>
   <i name="EMAX">    -10.00000000</i>
   <i name="EFERMI">      0.00000000</i>
  </separator>
  <separator name="writing" >
   <i type="int" name="NWRITE">     2</i>
   <i type="logical" name="LWAVE"> F  </i>
   <i type="logical" name="LCHARG"> F  </i>
   <i type="logical" name="LPARD"> F  </i>
   <i type="logical" name="LVTOT"> F  </i>
   <i type="logical" name="LELF"> F  </i>
   <i type="logical" name="LOPTICS"> F  </i>
   <v name="STM">      0.00000000      0.00000000      0.00000000      0.00000000      0.00000000</v>
  </separator>
  <separator name="performance" >
   <i type="int" name="NPAR">     1</i>
   <i type="int" name="NSIM">     4</i>
   <i type="int" name="NBLK">    32</i>
   <i type="logical" name="LPLANE"> T  </i>
   <i type="logical" name="LSCALAPACK"> F  </i>
   <i type="logical" name="LSCAAWARE"> F  </i>
   <i type="logical" name="LSCALU"> F  </i>
   <i type="logical" name="LASYNC"> F  </i>
  </separator>
  <separator name="miscellaneous" >
   <i type="int" name="IDIOT">     3</i>
   <i type="logical" name="LMUSIC"> F  </i>
   <v name="POMASS">     24.30500000     26.98200000</v>
   <i type="logical" name="LCORR"> T  </i>
  </separator>
  <i type="logical" name="LREAL_COMPAT"> F  </i>
  <i type="logical" name="GGA_COMPAT"> T  </i>
  <i type="logical" name="LBERRY"> F  </i>
  <i type="int" name="ICORELEVEL">     0</i>
  <i type="logical" name="LDAU"> F  </i>
  <i type="int" name="I_CONSTRAINED_M">     0</i>
  <separator name="electronic exchange-correlation" >
   <i type="string" name="GGA">--</i>
   <i type="int" name="VOSKOWN">     0</i>
   <i type="logical" name="LHFCALC"> F  </i>
   <i type="logical" name="LHFONE"> F  </i>
   <i type="logical" name="LRHFCALC"> F  </i>
   <i type="logical" name="LTHOMAS"> F  </i>
   <i type="logical" name="LMODELHF"> F  </i>
   <i name="ENCUTFOCK">      0.00000000</i>
   <i name="ENCUT4O">     -1.00000000</i>
   <i type="int" name="EXXOEP">     0</i>
   <i type="int" name="FOURORBIT">     0</i>
   <i name="AEXX">      0.00000000</i>
   <i name="HFALPHA">      0.00000000</i>
   <i name="ALDAX">      1.00000000</i>
   <i name="AGGAX">      1.00000000</i>
   <i name="ALDAC">      1.00000000</i>
   <i name="AGGAC">      1.00000000</i>
   <i type="int" name="NKREDX">     1</i>
   <i type="int" name="NKREDY">     1</i>
   <i type="int" name="NKREDZ">     1</i>
   <i type="logical" name="SHIFTRED"> F  </i>
   <i type="logical" name="ODDONLY"> F  </i>
   <i type="logical" name="EVENONLY"> F  </i>
   <i type="int" name="LMAXFOCK">     0</i>
   <i type="int" name="NMAXFOCKAE">     0</i>
   <i name="HFSCREEN">      0.00000000</i>
   <i name="HFSCREENC">      0.00000000</i>
  </separator>
  <separator name="model GW" >
   <i type="int" name="MODEL_GW">     0</i>
   <i name="MODEL_EPS0">     10.23671437</i>
   <i name="MODEL_ALPHA">      1.00000000</i>
  </separator>
  <separator name="linear response parameters" >
   <i type="logical" name="LEPSILON"> F  </i>
   <i type="logical" name="LRPA"> F  </i>
   <i type="logical" name="LNABLA"> F  </i>
   <i type="logical" name="LVEL"> F  </i>
   <i type="int" name="KINTER">     0</i>
   <i name="CSHIFT">      0.10000000</i>
   <i name="OMEGAMAX">     -1.00000000</i>
  </separator>
  <separator name="orbital magnetization" >
   <i type="logical" name="ORBITALMAG"> F  </i>
   <i type="logical" name="LMAGBLOCH"> F  </i>
   <i type="logical" name="LCHIMAG"> F  </i>
   <i type="logical" name="LGAUGE"> T  </i>
   <i type="int" name="MAGATOM">     0</i>
   <v name="MAGDIPOL">      0.00000000      0.00000000      0.00000000</v>
   <v name="AVECCONST">      0.00000000      0.00000000      0.00000000</v>
  </separator>
  <separator name="response functions" >
   <i type="logical" name="LRPA"> T  </i>
   <i type="logical" name="LTCTE"> F  </i>
   <i type="logical" name="LTETE"> F  </i>
   <i type="logical" name="L2ORDER"> F  </i>
   <i type="logical" name="LGWLF"> F  </i>
   <i name="ENCUTGW">    200.00000000</i>
   <i name="ENCUTGWSOFT">     -2.00000000</i>
   <i name="ENCUTLF">     -1.00000000</i>
   <i type="int" name="LMAXMP2">    -1</i>
   <i name="SCISSOR">      0.00000000</i>
   <i type="int" name="NOMEGA">     0</i>
   <i type="int" name="NOMEGAR">     0</i>
   <i type="int" name="NBANDSGW">    -1</i>
   <i type="int" name="NBANDSLF">    -1</i>
   <i type="int" name="NELM">     1</i>
   <i type="int" name="DIM">     3</i>
   <i type="int" name="ANTIRES">     0</i>
   <i type="logical" name="LUSEW"> F  </i>
   <i name="OMEGAMAX">    -30.00000000</i>
   <i name="OMEGATL">   -200.00000000</i>
   <i type="int" name="OMEGAGRID">     0</i>
   <i name="CSHIFT">     -0.10000000</i>
   <i type="logical" name="SELFENERGY"> F  </i>
   <i type="logical" name="LSPECTRAL"> F  </i>
   <i type="logical" name="ODDONLYGW"> F  </i>
   <i type="logical" name="EVENONLYGW"> F  </i>
   <i type="int" name="NKREDLFX">     1</i>
   <i type="int" name="NKREDLFY">     1</i>
   <i type="int" name="NKREDLFZ">     1</i>
   <i type="int" name="MAXMEM">  1024</i>
   <i type="int" name="TELESCOPE">     0</i>
  </separator>
 </parameters>
 <atominfo>
  <atoms>      31 </atoms>
  <types>       2 </types>
  <array name="atoms" >
   <dimension dim="1">ion</dimension>
   <field type="string">element</field>
   <field type="int">atomtype</field>
   <set>
    <rc><c>Mg</c><c>   1</c></rc>
    <rc><c>Al</c><c>   2</c></rc>
    <rc><c>Al</c><c>   2</c></rc>
    <rc><c>Al</c><c>   2</c></rc>
    <rc><c>Al</c><c>   2</c></rc>
    <rc><c>Al</c><c>   2</c></rc>
    <rc><c>Al</c><c>   2</c></rc>
    <rc><c>Al</c><c>   2</c></rc>
    <rc><c>Al</c><c>   2</c></rc>
    <rc><c>Al</c><c>   2</c></rc>
    <rc><c>Al</c><c>   2</c></rc>
    <rc><c>Al</c><c>   2</c></rc>
    <rc><c>Al</c><c>   2</c></rc>
    <rc><c>Al</c><c>   2</c></rc>
    <rc><c>Al</c><c>   2</c></rc>
    <rc><c>Al</c><c>   2</c></rc>
    <rc><c>Al</c><c>   2</c></rc>
    <rc><c>Al</c><c>   2</c></rc>
    <rc><c>Al</c><c>   2</c></rc>
    <rc><c>Al</c><c>   2</c></rc>
    <rc><c>Al</c><c>   2</c></rc>
    <rc><c>Al</c><c>   2</c></rc>
    <rc><c>Al</c><c>   2</c></rc>
    <rc><c>Al</c><c>   2</c></rc>
    <rc><c>Al</c><c>   2</c></rc>
    <rc><c>Al</c><c>   2</c></rc>
    <rc><c>Al</c><c>   2</c></rc>
    <rc><c>Al</c><c>   2</c></rc>
    <rc><c>Al</c><c>   2</c></rc>
    <rc><c>Al</c><c>   2</c></rc>
    <rc><c>Al</c><c>   2</c></rc>
   </set>
  </array>
  <array name="atomtypes" >
   <dimension dim="1">type</dimension>
   <field type="int">atomspertype</field>
   <field type="string">element</field>
   <field>mass</field>
   <field>valence</field>
   <field type="string">pseudopotential</field>
   <set>
    <rc><c>   1</c><c>Mg</c><c>     24.30500000</c><c>      2.00000000</c><c> PAW_PBE Mg 05Jan2001                   </c></rc>
    <rc><c>  30</c><c>Al</c><c>     26.98200000</c><c>      3.00000000</c><c> PAW_PBE Al 04Jan2001                   </c></rc>
   </set>
  </array>
 </atominfo>
 <structure name="initialpos" >
  <crystal>
   <varray name="basis" >
    <v>       8.08705400       0.00000000       0.00000000 </v>
    <v>       0.00000000       8.08705400       0.00000000 </v>
    <v>       0.00000000       0.00000000       8.08705400 </v>
   </varray>
   <i name="volume">    528.89690930 </i>
   <varray name="rec_basis" >
    <v>       0.12365442       0.00000000       0.00000000 </v>
    <v>       0.00000000       0.12365442       0.00000000 </v>
    <v>       0.00000000       0.00000000       0.12365442 </v>
   </varray>
  </crystal>
  <varray name="positions" >
   <v>       0.25000000       0.50000000       0.25000000 </v>
   <v>       0.00000000       0.00000000       0.00000000 </v>
   <v>       0.25000000       0.00000000       0.25000000 </v>
   <v>       0.25000000       0.25000000       0.00000000 </v>
   <v>       0.00000000       0.25000000       0.25000000 </v>
   <v>       0.50000000       0.00000000       0.00000000 </v>
   <v>       0.75000000       0.00000000       0.25000000 </v>
   <v>       0.75000000       0.25000000       0.00000000 </v>
   <v>       0.50000000       0.25000000       0.25000000 </v>
   <v>       0.00000000       0.50000000       0.00000000 </v>
   <v>       0.25000000       0.75000000       0.00000000 </v>
   <v>       0.00000000       0.75000000       0.25000000 </v>
   <v>       0.50000000       0.50000000       0.00000000 </v>
   <v>       0.75000000       0.50000000       0.25000000 </v>
   <v>       0.75000000       0.75000000       0.00000000 </v>
   <v>       0.50000000       0.75000000       0.25000000 </v>
   <v>       0.00000000       0.00000000       0.50000000 </v>
   <v>       0.25000000       0.00000000       0.75000000 </v>
   <v>       0.25000000       0.25000000       0.50000000 </v>
   <v>       0.00000000       0.25000000       0.75000000 </v>
   <v>       0.50000000       0.00000000       0.50000000 </v>
   <v>       0.75000000       0.00000000       0.75000000 </v>
   <v>       0.75000000       0.25000000       0.50000000 </v>
   <v>       0.50000000       0.25000000       0.75000000 </v>
   <v>       0.00000000       0.50000000       0.50000000 </v>
   <v>       0.25000000       0.50000000       0.75000000 </v>
   <v>       0.25000000       0.75000000       0.50000000 </v>
   <v>       0.00000000       0.75000000       0.75000000 </v>
   <v>       0.75000000       0.50000000       0.75000000 </v>
   <v>       0.75000000       0.75000000       0.50000000 </v>
   <v>       0.50000000       0.75000000       0.75000000 </v>
  </varray>
 </structure>
 <calculation>
  <scstep>
   <time name="diag">    1.95    1.49</time>
   <time name="diis">   10.44    3.53</time>
   <time name="orth">    0.16    0.04</time>
   <time name="total">   14.64    7.10</time>
   <energy>
    <i name="alphaZ">     -7.38312591 </i>
    <i name="ewald">  -2179.22324318 </i>
    <i name="hartreedc">    -25.65026546 </i>
    <i name="XCdc">   -796.30847292 </i>
    <i name="pawpsdc">   1078.21717227 </i>
    <i name="pawaedc">   -108.50372521 </i>
    <i name="eentropy">     -0.08545652 </i>
    <i name="bandstr">    714.68614330 </i>
    <i name="atom">   1629.13144109 </i>
    <i name="e_fr_energy">    304.88046746 </i>
    <i name="e_wo_entrp">    304.96592398 </i>
    <i name="e_0_energy">    304.90895297 </i>
   </energy>
  </scstep>
  <scstep>
   <time name="diag">    1.99    1.49</time>
   <time name="diis">   10.43    3.53</time>
   <time name="orth">    0.16    0.04</time>
   <time name="total">   12.64    5.08</time>
   <energy>
    <i name="e_fr_energy">     -3.30056276 </i>
    <i name="e_wo_entrp">     -3.22006006 </i>
    <i name="e_0_energy">     -3.27372853 </i>
   </energy>
  </scstep>
  <scstep>
   <time name="diag">    1.98    1.49</time>
   <time name="diis">   10.42    3.53</time>
   <time name="orth">    0.16    0.04</time>
   <time name="total">   12.67    5.11</time>
   <energy>
    <i name="e_fr_energy">    -67.32090090 </i>
    <i name="e_wo_entrp">    -67.32504148 </i>
    <i name="e_0_energy">    -67.32228109 </i>
   </energy>
  </scstep>
  <scstep>
   <time name="diag">    1.96    1.49</time>
   <time name="diis">   10.43    3.53</time>
   <time name="orth">    0.16    0.04</time>
   <time name="total">   12.64    5.09</time>
   <energy>
    <i name="e_fr_energy">    -84.11977935 </i>
    <i name="e_wo_entrp">    -84.06063886 </i>
    <i name="e_0_energy">    -84.10006585 </i>
   </energy>
  </scstep>
  <scstep>
   <time name="diag">    1.99    1.49</time>
   <time name="diis">   10.43    3.53</time>
   <time name="orth">    0.16    0.04</time>
   <time name="total">   12.64    5.08</time>
   <energy>
    <i name="e_fr_energy">    -91.28676972 </i>
    <i name="e_wo_entrp">    -91.18923102 </i>
    <i name="e_0_energy">    -91.25425682 </i>
   </energy>
  </scstep>
  <scstep>
   <time name="diag">    1.98    1.49</time>
   <time name="diis">   10.43    3.53</time>
   <time name="orth">    0.16    0.04</time>
   <time name="total">   12.65    5.08</time>
   <energy>
    <i name="e_fr_energy">    -94.64182517 </i>
    <i name="e_wo_entrp">    -94.60902478 </i>
    <i name="e_0_energy">    -94.63089171 </i>
   </energy>
  </scstep>
  <scstep>
   <time name="diag">    2.04    1.49</time>
   <time name="diis">   10.43    3.53</time>
   <time name="orth">    0.16    0.04</time>
   <time name="total">   12.64    5.06</time>
   <energy>
    <i name="e_fr_energy">    -96.45787108 </i>
    <i name="e_wo_entrp">    -96.47655186 </i>
    <i name="e_0_energy">    -96.46409801 </i>
   </energy>
  </scstep>
  <scstep>
   <time name="diag">    1.99    1.50</time>
   <time name="diis">   10.43    3.53</time>
   <time name="orth">    0.16    0.04</time>
   <time name="total">   12.69    5.12</time>
   <energy>
    <i name="e_fr_energy">    -97.56690411 </i>
    <i name="e_wo_entrp">    -97.58679673 </i>
    <i name="e_0_energy">    -97.57353498 </i>
   </energy>
  </scstep>
  <scstep>
   <time name="diag">    2.05    1.49</time>
   <time name="diis">   27.77    8.15</time>
   <time name="orth">    0.16    0.04</time>
   <time name="total">   29.99    9.68</time>
   <energy>
    <i name="e_fr_energy">    -99.12153095 </i>
    <i name="e_wo_entrp">    -99.14046128 </i>
    <i name="e_0_energy">    -99.12784106 </i>
   </energy>
  </scstep>
  <scstep>
   <time name="diag">    1.96    1.49</time>
   <time name="diis">   22.87    6.72</time>
   <time name="orth">    0.16    0.04</time>
   <time name="total">   25.10    8.29</time>
   <energy>
    <i name="e_fr_energy">    -99.29851602 </i>
    <i name="e_wo_entrp">    -99.32240373 </i>
    <i name="e_0_energy">    -99.30647859 </i>
   </energy>
  </scstep>
  <scstep>
   <time name="diag">    2.04    1.49</time>
   <time name="diis">   20.58    6.15</time>
   <time name="orth">    0.16    0.04</time>
   <time name="total">   22.80    7.68</time>
   <energy>
    <i name="e_fr_energy">    -99.31385689 </i>
    <i name="e_wo_entrp">    -99.32698068 </i>
    <i name="e_0_energy">    -99.31823148 </i>
   </energy>
  </scstep>
  <scstep>
   <time name="diag">    2.00    1.50</time>
   <time name="diis">   18.50    5.50</time>
   <time name="orth">    0.16    0.04</time>
   <time name="total">   21.95    8.21</time>
   <energy>
    <i name="e_fr_energy">    -99.31499883 </i>
    <i name="e_wo_entrp">    -99.32641233 </i>
    <i name="e_0_energy">    -99.31880333 </i>
   </energy>
  </scstep>
  <scstep>
   <time name="diag">    1.96    1.49</time>
   <time name="diis">   20.91    6.35</time>
   <time name="orth">    0.16    0.04</time>
   <time name="total">   26.10   10.89</time>
   <energy>
    <i name="e_fr_energy">    -98.14773546 </i>
    <i name="e_wo_entrp">    -98.06034231 </i>
    <i name="e_0_energy">    -98.11860441 </i>
   </energy>
  </scstep>
  <scstep>
   <time name="diag">    1.96    1.49</time>
   <time name="diis">   21.80    6.58</time>
   <time name="orth">    0.16    0.04</time>
   <time name="total">   26.99   11.11</time>
   <energy>
    <i name="e_fr_energy">    -97.90279221 </i>
    <i name="e_wo_entrp">    -97.80495481 </i>
    <i name="e_0_energy">    -97.87017974 </i>
   </energy>
  </scstep>
  <scstep>
   <time name="diag">    1.98    1.50</time>
   <time name="diis">   20.59    6.29</time>
   <time name="orth">    0.16    0.04</time>
   <time name="total">   25.88   10.82</time>
   <energy>
    <i name="e_fr_energy">    -97.78866356 </i>
    <i name="e_wo_entrp">    -97.71296264 </i>
    <i name="e_0_energy">    -97.76342992 </i>
   </energy>
  </scstep>
  <scstep>
   <time name="diag">    1.95    1.49</time>
   <time name="diis">   22.48    6.74</time>
   <time name="orth">    0.16    0.04</time>
   <time name="total">   27.89   11.39</time>
   <energy>
    <i name="e_fr_energy">    -97.78159472 </i>
    <i name="e_wo_entrp">    -97.69240192 </i>
    <i name="e_0_energy">    -97.75186378 </i>
   </energy>
  </scstep>
  <scstep>
   <time name="diag">    1.95    1.49</time>
   <time name="diis">   22.59    6.74</time>
   <time name="orth">    0.16    0.04</time>
   <time name="total">   28.04   11.40</time>
   <energy>
    <i name="e_fr_energy">    -97.78086900 </i>
    <i name="e_wo_entrp">    -97.69182700 </i>
    <i name="e_0_energy">    -97.75118833 </i>
   </energy>
  </scstep>
  <scstep>
   <time name="diag">    1.95    1.49</time>
   <time name="diis">   18.92    5.75</time>
   <time name="orth">    0.16    0.04</time>
   <time name="total">   24.36   10.40</time>
   <energy>
    <i name="e_fr_energy">    -97.78073640 </i>
    <i name="e_wo_entrp">    -97.69237891 </i>
    <i name="e_0_energy">    -97.75128390 </i>
   </energy>
  </scstep>
  <scstep>
   <time name="diag">    1.95    1.49</time>
   <time name="diis">   15.02    4.67</time>
   <time name="orth">    0.16    0.04</time>
   <time name="total">   19.24    8.24</time>
   <energy>
    <i name="alphaZ">     -7.38312591 </i>
    <i name="ewald">  -2179.22324318 </i>
    <i name="hartreedc">    -30.76880006 </i>
    <i name="XCdc">   -792.35332219 </i>
    <i name="pawpsdc">   1077.68505989 </i>
    <i name="pawaedc">   -108.21989209 </i>
    <i name="eentropy">     -0.08806581 </i>
    <i name="bandstr">    313.43919687 </i>
    <i name="atom">   1629.13144109 </i>
    <i name="e_fr_energy">    -97.78075139 </i>
    <i name="e_wo_entrp">    -97.69268558 </i>
    <i name="e_0_energy">    -97.75139612 </i>
   </energy>
  </scstep>
  <structure>
   <crystal>
    <varray name="basis" >
     <v>       8.08705400       0.00000000       0.00000000 </v>
     <v>       0.00000000       8.08705400       0.00000000 </v>
     <v>       0.00000000       0.00000000       8.08705400 </v>
    </varray>
    <i name="volume">    528.89690930 </i>
    <varray name="rec_basis" >
     <v>       0.12365442       0.00000000       0.00000000 </v>
     <v>       0.00000000       0.12365442       0.00000000 </v>
     <v>       0.00000000       0.00000000       0.12365442 </v>
    </varray>
   </crystal>
   <varray name="positions" >
    <v>       0.25000000       0.50000000       0.25000000 </v>
    <v>       0.00000000       0.00000000       0.00000000 </v>
    <v>       0.25000000       0.00000000       0.25000000 </v>
    <v>       0.25000000       0.25000000       0.00000000 </v>
    <v>       0.00000000       0.25000000       0.25000000 </v>
    <v>       0.50000000       0.00000000       0.00000000 </v>
    <v>       0.75000000       0.00000000       0.25000000 </v>
    <v>       0.75000000       0.25000000       0.00000000 </v>
    <v>       0.50000000       0.25000000       0.25000000 </v>
    <v>       0.00000000       0.50000000       0.00000000 </v>
    <v>       0.25000000       0.75000000       0.00000000 </v>
    <v>       0.00000000       0.75000000       0.25000000 </v>
    <v>       0.50000000       0.50000000       0.00000000 </v>
    <v>       0.75000000       0.50000000       0.25000000 </v>
    <v>       0.75000000       0.75000000       0.00000000 </v>
    <v>       0.50000000       0.75000000       0.25000000 </v>
    <v>       0.00000000       0.00000000       0.50000000 </v>
    <v>       0.25000000       0.00000000       0.75000000 </v>
    <v>       0.25000000       0.25000000       0.50000000 </v>
    <v>       0.00000000       0.25000000       0.75000000 </v>
    <v>       0.50000000       0.00000000       0.50000000 </v>
    <v>       0.75000000       0.00000000       0.75000000 </v>
    <v>       0.75000000       0.25000000       0.50000000 </v>
    <v>       0.50000000       0.25000000       0.75000000 </v>
    <v>       0.00000000       0.50000000       0.50000000 </v>
    <v>       0.25000000       0.50000000       0.75000000 </v>
    <v>       0.25000000       0.75000000       0.50000000 </v>
    <v>       0.00000000       0.75000000       0.75000000 </v>
    <v>       0.75000000       0.50000000       0.75000000 </v>
    <v>       0.75000000       0.75000000       0.50000000 </v>
    <v>       0.50000000       0.75000000       0.75000000 </v>
   </varray>
  </structure>
  <varray name="forces" >
   <v>       0.10344638       0.00000000       0.10344638 </v>
   <v>      -0.10537907       0.00000000      -0.10537907 </v>
   <v>       0.07065044       0.00000000       0.07065044 </v>
   <v>       0.00219031      -0.17777615      -0.20584745 </v>
   <v>      -0.20584745      -0.17777615       0.00219031 </v>
   <v>       0.04455401       0.00000000      -0.08497139 </v>
   <v>       0.03898172       0.00000000      -0.01028371 </v>
   <v>       0.07589651      -0.08431719      -0.10146278 </v>
   <v>       0.18040567      -0.39400007      -0.10469128 </v>
   <v>      -0.31721201       0.00000000      -0.31721201 </v>
   <v>       0.00219031       0.17777615      -0.20584745 </v>
   <v>      -0.20584745       0.17777615       0.00219031 </v>
   <v>       0.18661902       0.00000000      -0.19932912 </v>
   <v>       0.13262938       0.00000000      -0.16488403 </v>
   <v>       0.07589651       0.08431719      -0.10146278 </v>
   <v>       0.18040567       0.39400007      -0.10469128 </v>
   <v>      -0.08497139       0.00000000       0.04455401 </v>
   <v>      -0.01028371       0.00000000       0.03898172 </v>
   <v>      -0.10469128      -0.39400007       0.18040567 </v>
   <v>      -0.10146278      -0.08431719       0.07589651 </v>
   <v>      -0.01023082       0.00000000      -0.01023082 </v>
   <v>       0.01519915       0.00000000       0.01519915 </v>
   <v>       0.13397789      -0.17390593       0.04976128 </v>
   <v>       0.04976128      -0.17390593       0.13397789 </v>
   <v>      -0.19932912       0.00000000       0.18661902 </v>
   <v>      -0.16488403       0.00000000       0.13262938 </v>
   <v>      -0.10469128       0.39400007       0.18040567 </v>
   <v>      -0.10146278       0.08431719       0.07589651 </v>
   <v>       0.23974971       0.00000000       0.23974971 </v>
   <v>       0.13397789       0.17390593       0.04976128 </v>
   <v>       0.04976128       0.17390593       0.13397789 </v>
  </varray>
  <varray name="stress" >
   <v>     -15.86965848       0.00000000      -2.06135946 </v>
   <v>       0.00000000      -6.77370492       0.00000000 </v>
   <v>      -2.06135946       0.00000000     -15.86965848 </v>
  </varray>
  <energy>
   <i name="e_fr_energy">    -97.78075139 </i>
   <i name="e_wo_entrp">    -97.75139612 </i>
   <i name="e_0_energy">     -0.08806581 </i>
  </energy>
  <time name="totalsc">  412.24  168.03</time>
 </calculation>
 <calculation>
  <scstep>
   <time name="diag">    1.95    1.49</time>
   <time name="diis">   20.59    6.28</time>
   <time name="orth">    0.16    0.04</time>
   <time name="total">   26.01   10.92</time>
   <energy>
    <i name="alphaZ">     -7.38312591 </i>
    <i name="ewald">  -2176.19091807 </i>
    <i name="hartreedc">    -33.38205508 </i>
    <i name="XCdc">   -792.29524511 </i>
    <i name="pawpsdc">   1077.69793268 </i>
    <i name="pawaedc">   -108.23505129 </i>
    <i name="eentropy">     -0.04840336 </i>
    <i name="bandstr">    312.82064497 </i>
    <i name="atom">   1629.13144109 </i>
    <i name="e_fr_energy">    -97.88478007 </i>
    <i name="e_wo_entrp">    -97.83637671 </i>
    <i name="e_0_energy">    -97.86864562 </i>
   </energy>
  </scstep>
  <scstep>
   <time name="diag">    1.96    1.49</time>
   <time name="diis">   20.47    6.20</time>
   <time name="orth">    0.16    0.04</time>
   <time name="total">   25.66   10.70</time>
   <energy>
    <i name="e_fr_energy">    -97.87240215 </i>
    <i name="e_wo_entrp">    -97.80774057 </i>
    <i name="e_0_energy">    -97.85084829 </i>
   </energy>
  </scstep>
  <scstep>
   <time name="diag">    1.97    1.49</time>
   <time name="diis">   22.54    6.64</time>
   <time name="orth">    0.16    0.04</time>
   <time name="total">   27.77   11.16</time>
   <energy>
    <i name="e_fr_energy">    -97.87225071 </i>
    <i name="e_wo_entrp">    -97.80579998 </i>
    <i name="e_0_energy">    -97.85010047 </i>
   </energy>
  </scstep>
  <scstep>
   <time name="diag">    2.01    1.51</time>
   <time name="diis">   13.09    4.16</time>
   <time name="orth">    0.16    0.04</time>
   <time name="total">   17.19    7.60</time>
   <energy>
    <i name="alphaZ">     -7.38312591 </i>
    <i name="ewald">  -2176.19091807 </i>
    <i name="hartreedc">    -33.68142455 </i>
    <i name="XCdc">   -792.29309641 </i>
    <i name="pawpsdc">   1077.74677621 </i>
    <i name="pawaedc">   -108.28531997 </i>
    <i name="eentropy">     -0.06652957 </i>
    <i name="bandstr">    313.14997314 </i>
    <i name="atom">   1629.13144109 </i>
    <i name="e_fr_energy">    -97.87222404 </i>
    <i name="e_wo_entrp">    -97.80569448 </i>
    <i name="e_0_energy">    -97.85004752 </i>
   </energy>
  </scstep>
  <structure>
   <crystal>
    <varray name="basis" >
     <v>       8.08705400       0.00000000       0.00000000 </v>
     <v>       0.00000000       8.08705400       0.00000000 </v>
     <v>       0.00000000       0.00000000       8.08705400 </v>
    </varray>
    <i name="volume">    528.89690930 </i>
    <varray name="rec_basis" >
     <v>       0.12365442       0.00000000       0.00000000 </v>
     <v>       0.00000000       0.12365442       0.00000000 </v>
     <v>       0.00000000       0.00000000       0.12365442 </v>
    </varray>
   </crystal>
   <varray name="positions" >
    <v>       0.25061710       0.50000000       0.25061710 </v>
    <v>      -0.00062863       0.00000000      -0.00062863 </v>
    <v>       0.25042146       0.00000000       0.25042146 </v>
    <v>       0.25001307       0.24893949      -0.00122797 </v>
    <v>      -0.00122797       0.24893949       0.25001307 </v>
    <v>       0.50026578       0.00000000      -0.00050689 </v>
    <v>       0.75023254       0.00000000       0.24993865 </v>
    <v>       0.75045275       0.24949701      -0.00060527 </v>
    <v>       0.50107620       0.24764963       0.24937547 </v>
    <v>      -0.00189230       0.50000000      -0.00189230 </v>
    <v>       0.25001307       0.75106051      -0.00122797 </v>
    <v>      -0.00122797       0.75106051       0.25001307 </v>
    <v>       0.50111326       0.50000000      -0.00118908 </v>
    <v>       0.75079119       0.50000000       0.24901640 </v>
    <v>       0.75045275       0.75050299      -0.00060527 </v>
    <v>       0.50107620       0.75235037       0.24937547 </v>
    <v>      -0.00050689       0.00000000       0.50026578 </v>
    <v>       0.24993865       0.00000000       0.75023254 </v>
    <v>       0.24937547       0.24764963       0.50107620 </v>
    <v>      -0.00060527       0.24949701       0.75045275 </v>
    <v>       0.49993897       0.00000000       0.49993897 </v>
    <v>       0.75009067       0.00000000       0.75009067 </v>
    <v>       0.75079923       0.24896258       0.50029685 </v>
    <v>       0.50029685       0.24896258       0.75079923 </v>
    <v>      -0.00118908       0.50000000       0.50111326 </v>
    <v>       0.24901640       0.50000000       0.75079119 </v>
    <v>       0.24937547       0.75235037       0.50107620 </v>
    <v>      -0.00060527       0.75050299       0.75045275 </v>
    <v>       0.75143021       0.50000000       0.75143021 </v>
    <v>       0.75079923       0.75103742       0.50029685 </v>
    <v>       0.50029685       0.75103742       0.75079923 </v>
   </varray>
  </structure>
  <varray name="forces" >
   <v>       0.07989179       0.00000000       0.07989179 </v>
   <v>      -0.07766799       0.00000000      -0.07766799 </v>
   <v>       0.06640428       0.00000000       0.06640428 </v>
   <v>      -0.00631538      -0.15577693      -0.17342042 </v>
   <v>      -0.17342042      -0.15577693      -0.00631538 </v>
   <v>       0.04763933       0.00000000      -0.06019102 </v>
   <v>       0.02579071       0.00000000      -0.02693258 </v>
   <v>       0.03458758      -0.06192824      -0.06022492 </v>
   <v>       0.18282071      -0.36184602      -0.12819594 </v>
   <v>      -0.24888127       0.00000000      -0.24888127 </v>
   <v>      -0.00631538       0.15577693      -0.17342042 </v>
   <v>      -0.17342042       0.15577693      -0.00631538 </v>
   <v>       0.21320068       0.00000000      -0.16484514 </v>
   <v>       0.10204479       0.00000000      -0.17058830 </v>
   <v>       0.03458758       0.06192824      -0.06022492 </v>
   <v>       0.18282071       0.36184602      -0.12819594 </v>
   <v>      -0.06019102       0.00000000       0.04763933 </v>
   <v>      -0.02693258       0.00000000       0.02579071 </v>
   <v>      -0.12819594      -0.36184602       0.18282071 </v>
   <v>      -0.06022492      -0.06192824       0.03458758 </v>
   <v>      -0.01930985       0.00000000      -0.01930985 </v>
   <v>       0.00948616       0.00000000       0.00948616 </v>
   <v>       0.11051995      -0.13932255       0.05060728 </v>
   <v>       0.05060728      -0.13932255       0.11051995 </v>
   <v>      -0.16484514       0.00000000       0.21320068 </v>
   <v>      -0.17058830       0.00000000       0.10204479 </v>
   <v>      -0.12819594       0.36184602       0.18282071 </v>
   <v>      -0.06022492       0.06192824       0.03458758 </v>
   <v>       0.20320069       0.00000000       0.20320069 </v>
   <v>       0.11051995       0.13932255       0.05060728 </v>
   <v>       0.05060728       0.13932255       0.11051995 </v>
  </varray>
  <varray name="stress" >
   <v>     -15.86890475       0.00000000      -2.76084206 </v>
   <v>       0.00000000      -6.25732527       0.00000000 </v>
   <v>      -2.76084206       0.00000000     -15.86890475 </v>
  </varray>
  <energy>
   <i name="e_fr_energy">    -97.87222404 </i>
   <i name="e_wo_entrp">    -97.85004752 </i>
   <i name="e_0_energy">     -0.06652957 </i>
  </energy>
  <time name="totalsc">  127.38   57.59</time>
 </calculation>
 <calculation>
  <scstep>
   <time name="diag">    1.98    1.49</time>
   <time name="diis">   20.50    6.21</time>
   <time name="orth">    0.16    0.04</time>
   <time name="total">   25.71   10.71</time>
   <energy>
    <i name="alphaZ">     -7.38312591 </i>
    <i name="ewald">  -2165.20963894 </i>
    <i name="hartreedc">    -42.82066814 </i>
    <i name="XCdc">   -792.11057449 </i>
    <i name="pawpsdc">   1077.74853532 </i>
    <i name="pawaedc">   -108.28727723 </i>
    <i name="eentropy">      0.04434738 </i>
    <i name="bandstr">    310.72871369 </i>
    <i name="atom">   1629.13144109 </i>
    <i name="e_fr_energy">    -98.15824722 </i>
    <i name="e_wo_entrp">    -98.20259461 </i>
    <i name="e_0_energy">    -98.17302968 </i>
   </energy>
  </scstep>
  <scstep>
   <time name="diag">    2.03    1.51</time>
   <time name="diis">   20.61    6.24</time>
   <time name="orth">    0.16    0.04</time>
   <time name="total">   25.90   10.78</time>
   <energy>
    <i name="e_fr_energy">    -98.07331897 </i>
    <i name="e_wo_entrp">    -98.08815965 </i>
    <i name="e_0_energy">    -98.07826586 </i>
   </energy>
  </scstep>
  <scstep>
   <time name="diag">    2.04    1.52</time>
   <time name="diis">   22.11    6.61</time>
   <time name="orth">    0.16    0.04</time>
   <time name="total">   27.40   11.29</time>
   <energy>
    <i name="e_fr_energy">    -98.06912524 </i>
    <i name="e_wo_entrp">    -98.06934646 </i>
    <i name="e_0_energy">    -98.06919898 </i>
   </energy>
  </scstep>
  <scstep>
   <time name="diag">    1.96    1.49</time>
   <time name="diis">   21.11    6.34</time>
   <time name="orth">    0.16    0.04</time>
   <time name="total">   26.37   10.86</time>
   <energy>
    <i name="e_fr_energy">    -98.06877370 </i>
    <i name="e_wo_entrp">    -98.06875595 </i>
    <i name="e_0_energy">    -98.06876778 </i>
   </energy>
  </scstep>
  <scstep>
   <time name="diag">    1.95    1.49</time>
   <time name="diis">   16.42    5.04</time>
   <time name="orth">    0.16    0.04</time>
   <time name="total">   20.64    8.61</time>
   <energy>
    <i name="alphaZ">     -7.38312591 </i>
    <i name="ewald">  -2165.20963894 </i>
    <i name="hartreedc">    -43.94268412 </i>
    <i name="XCdc">   -792.09018474 </i>
    <i name="pawpsdc">   1078.15843112 </i>
    <i name="pawaedc">   -108.71270824 </i>
    <i name="eentropy">     -0.00010801 </i>
    <i name="bandstr">    311.97980159 </i>
    <i name="atom">   1629.13144109 </i>
    <i name="e_fr_energy">    -98.06877616 </i>
    <i name="e_wo_entrp">    -98.06866815 </i>
    <i name="e_0_energy">    -98.06874016 </i>
   </energy>
  </scstep>
  <structure>
   <crystal>
    <varray name="basis" >
     <v>       8.08705400       0.00000000       0.00000000 </v>
     <v>       0.00000000       8.08705400       0.00000000 </v>
     <v>       0.00000000       0.00000000       8.08705400 </v>
    </varray>
    <i name="volume">    528.89690930 </i>
    <varray name="rec_basis" >
     <v>       0.12365442       0.00000000       0.00000000 </v>
     <v>       0.00000000       0.12365442       0.00000000 </v>
     <v>       0.00000000       0.00000000       0.12365442 </v>
    </varray>
   </crystal>
   <varray name="positions" >
    <v>       0.25246840       0.50000000       0.25246840 </v>
    <v>      -0.00251452       0.00000000      -0.00251452 </v>
    <v>       0.25168584       0.00000000       0.25168584 </v>
    <v>       0.25005226       0.24575796      -0.00491186 </v>
    <v>      -0.00491186       0.24575796       0.25005226 </v>
    <v>       0.50106313       0.00000000      -0.00202756 </v>
    <v>       0.75093017       0.00000000       0.24975461 </v>
    <v>       0.75181102       0.24798805      -0.00242107 </v>
    <v>       0.50430478       0.24059850       0.24750189 </v>
    <v>      -0.00756921       0.50000000      -0.00756921 </v>
    <v>       0.25005226       0.75424204      -0.00491186 </v>
    <v>      -0.00491186       0.75424204       0.25005226 </v>
    <v>       0.50445304       0.50000000      -0.00475633 </v>
    <v>       0.75316476       0.50000000       0.24606559 </v>
    <v>       0.75181102       0.75201195      -0.00242107 </v>
    <v>       0.50430478       0.75940150       0.24750189 </v>
    <v>      -0.00202756       0.00000000       0.50106313 </v>
    <v>       0.24975461       0.00000000       0.75093017 </v>
    <v>       0.24750189       0.24059850       0.50430478 </v>
    <v>      -0.00242107       0.24798805       0.75181102 </v>
    <v>       0.49975588       0.00000000       0.49975588 </v>
    <v>       0.75036268       0.00000000       0.75036268 </v>
    <v>       0.75319694       0.24585031       0.50118739 </v>
    <v>       0.50118739       0.24585031       0.75319694 </v>
    <v>      -0.00475633       0.50000000       0.50445304 </v>
    <v>       0.24606559       0.50000000       0.75316476 </v>
    <v>       0.24750189       0.75940150       0.50430478 </v>
    <v>      -0.00242107       0.75201195       0.75181102 </v>
    <v>       0.75572083       0.50000000       0.75572083 </v>
    <v>       0.75319694       0.75414969       0.50118739 </v>
    <v>       0.50118739       0.75414969       0.75319694 </v>
   </varray>
  </structure>
  <varray name="forces" >
   <v>       0.03251461       0.00000000       0.03251461 </v>
   <v>      -0.02343800       0.00000000      -0.02343800 </v>
   <v>      -0.00902671       0.00000000      -0.00902671 </v>
   <v>      -0.04044492      -0.10039922      -0.06241088 </v>
   <v>      -0.06241088      -0.10039922      -0.04044492 </v>
   <v>       0.06613340       0.00000000      -0.01026801 </v>
   <v>       0.03405487       0.00000000      -0.10245352 </v>
   <v>      -0.06876195      -0.05507915       0.04626244 </v>
   <v>       0.17926374      -0.21471410      -0.18274252 </v>
   <v>      -0.00129786       0.00000000      -0.00129786 </v>
   <v>      -0.04044492       0.10039922      -0.06241088 </v>
   <v>      -0.06241088       0.10039922      -0.04044492 </v>
   <v>       0.27541640       0.00000000      -0.07110392 </v>
   <v>      -0.00481572       0.00000000      -0.16087566 </v>
   <v>      -0.06876195       0.05507915       0.04626244 </v>
   <v>       0.17926374       0.21471410      -0.18274252 </v>
   <v>      -0.01026801       0.00000000       0.06613340 </v>
   <v>      -0.10245352       0.00000000       0.03405487 </v>
   <v>      -0.18274252      -0.21471410       0.17926374 </v>
   <v>       0.04626244      -0.05507915      -0.06876195 </v>
   <v>      -0.00203786       0.00000000      -0.00203786 </v>
   <v>       0.03546581       0.00000000       0.03546581 </v>
   <v>       0.02281389      -0.01154927       0.06608800 </v>
   <v>       0.06608800      -0.01154927       0.02281389 </v>
   <v>      -0.07110392       0.00000000       0.27541640 </v>
   <v>      -0.16087566       0.00000000      -0.00481572 </v>
   <v>      -0.18274252       0.21471410       0.17926374 </v>
   <v>       0.04626244       0.05507915      -0.06876195 </v>
   <v>       0.02159661       0.00000000       0.02159661 </v>
   <v>       0.02281389       0.01154927       0.06608800 </v>
   <v>       0.06608800       0.01154927       0.02281389 </v>
  </varray>
  <varray name="stress" >
   <v>     -14.08825621       0.00000000      -4.51283204 </v>
   <v>       0.00000000      -3.75010815       0.00000000 </v>
   <v>      -4.51283204       0.00000000     -14.08825621 </v>
  </varray>
  <energy>
   <i name="e_fr_energy">    -98.06877616 </i>
   <i name="e_wo_entrp">    -98.06874016 </i>
   <i name="e_0_energy">     -0.00010801 </i>
  </energy>
  <time name="totalsc">  156.53   69.34</time>
 </calculation>
 <calculation>
  <scstep>
   <time name="diag">    1.96    1.49</time>
   <time name="diis">   20.50    6.21</time>
   <time name="orth">    0.16    0.04</time>
   <time name="total">   25.94   10.86</time>
   <energy>
    <i name="alphaZ">     -7.38312591 </i>
    <i name="ewald">  -2134.94894630 </i>
    <i name="hartreedc">    -68.18229245 </i>
    <i name="XCdc">   -791.64201357 </i>
    <i name="pawpsdc">   1078.18837685 </i>
    <i name="pawaedc">   -108.74388899 </i>
    <i name="eentropy">      0.13291740 </i>
    <i name="bandstr">    305.21504395 </i>
    <i name="atom">   1629.13144109 </i>
    <i name="e_fr_energy">    -98.23248791 </i>
    <i name="e_wo_entrp">    -98.36540532 </i>
    <i name="e_0_energy">    -98.27679371 </i>
   </energy>
  </scstep>
  <scstep>
   <time name="diag">    2.04    1.53</time>
   <time name="diis">   20.81    6.27</time>
   <time name="orth">    0.16    0.04</time>
   <time name="total">   26.08   10.81</time>
   <energy>
    <i name="e_fr_energy">    -98.01048376 </i>
    <i name="e_wo_entrp">    -98.13849330 </i>
    <i name="e_0_energy">    -98.05315361 </i>
   </energy>
  </scstep>
  <scstep>
   <time name="diag">    2.04    1.55</time>
   <time name="diis">   21.19    6.35</time>
   <time name="orth">    0.16    0.04</time>
   <time name="total">   26.48   10.92</time>
   <energy>
    <i name="e_fr_energy">    -97.98468738 </i>
    <i name="e_wo_entrp">    -98.11109770 </i>
    <i name="e_0_energy">    -98.02682415 </i>
   </energy>
  </scstep>
  <scstep>
   <time name="diag">    2.01    1.50</time>
   <time name="diis">   20.90    6.27</time>
   <time name="orth">    0.16    0.04</time>
   <time name="total">   26.20   10.80</time>
   <energy>
    <i name="e_fr_energy">    -97.98166914 </i>
    <i name="e_wo_entrp">    -98.10635663 </i>
    <i name="e_0_energy">    -98.02323164 </i>
   </energy>
  </scstep>
  <scstep>
   <time name="diag">    1.95    1.49</time>
   <time name="diis">   22.07    6.54</time>
   <time name="orth">    0.16    0.04</time>
   <time name="total">   27.47   11.19</time>
   <energy>
    <i name="e_fr_energy">    -97.98161001 </i>
    <i name="e_wo_entrp">    -98.10729552 </i>
    <i name="e_0_energy">    -98.02350518 </i>
   </energy>
  </scstep>
  <scstep>
   <time name="diag">    1.95    1.49</time>
   <time name="diis">   17.01    5.18</time>
   <time name="orth">    0.16    0.04</time>
   <time name="total">   21.23    8.75</time>
   <energy>
    <i name="alphaZ">     -7.38312591 </i>
    <i name="ewald">  -2134.94894630 </i>
    <i name="hartreedc">    -71.33657897 </i>
    <i name="XCdc">   -791.51919205 </i>
    <i name="pawpsdc">   1080.21362758 </i>
    <i name="pawaedc">   -110.86148546 </i>
    <i name="eentropy">      0.12576613 </i>
    <i name="bandstr">    308.59678880 </i>
    <i name="atom">   1629.13144109 </i>
    <i name="e_fr_energy">    -97.98170509 </i>
    <i name="e_wo_entrp">    -98.10747122 </i>
    <i name="e_0_energy">    -98.02362713 </i>
   </energy>
  </scstep>
  <structure>
   <crystal>
    <varray name="basis" >
     <v>       8.08705400       0.00000000       0.00000000 </v>
     <v>       0.00000000       8.08705400       0.00000000 </v>
     <v>       0.00000000       0.00000000       8.08705400 </v>
    </varray>
    <i name="volume">    528.89690930 </i>
    <varray name="rec_basis" >
     <v>       0.12365442       0.00000000       0.00000000 </v>
     <v>       0.00000000       0.12365442       0.00000000 </v>
     <v>       0.00000000       0.00000000       0.12365442 </v>
    </varray>
   </crystal>
   <varray name="positions" >
    <v>       0.25617101       0.50000000       0.25617101 </v>
    <v>      -0.00628630       0.00000000      -0.00628630 </v>
    <v>       0.25421459       0.00000000       0.25421459 </v>
    <v>       0.25013066       0.23939491      -0.01227966 </v>
    <v>      -0.01227966       0.23939491       0.25013066 </v>
    <v>       0.50265783       0.00000000      -0.00506890 </v>
    <v>       0.75232542       0.00000000       0.24938653 </v>
    <v>       0.75452754       0.24497013      -0.00605268 </v>
    <v>       0.51076195       0.22649625       0.24375473 </v>
    <v>      -0.01892302       0.50000000      -0.01892302 </v>
    <v>       0.25013066       0.76060509      -0.01227966 </v>
    <v>      -0.01227966       0.76060509       0.25013066 </v>
    <v>       0.51113260       0.50000000      -0.01189081 </v>
    <v>       0.75791190       0.50000000       0.24016398 </v>
    <v>       0.75452754       0.75502987      -0.00605268 </v>
    <v>       0.51076195       0.77350375       0.24375473 </v>
    <v>      -0.00506890       0.00000000       0.50265783 </v>
    <v>       0.24938653       0.00000000       0.75232542 </v>
    <v>       0.24375473       0.22649625       0.51076195 </v>
    <v>      -0.00605268       0.24497013       0.75452754 </v>
    <v>       0.49938969       0.00000000       0.49938969 </v>
    <v>       0.75090669       0.00000000       0.75090669 </v>
    <v>       0.75799234       0.23962578       0.50296847 </v>
    <v>       0.50296847       0.23962578       0.75799234 </v>
    <v>      -0.01189081       0.50000000       0.51113260 </v>
    <v>       0.24016398       0.50000000       0.75791190 </v>
    <v>       0.24375473       0.77350375       0.51076195 </v>
    <v>      -0.00605268       0.75502987       0.75452754 </v>
    <v>       0.76430207       0.50000000       0.76430207 </v>
    <v>       0.75799234       0.76037422       0.50296847 </v>
    <v>       0.50296847       0.76037422       0.75799234 </v>
   </varray>
  </structure>
  <varray name="forces" >
   <v>      -0.03211295       0.00000000      -0.03211295 </v>
   <v>       0.06890789       0.00000000       0.06890789 </v>
   <v>      -0.35743190       0.00000000      -0.35743190 </v>
   <v>      -0.17469838       0.03737781       0.29692567 </v>
   <v>       0.29692567       0.03737781      -0.17469838 </v>
   <v>       0.11203271       0.00000000      -0.01391591 </v>
   <v>       0.18997142       0.00000000      -0.25020226 </v>
   <v>      -0.16888647      -0.13844248       0.12655060 </v>
   <v>       0.03964133       0.19717003      -0.18286650 </v>
   <v>       0.82844025       0.00000000       0.82844025 </v>
   <v>      -0.17469838      -0.03737781       0.29692567 </v>
   <v>       0.29692567      -0.03737781      -0.17469838 </v>
   <v>       0.26215124       0.00000000       0.04407527 </v>
   <v>      -0.15163826       0.00000000      -0.09243696 </v>
   <v>      -0.16888647       0.13844248       0.12655060 </v>
   <v>       0.03964133      -0.19717003      -0.18286650 </v>
   <v>      -0.01391591       0.00000000       0.11203271 </v>
   <v>      -0.25020226       0.00000000       0.18997142 </v>
   <v>      -0.18286650       0.19717003       0.03964133 </v>
   <v>       0.12655060      -0.13844248      -0.16888647 </v>
   <v>       0.23120223       0.00000000       0.23120223 </v>
   <v>       0.11730018       0.00000000       0.11730018 </v>
   <v>      -0.25327274       0.25919804       0.21628764 </v>
   <v>       0.21628764       0.25919804      -0.25327274 </v>
   <v>       0.04407527       0.00000000       0.26215124 </v>
   <v>      -0.09243696       0.00000000      -0.15163826 </v>
   <v>      -0.18286650      -0.19717003       0.03964133 </v>
   <v>       0.12655060       0.13844248      -0.16888647 </v>
   <v>      -0.75570525       0.00000000      -0.75570525 </v>
   <v>      -0.25327274      -0.25919804       0.21628764 </v>
   <v>       0.21628764      -0.25919804      -0.25327274 </v>
  </varray>
  <varray name="stress" >
   <v>      -2.84977879       0.00000000      -3.84389395 </v>
   <v>       0.00000000       6.79249028       0.00000000 </v>
   <v>      -3.84389395       0.00000000      -2.84977879 </v>
  </varray>
  <energy>
   <i name="e_fr_energy">    -97.98170509 </i>
   <i name="e_wo_entrp">    -98.02362713 </i>
   <i name="e_0_energy">      0.12576613 </i>
  </energy>
  <time name="totalsc">  184.19   80.54</time>
 </calculation>
 <calculation>
  <scstep>
   <time name="diag">    1.98    1.50</time>
   <time name="diis">   20.67    6.30</time>
   <time name="orth">    0.16    0.04</time>
   <time name="total">   26.12   10.96</time>
   <energy>
    <i name="alphaZ">     -7.38312591 </i>
    <i name="ewald">  -2139.47291580 </i>
    <i name="hartreedc">    -68.05251775 </i>
    <i name="XCdc">   -791.59264689 </i>
    <i name="pawpsdc">   1080.25607743 </i>
    <i name="pawaedc">   -110.90561488 </i>
    <i name="eentropy">      0.09211931 </i>
    <i name="bandstr">    309.75231336 </i>
    <i name="atom">   1629.13144109 </i>
    <i name="e_fr_energy">    -98.17487003 </i>
    <i name="e_wo_entrp">    -98.26698934 </i>
    <i name="e_0_energy">    -98.20557647 </i>
   </energy>
  </scstep>
  <scstep>
   <time name="diag">    2.04    1.52</time>
   <time name="diis">   21.76    6.46</time>
   <time name="orth">    0.16    0.04</time>
   <time name="total">   27.03   10.99</time>
   <energy>
    <i name="e_fr_energy">    -98.16435609 </i>
    <i name="e_wo_entrp">    -98.26462108 </i>
    <i name="e_0_energy">    -98.19777775 </i>
   </energy>
  </scstep>
  <scstep>
   <time name="diag">    2.04    1.51</time>
   <time name="diis">   21.47    6.42</time>
   <time name="orth">    0.16    0.04</time>
   <time name="total">   26.74   10.94</time>
   <energy>
    <i name="e_fr_energy">    -98.16203726 </i>
    <i name="e_wo_entrp">    -98.26410473 </i>
    <i name="e_0_energy">    -98.19605975 </i>
   </energy>
  </scstep>
  <scstep>
   <time name="diag">    2.00    1.50</time>
   <time name="diis">   21.63    6.45</time>
   <time name="orth">    0.17    0.04</time>
   <time name="total">   26.92   10.97</time>
   <energy>
    <i name="e_fr_energy">    -98.16174082 </i>
    <i name="e_wo_entrp">    -98.26452317 </i>
    <i name="e_0_energy">    -98.19600160 </i>
   </energy>
  </scstep>
  <scstep>
   <time name="diag">    2.04    1.51</time>
   <time name="diis">   15.02    4.68</time>
   <time name="orth">    0.16    0.04</time>
   <time name="total">   19.16    8.13</time>
   <energy>
    <i name="alphaZ">     -7.38312591 </i>
    <i name="ewald">  -2139.47291580 </i>
    <i name="hartreedc">    -67.62338334 </i>
    <i name="XCdc">   -791.62036247 </i>
    <i name="pawpsdc">   1079.79109019 </i>
    <i name="pawaedc">   -110.41887544 </i>
    <i name="eentropy">      0.10253898 </i>
    <i name="bandstr">    309.33187219 </i>
    <i name="atom">   1629.13144109 </i>
    <i name="e_fr_energy">    -98.16172051 </i>
    <i name="e_wo_entrp">    -98.26425949 </i>
    <i name="e_0_energy">    -98.19590017 </i>
   </energy>
  </scstep>
  <structure>
   <crystal>
    <varray name="basis" >
     <v>       8.08705400       0.00000000       0.00000000 </v>
     <v>       0.00000000       8.08705400       0.00000000 </v>
     <v>       0.00000000       0.00000000       8.08705400 </v>
    </varray>
    <i name="volume">    528.89690930 </i>
    <varray name="rec_basis" >
     <v>       0.12365442       0.00000000       0.00000000 </v>
     <v>       0.00000000       0.12365442       0.00000000 </v>
     <v>       0.00000000       0.00000000       0.12365442 </v>
    </varray>
   </crystal>
   <varray name="positions" >
    <v>       0.25595831       0.50000000       0.25595831 </v>
    <v>      -0.00582990       0.00000000      -0.00582990 </v>
    <v>       0.25184721       0.00000000       0.25184721 </v>
    <v>       0.24897358       0.23964248      -0.01031303 </v>
    <v>      -0.01031303       0.23964248       0.24897358 </v>
    <v>       0.50339986       0.00000000      -0.00516107 </v>
    <v>       0.75358366       0.00000000       0.24772937 </v>
    <v>       0.75340896       0.24405318      -0.00521449 </v>
    <v>       0.51102451       0.22780217       0.24254355 </v>
    <v>      -0.01343600       0.50000000      -0.01343600 </v>
    <v>       0.24897358       0.76035752      -0.01031303 </v>
    <v>      -0.01031303       0.76035752       0.24897358 </v>
    <v>       0.51286891       0.50000000      -0.01159889 </v>
    <v>       0.75690755       0.50000000       0.23955174 </v>
    <v>       0.75340896       0.75594682      -0.00521449 </v>
    <v>       0.51102451       0.77219783       0.24254355 </v>
    <v>      -0.00516107       0.00000000       0.50339986 </v>
    <v>       0.24772937       0.00000000       0.75358366 </v>
    <v>       0.24254355       0.22780217       0.51102451 </v>
    <v>      -0.00521449       0.24405318       0.75340896 </v>
    <v>       0.50092101       0.00000000       0.50092101 </v>
    <v>       0.75168361       0.00000000       0.75168361 </v>
    <v>       0.75631484       0.24134253       0.50440101 </v>
    <v>       0.50440101       0.24134253       0.75631484 </v>
    <v>      -0.01159889       0.50000000       0.51286891 </v>
    <v>       0.23955174       0.50000000       0.75690755 </v>
    <v>       0.24254355       0.77219783       0.51102451 </v>
    <v>      -0.00521449       0.75594682       0.75340896 </v>
    <v>       0.75929680       0.50000000       0.75929680 </v>
    <v>       0.75631484       0.75865747       0.50440101 </v>
    <v>       0.50440101       0.75865747       0.75631484 </v>
   </varray>
  </structure>
  <varray name="forces" >
   <v>       0.04723641       0.00000000       0.04723641 </v>
   <v>      -0.02755377       0.00000000      -0.02755377 </v>
   <v>      -0.08383676       0.00000000      -0.08383676 </v>
   <v>      -0.04393816       0.05249629       0.10421858 </v>
   <v>       0.10421858       0.05249629      -0.04393816 </v>
   <v>      -0.02353328       0.00000000      -0.07970042 </v>
   <v>       0.15612861       0.00000000      -0.06940801 </v>
   <v>      -0.04223849      -0.04941762       0.06831818 </v>
   <v>      -0.01376617       0.11647208      -0.06401988 </v>
   <v>       0.25646488       0.00000000       0.25646488 </v>
   <v>      -0.04393816      -0.05249629       0.10421858 </v>
   <v>       0.10421858      -0.05249629      -0.04393816 </v>
   <v>       0.16569474       0.00000000       0.04309173 </v>
   <v>      -0.10331106       0.00000000      -0.03932601 </v>
   <v>      -0.04223849       0.04941762       0.06831818 </v>
   <v>      -0.01376617      -0.11647208      -0.06401988 </v>
   <v>      -0.07970042       0.00000000      -0.02353328 </v>
   <v>      -0.06940801       0.00000000       0.15612861 </v>
   <v>      -0.06401988       0.11647208      -0.01376617 </v>
   <v>       0.06831818      -0.04941762      -0.04223849 </v>
   <v>      -0.00284477       0.00000000      -0.00284477 </v>
   <v>       0.15670198       0.00000000       0.15670198 </v>
   <v>      -0.12271628       0.17313034       0.01661258 </v>
   <v>       0.01661258       0.17313034      -0.12271628 </v>
   <v>       0.04309173       0.00000000       0.16569474 </v>
   <v>      -0.03932601       0.00000000      -0.10331106 </v>
   <v>      -0.06401988      -0.11647208      -0.01376617 </v>
   <v>       0.06831818       0.04941762      -0.04223849 </v>
   <v>      -0.20074500       0.00000000      -0.20074500 </v>
   <v>      -0.12271628      -0.17313034       0.01661258 </v>
   <v>       0.01661258      -0.17313034      -0.12271628 </v>
  </varray>
  <varray name="stress" >
   <v>      -7.06255265       0.00000000      -5.93293979 </v>
   <v>       0.00000000       6.41140713       0.00000000 </v>
   <v>      -5.93293979       0.00000000      -7.06255265 </v>
  </varray>
  <energy>
   <i name="e_fr_energy">    -98.16172051 </i>
   <i name="e_wo_entrp">    -98.19590017 </i>
   <i name="e_0_energy">      0.10253898 </i>
  </energy>
  <time name="totalsc">  156.71   69.18</time>
 </calculation>
 <calculation>
  <scstep>
   <time name="diag">    1.95    1.49</time>
   <time name="diis">   20.51    6.22</time>
   <time name="orth">    0.16    0.04</time>
   <time name="total">   25.93   10.86</time>
   <energy>
    <i name="alphaZ">     -7.38312591 </i>
    <i name="ewald">  -2141.88335956 </i>
    <i name="hartreedc">    -65.76860597 </i>
    <i name="XCdc">   -791.66382877 </i>
    <i name="pawpsdc">   1079.77304657 </i>
    <i name="pawaedc">   -110.39983590 </i>
    <i name="eentropy">      0.07394158 </i>
    <i name="bandstr">    309.92594535 </i>
    <i name="atom">   1629.13144109 </i>
    <i name="e_fr_energy">    -98.19438152 </i>
    <i name="e_wo_entrp">    -98.26832310 </i>
    <i name="e_0_energy">    -98.21902871 </i>
   </energy>
  </scstep>
  <scstep>
   <time name="diag">    1.97    1.49</time>
   <time name="diis">   21.80    6.45</time>
   <time name="orth">    0.16    0.04</time>
   <time name="total">   27.05   10.99</time>
   <energy>
    <i name="e_fr_energy">    -98.19061594 </i>
    <i name="e_wo_entrp">    -98.27163690 </i>
    <i name="e_0_energy">    -98.21762293 </i>
   </energy>
  </scstep>
  <scstep>
   <time name="diag">    2.01    1.50</time>
   <time name="diis">   21.41    6.45</time>
   <time name="orth">    0.16    0.04</time>
   <time name="total">   26.67   10.97</time>
   <energy>
    <i name="e_fr_energy">    -98.18974517 </i>
    <i name="e_wo_entrp">    -98.27205706 </i>
    <i name="e_0_energy">    -98.21718247 </i>
   </energy>
  </scstep>
  <scstep>
   <time name="diag">    1.99    1.50</time>
   <time name="diis">   18.36    5.57</time>
   <time name="orth">    0.16    0.04</time>
   <time name="total">   22.45    9.02</time>
   <energy>
    <i name="alphaZ">     -7.38312591 </i>
    <i name="ewald">  -2141.88335956 </i>
    <i name="hartreedc">    -65.52642892 </i>
    <i name="XCdc">   -791.67562443 </i>
    <i name="pawpsdc">   1079.57864971 </i>
    <i name="pawaedc">   -110.19672129 </i>
    <i name="eentropy">      0.08294537 </i>
    <i name="bandstr">    309.68257285 </i>
    <i name="atom">   1629.13144109 </i>
    <i name="e_fr_energy">    -98.18965110 </i>
    <i name="e_wo_entrp">    -98.27259647 </i>
    <i name="e_0_energy">    -98.21729956 </i>
   </energy>
  </scstep>
  <structure>
   <crystal>
    <varray name="basis" >
     <v>       8.08705400       0.00000000       0.00000000 </v>
     <v>       0.00000000       8.08705400       0.00000000 </v>
     <v>       0.00000000       0.00000000       8.08705400 </v>
    </varray>
    <i name="volume">    528.89690930 </i>
    <varray name="rec_basis" >
     <v>       0.12365442       0.00000000       0.00000000 </v>
     <v>       0.00000000       0.12365442       0.00000000 </v>
     <v>       0.00000000       0.00000000       0.12365442 </v>
    </varray>
   </crystal>
   <varray name="positions" >
    <v>       0.25582617       0.50000000       0.25582617 </v>
    <v>      -0.00554634       0.00000000      -0.00554634 </v>
    <v>       0.25037635       0.00000000       0.25037635 </v>
    <v>       0.24825468       0.23979629      -0.00909115 </v>
    <v>      -0.00909115       0.23979629       0.24825468 </v>
    <v>       0.50386088       0.00000000      -0.00521833 </v>
    <v>       0.75436541       0.00000000       0.24669976 </v>
    <v>       0.75271397       0.24348348      -0.00469373 </v>
    <v>       0.51118764       0.22861354       0.24179104 </v>
    <v>      -0.01002690       0.50000000      -0.01002690 </v>
    <v>       0.24825468       0.76020371      -0.00909115 </v>
    <v>      -0.00909115       0.76020371       0.24825468 </v>
    <v>       0.51394769       0.50000000      -0.01141752 </v>
    <v>       0.75628354       0.50000000       0.23917135 </v>
    <v>       0.75271397       0.75651652      -0.00469373 </v>
    <v>       0.51118764       0.77138646       0.24179104 </v>
    <v>      -0.00521833       0.00000000       0.50386088 </v>
    <v>       0.24669976       0.00000000       0.75436541 </v>
    <v>       0.24179104       0.22861354       0.51118764 </v>
    <v>      -0.00469373       0.24348348       0.75271397 </v>
    <v>       0.50187243       0.00000000       0.50187243 </v>
    <v>       0.75216631       0.00000000       0.75216631 </v>
    <v>       0.75527260       0.24240916       0.50529105 </v>
    <v>       0.50529105       0.24240916       0.75527260 </v>
    <v>      -0.01141752       0.50000000       0.51394769 </v>
    <v>       0.23917135       0.50000000       0.75628354 </v>
    <v>       0.24179104       0.77138646       0.51118764 </v>
    <v>      -0.00469373       0.75651652       0.75271397 </v>
    <v>       0.75618701       0.50000000       0.75618701 </v>
    <v>       0.75527260       0.75759084       0.50529105 </v>
    <v>       0.50529105       0.75759084       0.75527260 </v>
   </varray>
  </structure>
  <varray name="forces" >
   <v>       0.09805367       0.00000000       0.09805367 </v>
   <v>      -0.07973948       0.00000000      -0.07973948 </v>
   <v>       0.07246056       0.00000000       0.07246056 </v>
   <v>       0.03063095       0.05983031      -0.00526376 </v>
   <v>      -0.00526376       0.05983031       0.03063095 </v>
   <v>      -0.10736774       0.00000000      -0.12065446 </v>
   <v>       0.13671926       0.00000000       0.04383968 </v>
   <v>       0.03723452       0.00383487       0.02775247 </v>
   <v>      -0.04553389       0.06867955       0.00927531 </v>
   <v>      -0.01860737       0.00000000      -0.01860737 </v>
   <v>       0.03063095      -0.05983031      -0.00526376 </v>
   <v>      -0.00526376      -0.05983031       0.03063095 </v>
   <v>       0.09943144       0.00000000       0.03889442 </v>
   <v>      -0.07226258       0.00000000      -0.00436749 </v>
   <v>       0.03723452      -0.00383487       0.02775247 </v>
   <v>      -0.04553389      -0.06867955       0.00927531 </v>
   <v>      -0.12065446       0.00000000      -0.10736774 </v>
   <v>       0.04383968       0.00000000       0.13671926 </v>
   <v>       0.00927531       0.06867955      -0.04553389 </v>
   <v>       0.02775247       0.00383487       0.03723452 </v>
   <v>      -0.13214571       0.00000000      -0.13214571 </v>
   <v>       0.17144903       0.00000000       0.17144903 </v>
   <v>      -0.04596894       0.11763426      -0.09752278 </v>
   <v>      -0.09752278       0.11763426      -0.04596894 </v>
   <v>       0.03889442       0.00000000       0.09943144 </v>
   <v>      -0.00436749       0.00000000      -0.07226258 </v>
   <v>       0.00927531      -0.06867955      -0.04553389 </v>
   <v>       0.02775247      -0.00383487       0.03723452 </v>
   <v>       0.05308900       0.00000000       0.05308900 </v>
   <v>      -0.04596894      -0.11763426      -0.09752278 </v>
   <v>      -0.09752278      -0.11763426      -0.04596894 </v>
  </varray>
  <varray name="stress" >
   <v>      -9.15517367       0.00000000      -6.52106699 </v>
   <v>       0.00000000       7.07375116       0.00000000 </v>
   <v>      -6.52106699       0.00000000      -9.15517367 </v>
  </varray>
  <energy>
   <i name="e_fr_energy">    -98.18965110 </i>
   <i name="e_wo_entrp">    -98.21729956 </i>
   <i name="e_0_energy">      0.08294537 </i>
  </energy>
  <time name="totalsc">  129.94   57.63</time>
  <eigenvalues>
   <array>
    <dimension dim="1">band</dimension>
    <dimension dim="2">kpoint</dimension>
    <dimension dim="3">spin</dimension>
    <field>eigene</field>
    <field>occ</field>
    <set>
     <set comment="spin 1">
      <set comment="kpoint 1">
       <r>   -3.4553    1.0000 </r>
       <r>   -1.3655    1.0000 </r>
       <r>   -1.3613    1.0000 </r>
       <r>   -1.2909    1.0000 </r>
       <r>   -1.2502    1.0000 </r>
       <r>   -1.0487    1.0000 </r>
       <r>   -0.7336    1.0000 </r>
       <r>    0.7447    1.0000 </r>
       <r>    0.8179    1.0000 </r>
       <r>    0.8506    1.0000 </r>
       <r>    0.8605    1.0000 </r>
       <r>    0.9300    1.0000 </r>
       <r>    1.0392    1.0000 </r>
       <r>    1.0427    1.0000 </r>
       <r>    1.0638    1.0000 </r>
       <r>    1.2135    1.0000 </r>
       <r>    1.2426    1.0000 </r>
       <r>    1.6874    1.0000 </r>
       <r>    2.0770    1.0000 </r>
       <r>    3.0572    1.0000 </r>
       <r>    3.2067    1.0000 </r>
       <r>    3.2696    1.0000 </r>
       <r>    3.2720    1.0000 </r>
       <r>    3.3541    1.0000 </r>
       <r>    3.4277    1.0000 </r>
       <r>    3.8032    1.0000 </r>
       <r>    4.3731    1.0000 </r>
       <r>    4.7867    1.0000 </r>
       <r>    4.8501    1.0000 </r>
       <r>    4.8684    1.0000 </r>
       <r>    6.0292    1.0000 </r>
       <r>    6.2277    1.0000 </r>
       <r>    6.3844    1.0000 </r>
       <r>    6.6059    1.0000 </r>
       <r>    6.6124    1.0000 </r>
       <r>    6.7018    1.0000 </r>
       <r>    6.7598    1.0000 </r>
       <r>    6.7644    1.0000 </r>
       <r>    6.7796    1.0000 </r>
       <r>    6.9322    1.0000 </r>
       <r>    6.9735    1.0000 </r>
       <r>    7.1144    1.0001 </r>
       <r>    7.3048    1.0064 </r>
       <r>    7.3177    1.0079 </r>
       <r>    7.4358    1.0313 </r>
       <r>    7.5810    0.9552 </r>
       <r>    7.8523    0.0510 </r>
       <r>    7.8848    0.0022 </r>
       <r>    7.9522   -0.0350 </r>
       <r>    8.0802   -0.0141 </r>
       <r>    8.1451   -0.0051 </r>
       <r>    8.6668    0.0000 </r>
       <r>    8.6878    0.0000 </r>
       <r>    8.7030    0.0000 </r>
       <r>    8.7198    0.0000 </r>
       <r>    8.7325    0.0000 </r>
       <r>    8.8118    0.0000 </r>
       <r>    8.8501    0.0000 </r>
       <r>    8.9071    0.0000 </r>
       <r>    9.1296    0.0000 </r>
       <r>    9.1912    0.0000 </r>
       <r>    9.2386    0.0000 </r>
      </set>
     </set>
    </set>
   </array>
  </eigenvalues>
  <separator name="orbital magnetization" >
   <v name="MAGDIPOLOUT">      0.00000000      0.00000000      0.00000000</v>
  </separator>
  <dos>
   <i name="efermi">      7.71832893 </i>
   <total>
    <array>
     <dimension dim="1">gridpoints</dimension>
     <dimension dim="2">spin</dimension>
     <field>energy</field>
     <field>total</field>
     <field>integrated</field>
     <set>
      <set comment="spin 1">
       <r>  -5.4553   0.0000   0.0000 </r>
       <r>  -5.3997   0.0000   0.0000 </r>
       <r>  -5.3440   0.0000   0.0000 </r>
       <r>  -5.2884   0.0000   0.0000 </r>
       <r>  -5.2327   0.0000   0.0000 </r>
       <r>  -5.1771   0.0000   0.0000 </r>
       <r>  -5.1215   0.0000   0.0000 </r>
       <r>  -5.0658   0.0000   0.0000 </r>
       <r>  -5.0102   0.0000   0.0000 </r>
       <r>  -4.9545   0.0000   0.0000 </r>
       <r>  -4.8989   0.0000   0.0000 </r>
       <r>  -4.8432   0.0000   0.0000 </r>
       <r>  -4.7876   0.0000   0.0000 </r>
       <r>  -4.7319   0.0000   0.0000 </r>
       <r>  -4.6763   0.0000   0.0000 </r>
       <r>  -4.6206   0.0000   0.0000 </r>
       <r>  -4.5650   0.0000   0.0000 </r>
       <r>  -4.5093   0.0000   0.0000 </r>
       <r>  -4.4537   0.0000   0.0000 </r>
       <r>  -4.3981   0.0000   0.0000 </r>
       <r>  -4.3424   0.0000   0.0000 </r>
       <r>  -4.2868   0.0000   0.0000 </r>
       <r>  -4.2311   0.0000   0.0000 </r>
       <r>  -4.1755  -0.0001   0.0000 </r>
       <r>  -4.1198  -0.0004   0.0000 </r>
       <r>  -4.0642  -0.0021  -0.0001 </r>
       <r>  -4.0085  -0.0091  -0.0007 </r>
       <r>  -3.9529  -0.0323  -0.0024 </r>
       <r>  -3.8972  -0.0939  -0.0077 </r>
       <r>  -3.8416  -0.2186  -0.0198 </r>
       <r>  -3.7859  -0.3852  -0.0413 </r>
       <r>  -3.7303  -0.4319  -0.0653 </r>
       <r>  -3.6746   0.0067  -0.0649 </r>
       <r>  -3.6190   1.3610   0.0108 </r>
       <r>  -3.5634   3.7113   0.2173 </r>
       <r>  -3.5077   6.3941   0.5731 </r>
       <r>  -3.4521   8.1678   1.0276 </r>
       <r>  -3.3964   8.0464   1.4754 </r>
       <r>  -3.3408   6.1006   1.8149 </r>
       <r>  -3.2851   3.3980   2.0039 </r>
       <r>  -3.2295   1.1461   2.0677 </r>
       <r>  -3.1738  -0.0851   2.0630 </r>
       <r>  -3.1182  -0.4428   2.0383 </r>
       <r>  -3.0625  -0.3669   2.0179 </r>
       <r>  -3.0069  -0.2005   2.0068 </r>
       <r>  -2.9512  -0.0838   2.0021 </r>
       <r>  -2.8956  -0.0281   2.0006 </r>
       <r>  -2.8400  -0.0077   2.0001 </r>
       <r>  -2.7843  -0.0018   2.0000 </r>
       <r>  -2.7287  -0.0003   2.0000 </r>
       <r>  -2.6730  -0.0001   2.0000 </r>
       <r>  -2.6174   0.0000   2.0000 </r>
       <r>  -2.5617   0.0000   2.0000 </r>
       <r>  -2.5061   0.0000   2.0000 </r>
       <r>  -2.4504   0.0000   2.0000 </r>
       <r>  -2.3948   0.0000   2.0000 </r>
       <r>  -2.3391   0.0000   2.0000 </r>
       <r>  -2.2835   0.0000   2.0000 </r>
       <r>  -2.2278   0.0000   2.0000 </r>
       <r>  -2.1722   0.0000   2.0000 </r>
       <r>  -2.1166   0.0000   2.0000 </r>
       <r>  -2.0609  -0.0003   2.0000 </r>
       <r>  -2.0053  -0.0018   1.9999 </r>
       <r>  -1.9496  -0.0085   1.9994 </r>
       <r>  -1.8940  -0.0344   1.9975 </r>
       <r>  -1.8383  -0.1164   1.9910 </r>
       <r>  -1.7827  -0.3240   1.9730 </r>
       <r>  -1.7270  -0.7253   1.9326 </r>
       <r>  -1.6714  -1.2384   1.8637 </r>
       <r>  -1.6157  -1.3631   1.7879 </r>
       <r>  -1.5601  -0.0141   1.7871 </r>
       <r>  -1.5044   4.1062   2.0156 </r>
       <r>  -1.4488  11.4204   2.6511 </r>
       <r>  -1.3932  20.3793   3.7851 </r>
       <r>  -1.3375  27.6667   5.3247 </r>
       <r>  -1.2819  30.1600   7.0029 </r>
       <r>  -1.2262  27.2073   8.5169 </r>
       <r>  -1.1706  21.0335   9.6874 </r>
       <r>  -1.1149  14.8005  10.5110 </r>
       <r>  -1.0593  10.2825  11.0831 </r>
       <r>  -1.0036   7.3780  11.4937 </r>
       <r>  -0.9480   5.4485  11.7969 </r>
       <r>  -0.8923   4.5177  12.0483 </r>
       <r>  -0.8367   4.9692  12.3248 </r>
       <r>  -0.7810   6.4724  12.6850 </r>
       <r>  -0.7254   7.7385  13.1156 </r>
       <r>  -0.6698   7.5076  13.5334 </r>
       <r>  -0.6141   5.6272  13.8465 </r>
       <r>  -0.5585   3.0597  14.0167 </r>
       <r>  -0.5028   0.9569  14.0700 </r>
       <r>  -0.4472  -0.1568  14.0613 </r>
       <r>  -0.3915  -0.4498  14.0362 </r>
       <r>  -0.3359  -0.3530  14.0166 </r>
       <r>  -0.2802  -0.1876  14.0062 </r>
       <r>  -0.2246  -0.0767  14.0019 </r>
       <r>  -0.1689  -0.0253  14.0005 </r>
       <r>  -0.1133  -0.0068  14.0001 </r>
       <r>  -0.0576  -0.0015  14.0000 </r>
       <r>  -0.0020  -0.0003  14.0000 </r>
       <r>   0.0537  -0.0002  14.0000 </r>
       <r>   0.1093  -0.0012  13.9999 </r>
       <r>   0.1649  -0.0056  13.9996 </r>
       <r>   0.2206  -0.0231  13.9983 </r>
       <r>   0.2762  -0.0799  13.9939 </r>
       <r>   0.3319  -0.2311  13.9810 </r>
       <r>   0.3875  -0.5504  13.9504 </r>
       <r>   0.4432  -1.0464  13.8922 </r>
       <r>   0.4988  -1.4646  13.8107 </r>
       <r>   0.5545  -1.0573  13.7518 </r>
       <r>   0.6101   1.3964  13.8295 </r>
       <r>   0.6658   7.0072  14.2195 </r>
       <r>   0.7214  15.7621  15.0966 </r>
       <r>   0.7771  25.9106  16.5384 </r>
       <r>   0.8327  34.6432  18.4662 </r>
       <r>   0.8883  39.8098  20.6814 </r>
       <r>   0.9440  41.1334  22.9703 </r>
       <r>   0.9996  39.7760  25.1837 </r>
       <r>   1.0553  36.9888  27.2420 </r>
       <r>   1.1109  33.3784  29.0994 </r>
       <r>   1.1666  29.0728  30.7172 </r>
       <r>   1.2222  24.0018  32.0528 </r>
       <r>   1.2779  18.0803  33.0589 </r>
       <r>   1.3335  11.6176  33.7054 </r>
       <r>   1.3892   5.6407  34.0193 </r>
       <r>   1.4448   1.5337  34.1046 </r>
       <r>   1.5005   0.2089  34.1162 </r>
       <r>   1.5561   1.5457  34.2023 </r>
       <r>   1.6117   4.3853  34.4463 </r>
       <r>   1.6674   6.9817  34.8348 </r>
       <r>   1.7230   7.8297  35.2705 </r>
       <r>   1.7787   6.5654  35.6358 </r>
       <r>   1.8343   4.2477  35.8722 </r>
       <r>   1.8900   2.6342  36.0188 </r>
       <r>   1.9456   2.9279  36.1817 </r>
       <r>   2.0013   4.9277  36.4559 </r>
       <r>   2.0569   7.1895  36.8560 </r>
       <r>   2.1126   8.0842  37.3058 </r>
       <r>   2.1682   6.9627  37.6933 </r>
       <r>   2.2239   4.4946  37.9434 </r>
       <r>   2.2795   1.9686  38.0529 </r>
       <r>   2.3351   0.3018  38.0697 </r>
       <r>   2.3908  -0.3726  38.0490 </r>
       <r>   2.4464  -0.4270  38.0252 </r>
       <r>   2.5021  -0.2772  38.0098 </r>
       <r>   2.5577  -0.1562  38.0011 </r>
       <r>   2.6134  -0.1407  37.9933 </r>
       <r>   2.6690  -0.2453  37.9796 </r>
       <r>   2.7247  -0.4504  37.9546 </r>
       <r>   2.7803  -0.6391  37.9190 </r>
       <r>   2.8360  -0.5220  37.8900 </r>
       <r>   2.8916   0.3172  37.9076 </r>
       <r>   2.9473   2.2224  38.0313 </r>
       <r>   3.0029   5.3112  38.3268 </r>
       <r>   3.0586   9.5881  38.8604 </r>
       <r>   3.1142  15.1107  39.7012 </r>
       <r>   3.1698  21.6993  40.9087 </r>
       <r>   3.2255  28.2827  42.4825 </r>
       <r>   3.2811  32.8066  44.3081 </r>
       <r>   3.3368  33.2645  46.1592 </r>
       <r>   3.3924  29.0627  47.7764 </r>
       <r>   3.4481  21.4791  48.9716 </r>
       <r>   3.5037  12.9653  49.6931 </r>
       <r>   3.5594   6.0119  50.0276 </r>
       <r>   3.6150   2.2525  50.1530 </r>
       <r>   3.6707   1.9859  50.2635 </r>
       <r>   3.7263   4.1280  50.4932 </r>
       <r>   3.7820   6.7030  50.8662 </r>
       <r>   3.8376   7.8562  51.3033 </r>
       <r>   3.8932   6.8679  51.6855 </r>
       <r>   3.9489   4.3922  51.9299 </r>
       <r>   4.0045   1.7325  52.0263 </r>
       <r>   4.0602  -0.1040  52.0205 </r>
       <r>   4.1158  -0.7344  51.9797 </r>
       <r>   4.1715  -0.1067  51.9737 </r>
       <r>   4.2271   1.7339  52.0702 </r>
       <r>   4.2828   4.4168  52.3160 </r>
       <r>   4.3384   6.9486  52.7027 </r>
       <r>   4.3941   8.0168  53.1488 </r>
       <r>   4.4497   6.8994  53.5327 </r>
       <r>   4.5054   4.1832  53.7655 </r>
       <r>   4.5610   1.6220  53.8557 </r>
       <r>   4.6166   1.2798  53.9270 </r>
       <r>   4.6723   4.4885  54.1767 </r>
       <r>   4.7279  10.9434  54.7857 </r>
       <r>   4.7836  18.3350  55.8060 </r>
       <r>   4.8392  23.1972  57.0968 </r>
       <r>   4.8949  22.9721  58.3751 </r>
       <r>   4.9505  17.8152  59.3665 </r>
       <r>   5.0062  10.4229  59.9465 </r>
       <r>   5.0618   3.9867  60.1683 </r>
       <r>   5.1175   0.2028  60.1796 </r>
       <r>   5.1731  -1.1117  60.1177 </r>
       <r>   5.2288  -1.0623  60.0586 </r>
       <r>   5.2844  -0.6306  60.0235 </r>
       <r>   5.3400  -0.2827  60.0078 </r>
       <r>   5.3957  -0.1024  60.0021 </r>
       <r>   5.4513  -0.0347  60.0002 </r>
       <r>   5.5070  -0.0262  59.9987 </r>
       <r>   5.5626  -0.0620  59.9953 </r>
       <r>   5.6183  -0.1573  59.9865 </r>
       <r>   5.6739  -0.3212  59.9686 </r>
       <r>   5.7296  -0.4774  59.9421 </r>
       <r>   5.7852  -0.3730  59.9213 </r>
       <r>   5.8409   0.4007  59.9436 </r>
       <r>   5.8965   2.1483  60.0632 </r>
       <r>   5.9522   4.6944  60.3244 </r>
       <r>   6.0078   7.3220  60.7318 </r>
       <r>   6.0635   9.2673  61.2475 </r>
       <r>   6.1191  10.3321  61.8225 </r>
       <r>   6.1747  10.8974  62.4289 </r>
       <r>   6.2304  11.3209  63.0588 </r>
       <r>   6.2860  11.4862  63.6980 </r>
       <r>   6.3417  11.0761  64.3143 </r>
       <r>   6.3973  10.3000  64.8875 </r>
       <r>   6.4530  10.3212  65.4618 </r>
       <r>   6.5086  12.8031  66.1743 </r>
       <r>   6.5643  18.6829  67.2139 </r>
       <r>   6.6199  27.0708  68.7203 </r>
       <r>   6.6756  35.2912  70.6841 </r>
       <r>   6.7312  40.2525  72.9240 </r>
       <r>   6.7869  40.2847  75.1657 </r>
       <r>   6.8425  36.1044  77.1748 </r>
       <r>   6.8981  30.0741  78.8483 </r>
       <r>   6.9538  24.3791  80.2049 </r>
       <r>   7.0094  19.8548  81.3097 </r>
       <r>   7.0651  16.4209  82.2235 </r>
       <r>   7.1207  14.2041  83.0139 </r>
       <r>   7.1764  13.8366  83.7839 </r>
       <r>   7.2320  15.6274  84.6535 </r>
       <r>   7.2877  18.6874  85.6934 </r>
       <r>   7.3433  21.1715  86.8715 </r>
       <r>   7.3990  21.5584  88.0711 </r>
       <r>   7.4546  19.6528  89.1647 </r>
       <r>   7.5103  16.3255  90.0732 </r>
       <r>   7.5659  12.5767  90.7730 </r>
       <r>   7.6215   9.2047  91.2852 </r>
       <r>   7.6772   7.2316  91.6876 </r>
       <r>   7.7328   7.9353  92.1292 </r>
       <r>   7.7885  11.8345  92.7878 </r>
       <r>   7.8441  17.6724  93.7712 </r>
       <r>   7.8998  22.9140  95.0462 </r>
       <r>   7.9554  25.5671  96.4690 </r>
       <r>   8.0111  25.4021  97.8825 </r>
       <r>   8.0667  23.3379  99.1812 </r>
       <r>   8.1224  20.0481 100.2968 </r>
       <r>   8.1780  15.5854 101.1640 </r>
       <r>   8.2337  10.1440 101.7285 </r>
       <r>   8.2893   4.5790 101.9833 </r>
       <r>   8.3449   0.0031 101.9835 </r>
       <r>   8.4006  -2.7003 101.8332 </r>
       <r>   8.4562  -2.6099 101.6880 </r>
       <r>   8.5119   1.6676 101.7808 </r>
       <r>   8.5675  11.3152 102.4104 </r>
       <r>   8.6232  25.4915 103.8289 </r>
       <r>   8.6788  40.2868 106.0707 </r>
       <r>   8.7345  50.2529 108.8671 </r>
       <r>   8.7901  51.6898 111.7435 </r>
       <r>   8.8458  44.8301 114.2381 </r>
       <r>   8.9014  33.3116 116.0918 </r>
       <r>   8.9571  22.0044 117.3162 </r>
       <r>   9.0127  14.9054 118.1457 </r>
       <r>   9.0684  13.6506 118.9053 </r>
       <r>   9.1240  16.8139 119.8409 </r>
       <r>   9.1796  20.6621 120.9907 </r>
       <r>   9.2353  21.4732 122.1856 </r>
       <r>   9.2909  17.9166 123.1826 </r>
       <r>   9.3466  11.5625 123.8260 </r>
       <r>   9.4022   5.2596 124.1187 </r>
       <r>   9.4579   1.0294 124.1759 </r>
       <r>   9.5135  -0.8057 124.1311 </r>
       <r>   9.5692  -1.0663 124.0718 </r>
       <r>   9.6248  -0.7261 124.0314 </r>
       <r>   9.6805  -0.3607 124.0113 </r>
       <r>   9.7361  -0.1419 124.0034 </r>
       <r>   9.7918  -0.0456 124.0009 </r>
       <r>   9.8474  -0.0122 124.0002 </r>
       <r>   9.9030  -0.0027 124.0000 </r>
       <r>   9.9587  -0.0005 124.0000 </r>
       <r>  10.0143  -0.0001 124.0000 </r>
       <r>  10.0700   0.0000 124.0000 </r>
       <r>  10.1256   0.0000 124.0000 </r>
       <r>  10.1813   0.0000 124.0000 </r>
       <r>  10.2369   0.0000 124.0000 </r>
       <r>  10.2926   0.0000 124.0000 </r>
       <r>  10.3482   0.0000 124.0000 </r>
       <r>  10.4039   0.0000 124.0000 </r>
       <r>  10.4595   0.0000 124.0000 </r>
       <r>  10.5152   0.0000 124.0000 </r>
       <r>  10.5708   0.0000 124.0000 </r>
       <r>  10.6264   0.0000 124.0000 </r>
       <r>  10.6821   0.0000 124.0000 </r>
       <r>  10.7377   0.0000 124.0000 </r>
       <r>  10.7934   0.0000 124.0000 </r>
       <r>  10.8490   0.0000 124.0000 </r>
       <r>  10.9047   0.0000 124.0000 </r>
       <r>  10.9603   0.0000 124.0000 </r>
       <r>  11.0160   0.0000 124.0000 </r>
       <r>  11.0716   0.0000 124.0000 </r>
       <r>  11.1273   0.0000 124.0000 </r>
       <r>  11.1829   0.0000 124.0000 </r>
       <r>  11.2386   0.0000 124.0000 </r>
      </set>
     </set>
    </array>
   </total>
  </dos>
 </calculation>
 <structure name="finalpos" >
  <crystal>
   <varray name="basis" >
    <v>       8.08705400       0.00000000       0.00000000 </v>
    <v>       0.00000000       8.08705400       0.00000000 </v>
    <v>       0.00000000       0.00000000       8.08705400 </v>
   </varray>
   <i name="volume">    528.89690930 </i>
   <varray name="rec_basis" >
    <v>       0.12365442       0.00000000       0.00000000 </v>
    <v>       0.00000000       0.12365442       0.00000000 </v>
    <v>       0.00000000       0.00000000       0.12365442 </v>
   </varray>
  </crystal>
  <varray name="positions" >
   <v>       0.25582617       0.50000000       0.25582617 </v>
   <v>      -0.00554634       0.00000000      -0.00554634 </v>
   <v>       0.25037635       0.00000000       0.25037635 </v>
   <v>       0.24825468       0.23979629      -0.00909115 </v>
   <v>      -0.00909115       0.23979629       0.24825468 </v>
   <v>       0.50386088       0.00000000      -0.00521833 </v>
   <v>       0.75436541       0.00000000       0.24669976 </v>
   <v>       0.75271397       0.24348348      -0.00469373 </v>
   <v>       0.51118764       0.22861354       0.24179104 </v>
   <v>      -0.01002690       0.50000000      -0.01002690 </v>
   <v>       0.24825468       0.76020371      -0.00909115 </v>
   <v>      -0.00909115       0.76020371       0.24825468 </v>
   <v>       0.51394769       0.50000000      -0.01141752 </v>
   <v>       0.75628354       0.50000000       0.23917135 </v>
   <v>       0.75271397       0.75651652      -0.00469373 </v>
   <v>       0.51118764       0.77138646       0.24179104 </v>
   <v>      -0.00521833       0.00000000       0.50386088 </v>
   <v>       0.24669976       0.00000000       0.75436541 </v>
   <v>       0.24179104       0.22861354       0.51118764 </v>
   <v>      -0.00469373       0.24348348       0.75271397 </v>
   <v>       0.50187243       0.00000000       0.50187243 </v>
   <v>       0.75216631       0.00000000       0.75216631 </v>
   <v>       0.75527260       0.24240916       0.50529105 </v>
   <v>       0.50529105       0.24240916       0.75527260 </v>
   <v>      -0.01141752       0.50000000       0.51394769 </v>
   <v>       0.23917135       0.50000000       0.75628354 </v>
   <v>       0.24179104       0.77138646       0.51118764 </v>
   <v>      -0.00469373       0.75651652       0.75271397 </v>
   <v>       0.75618701       0.50000000       0.75618701 </v>
   <v>       0.75527260       0.75759084       0.50529105 </v>
   <v>       0.50529105       0.75759084       0.75527260 </v>
  </varray>
 </structure>
</modeling>
