Automatically generated mesh
      12
Reciprocal lattice
    0.12500000000000    0.12500000000000    0.12500000000000             4
    0.37500000000000    0.12500000000000    0.12500000000000             4
    0.12500000000000    0.37500000000000    0.12500000000000             8
    0.37500000000000    0.37500000000000    0.12500000000000             8
    0.12500000000000   -0.37500000000000    0.12500000000000             8
    0.37500000000000   -0.37500000000000    0.12500000000000             8
    0.12500000000000   -0.12500000000000    0.12500000000000             4
    0.37500000000000   -0.12500000000000    0.12500000000000             4
    0.12500000000000    0.37500000000000    0.37500000000000             4
    0.37500000000000    0.37500000000000    0.37500000000000             4
    0.12500000000000   -0.37500000000000    0.37500000000000             4
    0.37500000000000   -0.37500000000000    0.37500000000000             4
Tetrahedra
        95    0.00260416666667
         4         1         2         3         4
         4         1         3         3         4
         4         3         3         4         9
         4         2         3         4         4
         4         3         4         4        10
         4         3         4         9        10
         2         2         2         4         4
         4         2         4         4         4
         4         4         4         4        10
         2         4         4        10        10
         2         1         1         3         3
         4         1         3         3         3
         4         3         3         3         9
         2         3         3         9         9
         4         3         4         6         9
         4         3         5         6         9
         4         5         6         9        11
         4         4         6         9        10
         4         6         9        10        12
         4         6         9        11        12
         4         4         4         6        10
         4         4         6         6        10
         4         6         6        10        12
         4         4         6        10        10
         4         6        10        10        12
         4         6        10        12        12
         4         3         4         5        10
         4         4         5         6        10
         4         5         6        10        12
         4         3         5         9        10
         4         5         9        10        11
         4         5        10        11        12
         4         3         3         5         9
         4         3         5         5         9
         4         5         5         9        11
         4         3         5         9         9
         4         5         9         9        11
         4         5         9        11        11
         4         5         6         8        11
         4         5         7         8        11
         4         6         8        11        12
         4         6         6         8        12
         4         6         8         8        12
         4         6         8        12        12
         4         5         6         7        12
         4         6         7         8        12
         4         5         7        11        12
         4         5         5         7        11
         4         5         7         7        11
         4         5         7        11        11
         4         2         5         7         8
         4         1         2         5         7
         4         1         2         3         5
         4         2         5         6         8
         4         2         4         5         6
         4         2         3         4         5
         4         2         6         8         8
         4         2         2         6         8
         4         2         2         4         6
         4         2         6         6         8
         4         2         4         6         6
         4         2         4         4         6
         4         1         6         7         8
         4         1         2         6         8
         4         1         2         4         6
         4         1         5         6         7
         4         1         3         5         6
         4         1         3         4         6
         4         1         5         7         7
         4         1         1         5         7
         4         1         1         3         5
         4         1         5         5         7
         4         1         3         5         5
         4         1         3         3         5
         4         9        10        11        12
         4         9        11        11        12
         4        10        11        12        12
         2        10        10        12        12
         4        10        12        12        12
         2         9         9        11        11
         4         9        11        11        11
         8         3         4         5         6
         8         3         3         4         5
         8         3         4         4         6
         4         4         4         6         6
         8         4         4         4         6
         4         3         3         5         5
         8         3         3         3         5
         4         1         2         7         8
         4         1         7         7         8
         4         2         7         8         8
         2         2         2         8         8
         4         2         8         8         8
         2         1         1         7         7
         4         1         7         7         7
