   33   33  191    1
  0.1602717E+02  0.8087052E-09  0.8087052E-09  0.8087052E-09  0.5000000E-15
  1.000000000000000E-004
  CAR 
 unknown system                          
   98    1   72
 
  0.0000000E+00  0.0000000E+00  0.0000000E+00  0.1000000E+01
   1       -3.138209
   2       -1.163961
   3       -1.151660
   4       -0.847843
   5       -0.825302
   6       -0.809403
   7       -0.512781
   8        0.872854
   9        0.898434
  10        1.119243
  11        1.343297
  12        1.345462
  13        1.394734
  14        1.457697
  15        1.470092
  16        1.667065
  17        1.684179
  18        1.716973
  19        1.811875
  20        3.163621
  21        3.566547
  22        3.587420
  23        3.593283
  24        3.707851
  25        3.708550
  26        3.764757
  27        3.843615
  28        5.101773
  29        5.185954
  30        5.197943
  31        6.159529
  32        6.453430
  33        6.461906
  34        6.674042
  35        6.864761
  36        6.873714
  37        7.053143
  38        7.214026
  39        7.220186
  40        7.293803
  41        7.372498
  42        7.397109
  43        7.511920
  44        7.533041
  45        7.587441
  46        7.704102
  47        7.726654
  48        8.133435
  49        8.267922
  50        8.519710
  51        8.549956
  52        8.734039
  53        8.760810
  54        8.808247
  55        8.901410
  56        8.934268
  57        8.956588
  58        9.159804
  59        9.228729
  60        9.251364
  61        9.289305
  62        9.310298
  63        9.454511
  64        9.484116
  65        9.485597
  66        9.615222
  67        9.753298
  68        9.756891
  69        9.810560
  70       10.161478
  71       10.199844
  72       10.712181
