 vasp.5.2.2 15Apr09 complex 
 executed on             LinuxIFC date 2016.11.30  12:59:11
 running on    8 nodes
 distr:  one band on    1 nodes,    8 groups


--------------------------------------------------------------------------------------------------------


 INCAR:
 POTCAR:   PAW_PBE Al 04Jan2001                   
 POTCAR:   PAW_PBE Mg 05Jan2001                   
 POTCAR:   PAW_PBE Al 04Jan2001                   
   VRHFIN =Al: s2p1                                                             
   LEXCH  = PE                                                                  
   EATOM  =    53.5387 eV,    3.9350 Ry                                         
                                                                                
   TITEL  = PAW_PBE Al 04Jan2001                                                
   LULTRA =        F    use ultrasoft PP ?                                      
   IUNSCR =        1    unscreen: 0-lin 1-nonlin 2-no                           
   RPACOR =    1.500    partial core radius                                     
   POMASS =   26.982; ZVAL   =    3.000    mass and valenz                      
   RCORE  =    1.900    outmost cutoff radius                                   
   RWIGS  =    2.650; RWIGS  =    1.402    wigner-seitz radius (au A)           
   ENMAX  =  240.300; ENMIN  =  180.225 eV                                      
   ICORE  =        2    local potential                                         
   LCOR   =        T    correct aug charges                                     
   LPAW   =        T    paw PP                                                  
   EAUG   =  291.052                                                            
   DEXC   =    -.041                                                            
   RMAX   =    2.974    core radius for proj-oper                               
   RAUG   =    1.300    factor for augmentation sphere                          
   RDEP   =    1.966    radius for radial grids                                 
   QCUT   =   -4.203; QGAM   =    8.405    optimization parameters              
                                                                                
   Description                                                                  
     l     E      TYP  RCUT    TYP  RCUT                                        
     0   .000     23  1.900                                                     
     0   .000     23  1.900                                                     
     1   .000     23  1.900                                                     
     1  1.000     23  1.900                                                     
     2   .000      7  1.900                                                     
  local pseudopotential read in
  partial core-charges read in
  atomic valenz-charges read in
  non local Contribution for L=           0  read in
    real space projection operators read in
  non local Contribution for L=           0  read in
    real space projection operators read in
  non local Contribution for L=           1  read in
    real space projection operators read in
  non local Contribution for L=           1  read in
    real space projection operators read in
    PAW grid and wavefunctions read in
 
   number of l-projection  operators is LMAX  =           4
   number of lm-projection operators is LMMAX =           8
 
 POTCAR:   PAW_PBE Mg 05Jan2001                   
   VRHFIN =Mg: s2p0                                                             
   LEXCH  = PE                                                                  
   EATOM  =    23.0029 eV,    1.6907 Ry                                         
                                                                                
   TITEL  = PAW_PBE Mg 05Jan2001                                                
   LULTRA =        F    use ultrasoft PP ?                                      
   IUNSCR =        1    unscreen: 0-lin 1-nonlin 2-no                           
   RPACOR =    2.000    partial core radius                                     
   POMASS =   24.305; ZVAL   =    2.000    mass and valenz                      
   RCORE  =    2.000    outmost cutoff radius                                   
   RWIGS  =    2.880; RWIGS  =    1.524    wigner-seitz radius (au A)           
   ENMAX  =  210.012; ENMIN  =  157.509 eV                                      
   ICORE  =        2    local potential                                         
   LCOR   =        T    correct aug charges                                     
   LPAW   =        T    paw PP                                                  
   EAUG   =  274.554                                                            
   DEXC   =    -.136                                                            
   RMAX   =    3.182    core radius for proj-oper                               
   RAUG   =    1.300    factor for augmentation sphere                          
   RDEP   =    2.025    radius for radial grids                                 
   QCUT   =   -3.929; QGAM   =    7.858    optimization parameters              
                                                                                
   Description                                                                  
     l     E      TYP  RCUT    TYP  RCUT                                        
     0   .000     23  2.000                                                     
     0  2.000     23  2.000                                                     
     1   .000     23  2.000                                                     
     1  2.000     23  2.000                                                     
     2   .000     23  2.000                                                     
  local pseudopotential read in
  partial core-charges read in
  atomic valenz-charges read in
  non local Contribution for L=           0  read in
    real space projection operators read in
  non local Contribution for L=           0  read in
    real space projection operators read in
  non local Contribution for L=           1  read in
    real space projection operators read in
  non local Contribution for L=           1  read in
    real space projection operators read in
    PAW grid and wavefunctions read in
 
   number of l-projection  operators is LMAX  =           4
   number of lm-projection operators is LMMAX =           8
 

 ----------------------------------------------------------------------------- 
|                                                                             |
|  ADVICE TO THIS USER RUNNING 'VASP/VAMP'   (HEAR YOUR MASTER'S VOICE ...):  |
|                                                                             |
|      You have a (more or less) 'large supercell' and for larger cells       |
|      it might be more efficient to use real space projection operators      |
|      So try LREAL= Auto  in the INCAR   file.                               |
|      Mind: If you want to do a very accurate calculations keep the          |
|      reciprocal projection scheme          (i.e. LREAL=.FALSE.)             |
|                                                                             |
 ----------------------------------------------------------------------------- 

 PAW_PBE Al 04Jan2001                   :
 energy of atom  1       EATOM=  -53.5387
 kinetic energy error for atom=    0.0011 (will be added to EATOM!!)
 PAW_PBE Mg 05Jan2001                   :
 energy of atom  2       EATOM=  -23.0029
 kinetic energy error for atom=    0.0002 (will be added to EATOM!!)
 
 
 POSCAR: Mg1 Al32                                
  positions in direct lattice
  velocities in cartesian coordinates
 exchange correlation table for  LEXCH =        8
   RHO(1)=    0.500       N(1)  =     2000
   RHO(2)=  100.500       N(2)  =     4000

 VTST: version 2.03d, (02/18/09)

 CHAIN: initializing optimizer
 
 OPT: Using VASP Conjugate-Gradient optimizer
 CHAIN: Read ICHAIN            0
 


--------------------------------------------------------------------------------------------------------


 ion  position               nearest neighbor table
   1  0.000  0.000  0.000-   2 2.86   3 2.86   4 2.86   6 2.86   7 2.86  11 2.86  12 2.86  15 2.86
                            18 2.86  20 2.86  22 2.86  28 2.86
   2  0.250  0.000  0.250-   1 2.86   3 2.86   4 2.86   5 2.86   8 2.86  11 2.86  12 2.86  16 2.86
                            17 2.86  19 2.86  21 2.86  27 2.86
   3  0.250  0.250  0.000-   1 2.86   2 2.86   4 2.86   5 2.86   8 2.86   9 2.86  10 2.86  13 2.86
                            18 2.86  20 2.86  24 2.86  26 2.86
   4  0.000  0.250  0.250-   1 2.86   2 2.86   3 2.86   6 2.86   7 2.86   9 2.86  10 2.86  14 2.86
                            17 2.86  19 2.86  23 2.86  25 2.86
   5  0.500  0.000  0.000-   2 2.86   3 2.86   6 2.86   7 2.86   8 2.86  11 2.86  15 2.86  16 2.86
                            18 2.86  22 2.86  24 2.86  32 2.86
   6  0.750  0.000  0.250-   1 2.86   4 2.86   5 2.86   7 2.86   8 2.86  12 2.86  15 2.86  16 2.86
                            17 2.86  21 2.86  23 2.86  31 2.86  33 2.92
   7  0.750  0.250  0.000-   1 2.86   4 2.86   5 2.86   6 2.86   8 2.86   9 2.86  13 2.86  14 2.86
                            20 2.86  22 2.86  24 2.86  30 2.86
   8  0.500  0.250  0.250-   2 2.86   3 2.86   5 2.86   6 2.86   7 2.86  10 2.86  13 2.86  14 2.86
                            19 2.86  21 2.86  23 2.86  29 2.86
   9  0.000  0.500  0.000-   3 2.86   4 2.86   7 2.86  10 2.86  11 2.86  12 2.86  14 2.86  15 2.86
                            20 2.86  26 2.86  28 2.86  30 2.86
  10  0.250  0.500  0.250-   3 2.86   4 2.86   8 2.86   9 2.86  11 2.86  12 2.86  13 2.86  16 2.86
                            19 2.86  25 2.86  27 2.86  29 2.86
  11  0.250  0.750  0.000-   1 2.86   2 2.86   5 2.86   9 2.86  10 2.86  12 2.86  13 2.86  16 2.86
                            18 2.86  26 2.86  28 2.86  32 2.86
  12  0.000  0.750  0.250-   1 2.86   2 2.86   6 2.86   9 2.86  10 2.86  11 2.86  14 2.86  15 2.86
                            17 2.86  25 2.86  27 2.86  31 2.86  33 2.92
  13  0.500  0.500  0.000-   3 2.86   7 2.86   8 2.86  10 2.86  11 2.86  14 2.86  15 2.86  16 2.86
                            24 2.86  26 2.86  30 2.86  32 2.86  33 3.24
  14  0.750  0.500  0.250-  33 1.62   7 2.86   8 2.86   9 2.86  12 2.86  13 2.86  15 2.86  16 2.86
                            23 2.86  25 2.86  29 2.86  31 2.86   4 2.86
  15  0.750  0.750  0.000-   1 2.86   5 2.86   6 2.86   9 2.86  12 2.86  13 2.86  14 2.86  16 2.86
                            22 2.86  28 2.86  30 2.86  32 2.86  33 2.86
  16  0.500  0.750  0.250-  33 1.62   5 2.86   6 2.86  10 2.86  11 2.86  13 2.86  14 2.86  15 2.86
                            21 2.86  27 2.86  29 2.86  31 2.86   2 2.86
  17  0.000  0.000  0.500-   2 2.86   4 2.86   6 2.86  12 2.86  18 2.86  19 2.86  20 2.86  22 2.86
                            23 2.86  27 2.86  28 2.86  31 2.86
  18  0.250  0.000  0.750-   1 2.86   3 2.86   5 2.86  11 2.86  17 2.86  19 2.86  20 2.86  21 2.86
                            24 2.86  27 2.86  28 2.86  32 2.86
  19  0.250  0.250  0.500-   2 2.86   4 2.86   8 2.86  10 2.86  17 2.86  18 2.86  20 2.86  21 2.86
                            24 2.86  25 2.86  26 2.86  29 2.86
  20  0.000  0.250  0.750-   1 2.86   3 2.86   7 2.86   9 2.86  17 2.86  18 2.86  19 2.86  22 2.86
                            23 2.86  25 2.86  26 2.86  30 2.86
  21  0.500  0.000  0.500-   2 2.86   6 2.86   8 2.86  16 2.86  18 2.86  19 2.86  22 2.86  23 2.86
                            24 2.86  27 2.86  31 2.86  32 2.86  33 3.34
  22  0.750  0.000  0.750-   1 2.86   5 2.86   7 2.86  15 2.86  17 2.86  20 2.86  21 2.86  23 2.86
                            24 2.86  28 2.86  31 2.86  32 2.86
  23  0.750  0.250  0.500-   4 2.86   6 2.86   8 2.86  14 2.86  17 2.86  20 2.86  21 2.86  22 2.86
                            24 2.86  25 2.86  29 2.86  30 2.86
  24  0.500  0.250  0.750-   3 2.86   5 2.86   7 2.86  13 2.86  18 2.86  19 2.86  21 2.86  22 2.86
                            23 2.86  26 2.86  29 2.86  30 2.86
  25  0.000  0.500  0.500-   4 2.86  10 2.86  12 2.86  14 2.86  19 2.86  20 2.86  23 2.86  26 2.86
                            27 2.86  28 2.86  30 2.86  31 2.86  33 3.34
  26  0.250  0.500  0.750-   3 2.86   9 2.86  11 2.86  13 2.86  19 2.86  20 2.86  24 2.86  25 2.86
                            27 2.86  28 2.86  29 2.86  32 2.86
  27  0.250  0.750  0.500-   2 2.86  10 2.86  12 2.86  16 2.86  17 2.86  18 2.86  21 2.86  25 2.86
                            26 2.86  28 2.86  29 2.86  32 2.86
  28  0.000  0.750  0.750-   1 2.86   9 2.86  11 2.86  15 2.86  17 2.86  18 2.86  22 2.86  25 2.86
                            26 2.86  27 2.86  30 2.86  31 2.86
  29  0.500  0.500  0.500-  33 2.29  10 2.86  14 2.86  16 2.86  19 2.86  23 2.86  24 2.86  26 2.86
                            27 2.86  30 2.86  31 2.86  32 2.86   8 2.86
  30  0.750  0.500  0.750-   7 2.86   9 2.86  13 2.86  15 2.86  20 2.86  23 2.86  24 2.86  25 2.86
                            28 2.86  29 2.86  31 2.86  32 2.86
  31  0.750  0.750  0.500-  33 1.72  12 2.86  14 2.86  16 2.86  17 2.86  21 2.86  22 2.86  25 2.86
                            28 2.86  29 2.86  30 2.86  32 2.86   6 2.86
  32  0.500  0.750  0.750-   5 2.86  11 2.86  13 2.86  15 2.86  18 2.86  21 2.86  22 2.86  26 2.86
                            27 2.86  29 2.86  30 2.86  31 2.86
  33  0.660  0.660  0.330-  14 1.62  16 1.62  31 1.72  29 2.29  15 2.86  12 2.92   6 2.92  13 3.24
                            21 3.34  25 3.34
 

 ----------------------------------------------------------------------------- 
|                                                                             |
|           W    W    AA    RRRRR   N    N  II  N    N   GGGG   !!!           |
|           W    W   A  A   R    R  NN   N  II  NN   N  G    G  !!!           |
|           W    W  A    A  R    R  N N  N  II  N N  N  G       !!!           |
|           W WW W  AAAAAA  RRRRR   N  N N  II  N  N N  G  GGG   !            |
|           WW  WW  A    A  R   R   N   NN  II  N   NN  G    G                |
|           W    W  A    A  R    R  N    N  II  N    N   GGGG   !!!           |
|                                                                             |
|      The distance between some ions is very small                           |
|      please check the nearest neigbor list in the OUTCAR file               |
|          I HOPE YOU KNOW, WHAT YOU ARE  DOING                               |
|                                                                             |
 ----------------------------------------------------------------------------- 

  LATTYP: Found a simple cubic cell.
 ALAT       =     8.0870520000
  
  Lattice vectors:
  
 A1 = (   8.0870520000,   0.0000000000,   0.0000000000)
 A2 = (   0.0000000000,   8.0870520000,   0.0000000000)
 A3 = (   0.0000000000,   0.0000000000,   8.0870520000)
 Subroutine PRICEL returns:
 Original cell was already a primitive cell.
 

Analysis of symmetry for initial positions (statically):

 Routine SETGRP: Setting up the symmetry group for a 
 simple cubic supercell.


 Subroutine GETGRP returns: Found  2 space group operations
 (whereof  2 operations were pure point group operations)
 out of a pool of 48 trial point group operations.


The static configuration has the point symmetry C_1h.

Analysis of symmetry for dynamics (positions and initial velocities):

 Subroutine DYNSYM returns: Found  2 space group operations
 (whereof  2 operations were pure point group operations)
 out of a pool of  2 trial space group operations
 (whereof  2 operations were pure point group operations)
 and found also     1 'primitive' translations


The dynamic configuration has the point symmetry C_1h.
 
 
 KPOINTS: Automatic kpoint scheme                 

Automatic generation of k-mesh.
 
 Subroutine IBZKPT returns following result:
 ===========================================
 
 Found      1 irreducible k-points:
 
 Following reciprocal coordinates:
            Coordinates               Weight
  0.000000  0.000000  0.000000      1.000000
 
 Following cartesian coordinates:
            Coordinates               Weight
  0.000000  0.000000  0.000000      1.000000
 


--------------------------------------------------------------------------------------------------------




 Dimension of arrays:
   k-points           NKPTS =      1   k-points in BZ     NKDIM =      1   number of bands    NBANDS=     72
   number of dos      NEDOS =    301   number of ions     NIONS =     33
   non local maximal  LDIM  =      4   non local SUM 2l+1 LMDIM =      8
   total plane-waves  NPLWV = 110592
   max r-space proj   IRMAX =      1   max aug-charges    IRDMAX=   9081
   dimension x,y,z NGX =    48 NGY =   48 NGZ =   48
   dimension x,y,z NGXF=    96 NGYF=   96 NGZF=   96
   support grid    NGXF=    96 NGYF=   96 NGZF=   96
   ions per type =              32   1
 NGX,Y,Z   is equivalent  to a cutoff of   9.87,  9.87,  9.87 a.u.
 NGXF,Y,Z  is equivalent  to a cutoff of  19.73, 19.73, 19.73 a.u.


 I would recommend the setting:
   dimension x,y,z NGX =    46 NGY =   46 NGZ =   46
 SYSTEM =  unknown system                          
 POSCAR =  Mg1 Al32                                

 Startparameter for this run:
   NWRITE =      2    write-flag & timer
   PREC   = accura    medium, high low
   ISTART =      0    job   : 0-new  1-cont  2-samecut
   ICHARG =      2    charge: 1-file 2-atom 10-const
   ISPIN  =      1    spin polarized calculation?
   LNONCOLLINEAR =      F non collinear calculations
   LSORBIT =      F    spin-orbit coupling
   INIWAV =      1    electr: 0-lowe 1-rand  2-diag
   LASPH  =      F    aspherical Exc in radial PAW
   METAGGA=      F    non-selfconsistent MetaGGA calc.

 Electronic Relaxation 1
   ENCUT  =  300.0 eV  22.05 Ry    4.70 a.u.  11.42 11.42 11.42*2*pi/ulx,y,z
   ENINI  =  300.0     initial cutoff
   ENAUG  =  291.1 eV  augmentation charge cutoff
   NELM   =     60;   NELMIN=  2; NELMDL=-12     # of ELM steps 
   EDIFF  = 0.1E-03   stopping-criterion for ELM
   LREAL  =      F    real-space projection
   LCOMPAT=      F    compatible to vasp.4.4
   LREAL_COMPAT= F    compatible to vasp.4.5.1-3
   GGA_COMPAT  = T    GGA compatible to vasp.4.4-vasp.4.6
   LMAXPAW     = -100 max onsite density
   LMAXMIX     =    2 max onsite mixed and CHGCAR
   VOSKOWN=      0    Vosko Wilk Nusair interpolation
   ROPT   =    0.00000   0.00000
 Ionic relaxation
   EDIFFG = 0.5E-01   stopping-criterion for IOM
   NSW    =    191    number of steps for IOM
   NBLOCK =      1;   KBLOCK =    191    inner block; outer block 
   IBRION =      2    ionic relax: 0-MD 1-quasi-New 2-CG
   NFREE  =      1    steps in history (QN), initial steepest desc. (CG)
   ISIF   =      2    stress and relaxation
   IWAVPR =     11    prediction:  0-non 1-charg 2-wave 3-comb
   ISYM   =      2    0-nonsym 1-usesym 2-fastsym
   LCORR  =      T    Harris-Foulkes like correction to forces

   POTIM  = 0.5000    time-step for ionic-motion
   TEIN   =    0.0    initial temperature
   TEBEG  =    0.0;   TEEND  =   0.0 temperature during run
   SMASS  =  -3.00    Nose mass-parameter (am)
   estimated Nose-frequenzy (Omega)   =  0.10E-29 period in steps =****** mass=  -0.149E-26a.u.
   NPACO  =    256;   APACO  = 16.0  distance and # of slots for P.C.
   PSTRESS=    0.0 pullay stress

  Mass of Ions in am
   POMASS =  26.98 24.30
  Ionic Valenz
   ZVAL   =   3.00  2.00
  Atomic Wigner-Seitz radii
   RWIGS  =  -1.00 -1.00
   NELECT =      98.0000    total number of electrons
   NUPDOWN=      -1.0000    fix difference up-down

 DOS related values:
   EMIN   =  10.00;   EMAX   =-10.00  energy-range for DOS
   EFERMI =   0.00
   ISMEAR =     1;   SIGMA  =   0.20  broadening in eV -4-tet -1-fermi 0-gaus

 Electronic relaxation 2 (details)
   IALGO  =     48    algorithm
   LDIAG  =      T    sub-space diagonalisation
   IMIX   =      4    mixing-type and parameters
     AMIX     =   0.40;   BMIX     =  1.00
     AMIX_MAG =   1.60;   BMIX_MAG =  1.00
     AMIN     =   0.10
     WC   =   100.;   INIMIX=   1;  MIXPRE=   1

 Intra band minimization:
   WEIMIN = 0.0010     energy-eigenvalue tresh-hold
   EBREAK =  0.38E-06  absolut break condition
   DEPER  =   0.30     relativ break condition  

   TIME   =   0.40     timestep for ELM

  volume/ion in A,a.u.               =      16.03       108.16
  Fermi-wavevector in a.u.,A,eV,Ry     =   0.933312  1.763703 11.851632  0.871070
  Thomas-Fermi vector in A             =   2.060000
 
 Write flags
   LWAVE  =      F    write WAVECAR
   LCHARG =      F    write CHGCAR
   LVTOT  =      F    write LOCPOT, local potential
   LELF   =      F    write electronic localiz. function (ELF)
   LORBIT =      0    0 simple, 1 ext, 2 COOP (PROOUT)


 Dipole corrections
   LMONO  =      F    monopole corrections only (constant potential shift)
   LDIPOL =      F    correct potential (dipole corrections)
   IDIPOL =      0    1-x, 2-y, 3-z, 4-all directions 
   EPSILON=  1.0000000 bulk dielectric constant

 Exchange correlation treatment:
   GGA     =    --    GGA type
   LEXCH   =     8    internal setting for exchange type
   VOSKOWN=      0    Vosko Wilk Nusair interpolation
   LHFCALC =     F    Hartree Fock is set to
   LHFONE  =     F    Hartree Fock one center treatment
   AEXX    =    0.0000 exact exchange contribution

 Linear response parameters
   LEPSILON=     F    determine dielectric tensor
   LRPA    =     F    only Hartree local field effects (RPA)
   LNABLA  =     F    use nabla operator in PAW spheres
   LVEL    =     F    velocity operator in full k-point grid
   LINTERFAST=   F  fast interpolation
   KINTER  =     0    interpolate to denser k-point grid
   CSHIFT  =0.1000    complex shift for real part using Kramers Kronig
   OMEGAMAX=  -1.0    maximum frequency

 Orbital magnetization related:
   ORBITALMAG=     F  switch on orbital magnetization
   LCHIMAG   =     F  perturbation theory with respect to B field



--------------------------------------------------------------------------------------------------------


 conjugate gradient relaxation of ions
 charge density and potential will be updated during run
 non-spin polarized calculation
 RMM-DIIS sequential band-by-band
 perform sub-space diagonalisation
    before iterative eigenvector-optimisation
 modified Broyden-mixing scheme, WC =      100.0
 initial mixing is a Kerker type mixing with AMIX =  0.4000 and BMIX =      1.0000
 Hartree-type preconditioning will be used
 using additional bands           23
 reciprocal scheme for non local part
 use partial core corrections
 calculate Harris-corrections to forces 
   (improved forces if not selfconsistent)
 use gradient corrections 
 use of overlap-Matrix (Vanderbilt PP)
 Methfessel and Paxton  Order N= 1 SIGMA  =   0.20


--------------------------------------------------------------------------------------------------------


  energy-cutoff  :      300.00
  volume of cell :      528.90
      direct lattice vectors                 reciprocal lattice vectors
     8.087052000  0.000000000  0.000000000     0.123654454  0.000000000  0.000000000
     0.000000000  8.087052000  0.000000000     0.000000000  0.123654454  0.000000000
     0.000000000  0.000000000  8.087052000     0.000000000  0.000000000  0.123654454

  length of vectors
     8.087052000  8.087052000  8.087052000     0.123654454  0.123654454  0.123654454


 
 k-points in units of 2pi/SCALE and weight: Automatic kpoint scheme                 
   0.00000000  0.00000000  0.00000000       1.000
 
 k-points in reciprocal lattice and weights: Automatic kpoint scheme                 
   0.00000000  0.00000000  0.00000000       1.000
 
 position of ions in fractional coordinates (direct lattice) 
   0.00000000  0.00000000  0.00000000
   0.25000000  0.00000000  0.25000000
   0.25000000  0.25000000  0.00000000
   0.00000000  0.25000000  0.25000000
   0.50000000  0.00000000  0.00000000
   0.75000000  0.00000000  0.25000000
   0.75000000  0.25000000  0.00000000
   0.50000000  0.25000000  0.25000000
   0.00000000  0.50000000  0.00000000
   0.25000000  0.50000000  0.25000000
   0.25000000  0.75000000  0.00000000
   0.00000000  0.75000000  0.25000000
   0.50000000  0.50000000  0.00000000
   0.75000000  0.50000000  0.25000000
   0.75000000  0.75000000  0.00000000
   0.50000000  0.75000000  0.25000000
   0.00000000  0.00000000  0.50000000
   0.25000000  0.00000000  0.75000000
   0.25000000  0.25000000  0.50000000
   0.00000000  0.25000000  0.75000000
   0.50000000  0.00000000  0.50000000
   0.75000000  0.00000000  0.75000000
   0.75000000  0.25000000  0.50000000
   0.50000000  0.25000000  0.75000000
   0.00000000  0.50000000  0.50000000
   0.25000000  0.50000000  0.75000000
   0.25000000  0.75000000  0.50000000
   0.00000000  0.75000000  0.75000000
   0.50000000  0.50000000  0.50000000
   0.75000000  0.50000000  0.75000000
   0.75000000  0.75000000  0.50000000
   0.50000000  0.75000000  0.75000000
   0.66000000  0.66000000  0.33000000
 
 position of ions in cartesian coordinates  (Angst):
   0.00000000  0.00000000  0.00000000
   2.02176300  0.00000000  2.02176300
   2.02176300  2.02176300  0.00000000
   0.00000000  2.02176300  2.02176300
   4.04352600  0.00000000  0.00000000
   6.06528900  0.00000000  2.02176300
   6.06528900  2.02176300  0.00000000
   4.04352600  2.02176300  2.02176300
   0.00000000  4.04352600  0.00000000
   2.02176300  4.04352600  2.02176300
   2.02176300  6.06528900  0.00000000
   0.00000000  6.06528900  2.02176300
   4.04352600  4.04352600  0.00000000
   6.06528900  4.04352600  2.02176300
   6.06528900  6.06528900  0.00000000
   4.04352600  6.06528900  2.02176300
   0.00000000  0.00000000  4.04352600
   2.02176300  0.00000000  6.06528900
   2.02176300  2.02176300  4.04352600
   0.00000000  2.02176300  6.06528900
   4.04352600  0.00000000  4.04352600
   6.06528900  0.00000000  6.06528900
   6.06528900  2.02176300  4.04352600
   4.04352600  2.02176300  6.06528900
   0.00000000  4.04352600  4.04352600
   2.02176300  4.04352600  6.06528900
   2.02176300  6.06528900  4.04352600
   0.00000000  6.06528900  6.06528900
   4.04352600  4.04352600  4.04352600
   6.06528900  4.04352600  6.06528900
   6.06528900  6.06528900  4.04352600
   4.04352600  6.06528900  6.06528900
   5.33745432  5.33745432  2.66872716
 


--------------------------------------------------------------------------------------------------------


 k-point  1 :  0.00000.00000.0000  plane waves:    6235

 maximum and minimum number of plane-waves per node :    6235   6235

 maximum number of plane-waves:    6235
 maximal index in each direction: 
   IXMAX= 11   IYMAX= 11   IZMAX= 11
   IXMIN=-11   IYMIN=-11   IZMIN=-11

 NGX is ok and might be reduce to  46
 NGY is ok and might be reduce to  46
 NGZ is ok and might be reduce to  46

 serial   3D FFT for wavefunctions
 parallel 3D FFT for charge:
    minimum data exchange during FFTs selected (reduces bandwidth)


 total amount of memory used by VASP on root node  62502. kBytes
========================================================================

   base      :    30000. kBytes
   nonl-proj :     4093. kBytes
   fftplans  :     4240. kBytes
   grid      :    23132. kBytes
   one-center:      101. kBytes
   wavefun   :      936. kBytes
 
 Broyden mixing: mesh for mixing (old mesh)
   NGX = 23   NGY = 23   NGZ = 23
  (NGX  = 96   NGY  = 96   NGZ  = 96)
  gives a total of  12167 points

 initial charge density was supplied:
 charge density of overlapping atoms calculated
 number of electron   98.0000000 magnetization 
 keeping initial charge density in first step


--------------------------------------------------------------------------------------------------------


 Maximum index for augmentation-charges         1116 (set IRDMAX)


--------------------------------------------------------------------------------------------------------


 First call to EWALD:  gamma=   0.219
 Maximum number of real-space cells 3x 3x 3
 Maximum number of reciprocal cells 3x 3x 3

    FEWALD:  cpu time    0.02: real time    0.02
   RESPFUN:  cpu time    0.00: real time    0.00


----------------------------------------- Iteration    1(   1)  ---------------------------------------


    POTLOK:  cpu time    0.26: real time    0.26
    SETDIJ:  cpu time    0.02: real time    0.02
    EDDIAG:  cpu time    0.23: real time    0.23
  RMM-DIIS:  cpu time    0.54: real time    0.54
    ORTHCH:  cpu time    0.01: real time    0.01
       DOS:  cpu time    0.00: real time    0.00
    --------------------------------------------
      LOOP:  cpu time    1.07: real time    1.07

 eigenvalue-minimisations  :    72
 total energy-change (2. order) : 0.2991362E+03  (-0.1735497E+04)
 number of electron   98.0000000 magnetization 
 augmentation part    98.0000000 magnetization 

 Free energy of the ion-electron system (eV)
  ---------------------------------------------------
  alpha Z        PSCENC =        -8.27954604
  Ewald energy   TEWEN  =     -2377.64361379
  -1/2 Hartree   DENC   =        -9.50518201
  -exchange  EXHF       =         0.00000000
  -V(xc)+E(xc)   XCENC  =      -846.35651104
  PAW double counting   =      1149.32568210     -115.70169129
  entropy T*S    EENTRO =         0.03309109
  eigenvalues    EBANDS =       771.05724284
  atomic energy  EATOM  =      1736.20668909
  ---------------------------------------------------
  free energy    TOTEN  =       299.13616095 eV

  energy without entropy =      299.10306986  energy(sigma->0) =      299.12513058


--------------------------------------------------------------------------------------------------------




----------------------------------------- Iteration    1(   2)  ---------------------------------------


    EDDIAG:  cpu time    0.23: real time    0.23
  RMM-DIIS:  cpu time    0.53: real time    0.53
    ORTHCH:  cpu time    0.01: real time    0.01
       DOS:  cpu time    0.00: real time    0.00
    --------------------------------------------
      LOOP:  cpu time    0.78: real time    0.78

 eigenvalue-minimisations  :    72
 total energy-change (2. order) :-0.2978690E+03  (-0.2909031E+03)
 number of electron   98.0000000 magnetization 
 augmentation part    98.0000000 magnetization 

 Free energy of the ion-electron system (eV)
  ---------------------------------------------------
  alpha Z        PSCENC =        -8.27954604
  Ewald energy   TEWEN  =     -2377.64361379
  -1/2 Hartree   DENC   =        -9.50518201
  -exchange  EXHF       =         0.00000000
  -V(xc)+E(xc)   XCENC  =      -846.35651104
  PAW double counting   =      1149.32568210     -115.70169129
  entropy T*S    EENTRO =        -0.08088003
  eigenvalues    EBANDS =       473.30222401
  atomic energy  EATOM  =      1736.20668909
  ---------------------------------------------------
  free energy    TOTEN  =         1.26717100 eV

  energy without entropy =        1.34805103  energy(sigma->0) =        1.29413101


--------------------------------------------------------------------------------------------------------




----------------------------------------- Iteration    1(   3)  ---------------------------------------


    EDDIAG:  cpu time    0.23: real time    0.23
  RMM-DIIS:  cpu time    0.53: real time    0.53
    ORTHCH:  cpu time    0.01: real time    0.01
       DOS:  cpu time    0.00: real time    0.00
    --------------------------------------------
      LOOP:  cpu time    0.78: real time    0.78

 eigenvalue-minimisations  :    72
 total energy-change (2. order) :-0.5576240E+02  (-0.5723728E+02)
 number of electron   98.0000000 magnetization 
 augmentation part    98.0000000 magnetization 

 Free energy of the ion-electron system (eV)
  ---------------------------------------------------
  alpha Z        PSCENC =        -8.27954604
  Ewald energy   TEWEN  =     -2377.64361379
  -1/2 Hartree   DENC   =        -9.50518201
  -exchange  EXHF       =         0.00000000
  -V(xc)+E(xc)   XCENC  =      -846.35651104
  PAW double counting   =      1149.32568210     -115.70169129
  entropy T*S    EENTRO =        -0.04172075
  eigenvalues    EBANDS =       417.50066282
  atomic energy  EATOM  =      1736.20668909
  ---------------------------------------------------
  free energy    TOTEN  =       -54.49523091 eV

  energy without entropy =      -54.45351016  energy(sigma->0) =      -54.48132399


--------------------------------------------------------------------------------------------------------




----------------------------------------- Iteration    1(   4)  ---------------------------------------


    EDDIAG:  cpu time    0.23: real time    0.23
  RMM-DIIS:  cpu time    0.53: real time    0.53
    ORTHCH:  cpu time    0.01: real time    0.01
       DOS:  cpu time    0.00: real time    0.00
    --------------------------------------------
      LOOP:  cpu time    0.78: real time    0.78

 eigenvalue-minimisations  :    72
 total energy-change (2. order) :-0.1889568E+02  (-0.1443995E+02)
 number of electron   98.0000000 magnetization 
 augmentation part    98.0000000 magnetization 

 Free energy of the ion-electron system (eV)
  ---------------------------------------------------
  alpha Z        PSCENC =        -8.27954604
  Ewald energy   TEWEN  =     -2377.64361379
  -1/2 Hartree   DENC   =        -9.50518201
  -exchange  EXHF       =         0.00000000
  -V(xc)+E(xc)   XCENC  =      -846.35651104
  PAW double counting   =      1149.32568210     -115.70169129
  entropy T*S    EENTRO =         0.06724677
  eigenvalues    EBANDS =       398.49601453
  atomic energy  EATOM  =      1736.20668909
  ---------------------------------------------------
  free energy    TOTEN  =       -73.39091169 eV

  energy without entropy =      -73.45815846  energy(sigma->0) =      -73.41332728


--------------------------------------------------------------------------------------------------------




----------------------------------------- Iteration    1(   5)  ---------------------------------------


    EDDIAG:  cpu time    0.23: real time    0.23
  RMM-DIIS:  cpu time    0.53: real time    0.53
    ORTHCH:  cpu time    0.01: real time    0.01
       DOS:  cpu time    0.00: real time    0.00
    --------------------------------------------
      LOOP:  cpu time    0.78: real time    0.78

 eigenvalue-minimisations  :    72
 total energy-change (2. order) :-0.7499678E+01  (-0.5445365E+01)
 number of electron   98.0000000 magnetization 
 augmentation part    98.0000000 magnetization 

 Free energy of the ion-electron system (eV)
  ---------------------------------------------------
  alpha Z        PSCENC =        -8.27954604
  Ewald energy   TEWEN  =     -2377.64361379
  -1/2 Hartree   DENC   =        -9.50518201
  -exchange  EXHF       =         0.00000000
  -V(xc)+E(xc)   XCENC  =      -846.35651104
  PAW double counting   =      1149.32568210     -115.70169129
  entropy T*S    EENTRO =         0.00226585
  eigenvalues    EBANDS =       391.06131761
  atomic energy  EATOM  =      1736.20668909
  ---------------------------------------------------
  free energy    TOTEN  =       -80.89058952 eV

  energy without entropy =      -80.89285537  energy(sigma->0) =      -80.89134480


--------------------------------------------------------------------------------------------------------




----------------------------------------- Iteration    1(   6)  ---------------------------------------


    EDDIAG:  cpu time    0.23: real time    0.23
  RMM-DIIS:  cpu time    0.54: real time    0.54
    ORTHCH:  cpu time    0.01: real time    0.01
       DOS:  cpu time    0.00: real time    0.00
    --------------------------------------------
      LOOP:  cpu time    0.78: real time    0.78

 eigenvalue-minimisations  :    72
 total energy-change (2. order) :-0.3207210E+01  (-0.2405250E+01)
 number of electron   98.0000000 magnetization 
 augmentation part    98.0000000 magnetization 

 Free energy of the ion-electron system (eV)
  ---------------------------------------------------
  alpha Z        PSCENC =        -8.27954604
  Ewald energy   TEWEN  =     -2377.64361379
  -1/2 Hartree   DENC   =        -9.50518201
  -exchange  EXHF       =         0.00000000
  -V(xc)+E(xc)   XCENC  =      -846.35651104
  PAW double counting   =      1149.32568210     -115.70169129
  entropy T*S    EENTRO =        -0.05154741
  eigenvalues    EBANDS =       387.90792067
  atomic energy  EATOM  =      1736.20668909
  ---------------------------------------------------
  free energy    TOTEN  =       -84.09779972 eV

  energy without entropy =      -84.04625232  energy(sigma->0) =      -84.08061725


--------------------------------------------------------------------------------------------------------




----------------------------------------- Iteration    1(   7)  ---------------------------------------


    EDDIAG:  cpu time    0.23: real time    0.23
  RMM-DIIS:  cpu time    0.53: real time    0.53
    ORTHCH:  cpu time    0.01: real time    0.01
       DOS:  cpu time    0.00: real time    0.00
    --------------------------------------------
      LOOP:  cpu time    0.78: real time    0.78

 eigenvalue-minimisations  :    72
 total energy-change (2. order) :-0.1225447E+01  (-0.1041351E+01)
 number of electron   98.0000000 magnetization 
 augmentation part    98.0000000 magnetization 

 Free energy of the ion-electron system (eV)
  ---------------------------------------------------
  alpha Z        PSCENC =        -8.27954604
  Ewald energy   TEWEN  =     -2377.64361379
  -1/2 Hartree   DENC   =        -9.50518201
  -exchange  EXHF       =         0.00000000
  -V(xc)+E(xc)   XCENC  =      -846.35651104
  PAW double counting   =      1149.32568210     -115.70169129
  entropy T*S    EENTRO =        -0.07069422
  eigenvalues    EBANDS =       386.70162021
  atomic energy  EATOM  =      1736.20668909
  ---------------------------------------------------
  free energy    TOTEN  =       -85.32324700 eV

  energy without entropy =      -85.25255277  energy(sigma->0) =      -85.29968226


--------------------------------------------------------------------------------------------------------




----------------------------------------- Iteration    1(   8)  ---------------------------------------


    EDDIAG:  cpu time    0.23: real time    0.23
  RMM-DIIS:  cpu time    0.53: real time    0.53
    ORTHCH:  cpu time    0.01: real time    0.01
       DOS:  cpu time    0.00: real time    0.00
    --------------------------------------------
      LOOP:  cpu time    0.78: real time    0.78

 eigenvalue-minimisations  :    72
 total energy-change (2. order) :-0.5263076E+00  (-0.4722746E+00)
 number of electron   98.0000000 magnetization 
 augmentation part    98.0000000 magnetization 

 Free energy of the ion-electron system (eV)
  ---------------------------------------------------
  alpha Z        PSCENC =        -8.27954604
  Ewald energy   TEWEN  =     -2377.64361379
  -1/2 Hartree   DENC   =        -9.50518201
  -exchange  EXHF       =         0.00000000
  -V(xc)+E(xc)   XCENC  =      -846.35651104
  PAW double counting   =      1149.32568210     -115.70169129
  entropy T*S    EENTRO =        -0.08425750
  eigenvalues    EBANDS =       386.18887592
  atomic energy  EATOM  =      1736.20668909
  ---------------------------------------------------
  free energy    TOTEN  =       -85.84955456 eV

  energy without entropy =      -85.76529706  energy(sigma->0) =      -85.82146873


--------------------------------------------------------------------------------------------------------




----------------------------------------- Iteration    1(   9)  ---------------------------------------


    EDDIAG:  cpu time    0.23: real time    0.23
  RMM-DIIS:  cpu time    1.01: real time    1.01
    ORTHCH:  cpu time    0.01: real time    0.01
       DOS:  cpu time    0.00: real time    0.00
    --------------------------------------------
      LOOP:  cpu time    1.26: real time    1.26

 eigenvalue-minimisations  :   154
 total energy-change (2. order) :-0.4122785E+00  (-0.3838288E+00)
 number of electron   98.0000000 magnetization 
 augmentation part    98.0000000 magnetization 

 Free energy of the ion-electron system (eV)
  ---------------------------------------------------
  alpha Z        PSCENC =        -8.27954604
  Ewald energy   TEWEN  =     -2377.64361379
  -1/2 Hartree   DENC   =        -9.50518201
  -exchange  EXHF       =         0.00000000
  -V(xc)+E(xc)   XCENC  =      -846.35651104
  PAW double counting   =      1149.32568210     -115.70169129
  entropy T*S    EENTRO =        -0.09483161
  eigenvalues    EBANDS =       385.78717150
  atomic energy  EATOM  =      1736.20668909
  ---------------------------------------------------
  free energy    TOTEN  =       -86.26183310 eV

  energy without entropy =      -86.16700148  energy(sigma->0) =      -86.23022256


--------------------------------------------------------------------------------------------------------




----------------------------------------- Iteration    1(  10)  ---------------------------------------


    EDDIAG:  cpu time    0.23: real time    0.23
  RMM-DIIS:  cpu time    0.96: real time    0.96
    ORTHCH:  cpu time    0.01: real time    0.01
       DOS:  cpu time    0.00: real time    0.00
    --------------------------------------------
      LOOP:  cpu time    1.21: real time    1.21

 eigenvalue-minimisations  :   141
 total energy-change (2. order) :-0.7279747E-01  (-0.5846896E-01)
 number of electron   98.0000000 magnetization 
 augmentation part    98.0000000 magnetization 

 Free energy of the ion-electron system (eV)
  ---------------------------------------------------
  alpha Z        PSCENC =        -8.27954604
  Ewald energy   TEWEN  =     -2377.64361379
  -1/2 Hartree   DENC   =        -9.50518201
  -exchange  EXHF       =         0.00000000
  -V(xc)+E(xc)   XCENC  =      -846.35651104
  PAW double counting   =      1149.32568210     -115.70169129
  entropy T*S    EENTRO =        -0.09014826
  eigenvalues    EBANDS =       385.70969068
  atomic energy  EATOM  =      1736.20668909
  ---------------------------------------------------
  free energy    TOTEN  =       -86.33463057 eV

  energy without entropy =      -86.24448231  energy(sigma->0) =      -86.30458115


--------------------------------------------------------------------------------------------------------




----------------------------------------- Iteration    1(  11)  ---------------------------------------


    EDDIAG:  cpu time    0.23: real time    0.23
  RMM-DIIS:  cpu time    0.92: real time    0.92
    ORTHCH:  cpu time    0.01: real time    0.01
       DOS:  cpu time    0.00: real time    0.00
    --------------------------------------------
      LOOP:  cpu time    1.16: real time    1.16

 eigenvalue-minimisations  :   139
 total energy-change (2. order) :-0.4514323E-02  (-0.2408557E-02)
 number of electron   98.0000000 magnetization 
 augmentation part    98.0000000 magnetization 

 Free energy of the ion-electron system (eV)
  ---------------------------------------------------
  alpha Z        PSCENC =        -8.27954604
  Ewald energy   TEWEN  =     -2377.64361379
  -1/2 Hartree   DENC   =        -9.50518201
  -exchange  EXHF       =         0.00000000
  -V(xc)+E(xc)   XCENC  =      -846.35651104
  PAW double counting   =      1149.32568210     -115.70169129
  entropy T*S    EENTRO =        -0.08887433
  eigenvalues    EBANDS =       385.70390243
  atomic energy  EATOM  =      1736.20668909
  ---------------------------------------------------
  free energy    TOTEN  =       -86.33914489 eV

  energy without entropy =      -86.25027056  energy(sigma->0) =      -86.30952011


--------------------------------------------------------------------------------------------------------




----------------------------------------- Iteration    1(  12)  ---------------------------------------


    EDDIAG:  cpu time    0.23: real time    0.23
  RMM-DIIS:  cpu time    0.79: real time    0.79
    ORTHCH:  cpu time    0.01: real time    0.01
       DOS:  cpu time    0.00: real time    0.00
    CHARGE:  cpu time    0.17: real time    0.17
    MIXING:  cpu time    0.01: real time    0.01
    --------------------------------------------
      LOOP:  cpu time    1.22: real time    1.22

 eigenvalue-minimisations  :   112
 total energy-change (2. order) :-0.1199892E-03  (-0.7110227E-04)
 number of electron   97.9999993 magnetization 
 augmentation part    -0.8922105 magnetization 

 Broyden mixing:
  rms(total) = 0.77560E+00    rms(broyden)= 0.77559E+00
  rms(prec ) = 0.16249E+01
  weight for this iteration     100.00

 Free energy of the ion-electron system (eV)
  ---------------------------------------------------
  alpha Z        PSCENC =        -8.27954604
  Ewald energy   TEWEN  =     -2377.64361379
  -1/2 Hartree   DENC   =        -9.50518201
  -exchange  EXHF       =         0.00000000
  -V(xc)+E(xc)   XCENC  =      -846.35651104
  PAW double counting   =      1149.32568210     -115.70169129
  entropy T*S    EENTRO =        -0.08855719
  eigenvalues    EBANDS =       385.70346530
  atomic energy  EATOM  =      1736.20668909
  ---------------------------------------------------
  free energy    TOTEN  =       -86.33926488 eV

  energy without entropy =      -86.25070769  energy(sigma->0) =      -86.30974581


--------------------------------------------------------------------------------------------------------




----------------------------------------- Iteration    1(  13)  ---------------------------------------


    POTLOK:  cpu time    0.25: real time    0.25
    SETDIJ:  cpu time    0.02: real time    0.02
    EDDIAG:  cpu time    0.23: real time    0.23
  RMM-DIIS:  cpu time    0.95: real time    0.96
    ORTHCH:  cpu time    0.01: real time    0.01
       DOS:  cpu time    0.00: real time    0.00
    CHARGE:  cpu time    0.17: real time    0.18
    MIXING:  cpu time    0.01: real time    0.01
    --------------------------------------------
      LOOP:  cpu time    1.66: real time    1.66

 eigenvalue-minimisations  :   144
 total energy-change (2. order) : 0.2381708E+01  (-0.8367225E+00)
 number of electron   97.9999993 magnetization 
 augmentation part    -0.9110206 magnetization 

 Broyden mixing:
  rms(total) = 0.43788E+00    rms(broyden)= 0.43788E+00
  rms(prec ) = 0.87147E+00
  weight for this iteration     100.00

 eigenvalues of (default mixing * dielectric matrix)
  average eigenvalue GAMMA=   1.3179
  1.3179

 Free energy of the ion-electron system (eV)
  ---------------------------------------------------
  alpha Z        PSCENC =        -8.27954604
  Ewald energy   TEWEN  =     -2377.64361379
  -1/2 Hartree   DENC   =       -12.53960942
  -exchange  EXHF       =         0.00000000
  -V(xc)+E(xc)   XCENC  =      -844.91158869
  PAW double counting   =      1152.11244666     -118.83851173
  entropy T*S    EENTRO =        -0.13352338
  eigenvalues    EBANDS =       390.06970063
  atomic energy  EATOM  =      1736.20668909
  ---------------------------------------------------
  free energy    TOTEN  =       -83.95755667 eV

  energy without entropy =      -83.82403329  energy(sigma->0) =      -83.91304888


--------------------------------------------------------------------------------------------------------




----------------------------------------- Iteration    1(  14)  ---------------------------------------


    POTLOK:  cpu time    0.25: real time    0.25
    SETDIJ:  cpu time    0.02: real time    0.02
    EDDIAG:  cpu time    0.23: real time    0.23
  RMM-DIIS:  cpu time    0.95: real time    0.95
    ORTHCH:  cpu time    0.01: real time    0.01
       DOS:  cpu time    0.00: real time    0.00
    CHARGE:  cpu time    0.17: real time    0.17
    MIXING:  cpu time    0.01: real time    0.01
    --------------------------------------------
      LOOP:  cpu time    1.65: real time    1.66

 eigenvalue-minimisations  :   144
 total energy-change (2. order) : 0.5584381E+00  (-0.5175352E-01)
 number of electron   97.9999993 magnetization 
 augmentation part    -0.9243416 magnetization 

 Broyden mixing:
  rms(total) = 0.29469E+00    rms(broyden)= 0.29469E+00
  rms(prec ) = 0.43287E+00
  weight for this iteration     100.00

 eigenvalues of (default mixing * dielectric matrix)
  average eigenvalue GAMMA=   1.5968
  0.7229  2.4708

 Free energy of the ion-electron system (eV)
  ---------------------------------------------------
  alpha Z        PSCENC =        -8.27954604
  Ewald energy   TEWEN  =     -2377.64361379
  -1/2 Hartree   DENC   =       -11.60559899
  -exchange  EXHF       =         0.00000000
  -V(xc)+E(xc)   XCENC  =      -844.16093157
  PAW double counting   =      1152.26600215     -119.07102515
  entropy T*S    EENTRO =        -0.12387149
  eigenvalues    EBANDS =       389.01277725
  atomic energy  EATOM  =      1736.20668909
  ---------------------------------------------------
  free energy    TOTEN  =       -83.39911854 eV

  energy without entropy =      -83.27524705  energy(sigma->0) =      -83.35782805


--------------------------------------------------------------------------------------------------------




----------------------------------------- Iteration    1(  15)  ---------------------------------------


    POTLOK:  cpu time    0.25: real time    0.25
    SETDIJ:  cpu time    0.02: real time    0.02
    EDDIAG:  cpu time    0.23: real time    0.23
  RMM-DIIS:  cpu time    0.96: real time    0.96
    ORTHCH:  cpu time    0.01: real time    0.01
       DOS:  cpu time    0.00: real time    0.00
    CHARGE:  cpu time    0.17: real time    0.17
    MIXING:  cpu time    0.01: real time    0.01
    --------------------------------------------
      LOOP:  cpu time    1.66: real time    1.66

 eigenvalue-minimisations  :   144
 total energy-change (2. order) : 0.2844949E+00  (-0.1410046E-01)
 number of electron   97.9999993 magnetization 
 augmentation part    -0.9447175 magnetization 

 Broyden mixing:
  rms(total) = 0.71939E-01    rms(broyden)= 0.71939E-01
  rms(prec ) = 0.11522E+00
  weight for this iteration     100.00

 eigenvalues of (default mixing * dielectric matrix)
  average eigenvalue GAMMA=   1.4516
  2.5787  1.0730  0.7031

 Free energy of the ion-electron system (eV)
  ---------------------------------------------------
  alpha Z        PSCENC =        -8.27954604
  Ewald energy   TEWEN  =     -2377.64361379
  -1/2 Hartree   DENC   =       -12.36324162
  -exchange  EXHF       =         0.00000000
  -V(xc)+E(xc)   XCENC  =      -842.52933003
  PAW double counting   =      1153.79809173     -120.84865512
  entropy T*S    EENTRO =        -0.15143113
  eigenvalues    EBANDS =       388.69641331
  atomic energy  EATOM  =      1736.20668909
  ---------------------------------------------------
  free energy    TOTEN  =       -83.11462360 eV

  energy without entropy =      -82.96319247  energy(sigma->0) =      -83.06414656


--------------------------------------------------------------------------------------------------------




----------------------------------------- Iteration    1(  16)  ---------------------------------------


    POTLOK:  cpu time    0.25: real time    0.25
    SETDIJ:  cpu time    0.02: real time    0.02
    EDDIAG:  cpu time    0.23: real time    0.23
  RMM-DIIS:  cpu time    0.97: real time    0.97
    ORTHCH:  cpu time    0.01: real time    0.01
       DOS:  cpu time    0.00: real time    0.00
    CHARGE:  cpu time    0.17: real time    0.18
    MIXING:  cpu time    0.01: real time    0.01
    --------------------------------------------
      LOOP:  cpu time    1.67: real time    1.67

 eigenvalue-minimisations  :   145
 total energy-change (2. order) : 0.2147013E-01  (-0.2716209E-02)
 number of electron   97.9999993 magnetization 
 augmentation part    -0.9529644 magnetization 

 Broyden mixing:
  rms(total) = 0.12256E-01    rms(broyden)= 0.12255E-01
  rms(prec ) = 0.27016E-01
  weight for this iteration     100.00

 eigenvalues of (default mixing * dielectric matrix)
  average eigenvalue GAMMA=   1.3553
  2.6123  0.6984  1.0552  1.0552

 Free energy of the ion-electron system (eV)
  ---------------------------------------------------
  alpha Z        PSCENC =        -8.27954604
  Ewald energy   TEWEN  =     -2377.64361379
  -1/2 Hartree   DENC   =       -12.68399713
  -exchange  EXHF       =         0.00000000
  -V(xc)+E(xc)   XCENC  =      -841.97632439
  PAW double counting   =      1154.71395467     -121.86956334
  entropy T*S    EENTRO =        -0.13537216
  eigenvalues    EBANDS =       388.57461962
  atomic energy  EATOM  =      1736.20668909
  ---------------------------------------------------
  free energy    TOTEN  =       -83.09315346 eV

  energy without entropy =      -82.95778130  energy(sigma->0) =      -83.04802941


--------------------------------------------------------------------------------------------------------




----------------------------------------- Iteration    1(  17)  ---------------------------------------


    POTLOK:  cpu time    0.25: real time    0.25
    SETDIJ:  cpu time    0.02: real time    0.02
    EDDIAG:  cpu time    0.23: real time    0.23
  RMM-DIIS:  cpu time    1.01: real time    1.01
    ORTHCH:  cpu time    0.01: real time    0.01
       DOS:  cpu time    0.00: real time    0.00
    CHARGE:  cpu time    0.18: real time    0.18
    MIXING:  cpu time    0.01: real time    0.01
    --------------------------------------------
      LOOP:  cpu time    1.71: real time    1.71

 eigenvalue-minimisations  :   148
 total energy-change (2. order) : 0.6314018E-03  (-0.3101217E-03)
 number of electron   97.9999993 magnetization 
 augmentation part    -0.9550467 magnetization 

 Broyden mixing:
  rms(total) = 0.65558E-02    rms(broyden)= 0.65558E-02
  rms(prec ) = 0.10312E-01
  weight for this iteration     100.00

 eigenvalues of (default mixing * dielectric matrix)
  average eigenvalue GAMMA=   1.4273
  2.6216  1.9233  1.0692  0.7089  0.8134

 Free energy of the ion-electron system (eV)
  ---------------------------------------------------
  alpha Z        PSCENC =        -8.27954604
  Ewald energy   TEWEN  =     -2377.64361379
  -1/2 Hartree   DENC   =       -12.73092181
  -exchange  EXHF       =         0.00000000
  -V(xc)+E(xc)   XCENC  =      -841.91543886
  PAW double counting   =      1154.95176879     -122.12805551
  entropy T*S    EENTRO =        -0.13861551
  eigenvalues    EBANDS =       388.58521158
  atomic energy  EATOM  =      1736.20668909
  ---------------------------------------------------
  free energy    TOTEN  =       -83.09252206 eV

  energy without entropy =      -82.95390656  energy(sigma->0) =      -83.04631689


--------------------------------------------------------------------------------------------------------




----------------------------------------- Iteration    1(  18)  ---------------------------------------


    POTLOK:  cpu time    0.25: real time    0.26
    SETDIJ:  cpu time    0.02: real time    0.02
    EDDIAG:  cpu time    0.23: real time    0.23
  RMM-DIIS:  cpu time    0.83: real time    0.83
    ORTHCH:  cpu time    0.01: real time    0.01
       DOS:  cpu time    0.00: real time    0.00
    --------------------------------------------
      LOOP:  cpu time    1.35: real time    1.35

 eigenvalue-minimisations  :   117
 total energy-change (2. order) : 0.6886107E-04  (-0.5083736E-04)
 number of electron   97.9999993 magnetization 
 augmentation part    -0.9550467 magnetization 

 Free energy of the ion-electron system (eV)
  ---------------------------------------------------
  alpha Z        PSCENC =        -8.27954604
  Ewald energy   TEWEN  =     -2377.64361379
  -1/2 Hartree   DENC   =       -12.74728016
  -exchange  EXHF       =         0.00000000
  -V(xc)+E(xc)   XCENC  =      -841.88715119
  PAW double counting   =      1155.16153784     -122.35551137
  entropy T*S    EENTRO =        -0.13878732
  eigenvalues    EBANDS =       388.59120974
  atomic energy  EATOM  =      1736.20668909
  ---------------------------------------------------
  free energy    TOTEN  =       -83.09245320 eV

  energy without entropy =      -82.95366588  energy(sigma->0) =      -83.04619076


--------------------------------------------------------------------------------------------------------




 average (electrostatic) potential at core
  the test charge radii are     1.0406  1.0714
  (the norm of the test charge is              1.0000)
       1 -72.6617       2 -72.5349       3 -72.7050       4 -72.5349       5 -72.5299
       6 -72.5379       7 -72.5298       8 -72.5642       9 -72.5299      10 -72.5642
      11 -72.5298      12 -72.5379      13 -72.6002      14 -73.7455      15 -72.5338
      16 -73.7455      17 -72.5363      18 -72.7079      19 -72.5941      20 -72.7079
      21 -72.5949      22 -72.5320      23 -72.5670      24 -72.5856      25 -72.5949
      26 -72.5856      27 -72.5670      28 -72.5320      29 -72.3836      30 -72.5648
      31 -73.2568      32 -72.5648      33 -53.5355
 
 
 
 E-fermi :   8.3390     XC(G=0): -10.2691     alpha+bet :-15.2356
   add alpha+bet to get absolut eigen values

 k-point   1 :       0.0000    0.0000    0.0000
  band No.  band energies     occupation 
      1      -3.0125      2.00000
      2      -1.0173      2.00000
      3      -0.7309      2.00000
      4      -0.7283      2.00000
      5      -0.7201      2.00000
      6      -0.6715      2.00000
      7      -0.6708      2.00000
      8       1.2445      2.00000
      9       1.3385      2.00000
     10       1.3458      2.00000
     11       1.3559      2.00000
     12       1.5134      2.00000
     13       1.5191      2.00000
     14       1.5210      2.00000
     15       1.5290      2.00000
     16       1.5293      2.00000
     17       1.5366      2.00000
     18       1.5571      2.00000
     19       1.5580      2.00000
     20       3.4765      2.00000
     21       3.5309      2.00000
     22       3.5427      2.00000
     23       3.5834      2.00000
     24       3.7132      2.00000
     25       3.7204      2.00000
     26       3.7754      2.00000
     27       3.8001      2.00000
     28       5.1646      2.00000
     29       5.1647      2.00000
     30       5.2570      2.00000
     31       6.4440      2.00000
     32       6.4707      2.00000
     33       6.4724      2.00000
     34       6.9960      2.00000
     35       7.0149      2.00000
     36       7.1997      2.00000
     37       7.2632      2.00000
     38       7.2791      2.00000
     39       7.3342      2.00000
     40       7.3351      2.00000
     41       7.3505      2.00000
     42       7.3565      2.00000
     43       7.3744      2.00000
     44       7.3779      2.00000
     45       7.3797      2.00000
     46       8.1294      2.05878
     47       8.2003      1.91504
     48       8.2099      1.87872
     49       8.3650      0.78182
     50       8.3767      0.68713
     51       8.3776      0.67975
     52       8.8910     -0.00067
     53       8.8983     -0.00056
     54       9.0234     -0.00001
     55       9.2226      0.00000
     56       9.2313      0.00000
     57       9.2609      0.00000
     58       9.2642      0.00000
     59       9.3277      0.00000
     60       9.3601      0.00000
     61       9.3633      0.00000
     62       9.3916      0.00000
     63       9.4160      0.00000
     64       9.4280      0.00000
     65       9.4376      0.00000
     66       9.4585      0.00000
     67       9.5548      0.00000
     68      10.6694      0.00000
     69      10.7381      0.00000
     70      10.7672      0.00000
     71      10.7990      0.00000
     72      10.8830      0.00000


--------------------------------------------------------------------------------------------------------


 soft charge-density along one line, spin component           1
         0         1         2         3         4         5         6         7         8         9
 total charge-density along one line
 
 pseudopotential strength for first ion, spin component:           1
  8.436  -0.006  -0.001   0.001  -0.001   0.000   0.000   0.000
 -0.006   0.000   0.000   0.000   0.000   0.000   0.000   0.000
 -0.001   0.000   1.984   0.000   0.000  -0.026   0.000   0.000
  0.001   0.000   0.000   1.984   0.000   0.000  -0.026   0.000
 -0.001   0.000   0.000   0.000   1.984   0.000   0.000  -0.026
  0.000   0.000  -0.026   0.000   0.000  -0.012   0.000   0.000
  0.000   0.000   0.000  -0.026   0.000   0.000  -0.012   0.000
  0.000   0.000   0.000   0.000  -0.026   0.000   0.000  -0.012
 total augmentation occupancy for first ion, spin component:           1
  1.123  -0.546   0.018  -0.020   0.018  -0.004   0.004  -0.004
 -0.546   0.443   0.015  -0.016   0.015  -0.001   0.002  -0.001
  0.018   0.015   0.766   0.017  -0.015  -0.174  -0.001   0.001
 -0.020  -0.016   0.017   0.761   0.017  -0.001  -0.174  -0.001
  0.018   0.015  -0.015   0.017   0.766   0.001  -0.001  -0.174
 -0.004  -0.001  -0.174  -0.001   0.001   0.047   0.000   0.000
  0.004   0.002  -0.001  -0.174  -0.001   0.000   0.047   0.000
 -0.004  -0.001   0.001  -0.001  -0.174   0.000   0.000   0.047


------------------------ aborting loop because EDIFF is reached ----------------------------------------




--------------------------------------------------------------------------------------------------------



  FREE ENERGIE OF THE ION-ELECTRON SYSTEM (eV)
  ---------------------------------------------------
  free  energy   TOTEN  =       -83.092453 eV

  energy  without entropy=      -82.953666  energy(sigma->0) =      -83.046191
 
    CHARGE:  cpu time    0.17: real time    0.17
    FORLOC:  cpu time    0.07: real time    0.07
    FORNL :  cpu time    0.41: real time    0.41
    STRESS:  cpu time    0.67: real time    0.68
    FORCOR:  cpu time    0.30: real time    0.30
    FORHAR:  cpu time    0.12: real time    0.12
    MIXING:  cpu time    0.01: real time    0.01

  FORCE on cell =-STRESS in cart. coord.  units (eV):
  Direction    XX          YY          ZZ          XY          YZ          ZX
  --------------------------------------------------------------------------------------
  Alpha Z    -8.27955    -8.27955    -8.27955
  Ewald    -791.47613  -791.47613  -794.70150   -14.02155     9.73039     9.73039
  Hartree     4.28225     4.28225     4.21575     0.02038    -0.03497    -0.03497
  E(xc)    -281.94391  -281.94391  -281.97836     0.12483    -0.10826    -0.10826
  Local      11.82073    11.82073    10.13096    -2.50518     1.41919     1.41919
  n-local   597.09552   597.09913   598.30758     0.13551     0.50401     0.50533
  augment   -25.86567   -25.86567   -25.90906    -0.03837     0.01026     0.01078
  Kinetic   514.88216   514.87391   513.52021    -1.46375     1.12286     1.11883
  Fock        0.00000     0.00000     0.00000     0.00000     0.00000     0.00000
  -------------------------------------------------------------------------------------
  Total      20.51309    20.51309    15.30603   -17.74812    12.64238    12.64239
  in kB      62.13997    62.13997    46.36631   -53.76410    38.29735    38.29737
  external pressure =       56.88 kB  Pullay stress =        0.00 kB


 VOLUME and BASIS-vectors are now :
 -----------------------------------------------------------------------------
  energy-cutoff  :      300.00
  volume of cell :      528.90
      direct lattice vectors                 reciprocal lattice vectors
     8.087052000  0.000000000  0.000000000     0.123654454  0.000000000  0.000000000
     0.000000000  8.087052000  0.000000000     0.000000000  0.123654454  0.000000000
     0.000000000  0.000000000  8.087052000     0.000000000  0.000000000  0.123654454

  length of vectors
     8.087052000  8.087052000  8.087052000     0.123654454  0.123654454  0.123654454


 FORCES acting on ions
    electron-ion (+dipol)            ewald-force                    non-local-force                 convergence-correction
 -----------------------------------------------------------------------------------------------
   -.825E+00 -.825E+00 0.819E+00   0.126E+01 0.126E+01 -.127E+01   -.324E+00 -.324E+00 0.349E+00   0.161E-01 0.161E-01 -.184E-01
   0.131E+01 -.181E+01 0.179E+00   -.142E+01 0.180E+01 -.648E+00   0.117E+00 -.446E-01 0.206E+00   -.131E-02 0.115E-01 -.124E-01
   0.673E-01 0.673E-01 0.239E+00   -.650E+00 -.650E+00 -.915E+00   0.379E+00 0.379E+00 0.536E+00   -.856E-02 -.856E-02 -.155E-01
   -.181E+01 0.131E+01 0.179E+00   0.180E+01 -.142E+01 -.648E+00   -.446E-01 0.117E+00 0.206E+00   0.115E-01 -.131E-02 -.124E-01
   0.125E+01 -.204E+01 0.202E+01   -.142E+01 0.217E+01 -.218E+01   0.246E-01 -.154E+00 0.182E+00   -.159E-01 0.104E-01 -.137E-01
   -.250E+01 -.736E+01 0.224E+01   0.231E+01 0.716E+01 -.206E+01   0.251E-01 -.137E+00 -.142E-01   0.489E-03 0.911E-02 -.827E-02
   -.333E+00 0.137E+01 0.181E+01   0.741E+00 -.146E+01 -.186E+01   -.156E+00 0.102E+00 0.950E-01   0.849E-02 -.313E-02 -.127E-01
   0.223E+01 0.292E+01 0.129E+01   -.217E+01 -.301E+01 -.112E+01   0.110E+00 0.258E+00 0.140E-01   -.110E-01 0.148E-02 -.602E-02
   -.204E+01 0.125E+01 0.202E+01   0.217E+01 -.142E+01 -.218E+01   -.154E+00 0.246E-01 0.182E+00   0.104E-01 -.159E-01 -.137E-01
   0.292E+01 0.223E+01 0.129E+01   -.301E+01 -.217E+01 -.112E+01   0.258E+00 0.110E+00 0.140E-01   0.148E-02 -.110E-01 -.602E-02
   0.137E+01 -.333E+00 0.181E+01   -.146E+01 0.741E+00 -.186E+01   0.102E+00 -.156E+00 0.950E-01   -.313E-02 0.849E-02 -.127E-01
   -.736E+01 -.250E+01 0.224E+01   0.716E+01 0.231E+01 -.206E+01   -.137E+00 0.251E-01 -.142E-01   0.911E-02 0.489E-03 -.827E-02
   0.269E+01 0.269E+01 0.445E+01   -.285E+01 -.285E+01 -.483E+01   0.336E+00 0.336E+00 0.720E+00   -.900E-02 -.900E-02 -.811E-02
   -.102E+02 0.173E+02 0.918E+01   0.144E+02 -.254E+02 -.128E+02   0.419E+01 -.691E+01 -.375E+01   -.363E-02 -.731E-02 -.394E-03
   -.265E+01 -.265E+01 0.784E+01   0.245E+01 0.245E+01 -.757E+01   0.401E-01 0.401E-01 0.335E-01   0.126E-02 0.126E-02 -.125E-01
   0.173E+02 -.102E+02 0.918E+01   -.254E+02 0.144E+02 -.128E+02   -.691E+01 0.419E+01 -.375E+01   -.731E-02 -.363E-02 -.394E-03
   -.195E+01 -.195E+01 -.128E+01   0.202E+01 0.202E+01 0.142E+01   -.118E+00 -.118E+00 0.244E-02   0.123E-01 0.123E-01 0.179E-01
   0.104E+00 -.300E+00 -.904E-01   -.623E+00 0.865E+00 0.569E+00   0.310E+00 -.416E+00 -.274E+00   -.581E-02 0.141E-01 0.128E-01
   0.758E+00 0.758E+00 -.729E+00   -.951E+00 -.951E+00 0.963E+00   0.262E+00 0.262E+00 -.186E+00   -.249E-02 -.249E-02 0.147E-01
   -.300E+00 0.104E+00 -.904E-01   0.865E+00 -.623E+00 0.569E+00   -.416E+00 0.310E+00 -.274E+00   0.141E-01 -.581E-02 0.128E-01
   0.248E+01 -.405E+01 -.260E+01   -.259E+01 0.437E+01 0.274E+01   0.266E+00 -.586E+00 -.285E+00   -.117E-01 0.578E-02 0.130E-01
   -.228E+00 -.172E+01 -.117E+01   0.701E+00 0.173E+01 0.125E+01   -.191E+00 -.522E-01 -.101E+00   0.569E-02 0.932E-02 0.909E-02
   -.137E+01 0.279E+01 -.222E+01   0.121E+01 -.286E+01 0.220E+01   -.713E-03 0.204E+00 -.123E+00   0.209E-02 0.404E-02 0.120E-01
   0.651E+00 0.749E+00 -.683E+00   -.913E+00 -.943E+00 0.868E+00   0.186E+00 0.250E+00 -.239E+00   -.138E-01 -.432E-02 0.696E-02
   -.405E+01 0.248E+01 -.260E+01   0.437E+01 -.259E+01 0.274E+01   -.586E+00 0.266E+00 -.285E+00   0.578E-02 -.117E-01 0.130E-01
   0.749E+00 0.651E+00 -.683E+00   -.943E+00 -.913E+00 0.868E+00   0.250E+00 0.186E+00 -.239E+00   -.432E-02 -.138E-01 0.696E-02
   0.279E+01 -.137E+01 -.222E+01   -.286E+01 0.121E+01 0.220E+01   0.204E+00 -.713E-03 -.123E+00   0.404E-02 0.209E-02 0.120E-01
   -.172E+01 -.228E+00 -.117E+01   0.173E+01 0.701E+00 0.125E+01   -.522E-01 -.191E+00 -.101E+00   0.932E-02 0.569E-02 0.909E-02
   0.955E+01 0.955E+01 -.101E+02   -.858E+01 -.858E+01 0.909E+01   -.195E+01 -.195E+01 0.210E+01   -.289E-02 -.289E-02 0.598E-02
   -.137E+01 0.210E+01 -.260E+01   0.119E+01 -.205E+01 0.261E+01   0.158E-01 0.102E+00 -.142E+00   0.300E-02 -.772E-02 0.184E-02
   -.992E+01 -.992E+01 -.178E+02   0.120E+02 0.120E+02 0.225E+02   0.417E+01 0.417E+01 0.739E+01   -.664E-02 -.664E-02 0.115E-01
   0.210E+01 -.137E+01 -.260E+01   -.205E+01 0.119E+01 0.261E+01   0.102E+00 0.158E-01 -.142E+00   -.772E-02 0.300E-02 0.184E-02
   -.112E+01 -.112E+01 0.143E+01   0.158E+01 0.158E+01 0.145E+01   0.116E+01 0.116E+01 -.165E+01   -.532E-02 -.532E-02 0.340E-02
 -----------------------------------------------------------------------------------------------
   -.145E+01 -.145E+01 -.434E+00   0.488E-14 -.289E-14 -.588E-13   0.146E+01 0.146E+01 0.430E+00   -.518E-02 -.518E-02 0.330E-02
 
 
 POSITION                                       TOTAL-FORCE (eV/Angst)
 -----------------------------------------------------------------------------------
      0.00000      0.00000      0.00000         0.125280      0.125280     -0.124904
      2.02176      0.00000      2.02176         0.012005     -0.037695     -0.275705
      2.02176      2.02176      0.00000        -0.211774     -0.211774     -0.155530
      0.00000      2.02176      2.02176        -0.037695      0.012005     -0.275705
      4.04353      0.00000      0.00000        -0.161604     -0.019718      0.009210
      6.06529      0.00000      2.02176        -0.159234     -0.330473      0.159720
      6.06529      2.02176      0.00000         0.259549      0.010715      0.033131
      4.04353      2.02176      2.02176         0.161251      0.175020      0.171883
      0.00000      4.04353      0.00000        -0.019718     -0.161604      0.009210
      2.02176      4.04353      2.02176         0.175020      0.161251      0.171883
      2.02176      6.06529      0.00000         0.010715      0.259549      0.033131
      0.00000      6.06529      2.02176        -0.330473     -0.159234      0.159720
      4.04353      4.04353      0.00000         0.171212      0.171212      0.327249
      6.06529      4.04353      2.02176         8.330570    -15.069175     -7.341335
      6.06529      6.06529      0.00000        -0.158035     -0.158035      0.296139
      4.04353      6.06529      2.02176       -15.069175      8.330570     -7.341335
      0.00000      0.00000      4.04353        -0.036452     -0.036452      0.153029
      2.02176      0.00000      6.06529        -0.213788      0.163332      0.217336
      2.02176      2.02176      4.04353         0.066186      0.066186      0.063024
      0.00000      2.02176      6.06529         0.163332     -0.213788      0.217336
      4.04353      0.00000      4.04353         0.135840     -0.262551     -0.127508
      6.06529      0.00000      6.06529         0.287910     -0.036644     -0.010996
      6.06529      2.02176      4.04353        -0.158756      0.143419     -0.138228
      4.04353      2.02176      6.06529        -0.089568      0.051494     -0.047583
      0.00000      4.04353      4.04353        -0.262551      0.135840     -0.127508
      2.02176      4.04353      6.06529         0.051494     -0.089568     -0.047583
      2.02176      6.06529      4.04353         0.143419     -0.158756     -0.138228
      0.00000      6.06529      6.06529        -0.036644      0.287910     -0.010996
      4.04353      4.04353      4.04353        -0.981297     -0.981297      1.059448
      6.06529      4.04353      6.06529        -0.161842      0.147305     -0.131347
      6.06529      6.06529      4.04353         6.223709      6.223709     12.111118
      4.04353      6.06529      6.06529         0.147305     -0.161842     -0.131347
      5.33745      5.33745      2.66873         1.623809      1.623809      1.233271
 -----------------------------------------------------------------------------------
    total drift:                                0.000830      0.000830     -0.000863


--------------------------------------------------------------------------------------------------------


    POTLOK:  cpu time    0.27: real time    0.27


--------------------------------------------------------------------------------------------------------


  FORCES: max atom, RMS    18.718270    5.328541
  FORCE total and by dimension   30.610139   15.069175


--------------------------------------------------------------------------------------------------------


    WAVPRE:  cpu time    0.09: real time    0.09
    FEWALD:  cpu time    0.01: real time    0.01
    ORTHCH:  cpu time    0.08: real time    0.08
     LOOP+:  cpu time   23.35: real time   23.38
   RESPFUN:  cpu time    0.00: real time    0.00


----------------------------------------- Iteration    2(   1)  ---------------------------------------


    POTLOK:  cpu time    0.25: real time    0.25
    SETDIJ:  cpu time    0.02: real time    0.02
    EDDIAG:  cpu time    0.23: real time    0.23
  RMM-DIIS:  cpu time    0.95: real time    0.95
    ORTHCH:  cpu time    0.01: real time    0.01
       DOS:  cpu time    0.00: real time    0.00
    CHARGE:  cpu time    0.17: real time    0.17
    MIXING:  cpu time    0.01: real time    0.01
    --------------------------------------------
      LOOP:  cpu time    1.65: real time    1.65

 eigenvalue-minimisations  :   144
 total energy-change (2. order) :-0.1696087E+02  (-0.1667780E+02)
 number of electron   97.9999995 magnetization 
 augmentation part    -1.0582699 magnetization 

 Broyden mixing:
  rms(total) = 0.58626E+00    rms(broyden)= 0.58625E+00
  rms(prec ) = 0.17765E+01
  weight for this iteration     100.00

 Free energy of the ion-electron system (eV)
  ---------------------------------------------------
  alpha Z        PSCENC =        -8.27954604
  Ewald energy   TEWEN  =     -2381.18498311
  -1/2 Hartree   DENC   =       -11.09341155
  -exchange  EXHF       =         0.00000000
  -V(xc)+E(xc)   XCENC  =      -841.55587599
  PAW double counting   =      1155.25324998     -122.45537206
  entropy T*S    EENTRO =        -0.08575327
  eigenvalues    EBANDS =       373.14161029
  atomic energy  EATOM  =      1736.20668909
  ---------------------------------------------------
  free energy    TOTEN  =      -100.05339265 eV

  energy without entropy =      -99.96763938  energy(sigma->0) =     -100.02480823


--------------------------------------------------------------------------------------------------------




----------------------------------------- Iteration    2(   2)  ---------------------------------------


    POTLOK:  cpu time    0.25: real time    0.25
    SETDIJ:  cpu time    0.02: real time    0.02
    EDDIAG:  cpu time    0.23: real time    0.23
  RMM-DIIS:  cpu time    0.95: real time    0.95
    ORTHCH:  cpu time    0.01: real time    0.01
       DOS:  cpu time    0.00: real time    0.00
    CHARGE:  cpu time    0.17: real time    0.18
    MIXING:  cpu time    0.01: real time    0.01
    --------------------------------------------
      LOOP:  cpu time    1.66: real time    1.66

 eigenvalue-minimisations  :   144
 total energy-change (2. order) : 0.2526134E+01  (-0.1133693E+01)
 number of electron   97.9999995 magnetization 
 augmentation part    -1.0144561 magnetization 

 Broyden mixing:
  rms(total) = 0.39595E+00    rms(broyden)= 0.39595E+00
  rms(prec ) = 0.11623E+01
  weight for this iteration     100.00

 eigenvalues of (default mixing * dielectric matrix)
  average eigenvalue GAMMA=   0.8328
  0.8328

 Free energy of the ion-electron system (eV)
  ---------------------------------------------------
  alpha Z        PSCENC =        -8.27954604
  Ewald energy   TEWEN  =     -2381.18498311
  -1/2 Hartree   DENC   =       -15.03129830
  -exchange  EXHF       =         0.00000000
  -V(xc)+E(xc)   XCENC  =      -841.39876366
  PAW double counting   =      1155.39809052     -122.56649883
  entropy T*S    EENTRO =        -0.08364466
  eigenvalues    EBANDS =       379.41269670
  atomic energy  EATOM  =      1736.20668909
  ---------------------------------------------------
  free energy    TOTEN  =       -97.52725830 eV

  energy without entropy =      -97.44361364  energy(sigma->0) =      -97.49937675


--------------------------------------------------------------------------------------------------------




----------------------------------------- Iteration    2(   3)  ---------------------------------------


    POTLOK:  cpu time    0.26: real time    0.26
    SETDIJ:  cpu time    0.02: real time    0.02
    EDDIAG:  cpu time    0.23: real time    0.23
  RMM-DIIS:  cpu time    0.98: real time    0.98
    ORTHCH:  cpu time    0.01: real time    0.01
       DOS:  cpu time    0.00: real time    0.00
    CHARGE:  cpu time    0.17: real time    0.17
    MIXING:  cpu time    0.01: real time    0.01
    --------------------------------------------
      LOOP:  cpu time    1.68: real time    1.68

 eigenvalue-minimisations  :   145
 total energy-change (2. order) : 0.1266778E+01  (-0.1909903E+00)
 number of electron   97.9999995 magnetization 
 augmentation part    -0.9981411 magnetization 

 Broyden mixing:
  rms(total) = 0.21517E+00    rms(broyden)= 0.21517E+00
  rms(prec ) = 0.42190E+00
  weight for this iteration     100.00

 eigenvalues of (default mixing * dielectric matrix)
  average eigenvalue GAMMA=   1.2737
  0.7128  1.8346

 Free energy of the ion-electron system (eV)
  ---------------------------------------------------
  alpha Z        PSCENC =        -8.27954604
  Ewald energy   TEWEN  =     -2381.18498311
  -1/2 Hartree   DENC   =       -16.35702137
  -exchange  EXHF       =         0.00000000
  -V(xc)+E(xc)   XCENC  =      -841.28798887
  PAW double counting   =      1156.57504465     -123.77892998
  entropy T*S    EENTRO =        -0.08744487
  eigenvalues    EBANDS =       381.93370025
  atomic energy  EATOM  =      1736.20668909
  ---------------------------------------------------
  free energy    TOTEN  =       -96.26048025 eV

  energy without entropy =      -96.17303538  energy(sigma->0) =      -96.23133196


--------------------------------------------------------------------------------------------------------




----------------------------------------- Iteration    2(   4)  ---------------------------------------


    POTLOK:  cpu time    0.25: real time    0.25
    SETDIJ:  cpu time    0.02: real time    0.02
    EDDIAG:  cpu time    0.23: real time    0.23
  RMM-DIIS:  cpu time    0.97: real time    0.97
    ORTHCH:  cpu time    0.01: real time    0.01
       DOS:  cpu time    0.00: real time    0.00
    CHARGE:  cpu time    0.17: real time    0.17
    MIXING:  cpu time    0.01: real time    0.01
    --------------------------------------------
      LOOP:  cpu time    1.67: real time    1.68

 eigenvalue-minimisations  :   145
 total energy-change (2. order) : 0.2246345E+00  (-0.1483227E+00)
 number of electron   97.9999995 magnetization 
 augmentation part    -0.9843581 magnetization 

 Broyden mixing:
  rms(total) = 0.73871E-01    rms(broyden)= 0.73871E-01
  rms(prec ) = 0.15105E+00
  weight for this iteration     100.00

 eigenvalues of (default mixing * dielectric matrix)
  average eigenvalue GAMMA=   1.0998
  1.7298  0.7848  0.7848

 Free energy of the ion-electron system (eV)
  ---------------------------------------------------
  alpha Z        PSCENC =        -8.27954604
  Ewald energy   TEWEN  =     -2381.18498311
  -1/2 Hartree   DENC   =       -18.71731685
  -exchange  EXHF       =         0.00000000
  -V(xc)+E(xc)   XCENC  =      -841.08703699
  PAW double counting   =      1158.25349327     -125.48080524
  entropy T*S    EENTRO =        -0.08934905
  eigenvalues    EBANDS =       384.34300920
  atomic energy  EATOM  =      1736.20668909
  ---------------------------------------------------
  free energy    TOTEN  =       -96.03584572 eV

  energy without entropy =      -95.94649667  energy(sigma->0) =      -96.00606270


--------------------------------------------------------------------------------------------------------




[...]
      LOOP:  cpu time    1.53: real time    1.53

 eigenvalue-minimisations  :   120
 total energy-change (2. order) : 0.1699942E-03  (-0.4443281E-04)
 number of electron   98.0000001 magnetization 
 augmentation part    -0.9577764 magnetization 

 Broyden mixing:
  rms(total) = 0.26390E-02    rms(broyden)= 0.26390E-02
  rms(prec ) = 0.50037E-02
  weight for this iteration     100.00

 eigenvalues of (default mixing * dielectric matrix)
  average eigenvalue GAMMA=   1.1638
  0.7457  1.5820

 Free energy of the ion-electron system (eV)
  ---------------------------------------------------
  alpha Z        PSCENC =        -8.27954604
  Ewald energy   TEWEN  =     -2352.76707199
  -1/2 Hartree   DENC   =       -48.92249478
  -exchange  EXHF       =         0.00000000
  -V(xc)+E(xc)   XCENC  =      -840.46120389
  PAW double counting   =      1156.93962706     -124.05580494
  entropy T*S    EENTRO =         0.04968257
  eigenvalues    EBANDS =       380.50667490
  atomic energy  EATOM  =      1736.20668909
  ---------------------------------------------------
  free energy    TOTEN  =      -100.78344802 eV

  energy without entropy =     -100.83313059  energy(sigma->0) =     -100.80000888


--------------------------------------------------------------------------------------------------------




----------------------------------------- Iteration   25(   4)  ---------------------------------------


    POTLOK:  cpu time    0.25: real time    0.25
    SETDIJ:  cpu time    0.02: real time    0.02
    EDDIAG:  cpu time    0.23: real time    0.23
  RMM-DIIS:  cpu time    0.61: real time    0.61
    ORTHCH:  cpu time    0.01: real time    0.01
       DOS:  cpu time    0.00: real time    0.00
    --------------------------------------------
      LOOP:  cpu time    1.13: real time    1.13

 eigenvalue-minimisations  :    85
 total energy-change (2. order) : 0.2415077E-04  (-0.8224371E-05)
 number of electron   98.0000001 magnetization 
 augmentation part    -0.9577764 magnetization 

 Free energy of the ion-electron system (eV)
  ---------------------------------------------------
  alpha Z        PSCENC =        -8.27954604
  Ewald energy   TEWEN  =     -2352.76707199
  -1/2 Hartree   DENC   =       -48.92060385
  -exchange  EXHF       =         0.00000000
  -V(xc)+E(xc)   XCENC  =      -840.46108710
  PAW double counting   =      1156.93771513     -124.05385978
  entropy T*S    EENTRO =         0.04971199
  eigenvalues    EBANDS =       380.50462868
  atomic energy  EATOM  =      1736.20668909
  ---------------------------------------------------
  free energy    TOTEN  =      -100.78342387 eV

  energy without entropy =     -100.83313586  energy(sigma->0) =     -100.79999453


--------------------------------------------------------------------------------------------------------




 average (electrostatic) potential at core
  the test charge radii are     1.0406  1.0714
  (the norm of the test charge is              1.0000)
       1 -72.3023       2 -72.2434       3 -71.8744       4 -72.2434       5 -72.4639
       6 -72.8632       7 -72.2668       8 -72.5876       9 -72.4639      10 -72.5876
      11 -72.2668      12 -72.8632      13 -72.6757      14 -72.4880      15 -72.7973
      16 -72.4880      17 -72.3808      18 -71.8227      19 -72.0140      20 -71.8227
      21 -72.6351      22 -72.2473      23 -72.5945      24 -71.9957      25 -72.6351
      26 -71.9957      27 -72.5945      28 -72.2473      29 -72.9414      30 -72.5962
      31 -72.5375      32 -72.5962      33 -50.0199
 
 
 
 E-fermi :   8.3917     XC(G=0): -10.2430     alpha+bet :-15.2356
   add alpha+bet to get absolut eigen values

 k-point   1 :       0.0000    0.0000    0.0000
  band No.  band energies     occupation 
      1      -3.1382      2.00000
      2      -1.1640      2.00000
      3      -1.1517      2.00000
      4      -0.8478      2.00000
      5      -0.8253      2.00000
      6      -0.8094      2.00000
      7      -0.5128      2.00000
      8       0.8729      2.00000
      9       0.8984      2.00000
     10       1.1192      2.00000
     11       1.3433      2.00000
     12       1.3455      2.00000
     13       1.3947      2.00000
     14       1.4577      2.00000
     15       1.4701      2.00000
     16       1.6671      2.00000
     17       1.6842      2.00000
     18       1.7170      2.00000
     19       1.8119      2.00000
     20       3.1636      2.00000
     21       3.5665      2.00000
     22       3.5874      2.00000
     23       3.5933      2.00000
     24       3.7079      2.00000
     25       3.7085      2.00000
     26       3.7648      2.00000
     27       3.8436      2.00000
     28       5.1018      2.00000
     29       5.1860      2.00000
     30       5.1979      2.00000
     31       6.1595      2.00000
     32       6.4534      2.00000
     33       6.4619      2.00000
     34       6.6740      2.00000
     35       6.8648      2.00000
     36       6.8737      2.00000
     37       7.0531      2.00000
     38       7.2140      2.00000
     39       7.2202      2.00000
     40       7.2938      2.00000
     41       7.3725      2.00000
     42       7.3971      2.00000
     43       7.5119      2.00000
     44       7.5330      2.00000
     45       7.5874      2.00000
     46       7.7041      2.00001
     47       7.7267      2.00003
     48       8.1334      2.06966
     49       8.2679      1.85683
     50       8.5197      0.12585
     51       8.5500      0.02456
     52       8.7340     -0.03610
     53       8.7608     -0.02550
     54       8.8082     -0.01214
     55       8.9014     -0.00186
     56       8.9343     -0.00085
     57       8.9566     -0.00048
     58       9.1598      0.00000
     59       9.2287      0.00000
     60       9.2514      0.00000
     61       9.2893      0.00000
     62       9.3103      0.00000
     63       9.4545      0.00000
     64       9.4841      0.00000
     65       9.4856      0.00000
     66       9.6152      0.00000
     67       9.7533      0.00000
     68       9.7569      0.00000
     69       9.8106      0.00000
     70      10.1615      0.00000
     71      10.1998      0.00000
     72      10.7122      0.00000


--------------------------------------------------------------------------------------------------------


 soft charge-density along one line, spin component           1
         0         1         2         3         4         5         6         7         8         9
 total charge-density along one line
 
 pseudopotential strength for first ion, spin component:           1
  8.438  -0.006   0.000   0.000   0.000   0.000   0.000   0.000
 -0.006   0.000   0.000   0.000   0.000   0.000   0.000   0.000
  0.000   0.000   1.990   0.000   0.000  -0.028   0.000   0.000
  0.000   0.000   0.000   1.990   0.000   0.000  -0.028   0.000
  0.000   0.000   0.000   0.000   1.990   0.000   0.000  -0.028
  0.000   0.000  -0.028   0.000   0.000  -0.012   0.000   0.000
  0.000   0.000   0.000  -0.028   0.000   0.000  -0.012   0.000
  0.000   0.000   0.000   0.000  -0.028   0.000   0.000  -0.012
 total augmentation occupancy for first ion, spin component:           1
  1.111  -0.603   0.001   0.000   0.001   0.002   0.004   0.002
 -0.603   0.509  -0.001   0.012  -0.001  -0.001  -0.004  -0.001
  0.001  -0.001   0.881  -0.043   0.037  -0.200   0.011  -0.011
  0.000   0.012  -0.043   0.886  -0.043   0.011  -0.200   0.011
  0.001  -0.001   0.037  -0.043   0.881  -0.011   0.011  -0.200
  0.002  -0.001  -0.200   0.011  -0.011   0.053  -0.003   0.003
  0.004  -0.004   0.011  -0.200   0.011  -0.003   0.053  -0.003
  0.002  -0.001  -0.011   0.011  -0.200   0.003  -0.003   0.053


------------------------ aborting loop because EDIFF is reached ----------------------------------------




--------------------------------------------------------------------------------------------------------



  FREE ENERGIE OF THE ION-ELECTRON SYSTEM (eV)
  ---------------------------------------------------
  free  energy   TOTEN  =      -100.783424 eV

  energy  without entropy=     -100.833136  energy(sigma->0) =     -100.799995
 
    CHARGE:  cpu time    0.17: real time    0.17
    FORLOC:  cpu time    0.07: real time    0.07
    FORNL :  cpu time    0.41: real time    0.41
    STRESS:  cpu time    0.66: real time    0.66
    FORCOR:  cpu time    0.30: real time    0.30
    FORHAR:  cpu time    0.12: real time    0.12
    MIXING:  cpu time    0.01: real time    0.01

  FORCE on cell =-STRESS in cart. coord.  units (eV):
  Direction    XX          YY          ZZ          XY          YZ          ZX
  --------------------------------------------------------------------------------------
  Alpha Z    -8.27955    -8.27955    -8.27955
  Ewald    -784.08115  -784.08115  -784.61407    -1.31356     2.00852     2.00852
  Hartree    16.28594    16.28594    16.35220    -0.57094     0.47083     0.47083
  E(xc)    -282.97609  -282.97609  -282.98273    -0.04183     0.00516     0.00516
  Local     -14.89622   -14.89622   -14.57854     0.76317    -1.50353    -1.50353
  n-local   596.41959   596.41959   596.41423     0.48882    -0.09187    -0.09180
  augment   -25.64316   -25.64316   -25.61390    -0.00557    -0.01478    -0.01485
  Kinetic   518.76516   518.76515   517.91648    -1.30677     1.42774     1.42759
  Fock        0.00000     0.00000     0.00000     0.00000     0.00000     0.00000
  -------------------------------------------------------------------------------------
  Total      15.59452    15.59452    14.61412    -1.98667     2.30200     2.30200
  in kB      47.24021    47.24021    44.27031    -6.01819     6.97340     6.97340
  external pressure =       46.25 kB  Pullay stress =        0.00 kB


 VOLUME and BASIS-vectors are now :
 -----------------------------------------------------------------------------
  energy-cutoff  :      300.00
  volume of cell :      528.90
      direct lattice vectors                 reciprocal lattice vectors
     8.087052000  0.000000000  0.000000000     0.123654454  0.000000000  0.000000000
     0.000000000  8.087052000  0.000000000     0.000000000  0.123654454  0.000000000
     0.000000000  0.000000000  8.087052000     0.000000000  0.000000000  0.123654454

  length of vectors
     8.087052000  8.087052000  8.087052000     0.123654454  0.123654454  0.123654454


 FORCES acting on ions
    electron-ion (+dipol)            ewald-force                    non-local-force                 convergence-correction
 -----------------------------------------------------------------------------------------------
   0.453E+01 0.453E+01 -.643E+01   -.475E+01 -.475E+01 0.640E+01   0.183E+00 0.183E+00 0.793E-01   -.309E-03 -.309E-03 0.667E-03
   -.220E+01 0.688E+01 0.281E+01   0.290E+01 -.518E+01 -.210E+01   -.752E+00 -.164E+01 -.696E+00   -.403E-03 -.750E-05 0.208E-02
   0.109E+01 0.109E+01 -.145E+02   -.420E+00 -.420E+00 0.110E+02   -.678E+00 -.678E+00 0.356E+01   0.102E-02 0.102E-02 0.846E-03
   0.688E+01 -.220E+01 0.281E+01   -.518E+01 0.290E+01 -.210E+01   -.164E+01 -.752E+00 -.696E+00   -.750E-05 -.403E-03 0.208E-02
   -.684E+01 0.123E+02 -.120E+02   0.647E+01 -.111E+02 0.109E+02   0.342E+00 -.125E+01 0.111E+01   0.102E-02 0.536E-03 0.108E-03
   0.775E+01 0.199E+02 -.742E+01   -.645E+01 -.173E+02 0.606E+01   -.136E+01 -.249E+01 0.139E+01   -.297E-03 0.772E-03 0.916E-03
   -.218E+01 -.319E+01 -.791E+01   0.144E+01 0.361E+01 0.594E+01   0.743E+00 -.328E+00 0.207E+01   -.124E-02 0.132E-03 0.116E-02
   -.775E+01 -.591E+01 -.709E+01   0.627E+01 0.476E+01 0.597E+01   0.144E+01 0.119E+01 0.113E+01   0.631E-03 0.999E-03 0.111E-02
   0.123E+02 -.684E+01 -.120E+02   -.111E+02 0.647E+01 0.109E+02   -.125E+01 0.342E+00 0.111E+01   0.536E-03 0.102E-02 0.108E-03
   -.591E+01 -.775E+01 -.709E+01   0.476E+01 0.627E+01 0.597E+01   0.119E+01 0.144E+01 0.113E+01   0.999E-03 0.631E-03 0.111E-02
   -.319E+01 -.218E+01 -.791E+01   0.361E+01 0.144E+01 0.594E+01   -.328E+00 0.743E+00 0.207E+01   0.132E-03 -.124E-02 0.116E-02
   0.199E+02 0.775E+01 -.742E+01   -.173E+02 -.645E+01 0.606E+01   -.249E+01 -.136E+01 0.139E+01   0.772E-03 -.297E-03 0.916E-03
   -.140E+02 -.140E+02 -.124E+02   0.122E+02 0.122E+02 0.106E+02   0.181E+01 0.181E+01 0.183E+01   -.660E-03 -.660E-03 0.159E-02
   0.716E+01 -.269E+02 -.639E+01   -.600E+01 0.218E+02 0.531E+01   -.122E+01 0.512E+01 0.105E+01   -.970E-03 -.795E-04 0.157E-02
   0.812E+01 0.812E+01 -.193E+02   -.694E+01 -.694E+01 0.170E+02   -.125E+01 -.125E+01 0.218E+01   0.788E-03 0.788E-03 0.750E-03
   -.269E+02 0.716E+01 -.639E+01   0.218E+02 -.600E+01 0.531E+01   0.512E+01 -.122E+01 0.105E+01   -.795E-04 -.970E-03 0.157E-02
   0.115E+02 0.115E+02 0.851E+01   -.105E+02 -.105E+02 -.788E+01   -.104E+01 -.104E+01 -.618E+00   0.439E-05 0.439E-05 -.181E-02
   -.299E+00 0.137E+02 -.158E+01   0.684E+00 -.105E+02 0.888E+00   -.373E+00 -.316E+01 0.707E+00   0.124E-02 -.829E-03 -.158E-02
   -.769E+01 -.769E+01 0.126E+02   0.625E+01 0.625E+01 -.976E+01   0.145E+01 0.145E+01 -.285E+01   0.100E-02 0.100E-02 -.142E-02
   0.137E+02 -.299E+00 -.158E+01   -.105E+02 0.684E+00 0.888E+00   -.316E+01 -.373E+00 0.707E+00   -.829E-03 0.124E-02 -.158E-02
   -.133E+02 0.126E+02 0.137E+02   0.118E+02 -.106E+02 -.120E+02   0.156E+01 -.192E+01 -.171E+01   0.282E-03 -.705E-04 -.270E-03
   -.746E+00 0.764E+01 0.196E+01   0.283E+00 -.575E+01 -.271E+01   0.454E+00 -.198E+01 0.664E+00   -.135E-02 0.362E-03 -.178E-02
   0.773E+01 -.664E+01 0.814E+01   -.658E+01 0.521E+01 -.659E+01   -.117E+01 0.145E+01 -.153E+01   -.493E-03 0.203E-03 -.506E-03
   -.121E+02 -.752E+01 0.717E+01   0.944E+01 0.598E+01 -.568E+01   0.263E+01 0.155E+01 -.151E+01   0.929E-03 0.111E-03 -.171E-02
   0.126E+02 -.133E+02 0.137E+02   -.106E+02 0.118E+02 -.120E+02   -.192E+01 0.156E+01 -.171E+01   -.705E-04 0.282E-03 -.270E-03
   -.752E+01 -.121E+02 0.717E+01   0.598E+01 0.944E+01 -.568E+01   0.155E+01 0.263E+01 -.151E+01   0.111E-03 0.929E-03 -.171E-02
   -.664E+01 0.773E+01 0.814E+01   0.521E+01 -.658E+01 -.659E+01   0.145E+01 -.117E+01 -.153E+01   0.203E-03 -.493E-03 -.506E-03
   0.764E+01 -.746E+00 0.196E+01   -.575E+01 0.283E+00 -.271E+01   -.198E+01 0.454E+00 0.664E+00   0.362E-03 -.135E-02 -.178E-02
   -.126E+02 -.126E+02 0.132E+02   0.108E+02 0.108E+02 -.112E+02   0.182E+01 0.182E+01 -.201E+01   -.873E-03 -.873E-03 -.612E-03
   0.724E+01 -.782E+01 0.540E+01   -.624E+01 0.637E+01 -.426E+01   -.103E+01 0.145E+01 -.115E+01   0.435E-03 -.163E-02 -.154E-02
   0.751E+01 0.751E+01 0.255E+02   -.643E+01 -.643E+01 -.212E+02   -.108E+01 -.108E+01 -.417E+01   0.463E-03 0.463E-03 -.144E-02
   -.782E+01 0.724E+01 0.540E+01   0.637E+01 -.624E+01 -.426E+01   0.145E+01 -.103E+01 -.115E+01   -.163E-02 0.435E-03 -.154E-02
   0.226E+01 0.226E+01 -.194E+01   -.158E+01 -.158E+01 0.160E+01   -.626E+00 -.626E+00 0.229E+00   -.470E-03 -.470E-03 0.619E-03
 -----------------------------------------------------------------------------------------------
   0.148E+00 0.148E+00 -.127E+01   -.688E-14 -.224E-13 -.218E-13   -.150E+00 -.150E+00 0.128E+01   0.124E-02 0.124E-02 -.168E-02
 
 
 POSITION                                       TOTAL-FORCE (eV/Angst)
 -----------------------------------------------------------------------------------
      0.07889      0.07889     -0.09065        -0.043664     -0.043664      0.049859
      1.98267      0.22461      2.15435        -0.045923      0.062632      0.018207
      2.03520      2.03520     -0.14101        -0.002272     -0.002272      0.010117
      0.22461      1.98267      2.15435         0.062632     -0.045923      0.018207
      3.94458      0.04369     -0.04384        -0.022116      0.020799     -0.023407
      6.22807      0.36059      1.86747        -0.054143      0.118225      0.039395
      5.94542      1.96788     -0.24239         0.001075      0.090352      0.097508
      3.90581      1.91359      1.96774        -0.036194      0.035553      0.017089
      0.04369      3.94458     -0.04384         0.020799     -0.022116     -0.023407
      1.91359      3.90581      1.96774         0.035553     -0.036194      0.017089
      1.96788      5.94542     -0.24239         0.090352      0.001075      0.097508
      0.36059      6.22807      1.86747         0.118225     -0.054143      0.039395
      3.94041      3.94041     -0.05164        -0.022561     -0.022561     -0.045755
      6.18730      3.21248      1.90888        -0.061726     -0.001026     -0.028482
      6.23255      6.23255     -0.36862        -0.072199     -0.072199     -0.126302
      3.21248      6.18730      1.90888        -0.001026     -0.061726     -0.028482
      0.05219      0.05219      4.17105        -0.001293     -0.001293      0.004102
      2.02752      0.13863      6.05510         0.013524      0.014373      0.013973
      1.96623      1.96623      4.21984         0.020790      0.020790     -0.016064
      0.13863      2.02752      6.05510         0.014373      0.013524      0.013973
      3.94782      0.06054      4.14785        -0.006051      0.057305      0.026031
      5.97318      0.20980      6.09948        -0.010128     -0.096293     -0.079630
      6.12522      1.90559      4.19147        -0.024071      0.017061      0.025915
      3.88223      1.95587      6.12959        -0.029329      0.011829     -0.025588
      0.06054      3.94782      4.14785         0.057305     -0.006051      0.026031
      1.95587      3.88223      6.12959         0.011829     -0.029329     -0.025588
      1.90559      6.12522      4.19147         0.017061     -0.024071      0.025915
      0.20980      5.97318      6.09948        -0.096293     -0.010128     -0.079630
      3.94536      3.94536      4.15639         0.027072      0.027072     -0.034805
      6.12071      3.92387      6.16708        -0.028489     -0.004406     -0.007671
      6.18839      6.18839      4.76401         0.008914      0.008914      0.121377
      3.92387      6.12071      6.16708        -0.004406     -0.028489     -0.007671
      5.75518      5.75518      2.24847         0.062380      0.062380     -0.109209
 -----------------------------------------------------------------------------------
    total drift:                               -0.000567     -0.000567      0.000375
 d Force = 0.5134274E-02[-0.385E-05, 0.103E-01]  d Energy = 0.5106093E-02 0.282E-04
 d Force = 0.1021481E+00[ 0.758E-01, 0.129E+00]  d Ewald  = 0.1021565E+00-0.839E-05


--------------------------------------------------------------------------------------------------------


    POTLOK:  cpu time    0.27: real time    0.27


--------------------------------------------------------------------------------------------------------


  FORCES: max atom, RMS     0.162412    0.082756
  FORCE total and by dimension    0.475395    0.126302


--------------------------------------------------------------------------------------------------------


  
 reached required accuracy - stopping structural energy minimisation
     LOOP+:  cpu time    8.05: real time    8.06
    4ORBIT:  cpu time    0.00: real time    0.00

 total amount of memory used by VASP on root node  62502. kBytes
========================================================================

   base      :    30000. kBytes
   nonl-proj :     4093. kBytes
   fftplans  :     4240. kBytes
   grid      :    23132. kBytes
   one-center:      101. kBytes
   wavefun   :      936. kBytes
 
  
  
 General timing and accounting informations for this job:
 ========================================================
  
                  Total CPU time used (sec):      261.020
                            User time (sec):      260.765
                          System time (sec):        0.255
                         Elapsed time (sec):      264.013
  
                   Maximum memory used (kb):           0.
                   Average memory used (kb):           0.
  
                          Minor page faults:        20821
                          Major page faults:           31
                 Voluntary context switches:         4786
