<?xml version="1.0" encoding="ISO-8859-1"?>
<modeling>
 <generator>
  <i name="program" type="string">vasp </i>
  <i name="version" type="string">5.2.2  </i>
  <i name="subversion" type="string">15Apr09 complex  parallel </i>
  <i name="platform" type="string">LinuxIFC </i>
  <i name="date" type="string">2016 11 30 </i>
  <i name="time" type="string">12:59:11 </i>
 </generator>
 <incar>
  <i type="string" name="PREC">accurate</i>
  <i type="int" name="IALGO">    48</i>
  <i type="int" name="IBRION">     2</i>
  <i name="EDIFFG">      0.05000000</i>
  <i type="int" name="NSW">   191</i>
  <i type="int" name="ISIF">     2</i>
  <i name="ENCUT">    300.00000000</i>
  <i name="NELECT">     98.00000000</i>
  <i type="int" name="ISMEAR">     1</i>
  <i name="SIGMA">      0.20000000</i>
  <i type="logical" name="LWAVE"> F  </i>
  <i type="logical" name="LCHARG"> F  </i>
  <i type="logical" name="LPEAD"> F  </i>
  <i type="logical" name="LCALCPOL"> F  </i>
  <i type="logical" name="LCALCEPS"> F  </i>
  <v name="EFIELD_PEAD">      0.00000000      0.00000000      0.00000000</v>
  <i type="logical" name="LEFG"> F  </i>
 </incar>
 <kpoints>
  <generation param="Gamma">
   <v type="int" name="divisions">       1        1        1 </v>
   <v name="usershift">      0.00000000       0.00000000       0.00000000 </v>
   <v name="genvec1">      1.00000000       0.00000000       0.00000000 </v>
   <v name="genvec2">      0.00000000       1.00000000       0.00000000 </v>
   <v name="genvec3">      0.00000000       0.00000000       1.00000000 </v>
   <v name="shift">      0.00000000       0.00000000       0.00000000 </v>
  </generation>
  <varray name="kpointlist" >
   <v>       0.00000000       0.00000000       0.00000000 </v>
  </varray>
  <varray name="weights" >
   <v>       1.00000000 </v>
  </varray>
 </kpoints>
 <parameters>
  <separator name="general" >
   <i type="string" name="SYSTEM">unknown system</i>
   <i type="logical" name="LCOMPAT"> F  </i>
  </separator>
  <separator name="electronic" >
   <i type="string" name="PREC">accura</i>
   <i name="ENMAX">    300.00000000</i>
   <i name="ENAUG">    291.05200000</i>
   <i name="EDIFF">      0.00010000</i>
   <i type="int" name="IALGO">    48</i>
   <i type="int" name="IWAVPR">    11</i>
   <i type="int" name="NBANDS">    72</i>
   <i name="NELECT">     98.00000000</i>
   <separator name="electronic smearing" >
    <i type="int" name="ISMEAR">     1</i>
    <i name="SIGMA">      0.20000000</i>
   </separator>
   <separator name="electronic projectors" >
    <i type="logical" name="LREAL"> F  </i>
    <v name="ROPT">      0.00000000      0.00000000</v>
    <i type="int" name="LMAXPAW">  -100</i>
    <i type="int" name="LMAXMIX">     2</i>
   </separator>
   <separator name="electronic startup" >
    <i type="int" name="ISTART">     0</i>
    <i type="int" name="ICHARG">     2</i>
    <i type="int" name="INIWAV">     1</i>
   </separator>
   <separator name="electronic spin" >
    <i type="int" name="ISPIN">     1</i>
    <i type="logical" name="LNONCOLLINEAR"> F  </i>
    <v name="MAGMOM">      1.00000000      1.00000000      1.00000000      1.00000000      1.00000000      1.00000000      1.00000000      1.00000000      1.00000000      1.00000000      1.00000000      1.00000000      1.00000000      1.00000000      1.00000000      1.00000000      1.00000000      1.00000000      1.00000000      1.00000000
      1.00000000      1.00000000      1.00000000      1.00000000      1.00000000      1.00000000      1.00000000      1.00000000      1.00000000      1.00000000      1.00000000      1.00000000      1.00000000</v>
    <i name="NUPDOWN">     -1.00000000</i>
    <i type="logical" name="LSORBIT"> F  </i>
    <v name="SAXIS">      0.00000000      0.00000000      1.00000000</v>
    <i type="logical" name="LSPIRAL"> F  </i>
    <v name="QSPIRAL">      0.00000000      0.00000000      0.00000000</v>
    <i type="logical" name="LZEROZ"> F  </i>
   </separator>
   <separator name="electronic exchange-correlation" >
    <i type="logical" name="LASPH"> F  </i>
    <i type="logical" name="LMETAGGA"> F  </i>
   </separator>
   <separator name="electronic convergence" >
    <i type="int" name="NELM">    60</i>
    <i type="int" name="NELMDL">   -12</i>
    <i type="int" name="NELMIN">     2</i>
    <i name="ENINI">    300.00000000</i>
    <separator name="electronic convergence detail" >
     <i type="logical" name="LDIAG"> T  </i>
     <i name="WEIMIN">      0.00100000</i>
     <i name="EBREAK">      0.00000038</i>
     <i name="DEPER">      0.30000000</i>
     <i type="int" name="NRMM">     4</i>
     <i name="TIME">      0.40000000</i>
    </separator>
   </separator>
   <separator name="electronic mixer" >
    <i name="AMIX">      0.40000000</i>
    <i name="BMIX">      1.00000000</i>
    <i name="AMIN">      0.10000000</i>
    <i name="AMIX_MAG">      1.60000000</i>
    <i name="BMIX_MAG">      1.00000000</i>
    <separator name="electronic mixer details" >
     <i type="int" name="IMIX">     4</i>
     <i type="int" name="MAXMIX">   -45</i>
     <i name="WC">    100.00000000</i>
     <i type="int" name="INIMIX">     1</i>
     <i type="int" name="MIXPRE">     1</i>
     <i type="int" name="MREMOVE">     5</i>
    </separator>
   </separator>
   <separator name="electronic dipolcorrection" >
    <i type="logical" name="LDIPOL"> F  </i>
    <i type="logical" name="LMONO"> F  </i>
    <i type="int" name="IDIPOL">     0</i>
    <i name="EPSILON">      1.00000000</i>
    <v name="DIPOL">   -100.00000000   -100.00000000   -100.00000000</v>
    <i name="EFIELD">      0.00000000</i>
   </separator>
  </separator>
  <separator name="grids" >
   <i type="int" name="NGX">    48</i>
   <i type="int" name="NGY">    48</i>
   <i type="int" name="NGZ">    48</i>
   <i type="int" name="NGXF">    96</i>
   <i type="int" name="NGYF">    96</i>
   <i type="int" name="NGZF">    96</i>
   <i type="logical" name="ADDGRID"> F  </i>
  </separator>
  <separator name="ionic" >
   <i type="int" name="NSW">   191</i>
   <i type="int" name="IBRION">     2</i>
   <i type="int" name="ISIF">     2</i>
   <i name="PSTRESS">      0.00000000</i>
   <i name="EDIFFG">      0.05000000</i>
   <i type="int" name="NFREE">     1</i>
   <i name="POTIM">      0.50000000</i>
   <i name="SMASS">     -3.00000000</i>
  </separator>
  <separator name="ionic md" >
   <i name="TEBEG">      0.00010000</i>
   <i name="TEEND">      0.00010000</i>
   <i type="int" name="NBLOCK">     1</i>
   <i type="int" name="KBLOCK">   191</i>
   <i type="int" name="NPACO">   256</i>
   <i name="APACO">     16.00000000</i>
  </separator>
  <separator name="symmetry" >
   <i type="int" name="ISYM">     2</i>
   <i name="SYMPREC">      0.00001000</i>
  </separator>
  <separator name="dos" >
   <i type="logical" name="LORBIT"> F  </i>
   <v name="RWIGS">     -1.00000000     -1.00000000</v>
   <i type="int" name="NEDOS">   301</i>
   <i name="EMIN">     10.00000000</i>
   <i name="EMAX">    -10.00000000</i>
   <i name="EFERMI">      0.00000000</i>
  </separator>
  <separator name="writing" >
   <i type="int" name="NWRITE">     2</i>
   <i type="logical" name="LWAVE"> F  </i>
   <i type="logical" name="LCHARG"> F  </i>
   <i type="logical" name="LPARD"> F  </i>
   <i type="logical" name="LVTOT"> F  </i>
   <i type="logical" name="LELF"> F  </i>
   <i type="logical" name="LOPTICS"> F  </i>
   <v name="STM">      0.00000000      0.00000000      0.00000000      0.00000000      0.00000000</v>
  </separator>
  <separator name="performance" >
   <i type="int" name="NPAR">     8</i>
   <i type="int" name="NSIM">     4</i>
   <i type="int" name="NBLK">    32</i>
   <i type="logical" name="LPLANE"> T  </i>
   <i type="logical" name="LSCALAPACK"> F  </i>
   <i type="logical" name="LSCAAWARE"> F  </i>
   <i type="logical" name="LSCALU"> F  </i>
   <i type="logical" name="LASYNC"> F  </i>
  </separator>
  <separator name="miscellaneous" >
   <i type="int" name="IDIOT">     3</i>
   <i type="logical" name="LMUSIC"> F  </i>
   <v name="POMASS">     26.98200000     24.30500000</v>
   <i type="logical" name="LCORR"> T  </i>
  </separator>
  <i type="logical" name="LREAL_COMPAT"> F  </i>
  <i type="logical" name="GGA_COMPAT"> T  </i>
  <i type="logical" name="LBERRY"> F  </i>
  <i type="int" name="ICORELEVEL">     0</i>
  <i type="logical" name="LDAU"> F  </i>
  <i type="int" name="I_CONSTRAINED_M">     0</i>
  <separator name="electronic exchange-correlation" >
   <i type="string" name="GGA">--</i>
   <i type="int" name="VOSKOWN">     0</i>
   <i type="logical" name="LHFCALC"> F  </i>
   <i type="logical" name="LHFONE"> F  </i>
   <i type="logical" name="LRHFCALC"> F  </i>
   <i type="logical" name="LTHOMAS"> F  </i>
   <i type="logical" name="LMODELHF"> F  </i>
   <i name="ENCUTFOCK">      0.00000000</i>
   <i name="ENCUT4O">     -1.00000000</i>
   <i type="int" name="EXXOEP">     0</i>
   <i type="int" name="FOURORBIT">     0</i>
   <i name="AEXX">      0.00000000</i>
   <i name="HFALPHA">      0.00000000</i>
   <i name="ALDAX">      1.00000000</i>
   <i name="AGGAX">      1.00000000</i>
   <i name="ALDAC">      1.00000000</i>
   <i name="AGGAC">      1.00000000</i>
   <i type="int" name="NKREDX">     1</i>
   <i type="int" name="NKREDY">     1</i>
   <i type="int" name="NKREDZ">     1</i>
   <i type="logical" name="SHIFTRED"> F  </i>
   <i type="logical" name="ODDONLY"> F  </i>
   <i type="logical" name="EVENONLY"> F  </i>
   <i type="int" name="LMAXFOCK">     0</i>
   <i type="int" name="NMAXFOCKAE">     0</i>
   <i name="HFSCREEN">      0.00000000</i>
   <i name="HFSCREENC">      0.00000000</i>
  </separator>
  <separator name="model GW" >
   <i type="int" name="MODEL_GW">     0</i>
   <i name="MODEL_EPS0">      9.61630031</i>
   <i name="MODEL_ALPHA">      1.00000000</i>
  </separator>
  <separator name="linear response parameters" >
   <i type="logical" name="LEPSILON"> F  </i>
   <i type="logical" name="LRPA"> F  </i>
   <i type="logical" name="LNABLA"> F  </i>
   <i type="logical" name="LVEL"> F  </i>
   <i type="int" name="KINTER">     0</i>
   <i name="CSHIFT">      0.10000000</i>
   <i name="OMEGAMAX">     -1.00000000</i>
  </separator>
  <separator name="orbital magnetization" >
   <i type="logical" name="ORBITALMAG"> F  </i>
   <i type="logical" name="LMAGBLOCH"> F  </i>
   <i type="logical" name="LCHIMAG"> F  </i>
   <i type="logical" name="LGAUGE"> T  </i>
   <i type="int" name="MAGATOM">     0</i>
   <v name="MAGDIPOL">      0.00000000      0.00000000      0.00000000</v>
   <v name="AVECCONST">      0.00000000      0.00000000      0.00000000</v>
  </separator>
  <separator name="response functions" >
   <i type="logical" name="LRPA"> T  </i>
   <i type="logical" name="LTCTE"> F  </i>
   <i type="logical" name="LTETE"> F  </i>
   <i type="logical" name="L2ORDER"> F  </i>
   <i type="logical" name="LGWLF"> F  </i>
   <i name="ENCUTGW">    200.00000000</i>
   <i name="ENCUTGWSOFT">     -2.00000000</i>
   <i name="ENCUTLF">     -1.00000000</i>
   <i type="int" name="LMAXMP2">    -1</i>
   <i name="SCISSOR">      0.00000000</i>
   <i type="int" name="NOMEGA">     0</i>
   <i type="int" name="NOMEGAR">     0</i>
   <i type="int" name="NBANDSGW">    -1</i>
   <i type="int" name="NBANDSLF">    -1</i>
   <i type="int" name="NELM">     1</i>
   <i type="int" name="DIM">     3</i>
   <i type="int" name="ANTIRES">     0</i>
   <i type="logical" name="LUSEW"> F  </i>
   <i name="OMEGAMAX">    -30.00000000</i>
   <i name="OMEGATL">   -200.00000000</i>
   <i type="int" name="OMEGAGRID">     0</i>
   <i name="CSHIFT">     -0.10000000</i>
   <i type="logical" name="SELFENERGY"> F  </i>
   <i type="logical" name="LSPECTRAL"> F  </i>
   <i type="logical" name="ODDONLYGW"> F  </i>
   <i type="logical" name="EVENONLYGW"> F  </i>
   <i type="int" name="NKREDLFX">     1</i>
   <i type="int" name="NKREDLFY">     1</i>
   <i type="int" name="NKREDLFZ">     1</i>
   <i type="int" name="MAXMEM">  1024</i>
   <i type="int" name="TELESCOPE">     0</i>
  </separator>
 </parameters>
 <atominfo>
  <atoms>      33 </atoms>
  <types>       2 </types>
  <array name="atoms" >
   <dimension dim="1">ion</dimension>
   <field type="string">element</field>
   <field type="int">atomtype</field>
   <set>
    <rc><c>Al</c><c>   1</c></rc>
    <rc><c>Al</c><c>   1</c></rc>
    <rc><c>Al</c><c>   1</c></rc>
    <rc><c>Al</c><c>   1</c></rc>
    <rc><c>Al</c><c>   1</c></rc>
    <rc><c>Al</c><c>   1</c></rc>
    <rc><c>Al</c><c>   1</c></rc>
    <rc><c>Al</c><c>   1</c></rc>
    <rc><c>Al</c><c>   1</c></rc>
    <rc><c>Al</c><c>   1</c></rc>
    <rc><c>Al</c><c>   1</c></rc>
    <rc><c>Al</c><c>   1</c></rc>
    <rc><c>Al</c><c>   1</c></rc>
    <rc><c>Al</c><c>   1</c></rc>
    <rc><c>Al</c><c>   1</c></rc>
    <rc><c>Al</c><c>   1</c></rc>
    <rc><c>Al</c><c>   1</c></rc>
    <rc><c>Al</c><c>   1</c></rc>
    <rc><c>Al</c><c>   1</c></rc>
    <rc><c>Al</c><c>   1</c></rc>
    <rc><c>Al</c><c>   1</c></rc>
    <rc><c>Al</c><c>   1</c></rc>
    <rc><c>Al</c><c>   1</c></rc>
    <rc><c>Al</c><c>   1</c></rc>
    <rc><c>Al</c><c>   1</c></rc>
    <rc><c>Al</c><c>   1</c></rc>
    <rc><c>Al</c><c>   1</c></rc>
    <rc><c>Al</c><c>   1</c></rc>
    <rc><c>Al</c><c>   1</c></rc>
    <rc><c>Al</c><c>   1</c></rc>
    <rc><c>Al</c><c>   1</c></rc>
    <rc><c>Al</c><c>   1</c></rc>
    <rc><c>Mg</c><c>   2</c></rc>
   </set>
  </array>
  <array name="atomtypes" >
   <dimension dim="1">type</dimension>
   <field type="int">atomspertype</field>
   <field type="string">element</field>
   <field>mass</field>
   <field>valence</field>
   <field type="string">pseudopotential</field>
   <set>
    <rc><c>  32</c><c>Al</c><c>     26.98200000</c><c>      3.00000000</c><c> PAW_PBE Al 04Jan2001                   </c></rc>
    <rc><c>   1</c><c>Mg</c><c>     24.30500000</c><c>      2.00000000</c><c> PAW_PBE Mg 05Jan2001                   </c></rc>
   </set>
  </array>
 </atominfo>
 <structure name="initialpos" >
  <crystal>
   <varray name="basis" >
    <v>       8.08705200       0.00000000       0.00000000 </v>
    <v>       0.00000000       8.08705200       0.00000000 </v>
    <v>       0.00000000       0.00000000       8.08705200 </v>
   </varray>
   <i name="volume">    528.89651690 </i>
   <varray name="rec_basis" >
    <v>       0.12365445       0.00000000       0.00000000 </v>
    <v>       0.00000000       0.12365445       0.00000000 </v>
    <v>       0.00000000       0.00000000       0.12365445 </v>
   </varray>
  </crystal>
  <varray name="positions" >
   <v>       0.00000000       0.00000000       0.00000000 </v>
   <v>       0.25000000       0.00000000       0.25000000 </v>
   <v>       0.25000000       0.25000000       0.00000000 </v>
   <v>       0.00000000       0.25000000       0.25000000 </v>
   <v>       0.50000000       0.00000000       0.00000000 </v>
   <v>       0.75000000       0.00000000       0.25000000 </v>
   <v>       0.75000000       0.25000000       0.00000000 </v>
   <v>       0.50000000       0.25000000       0.25000000 </v>
   <v>       0.00000000       0.50000000       0.00000000 </v>
   <v>       0.25000000       0.50000000       0.25000000 </v>
   <v>       0.25000000       0.75000000       0.00000000 </v>
   <v>       0.00000000       0.75000000       0.25000000 </v>
   <v>       0.50000000       0.50000000       0.00000000 </v>
   <v>       0.75000000       0.50000000       0.25000000 </v>
   <v>       0.75000000       0.75000000       0.00000000 </v>
   <v>       0.50000000       0.75000000       0.25000000 </v>
   <v>       0.00000000       0.00000000       0.50000000 </v>
   <v>       0.25000000       0.00000000       0.75000000 </v>
   <v>       0.25000000       0.25000000       0.50000000 </v>
   <v>       0.00000000       0.25000000       0.75000000 </v>
   <v>       0.50000000       0.00000000       0.50000000 </v>
   <v>       0.75000000       0.00000000       0.75000000 </v>
   <v>       0.75000000       0.25000000       0.50000000 </v>
   <v>       0.50000000       0.25000000       0.75000000 </v>
   <v>       0.00000000       0.50000000       0.50000000 </v>
   <v>       0.25000000       0.50000000       0.75000000 </v>
   <v>       0.25000000       0.75000000       0.50000000 </v>
   <v>       0.00000000       0.75000000       0.75000000 </v>
   <v>       0.50000000       0.50000000       0.50000000 </v>
   <v>       0.75000000       0.50000000       0.75000000 </v>
   <v>       0.75000000       0.75000000       0.50000000 </v>
   <v>       0.50000000       0.75000000       0.75000000 </v>
   <v>       0.66000000       0.66000000       0.33000000 </v>
  </varray>
 </structure>
 <calculation>
  <scstep>
   <time name="diag">    0.23    0.23</time>
   <time name="diis">    0.54    0.54</time>
   <time name="orth">    0.01    0.01</time>
   <time name="total">    1.07    1.07</time>
   <energy>
    <i name="alphaZ">     -8.27954604 </i>
    <i name="ewald">  -2377.64361379 </i>
    <i name="hartreedc">     -9.50518201 </i>
    <i name="XCdc">   -846.35651104 </i>
    <i name="pawpsdc">   1149.32568210 </i>
    <i name="pawaedc">   -115.70169129 </i>
    <i name="eentropy">      0.03309109 </i>
    <i name="bandstr">    771.05724284 </i>
    <i name="atom">   1736.20668909 </i>
    <i name="e_fr_energy">    299.13616095 </i>
    <i name="e_wo_entrp">    299.10306986 </i>
    <i name="e_0_energy">    299.12513058 </i>
   </energy>
  </scstep>
  <scstep>
   <time name="diag">    0.23    0.23</time>
   <time name="diis">    0.53    0.53</time>
   <time name="orth">    0.01    0.01</time>
   <time name="total">    0.78    0.78</time>
   <energy>
    <i name="e_fr_energy">      1.26717100 </i>
    <i name="e_wo_entrp">      1.34805103 </i>
    <i name="e_0_energy">      1.29413101 </i>
   </energy>
  </scstep>
  <scstep>
   <time name="diag">    0.23    0.23</time>
   <time name="diis">    0.53    0.53</time>
   <time name="orth">    0.01    0.01</time>
   <time name="total">    0.78    0.78</time>
   <energy>
    <i name="e_fr_energy">    -54.49523091 </i>
    <i name="e_wo_entrp">    -54.45351016 </i>
    <i name="e_0_energy">    -54.48132399 </i>
   </energy>
  </scstep>
  <scstep>
   <time name="diag">    0.23    0.23</time>
   <time name="diis">    0.53    0.53</time>
   <time name="orth">    0.01    0.01</time>
   <time name="total">    0.78    0.78</time>
   <energy>
    <i name="e_fr_energy">    -73.39091169 </i>
    <i name="e_wo_entrp">    -73.45815846 </i>
    <i name="e_0_energy">    -73.41332728 </i>
   </energy>
  </scstep>
  <scstep>
   <time name="diag">    0.23    0.23</time>
   <time name="diis">    0.53    0.53</time>
   <time name="orth">    0.01    0.01</time>
   <time name="total">    0.78    0.78</time>
   <energy>
    <i name="e_fr_energy">    -80.89058952 </i>
    <i name="e_wo_entrp">    -80.89285537 </i>
    <i name="e_0_energy">    -80.89134480 </i>
   </energy>
  </scstep>
  <scstep>
   <time name="diag">    0.23    0.23</time>
   <time name="diis">    0.54    0.54</time>
   <time name="orth">    0.01    0.01</time>
   <time name="total">    0.78    0.78</time>
   <energy>
    <i name="e_fr_energy">    -84.09779972 </i>
    <i name="e_wo_entrp">    -84.04625232 </i>
    <i name="e_0_energy">    -84.08061725 </i>
   </energy>
  </scstep>
  <scstep>
   <time name="diag">    0.23    0.23</time>
   <time name="diis">    0.53    0.53</time>
   <time name="orth">    0.01    0.01</time>
   <time name="total">    0.78    0.78</time>
   <energy>
    <i name="e_fr_energy">    -85.32324700 </i>
    <i name="e_wo_entrp">    -85.25255277 </i>
    <i name="e_0_energy">    -85.29968226 </i>
   </energy>
  </scstep>
  <scstep>
   <time name="diag">    0.23    0.23</time>
   <time name="diis">    0.53    0.53</time>
   <time name="orth">    0.01    0.01</time>
   <time name="total">    0.78    0.78</time>
   <energy>
    <i name="e_fr_energy">    -85.84955456 </i>
    <i name="e_wo_entrp">    -85.76529706 </i>
    <i name="e_0_energy">    -85.82146873 </i>
   </energy>
  </scstep>
  <scstep>
   <time name="diag">    0.23    0.23</time>
   <time name="diis">    1.01    1.01</time>
   <time name="orth">    0.01    0.01</time>
   <time name="total">    1.26    1.26</time>
   <energy>
    <i name="e_fr_energy">    -86.26183310 </i>
    <i name="e_wo_entrp">    -86.16700148 </i>
    <i name="e_0_energy">    -86.23022256 </i>
   </energy>
  </scstep>
  <scstep>
   <time name="diag">    0.23    0.23</time>
   <time name="diis">    0.96    0.96</time>
   <time name="orth">    0.01    0.01</time>
   <time name="total">    1.21    1.21</time>
   <energy>
    <i name="e_fr_energy">    -86.33463057 </i>
    <i name="e_wo_entrp">    -86.24448231 </i>
    <i name="e_0_energy">    -86.30458115 </i>
   </energy>
  </scstep>
  <scstep>
   <time name="diag">    0.23    0.23</time>
   <time name="diis">    0.92    0.92</time>
   <time name="orth">    0.01    0.01</time>
   <time name="total">    1.16    1.16</time>
   <energy>
    <i name="e_fr_energy">    -86.33914489 </i>
    <i name="e_wo_entrp">    -86.25027056 </i>
    <i name="e_0_energy">    -86.30952011 </i>
   </energy>
  </scstep>
  <scstep>
   <time name="diag">    0.23    0.23</time>
   <time name="diis">    0.79    0.79</time>
   <time name="orth">    0.01    0.01</time>
   <time name="total">    1.22    1.22</time>
   <energy>
    <i name="e_fr_energy">    -86.33926488 </i>
    <i name="e_wo_entrp">    -86.25070769 </i>
    <i name="e_0_energy">    -86.30974581 </i>
   </energy>
  </scstep>
  <scstep>
   <time name="diag">    0.23    0.23</time>
   <time name="diis">    0.95    0.96</time>
   <time name="orth">    0.01    0.01</time>
   <time name="total">    1.66    1.66</time>
   <energy>
    <i name="e_fr_energy">    -83.95755667 </i>
    <i name="e_wo_entrp">    -83.82403329 </i>
    <i name="e_0_energy">    -83.91304888 </i>
   </energy>
  </scstep>
  <scstep>
   <time name="diag">    0.23    0.23</time>
   <time name="diis">    0.95    0.95</time>
   <time name="orth">    0.01    0.01</time>
   <time name="total">    1.65    1.66</time>
   <energy>
    <i name="e_fr_energy">    -83.39911854 </i>
    <i name="e_wo_entrp">    -83.27524705 </i>
    <i name="e_0_energy">    -83.35782805 </i>
   </energy>
  </scstep>
  <scstep>
   <time name="diag">    0.23    0.23</time>
   <time name="diis">    0.96    0.96</time>
   <time name="orth">    0.01    0.01</time>
   <time name="total">    1.66    1.66</time>
   <energy>
    <i name="e_fr_energy">    -83.11462360 </i>
    <i name="e_wo_entrp">    -82.96319247 </i>
    <i name="e_0_energy">    -83.06414656 </i>
   </energy>
  </scstep>
  <scstep>
   <time name="diag">    0.23    0.23</time>
   <time name="diis">    0.97    0.97</time>
   <time name="orth">    0.01    0.01</time>
   <time name="total">    1.67    1.67</time>
   <energy>
    <i name="e_fr_energy">    -83.09315346 </i>
    <i name="e_wo_entrp">    -82.95778130 </i>
    <i name="e_0_energy">    -83.04802941 </i>
   </energy>
  </scstep>
  <scstep>
   <time name="diag">    0.23    0.23</time>
   <time name="diis">    1.01    1.01</time>
   <time name="orth">    0.01    0.01</time>
   <time name="total">    1.71    1.71</time>
   <energy>
    <i name="e_fr_energy">    -83.09252206 </i>
    <i name="e_wo_entrp">    -82.95390656 </i>
    <i name="e_0_energy">    -83.04631689 </i>
   </energy>
  </scstep>
  <scstep>
   <time name="diag">    0.23    0.23</time>
   <time name="diis">    0.83    0.83</time>
   <time name="orth">    0.01    0.01</time>
   <time name="total">    1.35    1.35</time>
   <energy>
    <i name="alphaZ">     -8.27954604 </i>
    <i name="ewald">  -2377.64361379 </i>
    <i name="hartreedc">    -12.74728016 </i>
    <i name="XCdc">   -841.88715119 </i>
    <i name="pawpsdc">   1155.16153784 </i>
    <i name="pawaedc">   -122.35551137 </i>
    <i name="eentropy">     -0.13878732 </i>
    <i name="bandstr">    388.59120974 </i>
    <i name="atom">   1736.20668909 </i>
    <i name="e_fr_energy">    -83.09245320 </i>
    <i name="e_wo_entrp">    -82.95366588 </i>
    <i name="e_0_energy">    -83.04619076 </i>
   </energy>
  </scstep>
  <structure>
   <crystal>
    <varray name="basis" >
     <v>       8.08705200       0.00000000       0.00000000 </v>
     <v>       0.00000000       8.08705200       0.00000000 </v>
     <v>       0.00000000       0.00000000       8.08705200 </v>
    </varray>
    <i name="volume">    528.89651690 </i>
    <varray name="rec_basis" >
     <v>       0.12365445       0.00000000       0.00000000 </v>
     <v>       0.00000000       0.12365445       0.00000000 </v>
     <v>       0.00000000       0.00000000       0.12365445 </v>
    </varray>
   </crystal>
   <varray name="positions" >
    <v>       0.00000000       0.00000000       0.00000000 </v>
    <v>       0.25000000       0.00000000       0.25000000 </v>
    <v>       0.25000000       0.25000000       0.00000000 </v>
    <v>       0.00000000       0.25000000       0.25000000 </v>
    <v>       0.50000000       0.00000000       0.00000000 </v>
    <v>       0.75000000       0.00000000       0.25000000 </v>
    <v>       0.75000000       0.25000000       0.00000000 </v>
    <v>       0.50000000       0.25000000       0.25000000 </v>
    <v>       0.00000000       0.50000000       0.00000000 </v>
    <v>       0.25000000       0.50000000       0.25000000 </v>
    <v>       0.25000000       0.75000000       0.00000000 </v>
    <v>       0.00000000       0.75000000       0.25000000 </v>
    <v>       0.50000000       0.50000000       0.00000000 </v>
    <v>       0.75000000       0.50000000       0.25000000 </v>
    <v>       0.75000000       0.75000000       0.00000000 </v>
    <v>       0.50000000       0.75000000       0.25000000 </v>
    <v>       0.00000000       0.00000000       0.50000000 </v>
    <v>       0.25000000       0.00000000       0.75000000 </v>
    <v>       0.25000000       0.25000000       0.50000000 </v>
    <v>       0.00000000       0.25000000       0.75000000 </v>
    <v>       0.50000000       0.00000000       0.50000000 </v>
    <v>       0.75000000       0.00000000       0.75000000 </v>
    <v>       0.75000000       0.25000000       0.50000000 </v>
    <v>       0.50000000       0.25000000       0.75000000 </v>
    <v>       0.00000000       0.50000000       0.50000000 </v>
    <v>       0.25000000       0.50000000       0.75000000 </v>
    <v>       0.25000000       0.75000000       0.50000000 </v>
    <v>       0.00000000       0.75000000       0.75000000 </v>
    <v>       0.50000000       0.50000000       0.50000000 </v>
    <v>       0.75000000       0.50000000       0.75000000 </v>
    <v>       0.75000000       0.75000000       0.50000000 </v>
    <v>       0.50000000       0.75000000       0.75000000 </v>
    <v>       0.66000000       0.66000000       0.33000000 </v>
   </varray>
  </structure>
  <varray name="forces" >
   <v>       0.12527953       0.12527953      -0.12490356 </v>
   <v>       0.01200458      -0.03769454      -0.27570526 </v>
   <v>      -0.21177440      -0.21177440      -0.15552981 </v>
   <v>      -0.03769454       0.01200458      -0.27570526 </v>
   <v>      -0.16160413      -0.01971775       0.00921017 </v>
   <v>      -0.15923416      -0.33047266       0.15971975 </v>
   <v>       0.25954903       0.01071482       0.03313060 </v>
   <v>       0.16125073       0.17502011       0.17188332 </v>
   <v>      -0.01971775      -0.16160413       0.00921017 </v>
   <v>       0.17502011       0.16125073       0.17188332 </v>
   <v>       0.01071482       0.25954903       0.03313060 </v>
   <v>      -0.33047266      -0.15923416       0.15971975 </v>
   <v>       0.17121194       0.17121194       0.32724868 </v>
   <v>       8.33057047     -15.06917515      -7.34133461 </v>
   <v>      -0.15803488      -0.15803488       0.29613916 </v>
   <v>     -15.06917515       8.33057047      -7.34133461 </v>
   <v>      -0.03645243      -0.03645243       0.15302903 </v>
   <v>      -0.21378835       0.16333215       0.21733632 </v>
   <v>       0.06618650       0.06618650       0.06302412 </v>
   <v>       0.16333215      -0.21378835       0.21733632 </v>
   <v>       0.13583955      -0.26255055      -0.12750833 </v>
   <v>       0.28791010      -0.03664422      -0.01099580 </v>
   <v>      -0.15875582       0.14341920      -0.13822828 </v>
   <v>      -0.08956766       0.05149368      -0.04758344 </v>
   <v>      -0.26255055       0.13583955      -0.12750833 </v>
   <v>       0.05149368      -0.08956766      -0.04758344 </v>
   <v>       0.14341920      -0.15875582      -0.13822828 </v>
   <v>      -0.03664422       0.28791010      -0.01099580 </v>
   <v>      -0.98129709      -0.98129709       1.05944767 </v>
   <v>      -0.16184237       0.14730510      -0.13134684 </v>
   <v>       6.22370941       6.22370941      12.11111847 </v>
   <v>       0.14730510      -0.16184237      -0.13134684 </v>
   <v>       1.62380922       1.62380922       1.23327105 </v>
  </varray>
  <varray name="stress" >
   <v>      62.13997208     -53.76409578      38.29736654 </v>
   <v>     -53.76409578      62.13997208      38.29736654 </v>
   <v>      38.29735271      38.29735271      46.36630622 </v>
  </varray>
  <energy>
   <i name="e_fr_energy">    -83.09245320 </i>
   <i name="e_wo_entrp">    -83.04619076 </i>
   <i name="e_0_energy">     -0.13878732 </i>
  </energy>
  <time name="totalsc">   23.35   23.38</time>
 </calculation>
 <calculation>
  <scstep>
   <time name="diag">    0.23    0.23</time>
   <time name="diis">    0.95    0.95</time>
   <time name="orth">    0.01    0.01</time>
   <time name="total">    1.65    1.65</time>
   <energy>
    <i name="alphaZ">     -8.27954604 </i>
    <i name="ewald">  -2381.18498311 </i>
    <i name="hartreedc">    -11.09341155 </i>
    <i name="XCdc">   -841.55587599 </i>
    <i name="pawpsdc">   1155.25324998 </i>
    <i name="pawaedc">   -122.45537206 </i>
    <i name="eentropy">     -0.08575327 </i>
    <i name="bandstr">    373.14161029 </i>
    <i name="atom">   1736.20668909 </i>
    <i name="e_fr_energy">   -100.05339265 </i>
    <i name="e_wo_entrp">    -99.96763938 </i>
    <i name="e_0_energy">   -100.02480823 </i>
   </energy>
  </scstep>
  <scstep>
   <time name="diag">    0.23    0.23</time>
   <time name="diis">    0.95    0.95</time>
   <time name="orth">    0.01    0.01</time>
   <time name="total">    1.66    1.66</time>
   <energy>
    <i name="e_fr_energy">    -97.52725830 </i>
    <i name="e_wo_entrp">    -97.44361364 </i>
    <i name="e_0_energy">    -97.49937675 </i>
   </energy>
  </scstep>
  <scstep>
   <time name="diag">    0.23    0.23</time>
   <time name="diis">    0.98    0.98</time>
   <time name="orth">    0.01    0.01</time>
   <time name="total">    1.68    1.68</time>
   <energy>
    <i name="e_fr_energy">    -96.26048025 </i>
    <i name="e_wo_entrp">    -96.17303538 </i>
    <i name="e_0_energy">    -96.23133196 </i>
   </energy>
  </scstep>
  <scstep>
   <time name="diag">    0.23    0.23</time>
   <time name="diis">    0.97    0.97</time>
   <time name="orth">    0.01    0.01</time>
   <time name="total">    1.67    1.68</time>
   <energy>
    <i name="e_fr_energy">    -96.03584572 </i>
    <i name="e_wo_entrp">    -95.94649667 </i>
    <i name="e_0_energy">    -96.00606270 </i>
   </energy>
  </scstep>
  <scstep>
   <time name="diag">    0.23    0.23</time>
   <time name="diis">    1.06    1.06</time>
   <time name="orth">    0.01    0.01</time>
   <time name="total">    1.76    1.76</time>
   <energy>
    <i name="e_fr_energy">    -96.02024420 </i>
    <i name="e_wo_entrp">    -95.93702636 </i>
    <i name="e_0_energy">    -95.99250492 </i>
   </energy>
  </scstep>
  <scstep>
   <time name="diag">    0.23    0.23</time>
   <time name="diis">    1.01    1.01</time>
   <time name="orth">    0.01    0.01</time>
   <time name="total">    1.71    1.71</time>
   <energy>
    <i name="e_fr_energy">    -96.01764876 </i>
    <i name="e_wo_entrp">    -95.93527305 </i>
    <i name="e_0_energy">    -95.99019019 </i>
   </energy>
  </scstep>
  <scstep>
   <time name="diag">    0.23    0.23</time>
   <time name="diis">    0.99    0.99</time>
   <time name="orth">    0.01    0.01</time>
   <time name="total">    1.70    1.70</time>
   <energy>
    <i name="e_fr_energy">    -96.01586168 </i>
    <i name="e_wo_entrp">    -95.93387622 </i>
    <i name="e_0_energy">    -95.98853319 </i>
   </energy>
  </scstep>
  <scstep>
   <time name="diag">    0.23    0.23</time>
   <time name="diis">    0.93    0.93</time>
   <time name="orth">    0.01    0.01</time>
   <time name="total">    1.63    1.63</time>
   <energy>
    <i name="e_fr_energy">    -96.01580792 </i>
    <i name="e_wo_entrp">    -95.93366334 </i>
    <i name="e_0_energy">    -95.98842639 </i>
   </energy>
  </scstep>
  <scstep>
   <time name="diag">    0.23    0.23</time>
   <time name="diis">    0.73    0.73</time>
   <time name="orth">    0.01    0.01</time>
   <time name="total">    1.25    1.25</time>
   <energy>
    <i name="alphaZ">     -8.27954604 </i>
    <i name="ewald">  -2381.18498311 </i>
    <i name="hartreedc">    -18.59855613 </i>
    <i name="XCdc">   -841.04164435 </i>
    <i name="pawpsdc">   1158.14654359 </i>
    <i name="pawaedc">   -125.32312572 </i>
    <i name="eentropy">     -0.08216555 </i>
    <i name="bandstr">    384.14105748 </i>
    <i name="atom">   1736.20668909 </i>
    <i name="e_fr_energy">    -96.01573075 </i>
    <i name="e_wo_entrp">    -95.93356520 </i>
    <i name="e_0_energy">    -95.98834223 </i>
   </energy>
  </scstep>
  <structure>
   <crystal>
    <varray name="basis" >
     <v>       8.08705200       0.00000000       0.00000000 </v>
     <v>       0.00000000       8.08705200       0.00000000 </v>
     <v>       0.00000000       0.00000000       8.08705200 </v>
    </varray>
    <i name="volume">    528.89651690 </i>
    <varray name="rec_basis" >
     <v>       0.12365445       0.00000000       0.00000000 </v>
     <v>       0.00000000       0.12365445       0.00000000 </v>
     <v>       0.00000000       0.00000000       0.12365445 </v>
    </varray>
   </crystal>
   <varray name="positions" >
    <v>       0.00074734       0.00074734      -0.00074510 </v>
    <v>       0.25007161      -0.00022486       0.24835530 </v>
    <v>       0.24873668       0.24873668      -0.00092780 </v>
    <v>      -0.00022486       0.25007161       0.24835530 </v>
    <v>       0.49903596      -0.00011762       0.00005494 </v>
    <v>       0.74905010      -0.00197141       0.25095280 </v>
    <v>       0.75154832       0.25006392       0.00019764 </v>
    <v>       0.50096193       0.25104407       0.25102536 </v>
    <v>      -0.00011762       0.49903596       0.00005494 </v>
    <v>       0.25104407       0.50096193       0.25102536 </v>
    <v>       0.25006392       0.75154832       0.00019764 </v>
    <v>      -0.00197141       0.74905010       0.25095280 </v>
    <v>       0.50102135       0.50102135       0.00195218 </v>
    <v>       0.79969534       0.41010606       0.20620586 </v>
    <v>       0.74905726       0.74905726       0.00176659 </v>
    <v>       0.41010606       0.79969534       0.20620586 </v>
    <v>      -0.00021745      -0.00021745       0.50091288 </v>
    <v>       0.24872466       0.00097434       0.75129650 </v>
    <v>       0.25039483       0.25039483       0.50037597 </v>
    <v>       0.00097434       0.24872466       0.75129650 </v>
    <v>       0.50081034      -0.00156622       0.49923936 </v>
    <v>       0.75171750      -0.00021860       0.74993441 </v>
    <v>       0.74905295       0.25085556       0.49917541 </v>
    <v>       0.49946569       0.25030718       0.74971614 </v>
    <v>      -0.00156622       0.50081034       0.49923936 </v>
    <v>       0.25030718       0.49946569       0.74971614 </v>
    <v>       0.25085556       0.74905295       0.49917541 </v>
    <v>      -0.00021860       0.75171750       0.74993441 </v>
    <v>       0.49414615       0.49414615       0.50632005 </v>
    <v>       0.74903454       0.50087874       0.74921646 </v>
    <v>       0.78712703       0.78712703       0.57224790 </v>
    <v>       0.50087874       0.74903454       0.74921646 </v>
    <v>       0.66968670       0.66968670       0.33735698 </v>
   </varray>
  </structure>
  <varray name="forces" >
   <v>       0.07937839       0.07937839      -0.11674447 </v>
   <v>      -3.08142449       3.85767938       1.20040278 </v>
   <v>      -0.04213945      -0.04213945      -0.28553639 </v>
   <v>       3.85767938      -3.08142449       1.20040278 </v>
   <v>       0.39921601       0.79611215      -0.81579898 </v>
   <v>       0.06737802       0.06959681      -0.09692531 </v>
   <v>      -1.08052876      -2.57908403      -3.25949204 </v>
   <v>       0.02996631      -0.26147716      -0.13795955 </v>
   <v>       0.79611215       0.39921601      -0.81579898 </v>
   <v>      -0.26147716       0.02996631      -0.13795955 </v>
   <v>      -2.57908403      -1.08052876      -3.25949204 </v>
   <v>       0.06959681       0.06737802      -0.09692531 </v>
   <v>      -0.06509417      -0.06509417      -0.11308282 </v>
   <v>      -3.38391827       4.99010215       2.64004409 </v>
   <v>       0.11344028       0.11344028      -0.00360704 </v>
   <v>       4.99010215      -3.38391827       2.64004409 </v>
   <v>       0.65615190       0.65615190      -0.26562683 </v>
   <v>      -0.02098303       0.30761573       0.01970702 </v>
   <v>      -0.22280331      -0.22280331      -0.06477557 </v>
   <v>       0.30761573      -0.02098303       0.01970702 </v>
   <v>      -0.06634072       0.11542828       0.03893910 </v>
   <v>      -0.74501038       2.01875658       1.69207866 </v>
   <v>       0.13734015      -0.28926497       0.01714374 </v>
   <v>       0.10730466      -0.23781714       0.17147707 </v>
   <v>       0.11542828      -0.06634072       0.03893910 </v>
   <v>      -0.23781714       0.10730466       0.17147707 </v>
   <v>      -0.28926497       0.13734015       0.01714374 </v>
   <v>       2.01875658      -0.74501038       1.69207866 </v>
   <v>      -1.15328843      -1.15328843       1.16598567 </v>
   <v>       0.16106347       0.00156493       0.26649385 </v>
   <v>      -0.94989132      -0.94989132      -1.47791227 </v>
   <v>       0.00156493       0.16106347       0.26649385 </v>
   <v>       0.27097044       0.27097044      -2.31092114 </v>
  </varray>
  <varray name="stress" >
   <v>      53.37840395     -20.16039188      22.41377020 </v>
   <v>     -20.16039188      53.37840395      22.41377020 </v>
   <v>      22.41377041      22.41377041      56.32370202 </v>
  </varray>
  <energy>
   <i name="e_fr_energy">    -96.01573075 </i>
   <i name="e_wo_entrp">    -95.98834223 </i>
   <i name="e_0_energy">     -0.08216555 </i>
  </energy>
  <time name="totalsc">   16.97   16.99</time>
 </calculation>
 <calculation>
  <scstep>
   <time name="diag">    0.23    0.23</time>
   <time name="diis">    0.95    0.95</time>
   <time name="orth">    0.01    0.01</time>
   <time name="total">    1.65    1.65</time>
   <energy>
    <i name="alphaZ">     -8.27954604 </i>
    <i name="ewald">  -2393.06277825 </i>
    <i name="hartreedc">    -11.86257617 </i>
    <i name="XCdc">   -841.21279635 </i>
    <i name="pawpsdc">   1158.14386744 </i>
    <i name="pawaedc">   -125.32037621 </i>
    <i name="eentropy">     -0.13062470 </i>
    <i name="bandstr">    387.31806400 </i>
    <i name="atom">   1736.20668909 </i>
    <i name="e_fr_energy">    -98.20007719 </i>
    <i name="e_wo_entrp">    -98.06945249 </i>
    <i name="e_0_energy">    -98.15653562 </i>
   </energy>
  </scstep>
  <scstep>
   <time name="diag">    0.23    0.23</time>
   <time name="diis">    0.96    0.96</time>
   <time name="orth">    0.01    0.01</time>
   <time name="total">    1.66    1.66</time>
   <energy>
    <i name="e_fr_energy">    -97.82318719 </i>
    <i name="e_wo_entrp">    -97.72812721 </i>
    <i name="e_0_energy">    -97.79150053 </i>
   </energy>
  </scstep>
  <scstep>
   <time name="diag">    0.23    0.23</time>
   <time name="diis">    1.00    1.00</time>
   <time name="orth">    0.01    0.01</time>
   <time name="total">    1.70    1.70</time>
   <energy>
    <i name="e_fr_energy">    -97.78357858 </i>
    <i name="e_wo_entrp">    -97.68181061 </i>
    <i name="e_0_energy">    -97.74965593 </i>
   </energy>
  </scstep>
  <scstep>
   <time name="diag">    0.23    0.23</time>
   <time name="diis">    0.95    0.95</time>
   <time name="orth">    0.01    0.01</time>
   <time name="total">    1.66    1.66</time>
   <energy>
    <i name="e_fr_energy">    -97.77693517 </i>
    <i name="e_wo_entrp">    -97.67005564 </i>
    <i name="e_0_energy">    -97.74130866 </i>
   </energy>
  </scstep>
  <scstep>
   <time name="diag">    0.23    0.23</time>
   <time name="diis">    1.01    1.01</time>
   <time name="orth">    0.01    0.01</time>
   <time name="total">    1.71    1.71</time>
   <energy>
    <i name="e_fr_energy">    -97.77608070 </i>
    <i name="e_wo_entrp">    -97.66982014 </i>
    <i name="e_0_energy">    -97.74066051 </i>
   </energy>
  </scstep>
  <scstep>
   <time name="diag">    0.23    0.23</time>
   <time name="diis">    0.76    0.76</time>
   <time name="orth">    0.01    0.01</time>
   <time name="total">    1.46    1.46</time>
   <energy>
    <i name="e_fr_energy">    -97.77587443 </i>
    <i name="e_wo_entrp">    -97.66935523 </i>
    <i name="e_0_energy">    -97.74036803 </i>
   </energy>
  </scstep>
  <scstep>
   <time name="diag">    0.23    0.23</time>
   <time name="diis">    0.62    0.64</time>
   <time name="orth">    0.01    0.01</time>
   <time name="total">    1.14    1.16</time>
   <energy>
    <i name="alphaZ">     -8.27954604 </i>
    <i name="ewald">  -2393.06277825 </i>
    <i name="hartreedc">    -10.25714292 </i>
    <i name="XCdc">   -841.41724027 </i>
    <i name="pawpsdc">   1153.09510666 </i>
    <i name="pawaedc">   -120.06232838 </i>
    <i name="eentropy">     -0.10655073 </i>
    <i name="bandstr">    386.10794196 </i>
    <i name="atom">   1736.20668909 </i>
    <i name="e_fr_energy">    -97.77584888 </i>
    <i name="e_wo_entrp">    -97.66929815 </i>
    <i name="e_0_energy">    -97.74033197 </i>
   </energy>
  </scstep>
  <structure>
   <crystal>
    <varray name="basis" >
     <v>       8.08705200       0.00000000       0.00000000 </v>
     <v>       0.00000000       8.08705200       0.00000000 </v>
     <v>       0.00000000       0.00000000       8.08705200 </v>
    </varray>
    <i name="volume">    528.89651690 </i>
    <varray name="rec_basis" >
     <v>       0.12365445       0.00000000       0.00000000 </v>
     <v>       0.00000000       0.12365445       0.00000000 </v>
     <v>       0.00000000       0.00000000       0.12365445 </v>
    </varray>
   </crystal>
   <varray name="positions" >
    <v>       0.00052943       0.00052943      -0.00052784 </v>
    <v>       0.25005073      -0.00015930       0.24883487 </v>
    <v>       0.24910504       0.24910504      -0.00065727 </v>
    <v>      -0.00015930       0.25005073       0.24883487 </v>
    <v>       0.49931706      -0.00008333       0.00003892 </v>
    <v>       0.74932708      -0.00139658       0.25067497 </v>
    <v>       0.75109685       0.25004528       0.00014001 </v>
    <v>       0.50068144       0.25073963       0.25072638 </v>
    <v>      -0.00008333       0.49931706       0.00003892 </v>
    <v>       0.25073963       0.50068144       0.25072638 </v>
    <v>       0.25004528       0.75109685       0.00014001 </v>
    <v>      -0.00139658       0.74932708       0.25067497 </v>
    <v>       0.50072354       0.50072354       0.00138295 </v>
    <v>       0.78520494       0.43631776       0.21897557 </v>
    <v>       0.74933215       0.74933215       0.00125148 </v>
    <v>       0.43631776       0.78520494       0.21897557 </v>
    <v>      -0.00015405      -0.00015405       0.50064670 </v>
    <v>       0.24909653       0.00069024       0.75091846 </v>
    <v>       0.25027970       0.25027970       0.50026634 </v>
    <v>       0.00069024       0.24909653       0.75091846 </v>
    <v>       0.50057406      -0.00110954       0.49946115 </v>
    <v>       0.75121671      -0.00015486       0.74995353 </v>
    <v>       0.74932910       0.25060609       0.49941585 </v>
    <v>       0.49962149       0.25021761       0.74979891 </v>
    <v>      -0.00110954       0.50057406       0.49946115 </v>
    <v>       0.25021761       0.49962149       0.74979891 </v>
    <v>       0.25060609       0.74932910       0.49941585 </v>
    <v>      -0.00015486       0.75121671       0.74995353 </v>
    <v>       0.49585304       0.49585304       0.50447722 </v>
    <v>       0.74931606       0.50062251       0.74944493 </v>
    <v>       0.77630136       0.77630136       0.55118151 </v>
    <v>       0.50062251       0.74931606       0.74944493 </v>
    <v>       0.66686221       0.66686221       0.33521180 </v>
   </varray>
  </structure>
  <varray name="forces" >
   <v>       0.07819241       0.07819241      -0.09801901 </v>
   <v>      -1.28822192       1.46637997       0.56688921 </v>
   <v>      -0.07177706      -0.07177706      -0.10482863 </v>
   <v>       1.46637997      -1.28822192       0.56688921 </v>
   <v>       0.24880961       0.52743347      -0.53816400 </v>
   <v>      -0.06043725       0.18972977       0.02758618 </v>
   <v>      -0.53114535      -1.15258868      -1.31570521 </v>
   <v>       0.11900521      -0.29755567      -0.05410483 </v>
   <v>       0.52743347       0.24880961      -0.53816400 </v>
   <v>      -0.29755567       0.11900521      -0.05410483 </v>
   <v>      -1.15258868      -0.53114535      -1.31570521 </v>
   <v>       0.18972977      -0.06043725       0.02758618 </v>
   <v>       0.01771509       0.01771509      -0.06127604 </v>
   <v>      -0.45294703       0.17851942       0.23318928 </v>
   <v>      -0.01660940      -0.01660940      -0.16190851 </v>
   <v>       0.17851942      -0.45294703       0.23318928 </v>
   <v>       0.44116867       0.44116867      -0.18475479 </v>
   <v>      -0.06686769       0.13765939       0.05911021 </v>
   <v>      -0.15616556      -0.15616556      -0.27608675 </v>
   <v>       0.13765939      -0.06686769       0.05911021 </v>
   <v>       0.01705270       0.07600504      -0.03718882 </v>
   <v>      -0.48838831       0.84929556       0.75507589 </v>
   <v>       0.03856409      -0.30443139      -0.08323306 </v>
   <v>       0.34991974      -0.17566245       0.11411277 </v>
   <v>       0.07600504       0.01705270      -0.03718882 </v>
   <v>      -0.17566245       0.34991974       0.11411277 </v>
   <v>      -0.30443139       0.03856409      -0.08323306 </v>
   <v>       0.84929556      -0.48838831       0.75507589 </v>
   <v>      -1.23764066      -1.23764066       1.26701684 </v>
   <v>       0.07362682       0.07937716       0.28723160 </v>
   <v>       1.03788096       1.03788096       2.25573191 </v>
   <v>       0.07937716       0.07362682       0.28723160 </v>
   <v>       0.37410334       0.37410334      -2.66547348 </v>
  </varray>
  <varray name="stress" >
   <v>      29.22194309     -15.42762250      17.67795601 </v>
   <v>     -15.42762250      29.22194309      17.67795601 </v>
   <v>      17.67796031      17.67796031      31.68491423 </v>
  </varray>
  <energy>
   <i name="e_fr_energy">    -97.77584888 </i>
   <i name="e_wo_entrp">    -97.74033197 </i>
   <i name="e_0_energy">     -0.10655073 </i>
  </energy>
  <time name="totalsc">   13.25   13.28</time>
 </calculation>
 <calculation>
  <scstep>
   <time name="diag">    0.23    0.23</time>
   <time name="diis">    0.95    0.96</time>
   <time name="orth">    0.01    0.01</time>
   <time name="total">    1.66    1.66</time>
   <energy>
    <i name="alphaZ">     -8.27954604 </i>
    <i name="ewald">  -2394.75450952 </i>
    <i name="hartreedc">     -9.79343621 </i>
    <i name="XCdc">   -841.38723530 </i>
    <i name="pawpsdc">   1153.08754464 </i>
    <i name="pawaedc">   -120.05425664 </i>
    <i name="eentropy">     -0.10926065 </i>
    <i name="bandstr">    385.91316266 </i>
    <i name="atom">   1736.20668909 </i>
    <i name="e_fr_energy">    -99.17084799 </i>
    <i name="e_wo_entrp">    -99.06158733 </i>
    <i name="e_0_energy">    -99.13442777 </i>
   </energy>
  </scstep>
  <scstep>
   <time name="diag">    0.23    0.23</time>
   <time name="diis">    0.95    0.95</time>
   <time name="orth">    0.01    0.01</time>
   <time name="total">    1.66    1.66</time>
   <energy>
    <i name="e_fr_energy">    -99.00595305 </i>
    <i name="e_wo_entrp">    -98.90940131 </i>
    <i name="e_0_energy">    -98.97376914 </i>
   </energy>
  </scstep>
  <scstep>
   <time name="diag">    0.23    0.23</time>
   <time name="diis">    0.98    0.98</time>
   <time name="orth">    0.01    0.01</time>
   <time name="total">    1.68    1.69</time>
   <energy>
    <i name="e_fr_energy">    -98.98539863 </i>
    <i name="e_wo_entrp">    -98.88362109 </i>
    <i name="e_0_energy">    -98.95147278 </i>
   </energy>
  </scstep>
  <scstep>
   <time name="diag">    0.23    0.23</time>
   <time name="diis">    0.99    0.99</time>
   <time name="orth">    0.01    0.01</time>
   <time name="total">    1.69    1.69</time>
   <energy>
    <i name="e_fr_energy">    -98.98265912 </i>
    <i name="e_wo_entrp">    -98.88176434 </i>
    <i name="e_0_energy">    -98.94902752 </i>
   </energy>
  </scstep>
  <scstep>
   <time name="diag">    0.23    0.23</time>
   <time name="diis">    0.90    0.90</time>
   <time name="orth">    0.01    0.01</time>
   <time name="total">    1.42    1.42</time>
   <energy>
    <i name="alphaZ">     -8.27954604 </i>
    <i name="ewald">  -2394.75450952 </i>
    <i name="hartreedc">     -9.73105382 </i>
    <i name="XCdc">   -841.41457473 </i>
    <i name="pawpsdc">   1152.39298637 </i>
    <i name="pawaedc">   -119.31594729 </i>
    <i name="eentropy">     -0.10118716 </i>
    <i name="bandstr">    386.01454320 </i>
    <i name="atom">   1736.20668909 </i>
    <i name="e_fr_energy">    -98.98259990 </i>
    <i name="e_wo_entrp">    -98.88141275 </i>
    <i name="e_0_energy">    -98.94887085 </i>
   </energy>
  </scstep>
  <structure>
   <crystal>
    <varray name="basis" >
     <v>       8.08705200       0.00000000       0.00000000 </v>
     <v>       0.00000000       8.08705200       0.00000000 </v>
     <v>       0.00000000       0.00000000       8.08705200 </v>
    </varray>
    <i name="volume">    528.89651690 </i>
    <varray name="rec_basis" >
     <v>       0.12365445       0.00000000       0.00000000 </v>
     <v>       0.00000000       0.12365445       0.00000000 </v>
     <v>       0.00000000       0.00000000       0.12365445 </v>
    </varray>
   </crystal>
   <varray name="positions" >
    <v>       0.00098145       0.00098145      -0.00109120 </v>
    <v>       0.24281532       0.00807430       0.25199128 </v>
    <v>       0.24868024       0.24868024      -0.00126200 </v>
    <v>       0.00807430       0.24281532       0.25199128 </v>
    <v>       0.50069828       0.00287754      -0.00298329 </v>
    <v>       0.74897133      -0.00036446       0.25084623 </v>
    <v>       0.74813959       0.24357167      -0.00724763 </v>
    <v>       0.50136640       0.24908595       0.25043997 </v>
    <v>       0.00287754       0.50069828      -0.00298329 </v>
    <v>       0.24908595       0.50136640       0.25043997 </v>
    <v>       0.24357167       0.74813959      -0.00724763 </v>
    <v>      -0.00036446       0.74897133       0.25084623 </v>
    <v>       0.50084051       0.50084051       0.00107210 </v>
    <v>       0.78350985       0.43578420       0.21953702 </v>
    <v>       0.74922273       0.74922273       0.00037215 </v>
    <v>       0.43578420       0.78350985       0.21953702 </v>
    <v>       0.00232052       0.00232052       0.49962444 </v>
    <v>       0.24869910       0.00148020       0.75127267 </v>
    <v>       0.24940919       0.24940919       0.49872184 </v>
    <v>       0.00148020       0.24869910       0.75127267 </v>
    <v>       0.50068370      -0.00070934       0.49923924 </v>
    <v>       0.74850252       0.00461235       0.75419408 </v>
    <v>       0.74952955       0.24891056       0.49893419 </v>
    <v>       0.50157804       0.24923607       0.75043509 </v>
    <v>      -0.00070934       0.50068370       0.49923924 </v>
    <v>       0.24923607       0.50157804       0.75043509 </v>
    <v>       0.24891056       0.74952955       0.49893419 </v>
    <v>       0.00461235       0.74850252       0.75419408 </v>
    <v>       0.48880051       0.48880051       0.51170275 </v>
    <v>       0.74971316       0.50108343       0.75104507 </v>
    <v>       0.78276624       0.78276624       0.56508797 </v>
    <v>       0.50108343       0.74971316       0.75104507 </v>
    <v>       0.66912930       0.66912930       0.32036415 </v>
   </varray>
  </structure>
  <varray name="forces" >
   <v>       0.03811781       0.03811781      -0.09879574 </v>
   <v>      -0.53463486       0.60837249       0.37328384 </v>
   <v>       0.01514061       0.01514061      -0.25208627 </v>
   <v>       0.60837249      -0.53463486       0.37328384 </v>
   <v>       0.10012222       0.31890971      -0.31082722 </v>
   <v>       0.06917451       0.16858713      -0.07514436 </v>
   <v>      -0.38391959      -0.56966556      -0.63347125 </v>
   <v>       0.00944342      -0.21820446      -0.07422414 </v>
   <v>       0.31890971       0.10012222      -0.31082722 </v>
   <v>      -0.21820446       0.00944342      -0.07422414 </v>
   <v>      -0.56966556      -0.38391959      -0.63347125 </v>
   <v>       0.16858713       0.06917451      -0.07514436 </v>
   <v>      -0.05077214      -0.05077214      -0.02784909 </v>
   <v>       0.40904468      -1.09406483      -0.35694441 </v>
   <v>       0.12578528       0.12578528      -0.25888239 </v>
   <v>      -1.09406483       0.40904468      -0.35694441 </v>
   <v>       0.32542827       0.32542827      -0.05729420 </v>
   <v>      -0.03964129       0.18608213      -0.01551290 </v>
   <v>      -0.05318022      -0.05318022      -0.08440075 </v>
   <v>       0.18608213      -0.03964129      -0.01551290 </v>
   <v>      -0.05100580       0.07843916       0.05635885 </v>
   <v>      -0.40377299       0.94333133       0.79113302 </v>
   <v>       0.09272939      -0.26211130       0.05819441 </v>
   <v>       0.11149557      -0.07657088       0.08668312 </v>
   <v>       0.07843916      -0.05100580       0.05635885 </v>
   <v>      -0.07657088       0.11149557       0.08668312 </v>
   <v>      -0.26211130       0.09272939       0.05819441 </v>
   <v>       0.94333133      -0.40377299       0.79113302 </v>
   <v>      -0.58353569      -0.58353569       0.57147046 </v>
   <v>       0.09578638      -0.06302797       0.22761944 </v>
   <v>      -0.23847197      -0.23847197      -0.23355576 </v>
   <v>      -0.06302797       0.09578638       0.22761944 </v>
   <v>       0.92658945       0.92658945       0.18709694 </v>
  </varray>
  <varray name="stress" >
   <v>      26.79012306     -20.30443708      14.08097408 </v>
   <v>     -20.30443708      26.79012306      14.08097408 </v>
   <v>      14.08097571      14.08097571      19.04842090 </v>
  </varray>
  <energy>
   <i name="e_fr_energy">    -98.98259990 </i>
   <i name="e_wo_entrp">    -98.94887085 </i>
   <i name="e_0_energy">     -0.10118716 </i>
  </energy>
  <time name="totalsc">   10.37   10.38</time>
 </calculation>
 <calculation>
  <scstep>
   <time name="diag">    0.23    0.23</time>
   <time name="diis">    0.95    0.95</time>
   <time name="orth">    0.01    0.01</time>
   <time name="total">    1.66    1.66</time>
   <energy>
    <i name="alphaZ">     -8.27954604 </i>
    <i name="ewald">  -2393.40928426 </i>
    <i name="hartreedc">    -10.71868897 </i>
    <i name="XCdc">   -841.38602001 </i>
    <i name="pawpsdc">   1152.37472204 </i>
    <i name="pawaedc">   -119.29557301 </i>
    <i name="eentropy">     -0.11488289 </i>
    <i name="bandstr">    385.40840760 </i>
    <i name="atom">   1736.20668909 </i>
    <i name="e_fr_energy">    -99.21417646 </i>
    <i name="e_wo_entrp">    -99.09929357 </i>
    <i name="e_0_energy">    -99.17588216 </i>
   </energy>
  </scstep>
  <scstep>
   <time name="diag">    0.23    0.23</time>
   <time name="diis">    0.95    0.95</time>
   <time name="orth">    0.01    0.01</time>
   <time name="total">    1.65    1.66</time>
   <energy>
    <i name="e_fr_energy">    -99.15817911 </i>
    <i name="e_wo_entrp">    -99.04897159 </i>
    <i name="e_0_energy">    -99.12177660 </i>
   </energy>
  </scstep>
  <scstep>
   <time name="diag">    0.23    0.23</time>
   <time name="diis">    0.97    0.97</time>
   <time name="orth">    0.01    0.01</time>
   <time name="total">    1.67    1.67</time>
   <energy>
    <i name="e_fr_energy">    -99.15068234 </i>
    <i name="e_wo_entrp">    -99.03944676 </i>
    <i name="e_0_energy">    -99.11360382 </i>
   </energy>
  </scstep>
  <scstep>
   <time name="diag">    0.23    0.23</time>
   <time name="diis">    0.99    0.99</time>
   <time name="orth">    0.01    0.01</time>
   <time name="total">    1.69    1.69</time>
   <energy>
    <i name="e_fr_energy">    -99.14975572 </i>
    <i name="e_wo_entrp">    -99.03923954 </i>
    <i name="e_0_energy">    -99.11291700 </i>
   </energy>
  </scstep>
  <scstep>
   <time name="diag">    0.23    0.23</time>
   <time name="diis">    0.77    0.77</time>
   <time name="orth">    0.01    0.01</time>
   <time name="total">    1.29    1.29</time>
   <energy>
    <i name="alphaZ">     -8.27954604 </i>
    <i name="ewald">  -2393.40928426 </i>
    <i name="hartreedc">    -10.91563104 </i>
    <i name="XCdc">   -841.36950893 </i>
    <i name="pawpsdc">   1152.54705575 </i>
    <i name="pawaedc">   -119.47359323 </i>
    <i name="eentropy">     -0.11079202 </i>
    <i name="bandstr">    385.65485293 </i>
    <i name="atom">   1736.20668909 </i>
    <i name="e_fr_energy">    -99.14975776 </i>
    <i name="e_wo_entrp">    -99.03896573 </i>
    <i name="e_0_energy">    -99.11282708 </i>
   </energy>
  </scstep>
  <structure>
   <crystal>
    <varray name="basis" >
     <v>       8.08705200       0.00000000       0.00000000 </v>
     <v>       0.00000000       8.08705200       0.00000000 </v>
     <v>       0.00000000       0.00000000       8.08705200 </v>
    </varray>
    <i name="volume">    528.89651690 </i>
    <varray name="rec_basis" >
     <v>       0.12365445       0.00000000       0.00000000 </v>
     <v>       0.00000000       0.12365445       0.00000000 </v>
     <v>       0.00000000       0.00000000       0.12365445 </v>
    </varray>
   </crystal>
   <varray name="positions" >
    <v>       0.00125422       0.00125422      -0.00143116 </v>
    <v>       0.23844914       0.01304284       0.25389601 </v>
    <v>       0.24842390       0.24842390      -0.00162693 </v>
    <v>       0.01304284       0.23844914       0.25389601 </v>
    <v>       0.50153178       0.00466427      -0.00480704 </v>
    <v>       0.74875666       0.00025837       0.25094957 </v>
    <v>       0.74635503       0.23966518      -0.01170569 </v>
    <v>       0.50177974       0.24808804       0.25026713 </v>
    <v>       0.00466427       0.50153178      -0.00480704 </v>
    <v>       0.24808804       0.50177974       0.25026713 </v>
    <v>       0.23966518       0.74635503      -0.01170569 </v>
    <v>       0.00025837       0.74875666       0.25094957 </v>
    <v>       0.50091110       0.50091110       0.00088451 </v>
    <v>       0.78248695       0.43546222       0.21987582 </v>
    <v>       0.74915670       0.74915670      -0.00015848 </v>
    <v>       0.43546222       0.78248695       0.21987582 </v>
    <v>       0.00381379       0.00381379       0.49900755 </v>
    <v>       0.24845928       0.00195690       0.75148642 </v>
    <v>       0.24888388       0.24888388       0.49778981 </v>
    <v>       0.00195690       0.24845928       0.75148642 </v>
    <v>       0.50074987      -0.00046785       0.49910533 </v>
    <v>       0.74686466       0.00748911       0.75675302 </v>
    <v>       0.74965051       0.24788739       0.49864354 </v>
    <v>       0.50275872       0.24864376       0.75081900 </v>
    <v>      -0.00046785       0.50074987       0.49910533 </v>
    <v>       0.24864376       0.50275872       0.75081900 </v>
    <v>       0.24788739       0.74965051       0.49864354 </v>
    <v>       0.00748911       0.74686466       0.75675302 </v>
    <v>       0.48454467       0.48454467       0.51606297 </v>
    <v>       0.74995278       0.50136158       0.75201067 </v>
    <v>       0.78666745       0.78666745       0.57347979 </v>
    <v>       0.50136158       0.74995278       0.75201067 </v>
    <v>       0.67049738       0.67049738       0.31140437 </v>
   </varray>
  </structure>
  <varray name="forces" >
   <v>       0.04533352       0.04533352      -0.13693546 </v>
   <v>      -0.03465337       0.06498012       0.23537290 </v>
   <v>       0.04697566       0.04697566      -0.36666644 </v>
   <v>       0.06498012      -0.03465337       0.23537290 </v>
   <v>      -0.02476805       0.19040157      -0.17481303 </v>
   <v>       0.11425751       0.15028281      -0.12629808 </v>
   <v>      -0.26321908      -0.21504903      -0.22873440 </v>
   <v>      -0.04021289      -0.17912726      -0.10078292 </v>
   <v>       0.19040157      -0.02476805      -0.17481303 </v>
   <v>      -0.17912726      -0.04021289      -0.10078292 </v>
   <v>      -0.21504903      -0.26321908      -0.22873440 </v>
   <v>       0.15028281       0.11425751      -0.12629808 </v>
   <v>      -0.08541676      -0.08541676       0.01600445 </v>
   <v>       0.83447168      -1.71484926      -0.62630944 </v>
   <v>       0.20753092       0.20753092      -0.34567773 </v>
   <v>      -1.71484926       0.83447168      -0.62630944 </v>
   <v>       0.26648372       0.26648372       0.05029783 </v>
   <v>      -0.02666067       0.23790454      -0.05096202 </v>
   <v>      -0.02196994      -0.02196994       0.08741736 </v>
   <v>       0.23790454      -0.02666067      -0.05096202 </v>
   <v>      -0.10253288       0.05550240       0.11272699 </v>
   <v>      -0.37106822       0.99954891       0.77738789 </v>
   <v>       0.14300140      -0.21851296       0.15230638 </v>
   <v>      -0.05596767      -0.05226521       0.08259698 </v>
   <v>       0.05550240      -0.10253288       0.11272699 </v>
   <v>      -0.05226521      -0.05596767       0.08259698 </v>
   <v>      -0.21851296       0.14300140       0.15230638 </v>
   <v>       0.99954891      -0.37106822       0.77738789 </v>
   <v>      -0.28785003      -0.28785003       0.22181468 </v>
   <v>       0.14031268      -0.16661333       0.17124849 </v>
   <v>      -0.76340983      -0.76340983      -1.31313097 </v>
   <v>      -0.16661333       0.14031268       0.17124849 </v>
   <v>       1.12715901       1.12715901       1.33939683 </v>
  </varray>
  <varray name="stress" >
   <v>      30.32353206     -22.30911523      12.54594474 </v>
   <v>     -22.30911523      30.32353206      12.54594474 </v>
   <v>      12.54594719      12.54594719      14.36252043 </v>
  </varray>
  <energy>
   <i name="e_fr_energy">    -99.14975776 </i>
   <i name="e_wo_entrp">    -99.11282708 </i>
   <i name="e_0_energy">     -0.11079202 </i>
  </energy>
  <time name="totalsc">   10.21   10.23</time>
 </calculation>
 <calculation>
  <scstep>
   <time name="diag">    0.23    0.23</time>
   <time name="diis">    0.96    0.96</time>
   <time name="orth">    0.01    0.01</time>
   <time name="total">    1.66    1.66</time>
   <energy>
    <i name="alphaZ">     -8.27954604 </i>
    <i name="ewald">  -2388.64271306 </i>
    <i name="hartreedc">    -14.58635445 </i>
    <i name="XCdc">   -841.27064341 </i>
    <i name="pawpsdc">   1152.56685832 </i>
    <i name="pawaedc">   -119.49394010 </i>
    <i name="eentropy">     -0.09687725 </i>
    <i name="bandstr">    383.66616328 </i>
    <i name="atom">   1736.20668909 </i>
    <i name="e_fr_energy">    -99.93036361 </i>
    <i name="e_wo_entrp">    -99.83348636 </i>
    <i name="e_0_energy">    -99.89807119 </i>
   </energy>
  </scstep>
  <scstep>
   <time name="diag">    0.23    0.23</time>
   <time name="diis">    0.95    0.95</time>
   <time name="orth">    0.01    0.01</time>
   <time name="total">    1.65    1.66</time>
   <energy>
    <i name="e_fr_energy">    -99.74890036 </i>
    <i name="e_wo_entrp">    -99.64337044 </i>
    <i name="e_0_energy">    -99.71372372 </i>
   </energy>
  </scstep>
  <scstep>
   <time name="diag">    0.23    0.23</time>
   <time name="diis">    0.97    0.97</time>
   <time name="orth">    0.01    0.01</time>
   <time name="total">    1.67    1.68</time>
   <energy>
    <i name="e_fr_energy">    -99.71474416 </i>
    <i name="e_wo_entrp">    -99.60467545 </i>
    <i name="e_0_energy">    -99.67805459 </i>
   </energy>
  </scstep>
  <scstep>
   <time name="diag">    0.23    0.23</time>
   <time name="diis">    0.99    0.99</time>
   <time name="orth">    0.01    0.01</time>
   <time name="total">    1.70    1.70</time>
   <energy>
    <i name="e_fr_energy">    -99.71275738 </i>
    <i name="e_wo_entrp">    -99.60467658 </i>
    <i name="e_0_energy">    -99.67673045 </i>
   </energy>
  </scstep>
  <scstep>
   <time name="diag">    0.23    0.23</time>
   <time name="diis">    0.84    0.87</time>
   <time name="orth">    0.01    0.01</time>
   <time name="total">    1.36    1.83</time>
   <energy>
    <i name="alphaZ">     -8.27954604 </i>
    <i name="ewald">  -2388.64271306 </i>
    <i name="hartreedc">    -15.37258572 </i>
    <i name="XCdc">   -841.21780329 </i>
    <i name="pawpsdc">   1153.16232284 </i>
    <i name="pawaedc">   -120.10893517 </i>
    <i name="eentropy">     -0.10847853 </i>
    <i name="bandstr">    384.64830384 </i>
    <i name="atom">   1736.20668909 </i>
    <i name="e_fr_energy">    -99.71274604 </i>
    <i name="e_wo_entrp">    -99.60426750 </i>
    <i name="e_0_energy">    -99.67658653 </i>
   </energy>
  </scstep>
  <structure>
   <crystal>
    <varray name="basis" >
     <v>       8.08705200       0.00000000       0.00000000 </v>
     <v>       0.00000000       8.08705200       0.00000000 </v>
     <v>       0.00000000       0.00000000       8.08705200 </v>
    </varray>
    <i name="volume">    528.89651690 </i>
    <varray name="rec_basis" >
     <v>       0.12365445       0.00000000       0.00000000 </v>
     <v>       0.00000000       0.12365445       0.00000000 </v>
     <v>       0.00000000       0.00000000       0.12365445 </v>
    </varray>
   </crystal>
   <varray name="positions" >
    <v>       0.00181888       0.00181888      -0.00264128 </v>
    <v>       0.23376095       0.01853863       0.25732783 </v>
    <v>       0.24845719       0.24845719      -0.00430889 </v>
    <v>       0.01853863       0.23376095       0.25732783 </v>
    <v>       0.50222916       0.00769216      -0.00777470 </v>
    <v>       0.74925619       0.00184212       0.25026025 </v>
    <v>       0.74287094       0.23431195      -0.01770976 </v>
    <v>       0.50194974       0.24593870       0.24945571 </v>
    <v>       0.00769216       0.50222916      -0.00777470 </v>
    <v>       0.24593870       0.50194974       0.24945571 </v>
    <v>       0.23431195       0.74287094      -0.01770976 </v>
    <v>       0.00184212       0.74925619       0.25026025 </v>
    <v>       0.50044562       0.50044562       0.00079322 </v>
    <v>       0.78669316       0.42433673       0.21627975 </v>
    <v>       0.75039562       0.75039562      -0.00287795 </v>
    <v>       0.42433673       0.78669316       0.21627975 </v>
    <v>       0.00702022       0.00702022       0.49869265 </v>
    <v>       0.24804590       0.00394267       0.75138442 </v>
    <v>       0.24820776       0.24820776       0.49738596 </v>
    <v>       0.00394267       0.24804590       0.75138442 </v>
    <v>       0.50017211       0.00012880       0.49967791 </v>
    <v>       0.74285177       0.01672696       0.76426688 </v>
    <v>       0.75067461       0.24546425       0.49930481 </v>
    <v>       0.50361513       0.24770833       0.75173202 </v>
    <v>       0.00012880       0.50017211       0.49967791 </v>
    <v>       0.24770833       0.50361513       0.75173202 </v>
    <v>       0.24546425       0.75067461       0.49930481 </v>
    <v>       0.01672696       0.74285177       0.76426688 </v>
    <v>       0.47837546       0.47837546       0.52192333 </v>
    <v>       0.75108145       0.50059742       0.75407733 </v>
    <v>       0.78585539       0.78585539       0.57380435 </v>
    <v>       0.50059742       0.75108145       0.75407733 </v>
    <v>       0.67899403       0.67899403       0.31066370 </v>
   </varray>
  </structure>
  <varray name="forces" >
   <v>       0.09660715       0.09660715      -0.14280650 </v>
   <v>       0.36037699      -0.24850274       0.08169123 </v>
   <v>       0.07814648       0.07814648      -0.39710458 </v>
   <v>      -0.24850274       0.36037699       0.08169123 </v>
   <v>      -0.26096139       0.03085055      -0.01829019 </v>
   <v>       0.19097647       0.17151955      -0.17196890 </v>
   <v>      -0.08111263       0.27716375       0.18883443 </v>
   <v>      -0.23344433      -0.10892670      -0.19444064 </v>
   <v>       0.03085055      -0.26096139      -0.01829019 </v>
   <v>      -0.10892670      -0.23344433      -0.19444064 </v>
   <v>       0.27716375      -0.08111263       0.18883443 </v>
   <v>       0.17151955       0.19097647      -0.17196890 </v>
   <v>      -0.16212007      -0.16212007       0.01449246 </v>
   <v>       0.23023441      -0.51952670      -0.20263689 </v>
   <v>       0.23373938       0.23373938      -0.31636562 </v>
   <v>      -0.51952670       0.23023441      -0.20263689 </v>
   <v>       0.03664639       0.03664639       0.28953903 </v>
   <v>       0.04634451       0.39626572      -0.06765700 </v>
   <v>      -0.03817820      -0.03817820       0.36883203 </v>
   <v>       0.39626572       0.04634451      -0.06765700 </v>
   <v>      -0.16071077       0.01316452       0.16848424 </v>
   <v>      -0.06819385      -0.10847083      -0.21677634 </v>
   <v>       0.19101573      -0.14533731       0.22996244 </v>
   <v>      -0.36565148      -0.04372212       0.06404252 </v>
   <v>       0.01316452      -0.16071077       0.16848424 </v>
   <v>      -0.04372212      -0.36565148       0.06404252 </v>
   <v>      -0.14533731       0.19101573       0.22996244 </v>
   <v>      -0.10847083      -0.06819385      -0.21677634 </v>
   <v>       0.08380720       0.08380720      -0.09866951 </v>
   <v>       0.19545991      -0.21550831       0.11827838 </v>
   <v>      -0.08171815      -0.08171815      -0.17177623 </v>
   <v>      -0.21550831       0.19545991       0.11827838 </v>
   <v>       0.20976687       0.20976687       0.49481234 </v>
  </varray>
  <varray name="stress" >
   <v>      30.73730267     -16.80035890      12.48902403 </v>
   <v>     -16.80035890      30.73730267      12.48902403 </v>
   <v>      12.48903445      12.48903445      20.75309654 </v>
  </varray>
  <energy>
   <i name="e_fr_energy">    -99.71274604 </i>
   <i name="e_wo_entrp">    -99.67658653 </i>
   <i name="e_0_energy">     -0.10847853 </i>
  </energy>
  <time name="totalsc">   10.31   10.95</time>
 </calculation>
 <calculation>
  <scstep>
   <time name="diag">    0.23    0.23</time>
   <time name="diis">    0.95    0.96</time>
   <time name="orth">    0.01    0.01</time>
   <time name="total">    1.66    1.66</time>
   <energy>
    <i name="alphaZ">     -8.27954604 </i>
    <i name="ewald">  -2387.98118843 </i>
    <i name="hartreedc">    -15.86135643 </i>
    <i name="XCdc">   -841.20415891 </i>
    <i name="pawpsdc">   1153.21974242 </i>
    <i name="pawaedc">   -120.16803163 </i>
    <i name="eentropy">     -0.10689422 </i>
    <i name="bandstr">    384.45653031 </i>
    <i name="atom">   1736.20668909 </i>
    <i name="e_fr_energy">    -99.71821384 </i>
    <i name="e_wo_entrp">    -99.61131962 </i>
    <i name="e_0_energy">    -99.68258243 </i>
   </energy>
  </scstep>
  <scstep>
   <time name="diag">    0.23    0.23</time>
   <time name="diis">    0.95    0.95</time>
   <time name="orth">    0.01    0.01</time>
   <time name="total">    1.65    2.84</time>
   <energy>
    <i name="e_fr_energy">    -99.71678571 </i>
    <i name="e_wo_entrp">    -99.60997430 </i>
    <i name="e_0_energy">    -99.68118190 </i>
   </energy>
  </scstep>
  <scstep>
   <time name="diag">    0.23    0.23</time>
   <time name="diis">    0.83    0.83</time>
   <time name="orth">    0.01    0.01</time>
   <time name="total">    1.54    1.54</time>
   <energy>
    <i name="e_fr_energy">    -99.71654528 </i>
    <i name="e_wo_entrp">    -99.60946990 </i>
    <i name="e_0_energy">    -99.68085349 </i>
   </energy>
  </scstep>
  <scstep>
   <time name="diag">    0.23    0.23</time>
   <time name="diis">    0.64    0.64</time>
   <time name="orth">    0.01    0.01</time>
   <time name="total">    1.16    1.16</time>
   <energy>
    <i name="alphaZ">     -8.27954604 </i>
    <i name="ewald">  -2387.98118843 </i>
    <i name="hartreedc">    -15.94417871 </i>
    <i name="XCdc">   -841.19603069 </i>
    <i name="pawpsdc">   1153.32825588 </i>
    <i name="pawaedc">   -120.28089155 </i>
    <i name="eentropy">     -0.10684003 </i>
    <i name="bandstr">    384.53719573 </i>
    <i name="atom">   1736.20668909 </i>
    <i name="e_fr_energy">    -99.71653474 </i>
    <i name="e_wo_entrp">    -99.60969471 </i>
    <i name="e_0_energy">    -99.68092140 </i>
   </energy>
  </scstep>
  <structure>
   <crystal>
    <varray name="basis" >
     <v>       8.08705200       0.00000000       0.00000000 </v>
     <v>       0.00000000       8.08705200       0.00000000 </v>
     <v>       0.00000000       0.00000000       8.08705200 </v>
    </varray>
    <i name="volume">    528.89651690 </i>
    <varray name="rec_basis" >
     <v>       0.12365445       0.00000000       0.00000000 </v>
     <v>       0.00000000       0.12365445       0.00000000 </v>
     <v>       0.00000000       0.00000000       0.12365445 </v>
    </varray>
   </crystal>
   <varray name="positions" >
    <v>       0.00186879       0.00186879      -0.00274824 </v>
    <v>       0.23334657       0.01902440       0.25763116 </v>
    <v>       0.24846013       0.24846013      -0.00454594 </v>
    <v>       0.01902440       0.23334657       0.25763116 </v>
    <v>       0.50229081       0.00795979      -0.00803701 </v>
    <v>       0.74930035       0.00198211       0.25019933 </v>
    <v>       0.74256298       0.23383878      -0.01824046 </v>
    <v>       0.50196477       0.24574872       0.24938399 </v>
    <v>       0.00795979       0.50229081      -0.00803701 </v>
    <v>       0.24574872       0.50196477       0.24938399 </v>
    <v>       0.23383878       0.74256298      -0.01824046 </v>
    <v>       0.00198211       0.74930035       0.25019933 </v>
    <v>       0.50040448       0.50040448       0.00078515 </v>
    <v>       0.78706494       0.42335335       0.21596189 </v>
    <v>       0.75050512       0.75050512      -0.00311832 </v>
    <v>       0.42335335       0.78706494       0.21596189 </v>
    <v>       0.00730363       0.00730363       0.49866482 </v>
    <v>       0.24800936       0.00411819       0.75137541 </v>
    <v>       0.24814800       0.24814800       0.49735026 </v>
    <v>       0.00411819       0.24800936       0.75137541 </v>
    <v>       0.50012104       0.00018154       0.49972852 </v>
    <v>       0.74249708       0.01754349       0.76493102 </v>
    <v>       0.75076513       0.24525007       0.49936326 </v>
    <v>       0.50369083       0.24762565       0.75181272 </v>
    <v>       0.00018154       0.50012104       0.49972852 </v>
    <v>       0.24762565       0.50369083       0.75181272 </v>
    <v>       0.24525007       0.75076513       0.49936326 </v>
    <v>       0.01754349       0.74249708       0.76493102 </v>
    <v>       0.47783016       0.47783016       0.52244133 </v>
    <v>       0.75118121       0.50052987       0.75426001 </v>
    <v>       0.78578362       0.78578362       0.57383304 </v>
    <v>       0.50052987       0.75118121       0.75426001 </v>
    <v>       0.67974504       0.67974504       0.31059824 </v>
   </varray>
  </structure>
  <varray name="forces" >
   <v>       0.09978067       0.09978067      -0.14227458 </v>
   <v>       0.40374689      -0.28716012       0.06733106 </v>
   <v>       0.08142185       0.08142185      -0.40128548 </v>
   <v>      -0.28716012       0.40374689       0.06733106 </v>
   <v>      -0.28287393       0.01559014      -0.00297306 </v>
   <v>       0.19907211       0.17642905      -0.17634256 </v>
   <v>      -0.06382128       0.33517065       0.24193954 </v>
   <v>      -0.24916390      -0.10226991      -0.20364094 </v>
   <v>       0.01559014      -0.28287393      -0.00297306 </v>
   <v>      -0.10226991      -0.24916390      -0.20364094 </v>
   <v>       0.33517065      -0.06382128       0.24193954 </v>
   <v>       0.17642905       0.19907211      -0.17634256 </v>
   <v>      -0.16874726      -0.16874726       0.01449717 </v>
   <v>       0.18832972      -0.43348348      -0.17232561 </v>
   <v>       0.23628580       0.23628580      -0.31364780 </v>
   <v>      -0.43348348       0.18832972      -0.17232561 </v>
   <v>       0.01579050       0.01579050       0.31038011 </v>
   <v>       0.05199435       0.41136611      -0.06871480 </v>
   <v>      -0.04088392      -0.04088392       0.39459817 </v>
   <v>       0.41136611       0.05199435      -0.06871480 </v>
   <v>      -0.16548022       0.00979161       0.17287886 </v>
   <v>      -0.03859335      -0.21191471      -0.31081968 </v>
   <v>       0.19652760      -0.13998684       0.23534448 </v>
   <v>      -0.39507385      -0.04362591       0.06343243 </v>
   <v>       0.00979161      -0.16548022       0.17287886 </v>
   <v>      -0.04362591      -0.39507385       0.06343243 </v>
   <v>      -0.13998684       0.19652760       0.23534448 </v>
   <v>      -0.21191471      -0.03859335      -0.31081968 </v>
   <v>       0.11530378       0.11530378      -0.12492006 </v>
   <v>       0.20053949      -0.21936456       0.11471739 </v>
   <v>      -0.03085724      -0.03085724      -0.08605914 </v>
   <v>      -0.21936456       0.20053949       0.11471739 </v>
   <v>       0.13616018       0.13616018       0.42705739 </v>
  </varray>
  <varray name="stress" >
   <v>      31.09430697     -16.44393351      12.51042357 </v>
   <v>     -16.44393351      31.09430697      12.51042357 </v>
   <v>      12.51044715      12.51044715      21.69897344 </v>
  </varray>
  <energy>
   <i name="e_fr_energy">    -99.71653474 </i>
   <i name="e_wo_entrp">    -99.68092140 </i>
   <i name="e_0_energy">     -0.10684003 </i>
  </energy>
  <time name="totalsc">    8.25    9.81</time>
 </calculation>
 <calculation>
  <scstep>
   <time name="diag">    0.23    0.23</time>
   <time name="diis">    0.96    0.96</time>
   <time name="orth">    0.01    0.01</time>
   <time name="total">    1.66    1.66</time>
   <energy>
    <i name="alphaZ">     -8.27954604 </i>
    <i name="ewald">  -2386.78272903 </i>
    <i name="hartreedc">    -17.10163708 </i>
    <i name="XCdc">   -841.17758787 </i>
    <i name="pawpsdc">   1153.34619006 </i>
    <i name="pawaedc">   -120.29957409 </i>
    <i name="eentropy">     -0.04086015 </i>
    <i name="bandstr">    384.20988921 </i>
    <i name="atom">   1736.20668909 </i>
    <i name="e_fr_energy">    -99.91916590 </i>
    <i name="e_wo_entrp">    -99.87830575 </i>
    <i name="e_0_energy">    -99.90554585 </i>
   </energy>
  </scstep>
  <scstep>
   <time name="diag">    0.23    0.23</time>
   <time name="diis">    0.95    0.95</time>
   <time name="orth">    0.01    0.01</time>
   <time name="total">    1.66    1.82</time>
   <energy>
    <i name="e_fr_energy">    -99.88431558 </i>
[...]
   <v>       0.01706071      -0.02407051       0.02591483 </v>
   <v>      -0.09629338      -0.01012777      -0.07962964 </v>
   <v>       0.02707220       0.02707220      -0.03480525 </v>
   <v>      -0.02848910      -0.00440623      -0.00767116 </v>
   <v>       0.00891370       0.00891370       0.12137691 </v>
   <v>      -0.00440623      -0.02848910      -0.00767116 </v>
   <v>       0.06237990       0.06237990      -0.10920930 </v>
  </varray>
  <varray name="stress" >
   <v>      47.24020942      -6.01819358       6.97340453 </v>
   <v>      -6.01819358      47.24020942       6.97340453 </v>
   <v>       6.97340409       6.97340409      44.27031363 </v>
  </varray>
  <energy>
   <i name="e_fr_energy">   -100.78342387 </i>
   <i name="e_wo_entrp">   -100.79999453 </i>
   <i name="e_0_energy">      0.04971199 </i>
  </energy>
  <time name="totalsc">    8.05    8.06</time>
  <eigenvalues>
   <array>
    <dimension dim="1">band</dimension>
    <dimension dim="2">kpoint</dimension>
    <dimension dim="3">spin</dimension>
    <field>eigene</field>
    <field>occ</field>
    <set>
     <set comment="spin 1">
      <set comment="kpoint 1">
       <r>   -3.1382    1.0000 </r>
       <r>   -1.1640    1.0000 </r>
       <r>   -1.1517    1.0000 </r>
       <r>   -0.8478    1.0000 </r>
       <r>   -0.8253    1.0000 </r>
       <r>   -0.8094    1.0000 </r>
       <r>   -0.5128    1.0000 </r>
       <r>    0.8729    1.0000 </r>
       <r>    0.8984    1.0000 </r>
       <r>    1.1192    1.0000 </r>
       <r>    1.3433    1.0000 </r>
       <r>    1.3455    1.0000 </r>
       <r>    1.3947    1.0000 </r>
       <r>    1.4577    1.0000 </r>
       <r>    1.4701    1.0000 </r>
       <r>    1.6671    1.0000 </r>
       <r>    1.6842    1.0000 </r>
       <r>    1.7170    1.0000 </r>
       <r>    1.8119    1.0000 </r>
       <r>    3.1636    1.0000 </r>
       <r>    3.5665    1.0000 </r>
       <r>    3.5874    1.0000 </r>
       <r>    3.5933    1.0000 </r>
       <r>    3.7079    1.0000 </r>
       <r>    3.7085    1.0000 </r>
       <r>    3.7648    1.0000 </r>
       <r>    3.8436    1.0000 </r>
       <r>    5.1018    1.0000 </r>
       <r>    5.1860    1.0000 </r>
       <r>    5.1979    1.0000 </r>
       <r>    6.1595    1.0000 </r>
       <r>    6.4534    1.0000 </r>
       <r>    6.4619    1.0000 </r>
       <r>    6.6740    1.0000 </r>
       <r>    6.8648    1.0000 </r>
       <r>    6.8737    1.0000 </r>
       <r>    7.0531    1.0000 </r>
       <r>    7.2140    1.0000 </r>
       <r>    7.2202    1.0000 </r>
       <r>    7.2938    1.0000 </r>
       <r>    7.3725    1.0000 </r>
       <r>    7.3971    1.0000 </r>
       <r>    7.5119    1.0000 </r>
       <r>    7.5330    1.0000 </r>
       <r>    7.5874    1.0000 </r>
       <r>    7.7041    1.0000 </r>
       <r>    7.7267    1.0000 </r>
       <r>    8.1334    1.0348 </r>
       <r>    8.2679    0.9284 </r>
       <r>    8.5197    0.0629 </r>
       <r>    8.5500    0.0123 </r>
       <r>    8.7340   -0.0181 </r>
       <r>    8.7608   -0.0128 </r>
       <r>    8.8082   -0.0061 </r>
       <r>    8.9014   -0.0009 </r>
       <r>    8.9343   -0.0004 </r>
       <r>    8.9566   -0.0002 </r>
       <r>    9.1598    0.0000 </r>
       <r>    9.2287    0.0000 </r>
       <r>    9.2514    0.0000 </r>
       <r>    9.2893    0.0000 </r>
       <r>    9.3103    0.0000 </r>
       <r>    9.4545    0.0000 </r>
       <r>    9.4841    0.0000 </r>
       <r>    9.4856    0.0000 </r>
       <r>    9.6152    0.0000 </r>
       <r>    9.7533    0.0000 </r>
       <r>    9.7569    0.0000 </r>
       <r>    9.8106    0.0000 </r>
       <r>   10.1615    0.0000 </r>
       <r>   10.1998    0.0000 </r>
       <r>   10.7122    0.0000 </r>
      </set>
     </set>
    </set>
   </array>
  </eigenvalues>
  <separator name="orbital magnetization" >
   <v name="MAGDIPOLOUT">      0.00000000      0.00000000      0.00000000</v>
  </separator>
  <dos>
   <i name="efermi">      8.39174852 </i>
   <total>
    <array>
     <dimension dim="1">gridpoints</dimension>
     <dimension dim="2">spin</dimension>
     <field>energy</field>
     <field>total</field>
     <field>integrated</field>
     <set>
      <set comment="spin 1">
       <r>  -5.1382   0.0000   0.0000 </r>
       <r>  -5.0787   0.0000   0.0000 </r>
       <r>  -5.0192   0.0000   0.0000 </r>
       <r>  -4.9597   0.0000   0.0000 </r>
       <r>  -4.9002   0.0000   0.0000 </r>
       <r>  -4.8407   0.0000   0.0000 </r>
       <r>  -4.7812   0.0000   0.0000 </r>
       <r>  -4.7217   0.0000   0.0000 </r>
       <r>  -4.6622   0.0000   0.0000 </r>
       <r>  -4.6027   0.0000   0.0000 </r>
       <r>  -4.5432   0.0000   0.0000 </r>
       <r>  -4.4837   0.0000   0.0000 </r>
       <r>  -4.4242   0.0000   0.0000 </r>
       <r>  -4.3647   0.0000   0.0000 </r>
       <r>  -4.3052   0.0000   0.0000 </r>
       <r>  -4.2457   0.0000   0.0000 </r>
       <r>  -4.1862   0.0000   0.0000 </r>
       <r>  -4.1267   0.0000   0.0000 </r>
       <r>  -4.0672   0.0000   0.0000 </r>
       <r>  -4.0077   0.0000   0.0000 </r>
       <r>  -3.9482   0.0000   0.0000 </r>
       <r>  -3.8887   0.0000   0.0000 </r>
       <r>  -3.8292  -0.0002   0.0000 </r>
       <r>  -3.7697  -0.0011  -0.0001 </r>
       <r>  -3.7102  -0.0055  -0.0004 </r>
       <r>  -3.6507  -0.0226  -0.0017 </r>
       <r>  -3.5912  -0.0749  -0.0062 </r>
       <r>  -3.5317  -0.1940  -0.0177 </r>
       <r>  -3.4722  -0.3700  -0.0398 </r>
       <r>  -3.4127  -0.4321  -0.0655 </r>
       <r>  -3.3532   0.0499  -0.0625 </r>
       <r>  -3.2937   1.5879   0.0320 </r>
       <r>  -3.2342   4.2087   0.2824 </r>
       <r>  -3.1747   6.9693   0.6971 </r>
       <r>  -3.1152   8.3444   1.1936 </r>
       <r>  -3.0557   7.4513   1.6370 </r>
       <r>  -2.9962   4.8711   1.9268 </r>
       <r>  -2.9367   2.1013   2.0518 </r>
       <r>  -2.8772   0.2908   2.0691 </r>
       <r>  -2.8177  -0.3908   2.0459 </r>
       <r>  -2.7582  -0.4051   2.0218 </r>
       <r>  -2.6987  -0.2312   2.0080 </r>
       <r>  -2.6392  -0.0950   2.0024 </r>
       <r>  -2.5797  -0.0302   2.0006 </r>
       <r>  -2.5202  -0.0077   2.0001 </r>
       <r>  -2.4607  -0.0016   2.0000 </r>
       <r>  -2.4011  -0.0003   2.0000 </r>
       <r>  -2.3416   0.0000   2.0000 </r>
       <r>  -2.2821   0.0000   2.0000 </r>
       <r>  -2.2226   0.0000   2.0000 </r>
       <r>  -2.1631   0.0000   2.0000 </r>
       <r>  -2.1036   0.0000   2.0000 </r>
       <r>  -2.0441   0.0000   2.0000 </r>
       <r>  -1.9846   0.0000   2.0000 </r>
       <r>  -1.9251   0.0000   2.0000 </r>
       <r>  -1.8656  -0.0002   2.0000 </r>
       <r>  -1.8061  -0.0013   1.9999 </r>
       <r>  -1.7466  -0.0071   1.9995 </r>
       <r>  -1.6871  -0.0312   1.9976 </r>
       <r>  -1.6276  -0.1099   1.9911 </r>
       <r>  -1.5681  -0.3055   1.9729 </r>
       <r>  -1.5086  -0.6402   1.9348 </r>
       <r>  -1.4491  -0.8934   1.8817 </r>
       <r>  -1.3896  -0.3617   1.8601 </r>
       <r>  -1.3301   1.9798   1.9779 </r>
       <r>  -1.2706   6.5153   2.3656 </r>
       <r>  -1.2111  11.8443   3.0704 </r>
       <r>  -1.1516  15.1449   3.9715 </r>
       <r>  -1.0921  14.6820   4.8451 </r>
       <r>  -1.0326  12.1413   5.5675 </r>
       <r>  -0.9731  11.5777   6.2564 </r>
       <r>  -0.9136  15.2738   7.1652 </r>
       <r>  -0.8541  20.8949   8.4085 </r>
       <r>  -0.7946  23.5026   9.8069 </r>
       <r>  -0.7351  20.5347  11.0288 </r>
       <r>  -0.6756  14.2445  11.8763 </r>
       <r>  -0.6161   9.0378  12.4141 </r>
       <r>  -0.5566   7.0902  12.8360 </r>
       <r>  -0.4971   7.0737  13.2569 </r>
       <r>  -0.4376   6.5493  13.6466 </r>
       <r>  -0.3781   4.6154  13.9212 </r>
       <r>  -0.3186   2.1596  14.0497 </r>
       <r>  -0.2591   0.3715  14.0718 </r>
       <r>  -0.1996  -0.3734  14.0496 </r>
       <r>  -0.1401  -0.4250  14.0243 </r>
       <r>  -0.0806  -0.2535  14.0092 </r>
       <r>  -0.0211  -0.1077  14.0028 </r>
       <r>   0.0384  -0.0353  14.0007 </r>
       <r>   0.0979  -0.0092  14.0001 </r>
       <r>   0.1574  -0.0020  14.0000 </r>
       <r>   0.2169  -0.0011  14.0000 </r>
       <r>   0.2764  -0.0043  13.9997 </r>
       <r>   0.3359  -0.0199  13.9985 </r>
       <r>   0.3954  -0.0749  13.9941 </r>
       <r>   0.4549  -0.2246  13.9807 </r>
       <r>   0.5144  -0.5184  13.9498 </r>
       <r>   0.5739  -0.8482  13.8994 </r>
       <r>   0.6334  -0.6966  13.8579 </r>
       <r>   0.6929   0.9002  13.9115 </r>
       <r>   0.7524   4.7027  14.1913 </r>
       <r>   0.8119  10.1236  14.7937 </r>
       <r>   0.8714  14.9062  15.6806 </r>
       <r>   0.9309  16.6533  16.6715 </r>
       <r>   0.9904  14.9371  17.5603 </r>
       <r>   1.0499  11.5699  18.2487 </r>
       <r>   1.1094   8.9672  18.7823 </r>
       <r>   1.1689   8.9318  19.3137 </r>
       <r>   1.2284  12.6357  20.0656 </r>
       <r>   1.2879  20.0998  21.2615 </r>
       <r>   1.3474  28.9130  22.9819 </r>
       <r>   1.4069  34.7571  25.0500 </r>
       <r>   1.4664  34.8081  27.1211 </r>
       <r>   1.5259  30.6867  28.9470 </r>
       <r>   1.5854  27.0527  30.5567 </r>
       <r>   1.6449  26.8445  32.1540 </r>
       <r>   1.7044  28.4202  33.8450 </r>
       <r>   1.7639  27.7061  35.4936 </r>
       <r>   1.8234  22.5515  36.8354 </r>
       <r>   1.8829  14.4673  37.6962 </r>
       <r>   1.9424   6.7130  38.0957 </r>
       <r>   2.0019   1.5633  38.1887 </r>
       <r>   2.0614  -0.7082  38.1465 </r>
       <r>   2.1209  -1.1050  38.0808 </r>
       <r>   2.1805  -0.7703  38.0349 </r>
       <r>   2.2400  -0.3812  38.0123 </r>
       <r>   2.2995  -0.1466  38.0035 </r>
       <r>   2.3590  -0.0453  38.0008 </r>
       <r>   2.4185  -0.0114  38.0002 </r>
       <r>   2.4780  -0.0026  38.0000 </r>
       <r>   2.5375  -0.0016  37.9999 </r>
       <r>   2.5970  -0.0063  37.9995 </r>
       <r>   2.6565  -0.0254  37.9980 </r>
       <r>   2.7160  -0.0824  37.9931 </r>
       <r>   2.7755  -0.2083  37.9807 </r>
       <r>   2.8350  -0.3847  37.9578 </r>
       <r>   2.8945  -0.4199  37.9329 </r>
       <r>   2.9540   0.1346  37.9409 </r>
       <r>   3.0135   1.7655  38.0459 </r>
       <r>   3.0730   4.3940  38.3074 </r>
       <r>   3.1325   6.9173  38.7189 </r>
       <r>   3.1920   7.7019  39.1772 </r>
       <r>   3.2515   5.9763  39.5328 </r>
       <r>   3.3110   2.9089  39.7059 </r>
       <r>   3.3705   1.2905  39.7827 </r>
       <r>   3.4300   3.9576  40.0182 </r>
       <r>   3.4895  11.9079  40.7267 </r>
       <r>   3.5490  23.2757  42.1116 </r>
       <r>   3.6085  34.1121  44.1413 </r>
       <r>   3.6680  40.6095  46.5577 </r>
       <r>   3.7275  40.9567  48.9946 </r>
       <r>   3.7870  35.5918  51.1124 </r>
       <r>   3.8465  26.4634  52.6870 </r>
       <r>   3.9060  16.2498  53.6539 </r>
       <r>   3.9655   7.5331  54.1021 </r>
       <r>   4.0250   1.8607  54.2128 </r>
       <r>   4.0845  -0.7220  54.1699 </r>
       <r>   4.1440  -1.2414  54.0960 </r>
       <r>   4.2035  -0.8989  54.0425 </r>
       <r>   4.2630  -0.4581  54.0153 </r>
       <r>   4.3225  -0.1808  54.0045 </r>
       <r>   4.3820  -0.0572  54.0011 </r>
       <r>   4.4415  -0.0152  54.0002 </r>
       <r>   4.5010  -0.0060  53.9998 </r>
       <r>   4.5605  -0.0144  53.9990 </r>
       <r>   4.6200  -0.0543  53.9957 </r>
       <r>   4.6795  -0.1721  53.9855 </r>
       <r>   4.7390  -0.4336  53.9597 </r>
       <r>   4.7985  -0.8261  53.9105 </r>
       <r>   4.8580  -1.0261  53.8495 </r>
       <r>   4.9175  -0.1684  53.8395 </r>
       <r>   4.9770   2.9523  54.0151 </r>
       <r>   5.0365   8.9002  54.5447 </r>
       <r>   5.0960  16.3599  55.5181 </r>
       <r>   5.1555  22.0908  56.8326 </r>
       <r>   5.2150  22.9072  58.1956 </r>
       <r>   5.2745  18.2551  59.2818 </r>
       <r>   5.3340  10.7526  59.9216 </r>
       <r>   5.3935   4.0320  60.1615 </r>
       <r>   5.4530   0.1463  60.1702 </r>
       <r>   5.5125  -1.0942  60.1051 </r>
       <r>   5.5720  -0.9634  60.0478 </r>
       <r>   5.6315  -0.5328  60.0161 </r>
       <r>   5.6910  -0.2621  60.0005 </r>
       <r>   5.7505  -0.2198  59.9874 </r>
       <r>   5.8100  -0.3413  59.9671 </r>
       <r>   5.8695  -0.4570  59.9399 </r>
       <r>   5.9290  -0.1921  59.9285 </r>
       <r>   5.9885   0.9564  59.9854 </r>
       <r>   6.0480   3.1457  60.1725 </r>
       <r>   6.1075   5.6707  60.5100 </r>
       <r>   6.1670   7.2754  60.9429 </r>
       <r>   6.2265   7.4829  61.3881 </r>
       <r>   6.2860   7.5134  61.8352 </r>
       <r>   6.3455   9.1946  62.3822 </r>
       <r>   6.4050  12.6835  63.1369 </r>
       <r>   6.4645  15.8591  64.0806 </r>
       <r>   6.5240  16.4781  65.0610 </r>
       <r>   6.5835  14.5670  65.9278 </r>
       <r>   6.6430  12.2617  66.6574 </r>
       <r>   6.7026  11.6931  67.3531 </r>
       <r>   6.7621  13.3834  68.1495 </r>
       <r>   6.8216  16.1234  69.1088 </r>
       <r>   6.8811  17.9149  70.1748 </r>
       <r>   6.9406  17.5307  71.2179 </r>
       <r>   7.0001  15.7275  72.1537 </r>
       <r>   7.0596  14.8151  73.0352 </r>
       <r>   7.1191  16.7607  74.0325 </r>
       <r>   7.1786  21.5707  75.3160 </r>
       <r>   7.2381  27.3227  76.9417 </r>
       <r>   7.2976  31.7045  78.8282 </r>
       <r>   7.3571  33.6968  80.8332 </r>
       <r>   7.4166  33.9375  82.8525 </r>
       <r>   7.4761  33.6104  84.8524 </r>
       <r>   7.5356  33.1811  86.8267 </r>
       <r>   7.5951  32.1717  88.7410 </r>
       <r>   7.6546  29.7399  90.5105 </r>
       <r>   7.7141  25.2310  92.0118 </r>
       <r>   7.7736  18.6256  93.1200 </r>
       <r>   7.8331  11.0185  93.7757 </r>
       <r>   7.8926   4.5141  94.0443 </r>
       <r>   7.9521   1.1429  94.1123 </r>
       <r>   8.0116   1.6308  94.2093 </r>
       <r>   8.0711   5.0317  94.5087 </r>
       <r>   8.1306   9.2841  95.0611 </r>
       <r>   8.1901  12.2248  95.7885 </r>
       <r>   8.2496  12.6713  96.5425 </r>
       <r>   8.3091  11.1473  97.2057 </r>
       <r>   8.3686   9.6275  97.7786 </r>
       <r>   8.4281  10.0303  98.3754 </r>
       <r>   8.4876  12.5314  99.1210 </r>
       <r>   8.5471  15.6535 100.0524 </r>
       <r>   8.6066  18.3120 101.1420 </r>
       <r>   8.6661  21.1897 102.4028 </r>
       <r>   8.7256  25.4800 103.9189 </r>
       <r>   8.7851  30.7297 105.7474 </r>
       <r>   8.8446  34.5869 107.8053 </r>
       <r>   8.9041  34.5672 109.8621 </r>
       <r>   8.9636  30.1358 111.6553 </r>
       <r>   9.0231  23.7771 113.0700 </r>
       <r>   9.0826  19.9830 114.2590 </r>
       <r>   9.1421  21.9646 115.5660 </r>
       <r>   9.2016  28.6529 117.2709 </r>
       <r>   9.2611  35.4849 119.3822 </r>
       <r>   9.3206  38.5813 121.6779 </r>
       <r>   9.3801  37.6779 123.9198 </r>
       <r>   9.4396  34.8290 125.9921 </r>
       <r>   9.4991  31.5196 127.8676 </r>
       <r>   9.5586  28.2359 129.5477 </r>
       <r>   9.6181  25.8862 131.0879 </r>
       <r>   9.6776  25.5438 132.6078 </r>
       <r>   9.7371  26.3952 134.1784 </r>
       <r>   9.7966  25.4714 135.6940 </r>
       <r>   9.8561  20.5223 136.9151 </r>
       <r>   9.9156  12.8017 137.6768 </r>
       <r>   9.9751   6.3998 138.0576 </r>
       <r>  10.0346   4.8354 138.3453 </r>
       <r>  10.0941   8.2237 138.8346 </r>
       <r>  10.1536  13.2461 139.6228 </r>
       <r>  10.2131  15.7161 140.5579 </r>
       <r>  10.2726  13.6771 141.3717 </r>
       <r>  10.3321   8.4854 141.8766 </r>
       <r>  10.3916   3.1541 142.0643 </r>
       <r>  10.4511  -0.0493 142.0613 </r>
       <r>  10.5106  -0.4967 142.0318 </r>
       <r>  10.5701   1.3506 142.1121 </r>
       <r>  10.6296   4.4550 142.3772 </r>
       <r>  10.6891   7.2829 142.8106 </r>
       <r>  10.7486   8.2913 143.3039 </r>
       <r>  10.8081   6.9559 143.7178 </r>
       <r>  10.8676   4.2060 143.9681 </r>
       <r>  10.9271   1.5874 144.0625 </r>
       <r>  10.9866   0.0499 144.0655 </r>
       <r>  11.0461  -0.4321 144.0398 </r>
       <r>  11.1056  -0.3700 144.0177 </r>
       <r>  11.1651  -0.1940 144.0062 </r>
       <r>  11.2246  -0.0749 144.0017 </r>
       <r>  11.2842  -0.0226 144.0004 </r>
       <r>  11.3437  -0.0055 144.0001 </r>
       <r>  11.4032  -0.0011 144.0000 </r>
       <r>  11.4627  -0.0002 144.0000 </r>
       <r>  11.5222   0.0000 144.0000 </r>
       <r>  11.5817   0.0000 144.0000 </r>
       <r>  11.6412   0.0000 144.0000 </r>
       <r>  11.7007   0.0000 144.0000 </r>
       <r>  11.7602   0.0000 144.0000 </r>
       <r>  11.8197   0.0000 144.0000 </r>
       <r>  11.8792   0.0000 144.0000 </r>
       <r>  11.9387   0.0000 144.0000 </r>
       <r>  11.9982   0.0000 144.0000 </r>
       <r>  12.0577   0.0000 144.0000 </r>
       <r>  12.1172   0.0000 144.0000 </r>
       <r>  12.1767   0.0000 144.0000 </r>
       <r>  12.2362   0.0000 144.0000 </r>
       <r>  12.2957   0.0000 144.0000 </r>
       <r>  12.3552   0.0000 144.0000 </r>
       <r>  12.4147   0.0000 144.0000 </r>
       <r>  12.4742   0.0000 144.0000 </r>
       <r>  12.5337   0.0000 144.0000 </r>
       <r>  12.5932   0.0000 144.0000 </r>
       <r>  12.6527   0.0000 144.0000 </r>
       <r>  12.7122   0.0000 144.0000 </r>
      </set>
     </set>
    </array>
   </total>
  </dos>
 </calculation>
 <structure name="finalpos" >
  <crystal>
   <varray name="basis" >
    <v>       8.08705200       0.00000000       0.00000000 </v>
    <v>       0.00000000       8.08705200       0.00000000 </v>
    <v>       0.00000000       0.00000000       8.08705200 </v>
   </varray>
   <i name="volume">    528.89651690 </i>
   <varray name="rec_basis" >
    <v>       0.12365445       0.00000000       0.00000000 </v>
    <v>       0.00000000       0.12365445       0.00000000 </v>
    <v>       0.00000000       0.00000000       0.12365445 </v>
   </varray>
  </crystal>
  <varray name="positions" >
   <v>       0.00975497       0.00975497      -0.01120872 </v>
   <v>       0.24516589       0.02777352       0.26639445 </v>
   <v>       0.25166154       0.25166154      -0.01743671 </v>
   <v>       0.02777352       0.24516589       0.26639445 </v>
   <v>       0.48776546       0.00540301      -0.00542156 </v>
   <v>       0.77012884       0.04458878       0.23092075 </v>
   <v>       0.73517780       0.24333654      -0.02997312 </v>
   <v>       0.48297072       0.23662363       0.24331946 </v>
   <v>       0.00540301       0.48776546      -0.00542156 </v>
   <v>       0.23662363       0.48297072       0.24331946 </v>
   <v>       0.24333654       0.73517780      -0.02997312 </v>
   <v>       0.04458878       0.77012884       0.23092075 </v>
   <v>       0.48724971       0.48724971      -0.00638522 </v>
   <v>       0.76508740       0.39723765       0.23604171 </v>
   <v>       0.77068278       0.77068278      -0.04558184 </v>
   <v>       0.39723765       0.76508740       0.23604171 </v>
   <v>       0.00645375       0.00645375       0.51576848 </v>
   <v>       0.25071193       0.01714271       0.74874026 </v>
   <v>       0.24313304       0.24313304       0.52180255 </v>
   <v>       0.01714271       0.25071193       0.74874026 </v>
   <v>       0.48816602       0.00748581       0.51289964 </v>
   <v>       0.73861077       0.02594267       0.75422828 </v>
   <v>       0.75741054       0.23563442       0.51829405 </v>
   <v>       0.48005519       0.24185146       0.75795050 </v>
   <v>       0.00748581       0.48816602       0.51289964 </v>
   <v>       0.24185146       0.48005519       0.75795050 </v>
   <v>       0.23563442       0.75741054       0.51829405 </v>
   <v>       0.02594267       0.73861077       0.75422828 </v>
   <v>       0.48786084       0.48786084       0.51395589 </v>
   <v>       0.75685264       0.48520394       0.76258632 </v>
   <v>       0.76522207       0.76522207       0.58909114 </v>
   <v>       0.48520394       0.75685264       0.76258632 </v>
   <v>       0.71165397       0.71165397       0.27803294 </v>
  </varray>
 </structure>
</modeling>
